 Entering Gaussian System, Link 0=g16
 Input=AEMRFAOFKBGASW-UHFFFAOYSA-N.gjf
 Output=AEMRFAOFKBGASW-UHFFFAOYSA-N.log
 Initial command:
 /sw/arch/RedHatEnterpriseServer7/EB_production/2019/software/Gaussian/g16.c01/l1.exe "/scratch-local/elenaa.9715177/Gau-15554.inp" -scrdir="/scratch-local/elenaa.9715177/"
 Entering Link 1 = /sw/arch/RedHatEnterpriseServer7/EB_production/2019/software/Gaussian/g16.c01/l1.exe PID=     15556.
  
 Copyright (c) 1988-2019, Gaussian, Inc.  All Rights Reserved.
  
 This is part of the Gaussian(R) 16 program.  It is based on
 the Gaussian(R) 09 system (copyright 2009, Gaussian, Inc.),
 the Gaussian(R) 03 system (copyright 2003, Gaussian, Inc.),
 the Gaussian(R) 98 system (copyright 1998, Gaussian, Inc.),
 the Gaussian(R) 94 system (copyright 1995, Gaussian, Inc.),
 the Gaussian 92(TM) system (copyright 1992, Gaussian, Inc.),
 the Gaussian 90(TM) system (copyright 1990, Gaussian, Inc.),
 the Gaussian 88(TM) system (copyright 1988, Gaussian, Inc.),
 the Gaussian 86(TM) system (copyright 1986, Carnegie Mellon
 University), and the Gaussian 82(TM) system (copyright 1983,
 Carnegie Mellon University). Gaussian is a federally registered
 trademark of Gaussian, Inc.
  
 This software contains proprietary and confidential information,
 including trade secrets, belonging to Gaussian, Inc.
  
 This software is provided under written license and may be
 used, copied, transmitted, or stored only in accord with that
 written license.
  
 The following legend is applicable only to US Government
 contracts under FAR:
  
                    RESTRICTED RIGHTS LEGEND
  
 Use, reproduction and disclosure by the US Government is
 subject to restrictions as set forth in subparagraphs (a)
 and (c) of the Commercial Computer Software - Restricted
 Rights clause in FAR 52.227-19.
  
 Gaussian, Inc.
 340 Quinnipiac St., Bldg. 40, Wallingford CT 06492
  
  
 ---------------------------------------------------------------
 Warning -- This program may not be used in any manner that
 competes with the business of Gaussian, Inc. or will provide
 assistance to any competitor of Gaussian, Inc.  The licensee
 of this program is prohibited from giving any competitor of
 Gaussian, Inc. access to this program.  By using this program,
 the user acknowledges that Gaussian, Inc. is engaged in the
 business of creating and licensing software in the field of
 computational chemistry and represents and warrants to the
 licensee that it is not a competitor of Gaussian, Inc. and that
 it will not use this program in any manner prohibited above.
 ---------------------------------------------------------------
  

 Cite this work as:
 Gaussian 16, Revision C.01,
 M. J. Frisch, G. W. Trucks, H. B. Schlegel, G. E. Scuseria, 
 M. A. Robb, J. R. Cheeseman, G. Scalmani, V. Barone, 
 G. A. Petersson, H. Nakatsuji, X. Li, M. Caricato, A. V. Marenich, 
 J. Bloino, B. G. Janesko, R. Gomperts, B. Mennucci, H. P. Hratchian, 
 J. V. Ortiz, A. F. Izmaylov, J. L. Sonnenberg, D. Williams-Young, 
 F. Ding, F. Lipparini, F. Egidi, J. Goings, B. Peng, A. Petrone, 
 T. Henderson, D. Ranasinghe, V. G. Zakrzewski, J. Gao, N. Rega, 
 G. Zheng, W. Liang, M. Hada, M. Ehara, K. Toyota, R. Fukuda, 
 J. Hasegawa, M. Ishida, T. Nakajima, Y. Honda, O. Kitao, H. Nakai, 
 T. Vreven, K. Throssell, J. A. Montgomery, Jr., J. E. Peralta, 
 F. Ogliaro, M. J. Bearpark, J. J. Heyd, E. N. Brothers, K. N. Kudin, 
 V. N. Staroverov, T. A. Keith, R. Kobayashi, J. Normand, 
 K. Raghavachari, A. P. Rendell, J. C. Burant, S. S. Iyengar, 
 J. Tomasi, M. Cossi, J. M. Millam, M. Klene, C. Adamo, R. Cammi, 
 J. W. Ochterski, R. L. Martin, K. Morokuma, O. Farkas, 
 J. B. Foresman, and D. J. Fox, Gaussian, Inc., Wallingford CT, 2019.
 
 ******************************************
 Gaussian 16:  ES64L-G16RevC.01  3-Jul-2019
                22-Feb-2021 
 ******************************************
 %chk=AEMRFAOFKBGASW-UHFFFAOYSA-N.chk
 %NProcShared=32
 Will use up to   32 processors via shared memory.
 -------------------------------------------------------------
 #P BP86/TZVP EmpiricalDispersion=GD3 SCRF=(Solvent=Water) Opt
 -------------------------------------------------------------
 1/18=20,19=15,26=3,38=1/1,3;
 2/9=110,12=2,17=6,18=5,40=1/2;
 3/5=19,7=101,11=2,25=1,30=1,70=2201,71=1,72=1,74=404,124=31/1,2,3;
 4//1;
 5/5=2,38=5,53=1/2;
 6/7=2,8=2,9=2,10=2,28=1/1;
 7//1,2,3,16;
 1/18=20,19=15,26=3/3(2);
 2/9=110/2;
 99//99;
 2/9=110/2;
 3/5=19,7=101,11=2,25=1,30=1,70=2205,71=1,72=1,74=404,124=31/1,2,3;
 4/5=5,16=3,69=1/1;
 5/5=2,38=5,53=1/2;
 7//1,2,3,16;
 1/18=20,19=15,26=3/3(-5);
 2/9=110/2;
 6/7=2,8=2,9=2,10=2,19=2,28=1/1;
 99/9=1/99;
 Leave Link    1 at Mon Feb 22 20:57:14 2021, MaxMem=           0 cpu:               2.4 elap:               0.1
 (Enter /sw/arch/RedHatEnterpriseServer7/EB_production/2019/software/Gaussian/g16.c01/l101.exe)
 -------------------------------------
 Particle #AEMRFAOFKBGASW-UHFFFAOYSA-N
 -------------------------------------
 Symbolic Z-matrix:
 Charge =  0 Multiplicity = 1
 O                     1.00759   1.28228   0.0848 
 C                     1.35876   0.08025   0.08737 
 O                     2.61119  -0.23721  -0.31554 
 C                     0.42548  -0.96705   0.52342 
 O                    -0.71771  -0.98092  -0.32329 
 H                     3.22425   0.46495  -0.61701 
 H                     0.90868  -1.94624   0.4845 
 H                     0.1124   -0.7722    1.55009 
 H                    -1.27183  -1.71374   0.01872 
 
 ITRead=  0  0  0  0  0  0  0  0  0
 MicOpt= -1 -1 -1 -1 -1 -1 -1 -1 -1
 NAtoms=      9 NQM=        9 NQMF=       0 NMMI=      0 NMMIF=      0
                NMic=       0 NMicF=      0.
                    Isotopes and Nuclear Properties:
 (Nuclear quadrupole moments (NQMom) in fm**2, nuclear magnetic moments (NMagM)
  in nuclear magnetons)

  Atom         1           2           3           4           5           6           7           8           9
 IAtWgt=          16          12          16          12          16           1           1           1           1
 AtmWgt=  15.9949146  12.0000000  15.9949146  12.0000000  15.9949146   1.0078250   1.0078250   1.0078250   1.0078250
 NucSpn=           0           0           0           0           0           1           1           1           1
 AtZEff=  -0.0000000  -0.0000000  -0.0000000  -0.0000000  -0.0000000  -0.0000000  -0.0000000  -0.0000000  -0.0000000
 NQMom=    0.0000000   0.0000000   0.0000000   0.0000000   0.0000000   0.0000000   0.0000000   0.0000000   0.0000000
 NMagM=    0.0000000   0.0000000   0.0000000   0.0000000   0.0000000   2.7928460   2.7928460   2.7928460   2.7928460
 AtZNuc=   8.0000000   6.0000000   8.0000000   6.0000000   8.0000000   1.0000000   1.0000000   1.0000000   1.0000000
 Leave Link  101 at Mon Feb 22 20:57:15 2021, MaxMem=   104857600 cpu:               2.7 elap:               0.1
 (Enter /sw/arch/RedHatEnterpriseServer7/EB_production/2019/software/Gaussian/g16.c01/l103.exe)

 GradGradGradGradGradGradGradGradGradGradGradGradGradGradGradGradGradGrad
 Berny optimization.
 Initialization pass.
                           ----------------------------
                           !    Initial Parameters    !
                           ! (Angstroms and Degrees)  !
 --------------------------                            --------------------------
 ! Name  Definition              Value          Derivative Info.                !
 --------------------------------------------------------------------------------
 ! R1    R(1,2)                  1.2523         estimate D2E/DX2                !
 ! R2    R(2,3)                  1.3534         estimate D2E/DX2                !
 ! R3    R(2,4)                  1.469          estimate D2E/DX2                !
 ! R4    R(3,6)                  0.9797         estimate D2E/DX2                !
 ! R5    R(4,5)                  1.4227         estimate D2E/DX2                !
 ! R6    R(4,7)                  1.0926         estimate D2E/DX2                !
 ! R7    R(4,8)                  1.0909         estimate D2E/DX2                !
 ! R8    R(5,9)                  0.9803         estimate D2E/DX2                !
 ! A1    A(1,2,3)              118.9499         estimate D2E/DX2                !
 ! A2    A(1,2,4)              120.4492         estimate D2E/DX2                !
 ! A3    A(3,2,4)              120.6008         estimate D2E/DX2                !
 ! A4    A(2,3,6)              120.1712         estimate D2E/DX2                !
 ! A5    A(2,4,5)              109.9253         estimate D2E/DX2                !
 ! A6    A(2,4,7)              110.3274         estimate D2E/DX2                !
 ! A7    A(2,4,8)              109.533          estimate D2E/DX2                !
 ! A8    A(5,4,7)              108.9914         estimate D2E/DX2                !
 ! A9    A(5,4,8)              109.3444         estimate D2E/DX2                !
 ! A10   A(7,4,8)              108.6943         estimate D2E/DX2                !
 ! A11   A(4,5,9)              104.7056         estimate D2E/DX2                !
 ! D1    D(1,2,3,6)             -0.9681         estimate D2E/DX2                !
 ! D2    D(4,2,3,6)            179.1398         estimate D2E/DX2                !
 ! D3    D(1,2,4,5)             61.2438         estimate D2E/DX2                !
 ! D4    D(1,2,4,7)           -178.5294         estimate D2E/DX2                !
 ! D5    D(1,2,4,8)            -58.9187         estimate D2E/DX2                !
 ! D6    D(3,2,4,5)           -118.8658         estimate D2E/DX2                !
 ! D7    D(3,2,4,7)              1.3611         estimate D2E/DX2                !
 ! D8    D(3,2,4,8)            120.9717         estimate D2E/DX2                !
 ! D9    D(2,4,5,9)            178.6277         estimate D2E/DX2                !
 ! D10   D(7,4,5,9)             57.5947         estimate D2E/DX2                !
 ! D11   D(8,4,5,9)            -61.0955         estimate D2E/DX2                !
 --------------------------------------------------------------------------------
 Trust Radius=3.00D-01 FncErr=1.00D-07 GrdErr=1.00D-06 EigMax=2.50D+02 EigMin=1.00D-04
 Number of steps in this run=     40 maximum allowed number of steps=    100.
 GradGradGradGradGradGradGradGradGradGradGradGradGradGradGradGradGradGrad

 Leave Link  103 at Mon Feb 22 20:57:15 2021, MaxMem=   104857600 cpu:               0.7 elap:               0.1
 (Enter /sw/arch/RedHatEnterpriseServer7/EB_production/2019/software/Gaussian/g16.c01/l202.exe)
                          Input orientation:                          
 ---------------------------------------------------------------------
 Center     Atomic      Atomic             Coordinates (Angstroms)
 Number     Number       Type             X           Y           Z
 ---------------------------------------------------------------------
      1          8           0        1.007590    1.282280    0.084800
      2          6           0        1.358760    0.080250    0.087370
      3          8           0        2.611190   -0.237210   -0.315540
      4          6           0        0.425480   -0.967050    0.523420
      5          8           0       -0.717710   -0.980920   -0.323290
      6          1           0        3.224250    0.464950   -0.617010
      7          1           0        0.908680   -1.946240    0.484500
      8          1           0        0.112400   -0.772200    1.550090
      9          1           0       -1.271830   -1.713740    0.018720
 ---------------------------------------------------------------------
                    Distance matrix (angstroms):
                    1          2          3          4          5
     1  O    0.000000
     2  C    1.252279   0.000000
     3  O    2.245140   1.353402   0.000000
     4  C    2.364471   1.469009   2.452315   0.000000
     5  O    2.874939   2.367795   3.410973   1.422671   0.000000
     6  H    2.464578   2.030812   0.979671   3.344296   4.209021
     7  H    3.254671   2.113515   2.541533   1.092616   2.056578
     8  H    2.677560   2.102293   3.163976   1.090888   2.059660
     9  H    3.765137   3.184826   4.167699   1.921752   0.980329
                    6          7          8          9
     6  H    0.000000
     7  H    3.519805   0.000000
     8  H    3.988793   1.774236   0.000000
     9  H    5.036425   2.241792   2.268851   0.000000
 Stoichiometry    C2H4O3
 Framework group  C1[X(C2H4O3)]
 Deg. of freedom    21
 Full point group                 C1      NOp   1
 Largest Abelian subgroup         C1      NOp   1
 Largest concise Abelian subgroup C1      NOp   1
                         Standard orientation:                         
 ---------------------------------------------------------------------
 Center     Atomic      Atomic             Coordinates (Angstroms)
 Number     Number       Type             X           Y           Z
 ---------------------------------------------------------------------
      1          8           0        0.779179    1.286892    0.060602
      2          6           0        0.520459    0.062361    0.102924
      3          8           0        1.498616   -0.824529   -0.194284
      4          6           0       -0.823409   -0.402279    0.471865
      5          8           0       -1.778266    0.083109   -0.464424
      6          1           0        2.389094   -0.507492   -0.451755
      7          1           0       -0.858123   -1.494302    0.481420
      8          1           0       -1.075391   -0.035714    1.467944
      9          1           0       -2.634112   -0.286759   -0.161488
 ---------------------------------------------------------------------
 Rotational constants (GHZ):           9.8247720           3.8368453           3.0768982
 Leave Link  202 at Mon Feb 22 20:57:15 2021, MaxMem=   104857600 cpu:               1.2 elap:               0.1
 (Enter /sw/arch/RedHatEnterpriseServer7/EB_production/2019/software/Gaussian/g16.c01/l301.exe)
 Standard basis: TZVP (5D, 7F)
 Ernie: Thresh=  0.10000D-02 Tol=  0.10000D-05 Strict=F.
 There are   124 symmetry adapted cartesian basis functions of A   symmetry.
 There are   119 symmetry adapted basis functions of A   symmetry.
   119 basis functions,   207 primitive gaussians,   124 cartesian basis functions
    20 alpha electrons       20 beta electrons
       nuclear repulsion energy       177.1445052224 Hartrees.
 IExCor=  404 DFT=T Ex=B Corr=P86 ExCW=0 ScaHFX=  0.000000
 ScaDFX=  1.000000  1.000000  1.000000  1.000000 ScalE2=  1.000000  1.000000
 IRadAn=      5 IRanWt=     -1 IRanGd=            0 ICorTp=0 IEmpDi=131
 NAtoms=    9 NActive=    9 NUniq=    9 SFac= 1.00D+00 NAtFMM=   60 NAOKFM=F Big=F
 Integral buffers will be    131072 words long.
 Raffenetti 2 integral format.
 Two-electron integral symmetry is turned on.
 R6Disp:  Grimme-D3 Dispersion energy=       -0.0045904072 Hartrees.
 Nuclear repulsion after empirical dispersion term =      177.1399148152 Hartrees.
 ------------------------------------------------------------------------------
 Polarizable Continuum Model (PCM)
 =================================
 Model                : PCM.
 Atomic radii         : UFF (Universal Force Field).
 Polarization charges : Total charges.
 Charge compensation  : None.
 Solution method      : On-the-fly selection.
 Cavity type          : Scaled VdW (van der Waals Surface) (Alpha=1.100).
 Cavity algorithm     : GePol (No added spheres)
                        Default sphere list used, NSphG=    9.
                        Lebedev-Laikov grids with approx.  5.0 points / Ang**2.
                        Smoothing algorithm: York/Karplus (Gamma=1.0000).
                        Polarization charges: spherical gaussians, with
                                              point-specific exponents (IZeta= 3).
                        Self-potential: point-specific (ISelfS= 7).
                        Self-field    : sphere-specific E.n sum rule (ISelfD= 2).
 1st derivatives      : Analytical E(r).r(x)/FMM algorithm (CHGder, D1EAlg=3).
                        Cavity 1st derivative terms included.
 Solvent              : Water, Eps=  78.355300 Eps(inf)=   1.777849
 ------------------------------------------------------------------------------
 Spheres list:
 ISph  on   Nord     Re0    Alpha      Xe            Ye            Ze
    1   O      1    1.7500  1.100      0.779179      1.286892      0.060602
    2   C      2    1.9255  1.100      0.520459      0.062361      0.102924
    3   O      3    1.7500  1.100      1.498616     -0.824529     -0.194284
    4   C      4    1.9255  1.100     -0.823409     -0.402279      0.471865
    5   O      5    1.7500  1.100     -1.778266      0.083109     -0.464424
    6   H      6    1.4430  1.100      2.389094     -0.507492     -0.451755
    7   H      7    1.4430  1.100     -0.858123     -1.494302      0.481420
    8   H      8    1.4430  1.100     -1.075391     -0.035714      1.467944
    9   H      9    1.4430  1.100     -2.634112     -0.286759     -0.161488
 ------------------------------------------------------------------------------
 GePol: Number of generator spheres                  =       9
 GePol: Total number of spheres                      =       9
 GePol: Number of exposed spheres                    =       9 (100.00%)
 GePol: Number of points                             =     924
 GePol: Average weight of points                     =       0.14
 GePol: Minimum weight of points                     =   0.20D-07
 GePol: Maximum weight of points                     =    0.20577
 GePol: Number of points with low weight             =      30
 GePol: Fraction of low-weight points (<1% of avg)   =       3.25%
 GePol: Cavity surface area                          =    125.416 Ang**2
 GePol: Cavity volume                                =    108.222 Ang**3
 Leave Link  301 at Mon Feb 22 20:57:15 2021, MaxMem=   104857600 cpu:               1.6 elap:               0.1
 (Enter /sw/arch/RedHatEnterpriseServer7/EB_production/2019/software/Gaussian/g16.c01/l302.exe)
 NPDir=0 NMtPBC=     1 NCelOv=     1 NCel=       1 NClECP=     1 NCelD=      1
         NCelK=      1 NCelE2=     1 NClLst=     1 CellRange=     0.0.
 One-electron integrals computed using PRISM.
 One-electron integral symmetry used in STVInt
 PrsmSu:  requested number of processors reduced to:  30 ShMem   1 Linda.
 NBasis=   119 RedAO= T EigKep=  4.83D-04  NBF=   119
 NBsUse=   119 1.00D-06 EigRej= -1.00D+00 NBFU=   119
 Precomputing XC quadrature grid using
 IXCGrd= 4 IRadAn=           5 IRanWt=          -1 IRanGd=           0 AccXCQ= 0.00D+00.
 Generated NRdTot=       0 NPtTot=           0 NUsed=           0 NTot=          32
 NSgBfM=   123   123   123   123   123 MxSgAt=     9 MxSgA2=     9.
 Leave Link  302 at Mon Feb 22 20:57:16 2021, MaxMem=   104857600 cpu:               8.7 elap:               0.3
 (Enter /sw/arch/RedHatEnterpriseServer7/EB_production/2019/software/Gaussian/g16.c01/l303.exe)
 DipDrv:  MaxL=1.
 Leave Link  303 at Mon Feb 22 20:57:16 2021, MaxMem=   104857600 cpu:               1.6 elap:               0.1
 (Enter /sw/arch/RedHatEnterpriseServer7/EB_production/2019/software/Gaussian/g16.c01/l401.exe)
 ExpMin= 9.52D-02 ExpMax= 2.70D+04 ExpMxC= 9.22D+02 IAcc=3 IRadAn=         5 AccDes= 0.00D+00
 Harris functional with IExCor=  404 and IRadAn=       5 diagonalized for initial guess.
 HarFok:  IExCor=  404 AccDes= 0.00D+00 IRadAn=         5 IDoV= 1 UseB2=F ITyADJ=14
 ICtDFT=  3500011 ScaDFX=  1.000000  1.000000  1.000000  1.000000
 FoFCou: FMM=F IPFlag=           0 FMFlag=      100000 FMFlg1=           0
         NFxFlg=           0 DoJE=T BraDBF=F KetDBF=T FulRan=T
         wScrn=  0.000000 ICntrl=       500 IOpCl=  0 I1Cent=   200000004 NGrid=           0
         NMat0=    1 NMatS0=      1 NMatT0=    0 NMatD0=    1 NMtDS0=    0 NMtDT0=    0
 Petite list used in FoFCou.
 Harris En= -304.485671728557    
 JPrj=0 DoOrth=F DoCkMO=F.
 Leave Link  401 at Mon Feb 22 20:57:16 2021, MaxMem=   104857600 cpu:              11.3 elap:               0.5
 (Enter /sw/arch/RedHatEnterpriseServer7/EB_production/2019/software/Gaussian/g16.c01/l502.exe)
 Keep J ints in memory in canonical form, NReq=55946220.
 FoFCou: FMM=F IPFlag=           0 FMFlag=           0 FMFlg1=           0
         NFxFlg=           0 DoJE=F BraDBF=F KetDBF=F FulRan=T
         wScrn=  0.000000 ICntrl=       600 IOpCl=  0 I1Cent=           0 NGrid=           0
         NMat0=    1 NMatS0=   7140 NMatT0=    0 NMatD0=    1 NMtDS0=    0 NMtDT0=    0
 Symmetry not used in FoFCou.
 Two-electron integral symmetry not used.
 Closed shell SCF:
 Using DIIS extrapolation, IDIIS=  1040.
 NGot=   104857600 LenX=    79327934 LenY=    79312117
 Requested convergence on RMS density matrix=1.00D-08 within 128 cycles.
 Requested convergence on MAX density matrix=1.00D-06.
 Requested convergence on             energy=1.00D-06.
 No special actions if energy rises.

 Cycle   1  Pass 1  IDiag  1:
 Inv3:  Mode=1 IEnd=     2561328.
 Iteration    1 A*A^-1 deviation from unit magnitude is 3.33D-15 for     73.
 Iteration    1 A*A^-1 deviation from orthogonality  is 1.71D-15 for    518    170.
 Iteration    1 A^-1*A deviation from unit magnitude is 3.33D-15 for    121.
 Iteration    1 A^-1*A deviation from orthogonality  is 1.78D-15 for    797     70.
 E= -304.269489161150    
 DIIS: error= 3.23D-02 at cycle   1 NSaved=   1.
 NSaved= 1 IEnMin= 1 EnMin= -304.269489161150     IErMin= 1 ErrMin= 3.23D-02
 ErrMax= 3.23D-02  0.00D+00 EMaxC= 1.00D-01 BMatC= 2.02D-01 BMatP= 2.02D-01
 IDIUse=3 WtCom= 6.77D-01 WtEn= 3.23D-01
 Coeff-Com:  0.100D+01
 Coeff-En:   0.100D+01
 Coeff:      0.100D+01
 Gap=     0.061 Goal=   None    Shift=    0.000
 GapD=    0.061 DampG=0.500 DampE=0.500 DampFc=0.2500 IDamp=-1.
 Damping current iteration by 2.50D-01
 RMSDP=1.07D-02 MaxDP=3.21D-01              OVMax= 3.31D-01

 Cycle   2  Pass 1  IDiag  1:
 E= -304.316987181551     Delta-E=       -0.047498020401 Rises=F Damp=T
 DIIS: error= 8.22D-03 at cycle   2 NSaved=   2.
 NSaved= 2 IEnMin= 2 EnMin= -304.316987181551     IErMin= 2 ErrMin= 8.22D-03
 ErrMax= 8.22D-03  0.00D+00 EMaxC= 1.00D-01 BMatC= 2.02D-02 BMatP= 2.02D-01
 IDIUse=3 WtCom= 9.18D-01 WtEn= 8.22D-02
 Coeff-Com: -0.215D+00 0.122D+01
 Coeff-En:   0.137D+00 0.863D+00
 Coeff:     -0.186D+00 0.119D+01
 Gap=     0.152 Goal=   None    Shift=    0.000
 RMSDP=2.12D-03 MaxDP=3.46D-02 DE=-4.75D-02 OVMax= 2.83D-01

 Cycle   3  Pass 1  IDiag  1:
 E= -304.372669404289     Delta-E=       -0.055682222738 Rises=F Damp=F
 DIIS: error= 2.07D-02 at cycle   3 NSaved=   3.
 NSaved= 3 IEnMin= 3 EnMin= -304.372669404289     IErMin= 2 ErrMin= 8.22D-03
 ErrMax= 2.07D-02  0.00D+00 EMaxC= 1.00D-01 BMatC= 5.96D-02 BMatP= 2.02D-02
 IDIUse=2 WtCom= 0.00D+00 WtEn= 1.00D+00
 EnCoef did   100 forward-backward iterations
 Coeff-En:   0.624D-01 0.441D-02 0.933D+00
 Coeff:      0.624D-01 0.441D-02 0.933D+00
 Gap=     0.175 Goal=   None    Shift=    0.000
 RMSDP=5.31D-03 MaxDP=1.03D-01 DE=-5.57D-02 OVMax= 3.26D-01

 Cycle   4  Pass 1  IDiag  1:
 E= -303.983883619900     Delta-E=        0.388785784389 Rises=F Damp=F
 DIIS: error= 7.43D-02 at cycle   4 NSaved=   4.
 NSaved= 4 IEnMin= 3 EnMin= -304.372669404289     IErMin= 2 ErrMin= 8.22D-03
 ErrMax= 7.43D-02  0.00D+00 EMaxC= 1.00D-01 BMatC= 5.59D-01 BMatP= 2.02D-02
 IDIUse=2 WtCom= 0.00D+00 WtEn= 1.00D+00
 Coeff-En:   0.000D+00 0.000D+00 0.840D+00 0.160D+00
 Coeff:      0.000D+00 0.000D+00 0.840D+00 0.160D+00
 Gap=     0.141 Goal=   None    Shift=    0.000
 RMSDP=3.19D-03 MaxDP=5.94D-02 DE= 3.89D-01 OVMax= 2.18D-01

 Cycle   5  Pass 1  IDiag  1:
 E= -304.374470010120     Delta-E=       -0.390586390220 Rises=F Damp=F
 DIIS: error= 2.07D-02 at cycle   5 NSaved=   5.
 NSaved= 5 IEnMin= 5 EnMin= -304.374470010120     IErMin= 2 ErrMin= 8.22D-03
 ErrMax= 2.07D-02  0.00D+00 EMaxC= 1.00D-01 BMatC= 6.12D-02 BMatP= 2.02D-02
 IDIUse=2 WtCom= 0.00D+00 WtEn= 1.00D+00
 Coeff-En:   0.000D+00 0.000D+00 0.493D+00 0.000D+00 0.507D+00
 Coeff:      0.000D+00 0.000D+00 0.493D+00 0.000D+00 0.507D+00
 Gap=     0.164 Goal=   None    Shift=    0.000
 RMSDP=1.28D-03 MaxDP=2.85D-02 DE=-3.91D-01 OVMax= 9.35D-02

 Cycle   6  Pass 1  IDiag  1:
 E= -304.418449423118     Delta-E=       -0.043979412998 Rises=F Damp=F
 DIIS: error= 2.36D-03 at cycle   6 NSaved=   6.
 NSaved= 6 IEnMin= 6 EnMin= -304.418449423118     IErMin= 6 ErrMin= 2.36D-03
 ErrMax= 2.36D-03  0.00D+00 EMaxC= 1.00D-01 BMatC= 1.42D-03 BMatP= 2.02D-02
 IDIUse=3 WtCom= 9.76D-01 WtEn= 2.36D-02
 Coeff-Com: -0.264D-01 0.549D-01 0.255D+00-0.412D-01 0.361D+00 0.396D+00
 Coeff-En:   0.000D+00 0.000D+00 0.000D+00 0.000D+00 0.000D+00 0.100D+01
 Coeff:     -0.258D-01 0.536D-01 0.249D+00-0.402D-01 0.353D+00 0.411D+00
 Gap=     0.166 Goal=   None    Shift=    0.000
 RMSDP=1.92D-04 MaxDP=3.91D-03 DE=-4.40D-02 OVMax= 1.12D-02

 Cycle   7  Pass 1  IDiag  1:
 E= -304.419417196301     Delta-E=       -0.000967773183 Rises=F Damp=F
 DIIS: error= 5.49D-04 at cycle   7 NSaved=   7.
 NSaved= 7 IEnMin= 7 EnMin= -304.419417196301     IErMin= 7 ErrMin= 5.49D-04
 ErrMax= 5.49D-04  0.00D+00 EMaxC= 1.00D-01 BMatC= 8.61D-05 BMatP= 1.42D-03
 IDIUse=3 WtCom= 9.95D-01 WtEn= 5.49D-03
 Coeff-Com: -0.897D-02 0.189D-01 0.943D-01-0.233D-01 0.147D+00 0.244D+00
 Coeff-Com:  0.528D+00
 Coeff-En:   0.000D+00 0.000D+00 0.000D+00 0.000D+00 0.000D+00 0.000D+00
 Coeff-En:   0.100D+01
 Coeff:     -0.892D-02 0.188D-01 0.937D-01-0.232D-01 0.147D+00 0.242D+00
 Coeff:      0.531D+00
 Gap=     0.167 Goal=   None    Shift=    0.000
 RMSDP=5.34D-05 MaxDP=8.42D-04 DE=-9.68D-04 OVMax= 2.07D-03

 Cycle   8  Pass 1  IDiag  1:
 E= -304.419479194325     Delta-E=       -0.000061998024 Rises=F Damp=F
 DIIS: error= 2.10D-04 at cycle   8 NSaved=   8.
 NSaved= 8 IEnMin= 8 EnMin= -304.419479194325     IErMin= 8 ErrMin= 2.10D-04
 ErrMax= 2.10D-04  0.00D+00 EMaxC= 1.00D-01 BMatC= 8.25D-06 BMatP= 8.61D-05
 IDIUse=3 WtCom= 9.98D-01 WtEn= 2.10D-03
 Coeff-Com:  0.684D-02-0.105D-01 0.120D-01-0.216D-02 0.129D-01 0.850D-01
 Coeff-Com:  0.256D+00 0.640D+00
 Coeff-En:   0.000D+00 0.000D+00 0.000D+00 0.000D+00 0.000D+00 0.000D+00
 Coeff-En:   0.000D+00 0.100D+01
 Coeff:      0.682D-02-0.105D-01 0.120D-01-0.215D-02 0.129D-01 0.848D-01
 Coeff:      0.255D+00 0.641D+00
 Gap=     0.167 Goal=   None    Shift=    0.000
 RMSDP=1.73D-05 MaxDP=2.44D-04 DE=-6.20D-05 OVMax= 6.67D-04

 Cycle   9  Pass 1  IDiag  1:
 E= -304.419485174855     Delta-E=       -0.000005980530 Rises=F Damp=F
 DIIS: error= 3.51D-05 at cycle   9 NSaved=   9.
 NSaved= 9 IEnMin= 9 EnMin= -304.419485174855     IErMin= 9 ErrMin= 3.51D-05
 ErrMax= 3.51D-05  0.00D+00 EMaxC= 1.00D-01 BMatC= 2.10D-07 BMatP= 8.25D-06
 IDIUse=1 WtCom= 1.00D+00 WtEn= 0.00D+00
 Coeff-Com:  0.264D-02-0.349D-02 0.313D-02-0.481D-03 0.175D-02 0.241D-01
 Coeff-Com:  0.821D-01 0.265D+00 0.625D+00
 Coeff:      0.264D-02-0.349D-02 0.313D-02-0.481D-03 0.175D-02 0.241D-01
 Coeff:      0.821D-01 0.265D+00 0.625D+00
 Gap=     0.167 Goal=   None    Shift=    0.000
 RMSDP=3.38D-06 MaxDP=4.86D-05 DE=-5.98D-06 OVMax= 1.26D-04

 Cycle  10  Pass 1  IDiag  1:
 E= -304.419485285007     Delta-E=       -0.000000110152 Rises=F Damp=F
 DIIS: error= 8.48D-06 at cycle  10 NSaved=  10.
 NSaved=10 IEnMin=10 EnMin= -304.419485285007     IErMin=10 ErrMin= 8.48D-06
 ErrMax= 8.48D-06  0.00D+00 EMaxC= 1.00D-01 BMatC= 2.14D-08 BMatP= 2.10D-07
 IDIUse=1 WtCom= 1.00D+00 WtEn= 0.00D+00
 Coeff-Com:  0.724D-03-0.810D-03 0.858D-03-0.169D-03 0.394D-03 0.485D-02
 Coeff-Com:  0.180D-01 0.705D-01 0.326D+00 0.580D+00
 Coeff:      0.724D-03-0.810D-03 0.858D-03-0.169D-03 0.394D-03 0.485D-02
 Coeff:      0.180D-01 0.705D-01 0.326D+00 0.580D+00
 Gap=     0.167 Goal=   None    Shift=    0.000
 RMSDP=1.01D-06 MaxDP=1.57D-05 DE=-1.10D-07 OVMax= 2.64D-05

 Cycle  11  Pass 1  IDiag  1:
 E= -304.419485322408     Delta-E=       -0.000000037401 Rises=F Damp=F
 DIIS: error= 2.42D-06 at cycle  11 NSaved=  11.
 NSaved=11 IEnMin=11 EnMin= -304.419485322408     IErMin=11 ErrMin= 2.42D-06
 ErrMax= 2.42D-06  0.00D+00 EMaxC= 1.00D-01 BMatC= 9.65D-10 BMatP= 2.14D-08
 IDIUse=1 WtCom= 1.00D+00 WtEn= 0.00D+00
 Coeff-Com:  0.119D-03-0.118D-03 0.861D-04-0.112D-04-0.887D-05-0.793D-04
 Coeff-Com:  0.176D-03 0.438D-02 0.682D-01 0.195D+00 0.732D+00
 Coeff:      0.119D-03-0.118D-03 0.861D-04-0.112D-04-0.887D-05-0.793D-04
 Coeff:      0.176D-03 0.438D-02 0.682D-01 0.195D+00 0.732D+00
 Gap=     0.167 Goal=   None    Shift=    0.000
 RMSDP=2.24D-07 MaxDP=3.49D-06 DE=-3.74D-08 OVMax= 6.04D-06

 Cycle  12  Pass 1  IDiag  1:
 E= -304.419485323132     Delta-E=       -0.000000000724 Rises=F Damp=F
 DIIS: error= 4.17D-07 at cycle  12 NSaved=  12.
 NSaved=12 IEnMin=12 EnMin= -304.419485323132     IErMin=12 ErrMin= 4.17D-07
 ErrMax= 4.17D-07  0.00D+00 EMaxC= 1.00D-01 BMatC= 2.56D-11 BMatP= 9.65D-10
 IDIUse=1 WtCom= 1.00D+00 WtEn= 0.00D+00
 Coeff-Com:  0.103D-04-0.746D-05 0.110D-04-0.149D-05 0.346D-05-0.135D-03
 Coeff-Com: -0.464D-03-0.118D-02 0.654D-02 0.259D-01 0.175D+00 0.795D+00
 Coeff:      0.103D-04-0.746D-05 0.110D-04-0.149D-05 0.346D-05-0.135D-03
 Coeff:     -0.464D-03-0.118D-02 0.654D-02 0.259D-01 0.175D+00 0.795D+00
 Gap=     0.167 Goal=   None    Shift=    0.000
 RMSDP=3.52D-08 MaxDP=4.90D-07 DE=-7.24D-10 OVMax= 1.77D-06

 Cycle  13  Pass 1  IDiag  1:
 E= -304.419485323153     Delta-E=       -0.000000000021 Rises=F Damp=F
 DIIS: error= 6.56D-08 at cycle  13 NSaved=  13.
 NSaved=13 IEnMin=13 EnMin= -304.419485323153     IErMin=13 ErrMin= 6.56D-08
 ErrMax= 6.56D-08  0.00D+00 EMaxC= 1.00D-01 BMatC= 5.61D-13 BMatP= 2.56D-11
 IDIUse=1 WtCom= 1.00D+00 WtEn= 0.00D+00
 Coeff-Com: -0.305D-06 0.872D-06 0.125D-05-0.587D-07 0.229D-06-0.218D-04
 Coeff-Com: -0.962D-04-0.326D-03-0.492D-03-0.265D-03 0.162D-01 0.171D+00
 Coeff-Com:  0.814D+00
 Coeff:     -0.305D-06 0.872D-06 0.125D-05-0.587D-07 0.229D-06-0.218D-04
 Coeff:     -0.962D-04-0.326D-03-0.492D-03-0.265D-03 0.162D-01 0.171D+00
 Coeff:      0.814D+00
 Gap=     0.167 Goal=   None    Shift=    0.000
 RMSDP=5.96D-09 MaxDP=1.15D-07 DE=-2.13D-11 OVMax= 3.14D-07

 Error on total polarization charges =  0.00699
 SCF Done:  E(RB-P86) =  -304.419485323     A.U. after   13 cycles
            NFock= 13  Conv=0.60D-08     -V/T= 2.0040
 KE= 3.032194158673D+02 PE=-1.070730836604D+03 EE= 2.859520205983D+02
 Leave Link  502 at Mon Feb 22 20:57:20 2021, MaxMem=   104857600 cpu:              83.9 elap:               3.3
 (Enter /sw/arch/RedHatEnterpriseServer7/EB_production/2019/software/Gaussian/g16.c01/l601.exe)
 Copying SCF densities to generalized density rwf, IOpCl= 0 IROHF=0.

 **********************************************************************

            Population analysis using the SCF Density.

 **********************************************************************

 Orbital symmetries:
       Occupied  (A) (A) (A) (A) (A) (A) (A) (A) (A) (A) (A) (A)
                 (A) (A) (A) (A) (A) (A) (A) (A)
       Virtual   (A) (A) (A) (A) (A) (A) (A) (A) (A) (A) (A) (A)
                 (A) (A) (A) (A) (A) (A) (A) (A) (A) (A) (A) (A)
                 (A) (A) (A) (A) (A) (A) (A) (A) (A) (A) (A) (A)
                 (A) (A) (A) (A) (A) (A) (A) (A) (A) (A) (A) (A)
                 (A) (A) (A) (A) (A) (A) (A) (A) (A) (A) (A) (A)
                 (A) (A) (A) (A) (A) (A) (A) (A) (A) (A) (A) (A)
                 (A) (A) (A) (A) (A) (A) (A) (A) (A) (A) (A) (A)
                 (A) (A) (A) (A) (A) (A) (A) (A) (A) (A) (A) (A)
                 (A) (A) (A)
 The electronic state is 1-A.
 Alpha  occ. eigenvalues --  -18.83016 -18.78906 -18.76836 -10.04386  -9.96690
 Alpha  occ. eigenvalues --   -1.02526  -0.96036  -0.92923  -0.69485  -0.58578
 Alpha  occ. eigenvalues --   -0.49440  -0.46360  -0.43756  -0.41878  -0.38982
 Alpha  occ. eigenvalues --   -0.35620  -0.32537  -0.29283  -0.24960  -0.24342
 Alpha virt. eigenvalues --   -0.07672   0.01435   0.02527   0.07136   0.08925
 Alpha virt. eigenvalues --    0.11784   0.12922   0.15678   0.17271   0.22046
 Alpha virt. eigenvalues --    0.24407   0.27436   0.28726   0.29331   0.31818
 Alpha virt. eigenvalues --    0.34584   0.36956   0.37344   0.39351   0.42026
 Alpha virt. eigenvalues --    0.43482   0.45459   0.47716   0.48422   0.49950
 Alpha virt. eigenvalues --    0.51537   0.54494   0.58635   0.60509   0.62661
 Alpha virt. eigenvalues --    0.72114   0.80238   0.83198   1.13314   1.15818
 Alpha virt. eigenvalues --    1.20656   1.23651   1.24376   1.28657   1.30522
 Alpha virt. eigenvalues --    1.32384   1.38970   1.39021   1.43864   1.49210
 Alpha virt. eigenvalues --    1.50759   1.54357   1.55765   1.67591   1.70071
 Alpha virt. eigenvalues --    1.75521   1.84843   1.90299   1.96225   1.98833
 Alpha virt. eigenvalues --    2.09089   2.10198   2.15000   2.17380   2.19261
 Alpha virt. eigenvalues --    2.33314   2.35284   2.43681   2.46620   2.48606
 Alpha virt. eigenvalues --    2.51270   2.53586   2.55640   2.56940   2.57417
 Alpha virt. eigenvalues --    2.57755   2.60305   2.64438   2.75455   2.76574
 Alpha virt. eigenvalues --    2.81345   2.83007   2.85474   2.86627   2.91914
 Alpha virt. eigenvalues --    2.93324   2.98582   3.04660   3.06773   3.08142
 Alpha virt. eigenvalues --    3.14687   3.21263   3.27590   3.43235   3.79892
 Alpha virt. eigenvalues --    3.84753   3.99104   4.13925   4.17711  21.55603
 Alpha virt. eigenvalues --   21.70798  42.97885  43.04437  43.08567
          Condensed to atoms (all electrons):
               1          2          3          4          5          6
     1  O    8.006570   0.563708  -0.131585  -0.087173   0.001258   0.003137
     2  C    0.563708   4.882983   0.335334   0.109035  -0.079915  -0.019018
     3  O   -0.131585   0.335334   7.880011  -0.099015  -0.000750   0.289223
     4  C   -0.087173   0.109035  -0.099015   5.210583   0.304274   0.012477
     5  O    0.001258  -0.079915  -0.000750   0.304274   7.964788  -0.000340
     6  H    0.003137  -0.019018   0.289223   0.012477  -0.000340   0.376331
     7  H    0.009054  -0.051295   0.011923   0.393593  -0.054394  -0.000585
     8  H   -0.009273   0.007651   0.000880   0.367990  -0.048046  -0.000500
     9  H   -0.000375   0.010628  -0.000362  -0.034256   0.305599   0.000046
               7          8          9
     1  O    0.009054  -0.009273  -0.000375
     2  C   -0.051295   0.007651   0.010628
     3  O    0.011923   0.000880  -0.000362
     4  C    0.393593   0.367990  -0.034256
     5  O   -0.054394  -0.048046   0.305599
     6  H   -0.000585  -0.000500   0.000046
     7  H    0.598452  -0.051568  -0.004947
     8  H   -0.051568   0.564508  -0.005014
     9  H   -0.004947  -0.005014   0.420975
 Mulliken charges:
               1
     1  O   -0.355323
     2  C    0.240889
     3  O   -0.285660
     4  C   -0.177507
     5  O   -0.392475
     6  H    0.339228
     7  H    0.149767
     8  H    0.173373
     9  H    0.307707
 Sum of Mulliken charges =  -0.00000
 Mulliken charges with hydrogens summed into heavy atoms:
               1
     1  O   -0.355323
     2  C    0.240889
     3  O    0.053568
     4  C    0.145632
     5  O   -0.084768
 Electronic spatial extent (au):  <R**2>=            405.7700
 Charge=             -0.0000 electrons
 Dipole moment (field-independent basis, Debye):
    X=             -0.5173    Y=             -3.6012    Z=              1.5460  Tot=              3.9530
 Quadrupole moment (field-independent basis, Debye-Ang):
   XX=            -17.4145   YY=            -34.9333   ZZ=            -28.7730
   XY=              0.9681   XZ=             -4.3739   YZ=             -0.1226
 Traceless Quadrupole moment (field-independent basis, Debye-Ang):
   XX=              9.6257   YY=             -7.8930   ZZ=             -1.7327
   XY=              0.9681   XZ=             -4.3739   YZ=             -0.1226
 Octapole moment (field-independent basis, Debye-Ang**2):
  XXX=              0.7311  YYY=             -6.3561  ZZZ=              0.6950  XYY=             -5.4283
  XXY=             -9.9993  XXZ=             -1.7154  XZZ=              1.9378  YZZ=              0.0260
  YYZ=             -0.3106  XYZ=              0.3457
 Hexadecapole moment (field-independent basis, Debye-Ang**3):
 XXXX=           -166.5844 YYYY=           -133.0992 ZZZZ=            -50.9284 XXXY=              0.6761
 XXXZ=            -16.6380 YYYX=             -1.1189 YYYZ=             -0.5670 ZZZX=             -3.7894
 ZZZY=              1.0236 XXYY=            -75.0779 XXZZ=            -57.5011 YYZZ=            -30.2117
 XXYZ=              3.4711 YYXZ=             -0.6571 ZZXY=             -1.2176
 N-N= 1.771399148152D+02 E-N=-1.070730835172D+03  KE= 3.032194158673D+02
 No NMR shielding tensors so no spin-rotation constants.
 Leave Link  601 at Mon Feb 22 20:57:20 2021, MaxMem=   104857600 cpu:               4.3 elap:               0.2
 (Enter /sw/arch/RedHatEnterpriseServer7/EB_production/2019/software/Gaussian/g16.c01/l701.exe)
 ... and contract with generalized density number  0.
 Compute integral first derivatives.
 R6Disp: Adding Grimme-D3 dispersion energy 1st derivatives to the gradient.
 PrsmSu:  requested number of processors reduced to:  30 ShMem   1 Linda.
 D1PCM: PCM CHGder 1st derivatives, ID1Alg=3 FixD1E=F DoIter=F DoCFld=F I1PDM=0.
 GePol: Maximum number of non-zero 1st derivatives   =     219
 CoulSu:  requested number of processors reduced to:  29 ShMem   1 Linda.
 CoulSu:  requested number of processors reduced to:  30 ShMem   1 Linda.
 Leave Link  701 at Mon Feb 22 20:57:21 2021, MaxMem=   104857600 cpu:              12.5 elap:               0.4
 (Enter /sw/arch/RedHatEnterpriseServer7/EB_production/2019/software/Gaussian/g16.c01/l702.exe)
 L702 exits ... SP integral derivatives will be done elsewhere.
 Leave Link  702 at Mon Feb 22 20:57:21 2021, MaxMem=   104857600 cpu:               0.7 elap:               0.1
 (Enter /sw/arch/RedHatEnterpriseServer7/EB_production/2019/software/Gaussian/g16.c01/l703.exe)
 Integral derivatives from FoFJK, PRISM(SPDF).
 Compute integral first derivatives, UseDBF=F ICtDFT=           0.
 Calling FoFJK, ICntrl=      2527 FMM=F ISym2X=0 I1Cent= 0 IOpClX= 0 NMat=1 NMatS=1 NMatT=0.
 FoFJK:  IHMeth= 1 ICntrl=    2527 DoSepK=F KAlg= 0 I1Cent=           0 FoldK=F
 IRaf=         0 NMat=       1 IRICut=       1 DoRegI=T DoRafI=F ISym2E= 0 IDoP0=0 IntGTp=1.
 FoFCou: FMM=F IPFlag=           0 FMFlag=      100000 FMFlg1=         800
         NFxFlg=           0 DoJE=F BraDBF=F KetDBF=F FulRan=T
         wScrn=  0.000000 ICntrl=      2527 IOpCl=  0 I1Cent=           0 NGrid=           0
         NMat0=    1 NMatS0=      1 NMatT0=    0 NMatD0=    1 NMtDS0=    0 NMtDT0=    0
 Symmetry not used in FoFCou.
 Leave Link  703 at Mon Feb 22 20:57:21 2021, MaxMem=   104857600 cpu:              11.4 elap:               0.4
 (Enter /sw/arch/RedHatEnterpriseServer7/EB_production/2019/software/Gaussian/g16.c01/l716.exe)
 Dipole        =-2.03506211D-01-1.41681793D+00 6.08236018D-01
 ***** Axes restored to original set *****
 -------------------------------------------------------------------
 Center     Atomic                   Forces (Hartrees/Bohr)
 Number     Number              X              Y              Z
 -------------------------------------------------------------------
      1        8           0.001940598   -0.029017716    0.001032020
      2        6           0.015925065    0.091018716   -0.015097974
      3        8          -0.003282858   -0.042576238    0.005119757
      4        6          -0.000252396   -0.033953952    0.002116955
      5        8          -0.011184718   -0.000082309   -0.006635118
      6        1          -0.014774962    0.010494073    0.004986419
      7        1           0.006472073   -0.005811508    0.003110856
      8        1           0.004247275    0.004752287    0.009593250
      9        1           0.000909924    0.005176646   -0.004226165
 -------------------------------------------------------------------
 Cartesian Forces:  Max     0.091018716 RMS     0.022282580
 Leave Link  716 at Mon Feb 22 20:57:21 2021, MaxMem=   104857600 cpu:               0.8 elap:               0.1
 (Enter /sw/arch/RedHatEnterpriseServer7/EB_production/2019/software/Gaussian/g16.c01/l103.exe)

 GradGradGradGradGradGradGradGradGradGradGradGradGradGradGradGradGradGrad
 Berny optimization.
 FormGI is forming the generalized inverse of G from B-inverse, IUseBI=4.
 Internal  Forces:  Max     0.034223786 RMS     0.013203946
 Search for a local minimum.
 Step number   1 out of a maximum of   40
 All quantities printed in internal units (Hartrees-Bohrs-Radians)
 RMS Force = .13204D-01 SwitMx=.10000D-02 MixMth= 1
 Mixed Optimization -- RFO/linear search
 Second derivative matrix not updated -- first step.
 ITU=  0
     Eigenvalues ---    0.01176   0.01392   0.01453   0.02308   0.06587
     Eigenvalues ---    0.07641   0.11514   0.13975   0.16000   0.16000
     Eigenvalues ---    0.22090   0.25000   0.25000   0.34512   0.34710
     Eigenvalues ---    0.35859   0.42061   0.51321   0.51449   0.54304
     Eigenvalues ---    0.82400
 RFO step:  Lambda=-1.91057336D-02 EMin= 1.17589450D-02
 Linear search not attempted -- first point.
 Iteration  1 RMS(Cart)=  0.06559010 RMS(Int)=  0.00290914
 Iteration  2 RMS(Cart)=  0.00374442 RMS(Int)=  0.00059473
 Iteration  3 RMS(Cart)=  0.00000325 RMS(Int)=  0.00059472
 Iteration  4 RMS(Cart)=  0.00000000 RMS(Int)=  0.00059472
 ITry= 1 IFail=0 DXMaxC= 2.07D-01 DCOld= 1.00D+10 DXMaxT= 3.00D-01 DXLimC= 3.00D+00 Rises=F
 Variable       Old X    -DE/DX   Delta X   Delta X   Delta X     New X
                                 (Linear)    (Quad)   (Total)
    R1        2.36646  -0.02840   0.00000  -0.03368  -0.03368   2.33278
    R2        2.55756  -0.01220   0.00000  -0.02170  -0.02170   2.53586
    R3        2.77603   0.02239   0.00000   0.05927   0.05927   2.83530
    R4        1.85131  -0.00326   0.00000  -0.00611  -0.00611   1.84520
    R5        2.68846   0.01466   0.00000   0.03334   0.03334   2.72180
    R6        2.06475   0.00796   0.00000   0.02185   0.02185   2.08659
    R7        2.06148   0.00866   0.00000   0.02365   0.02365   2.08513
    R8        1.85255  -0.00585   0.00000  -0.01099  -0.01099   1.84156
    A1        2.07607   0.02434   0.00000   0.09045   0.09045   2.16651
    A2        2.10224   0.00960   0.00000   0.03568   0.03568   2.13791
    A3        2.10488  -0.03394   0.00000  -0.12612  -0.12612   1.97876
    A4        2.09738  -0.03422   0.00000  -0.19108  -0.19108   1.90630
    A5        1.91856  -0.01110   0.00000  -0.04529  -0.04531   1.87325
    A6        1.92558   0.00188   0.00000   0.00582   0.00625   1.93183
    A7        1.91171  -0.00505   0.00000  -0.04998  -0.05002   1.86169
    A8        1.90226   0.00732   0.00000   0.05261   0.05224   1.95450
    A9        1.90842   0.00807   0.00000   0.04194   0.04016   1.94858
   A10        1.89707  -0.00085   0.00000  -0.00366  -0.00501   1.89206
   A11        1.82746   0.00615   0.00000   0.03434   0.03434   1.86180
    D1       -0.01690   0.00085   0.00000   0.02061   0.02066   0.00376
    D2        3.12658   0.00073   0.00000   0.01686   0.01681  -3.13979
    D3        1.06891  -0.00166   0.00000  -0.03407  -0.03343   1.03548
    D4       -3.11593   0.00151   0.00000   0.00596   0.00589  -3.11004
    D5       -1.02833  -0.00155   0.00000  -0.02633  -0.02686  -1.05518
    D6       -2.07460  -0.00153   0.00000  -0.03020  -0.02959  -2.10419
    D7        0.02376   0.00164   0.00000   0.00983   0.00973   0.03348
    D8        2.11136  -0.00141   0.00000  -0.02246  -0.02302   2.08834
    D9        3.11764   0.00285   0.00000   0.03006   0.03023  -3.13531
   D10        1.00522   0.00281   0.00000   0.01781   0.01911   1.02433
   D11       -1.06632  -0.00518   0.00000  -0.03323  -0.03471  -1.10103
         Item               Value     Threshold  Converged?
 Maximum Force            0.034224     0.000450     NO 
 RMS     Force            0.013204     0.000300     NO 
 Maximum Displacement     0.207210     0.001800     NO 
 RMS     Displacement     0.067541     0.001200     NO 
 Predicted change in Energy=-1.038325D-02
 Lowest energy point so far.  Saving SCF results.
 GradGradGradGradGradGradGradGradGradGradGradGradGradGradGradGradGradGrad

 Leave Link  103 at Mon Feb 22 20:57:22 2021, MaxMem=   104857600 cpu:               1.1 elap:               0.1
 (Enter /sw/arch/RedHatEnterpriseServer7/EB_production/2019/software/Gaussian/g16.c01/l202.exe)
                          Input orientation:                          
 ---------------------------------------------------------------------
 Center     Atomic      Atomic             Coordinates (Angstroms)
 Number     Number       Type             X           Y           Z
 ---------------------------------------------------------------------
      1          8           0        1.007132    1.302878    0.056302
      2          6           0        1.359480    0.119946    0.076381
      3          8           0        2.574449   -0.310256   -0.297156
      4          6           0        0.449290   -0.984632    0.526476
      5          8           0       -0.705576   -0.966390   -0.334025
      6          1           0        3.114599    0.454078   -0.575483
      7          1           0        0.971637   -1.956987    0.496706
      8          1           0        0.179929   -0.765744    1.573871
      9          1           0       -1.292128   -1.682773   -0.030011
 ---------------------------------------------------------------------
                    Distance matrix (angstroms):
                    1          2          3          4          5
     1  O    0.000000
     2  C    1.234455   0.000000
     3  O    2.276756   1.341922   0.000000
     4  C    2.401032   1.500375   2.376858   0.000000
     5  O    2.869721   2.369180   3.345210   1.440316   0.000000
     6  H    2.358184   1.901845   0.976440   3.223053   4.082862
     7  H    3.289671   2.154239   2.431244   1.104177   2.117649
     8  H    2.695641   2.101966   3.072773   1.103405   2.112923
     9  H    3.769372   3.208137   4.111640   1.956941   0.974512
                    6          7          8          9
     6  H    0.000000
     7  H    3.399281   0.000000
     8  H    3.836662   1.790571   0.000000
     9  H    4.927770   2.340354   2.362273   0.000000
 Stoichiometry    C2H4O3
 Framework group  C1[X(C2H4O3)]
 Deg. of freedom    21
 Full point group                 C1      NOp   1
 RotChk:  IX=0 Diff= 4.75D-02
 Largest Abelian subgroup         C1      NOp   1
 Largest concise Abelian subgroup C1      NOp   1
                         Standard orientation:                         
 ---------------------------------------------------------------------
 Center     Atomic      Atomic             Coordinates (Angstroms)
 Number     Number       Type             X           Y           Z
 ---------------------------------------------------------------------
      1          8           0        0.803133    1.299358    0.071330
      2          6           0        0.544743    0.092477    0.094850
      3          8           0        1.425267   -0.872202   -0.213091
      4          6           0       -0.807477   -0.435032    0.474797
      5          8           0       -1.760410    0.120295   -0.451508
      6          1           0        2.280458   -0.463776   -0.448189
      7          1           0       -0.813261   -1.539114    0.461568
      8          1           0       -0.999894   -0.097949    1.507683
      9          1           0       -2.634817   -0.223438   -0.192792
 ---------------------------------------------------------------------
 Rotational constants (GHZ):           9.3743327           3.9725560           3.1186070
 Leave Link  202 at Mon Feb 22 20:57:22 2021, MaxMem=   104857600 cpu:               0.4 elap:               0.0
 (Enter /sw/arch/RedHatEnterpriseServer7/EB_production/2019/software/Gaussian/g16.c01/l301.exe)
 Standard basis: TZVP (5D, 7F)
 Ernie: Thresh=  0.10000D-02 Tol=  0.10000D-05 Strict=F.
 There are   124 symmetry adapted cartesian basis functions of A   symmetry.
 There are   119 symmetry adapted basis functions of A   symmetry.
   119 basis functions,   207 primitive gaussians,   124 cartesian basis functions
    20 alpha electrons       20 beta electrons
       nuclear repulsion energy       177.4193175072 Hartrees.
 IExCor=  404 DFT=T Ex=B Corr=P86 ExCW=0 ScaHFX=  0.000000
 ScaDFX=  1.000000  1.000000  1.000000  1.000000 ScalE2=  1.000000  1.000000
 IRadAn=      5 IRanWt=     -1 IRanGd=            0 ICorTp=0 IEmpDi=131
 NAtoms=    9 NActive=    9 NUniq=    9 SFac= 1.00D+00 NAtFMM=   60 NAOKFM=F Big=F
 Integral buffers will be    131072 words long.
 Raffenetti 2 integral format.
 Two-electron integral symmetry is turned on.
 R6Disp:  Grimme-D3 Dispersion energy=       -0.0047694762 Hartrees.
 Nuclear repulsion after empirical dispersion term =      177.4145480310 Hartrees.
 ------------------------------------------------------------------------------
 Polarizable Continuum Model (PCM)
 =================================
 Model                : PCM.
 Atomic radii         : UFF (Universal Force Field).
 Polarization charges : Total charges.
 Charge compensation  : None.
 Solution method      : On-the-fly selection.
 Cavity type          : Scaled VdW (van der Waals Surface) (Alpha=1.100).
 Cavity algorithm     : GePol (No added spheres)
                        Default sphere list used, NSphG=    9.
                        Lebedev-Laikov grids with approx.  5.0 points / Ang**2.
                        Smoothing algorithm: York/Karplus (Gamma=1.0000).
                        Polarization charges: spherical gaussians, with
                                              point-specific exponents (IZeta= 3).
                        Self-potential: point-specific (ISelfS= 7).
                        Self-field    : sphere-specific E.n sum rule (ISelfD= 2).
 1st derivatives      : Analytical E(r).r(x)/FMM algorithm (CHGder, D1EAlg=3).
                        Cavity 1st derivative terms included.
 Solvent              : Water, Eps=  78.355300 Eps(inf)=   1.777849
 ------------------------------------------------------------------------------
 Spheres list:
 ISph  on   Nord     Re0    Alpha      Xe            Ye            Ze
    1   O      1    1.7500  1.100      0.803133      1.299358      0.071330
    2   C      2    1.9255  1.100      0.544743      0.092477      0.094850
    3   O      3    1.7500  1.100      1.425267     -0.872202     -0.213091
    4   C      4    1.9255  1.100     -0.807477     -0.435032      0.474797
    5   O      5    1.7500  1.100     -1.760410      0.120295     -0.451508
    6   H      6    1.4430  1.100      2.280458     -0.463776     -0.448189
    7   H      7    1.4430  1.100     -0.813261     -1.539114      0.461568
    8   H      8    1.4430  1.100     -0.999894     -0.097949      1.507683
    9   H      9    1.4430  1.100     -2.634817     -0.223438     -0.192792
 ------------------------------------------------------------------------------
 GePol: Number of generator spheres                  =       9
 GePol: Total number of spheres                      =       9
 GePol: Number of exposed spheres                    =       9 (100.00%)
 GePol: Number of points                             =     911
 GePol: Average weight of points                     =       0.14
 GePol: Minimum weight of points                     =   0.33D-10
 GePol: Maximum weight of points                     =    0.20577
 GePol: Number of points with low weight             =      25
 GePol: Fraction of low-weight points (<1% of avg)   =       2.74%
 GePol: Cavity surface area                          =    125.282 Ang**2
 GePol: Cavity volume                                =    108.461 Ang**3
 Leave Link  301 at Mon Feb 22 20:57:22 2021, MaxMem=   104857600 cpu:               2.0 elap:               0.1
 (Enter /sw/arch/RedHatEnterpriseServer7/EB_production/2019/software/Gaussian/g16.c01/l302.exe)
 NPDir=0 NMtPBC=     1 NCelOv=     1 NCel=       1 NClECP=     1 NCelD=      1
         NCelK=      1 NCelE2=     1 NClLst=     1 CellRange=     0.0.
 One-electron integrals computed using PRISM.
 One-electron integral symmetry used in STVInt
 PrsmSu:  requested number of processors reduced to:  30 ShMem   1 Linda.
 NBasis=   119 RedAO= T EigKep=  5.46D-04  NBF=   119
 NBsUse=   119 1.00D-06 EigRej= -1.00D+00 NBFU=   119
 Precomputing XC quadrature grid using
 IXCGrd= 4 IRadAn=           5 IRanWt=          -1 IRanGd=           0 AccXCQ= 0.00D+00.
 Generated NRdTot=       0 NPtTot=           0 NUsed=           0 NTot=          32
 NSgBfM=   123   123   123   123   123 MxSgAt=     9 MxSgA2=     9.
 Leave Link  302 at Mon Feb 22 20:57:22 2021, MaxMem=   104857600 cpu:               4.3 elap:               0.2
 (Enter /sw/arch/RedHatEnterpriseServer7/EB_production/2019/software/Gaussian/g16.c01/l303.exe)
 DipDrv:  MaxL=1.
 Leave Link  303 at Mon Feb 22 20:57:22 2021, MaxMem=   104857600 cpu:               2.6 elap:               0.1
 (Enter /sw/arch/RedHatEnterpriseServer7/EB_production/2019/software/Gaussian/g16.c01/l401.exe)
 Initial guess from the checkpoint file:  "AEMRFAOFKBGASW-UHFFFAOYSA-N.chk"
 B after Tr=     0.000000   -0.000000   -0.000000
         Rot=    0.999916   -0.009362   -0.004223    0.007912 Ang=  -1.49 deg.
 Guess basis will be translated and rotated to current coordinates.
 JPrj=2 DoOrth=T DoCkMO=T.
 Generating alternative initial guess.
 ExpMin= 9.52D-02 ExpMax= 2.70D+04 ExpMxC= 9.22D+02 IAcc=3 IRadAn=         5 AccDes= 0.00D+00
 Harris functional with IExCor=  404 and IRadAn=       5 diagonalized for initial guess.
 HarFok:  IExCor=  404 AccDes= 0.00D+00 IRadAn=         5 IDoV= 1 UseB2=F ITyADJ=14
 ICtDFT=  3500011 ScaDFX=  1.000000  1.000000  1.000000  1.000000
 FoFCou: FMM=F IPFlag=           0 FMFlag=      100000 FMFlg1=           0
         NFxFlg=           0 DoJE=T BraDBF=F KetDBF=T FulRan=T
         wScrn=  0.000000 ICntrl=       500 IOpCl=  0 I1Cent=   200000004 NGrid=           0
         NMat0=    1 NMatS0=      1 NMatT0=    0 NMatD0=    1 NMtDS0=    0 NMtDT0=    0
 Petite list used in FoFCou.
 Harris En= -304.491851820763    
 Leave Link  401 at Mon Feb 22 20:57:22 2021, MaxMem=   104857600 cpu:              10.2 elap:               0.4
 (Enter /sw/arch/RedHatEnterpriseServer7/EB_production/2019/software/Gaussian/g16.c01/l502.exe)
 Keep J ints in memory in canonical form, NReq=55946220.
 FoFCou: FMM=F IPFlag=           0 FMFlag=           0 FMFlg1=           0
         NFxFlg=           0 DoJE=F BraDBF=F KetDBF=F FulRan=T
         wScrn=  0.000000 ICntrl=       600 IOpCl=  0 I1Cent=           0 NGrid=           0
         NMat0=    1 NMatS0=   7140 NMatT0=    0 NMatD0=    1 NMtDS0=    0 NMtDT0=    0
 Symmetry not used in FoFCou.
 Two-electron integral symmetry not used.
 Closed shell SCF:
 Using DIIS extrapolation, IDIIS=  1040.
 NGot=   104857600 LenX=    79327934 LenY=    79312117
 Requested convergence on RMS density matrix=1.00D-08 within 128 cycles.
 Requested convergence on MAX density matrix=1.00D-06.
 Requested convergence on             energy=1.00D-06.
 No special actions if energy rises.

 Cycle   1  Pass 1  IDiag  1:
 Inv3:  Mode=1 IEnd=     2489763.
 Iteration    1 A*A^-1 deviation from unit magnitude is 2.66D-15 for    208.
 Iteration    1 A*A^-1 deviation from orthogonality  is 1.67D-15 for    575    198.
 Iteration    1 A^-1*A deviation from unit magnitude is 2.66D-15 for    208.
 Iteration    1 A^-1*A deviation from orthogonality  is 1.11D-15 for    786     69.
 E= -304.425432670169    
 DIIS: error= 3.95D-03 at cycle   1 NSaved=   1.
 NSaved= 1 IEnMin= 1 EnMin= -304.425432670169     IErMin= 1 ErrMin= 3.95D-03
 ErrMax= 3.95D-03  0.00D+00 EMaxC= 1.00D-01 BMatC= 3.90D-03 BMatP= 3.90D-03
 IDIUse=3 WtCom= 9.60D-01 WtEn= 3.95D-02
 Coeff-Com:  0.100D+01
 Coeff-En:   0.100D+01
 Coeff:      0.100D+01
 Gap=     0.651 Goal=   None    Shift=    0.000
 GapD=    0.651 DampG=2.000 DampE=1.000 DampFc=2.0000 IDamp=-1.
 RMSDP=1.04D-03 MaxDP=1.35D-02              OVMax= 2.31D-02

 Cycle   2  Pass 1  IDiag  1:
 E= -304.429052331430     Delta-E=       -0.003619661261 Rises=F Damp=F
 DIIS: error= 2.96D-03 at cycle   2 NSaved=   2.
 NSaved= 2 IEnMin= 2 EnMin= -304.429052331430     IErMin= 2 ErrMin= 2.96D-03
 ErrMax= 2.96D-03  0.00D+00 EMaxC= 1.00D-01 BMatC= 1.68D-03 BMatP= 3.90D-03
 IDIUse=3 WtCom= 9.70D-01 WtEn= 2.96D-02
 Coeff-Com:  0.339D+00 0.661D+00
 Coeff-En:   0.000D+00 0.100D+01
 Coeff:      0.329D+00 0.671D+00
 Gap=     0.184 Goal=   None    Shift=    0.000
 RMSDP=5.73D-04 MaxDP=1.35D-02 DE=-3.62D-03 OVMax= 4.04D-02

 Cycle   3  Pass 1  IDiag  1:
 E= -304.426982116176     Delta-E=        0.002070215254 Rises=F Damp=F
 DIIS: error= 5.19D-03 at cycle   3 NSaved=   3.
 NSaved= 3 IEnMin= 2 EnMin= -304.429052331430     IErMin= 2 ErrMin= 2.96D-03
 ErrMax= 5.19D-03  0.00D+00 EMaxC= 1.00D-01 BMatC= 4.43D-03 BMatP= 1.68D-03
 IDIUse=3 WtCom= 1.22D-01 WtEn= 8.78D-01
 Coeff-Com:  0.314D-01 0.605D+00 0.363D+00
 Coeff-En:   0.000D+00 0.666D+00 0.334D+00
 Coeff:      0.383D-02 0.659D+00 0.338D+00
 Gap=     0.183 Goal=   None    Shift=    0.000
 RMSDP=3.12D-04 MaxDP=7.14D-03 DE= 2.07D-03 OVMax= 2.33D-02

 Cycle   4  Pass 1  IDiag  1:
 E= -304.430161016253     Delta-E=       -0.003178900077 Rises=F Damp=F
 DIIS: error= 7.41D-04 at cycle   4 NSaved=   4.
 NSaved= 4 IEnMin= 4 EnMin= -304.430161016253     IErMin= 4 ErrMin= 7.41D-04
 ErrMax= 7.41D-04  0.00D+00 EMaxC= 1.00D-01 BMatC= 1.36D-04 BMatP= 1.68D-03
 IDIUse=3 WtCom= 9.93D-01 WtEn= 7.41D-03
 Coeff-Com:  0.223D-02 0.367D+00 0.159D+00 0.472D+00
 Coeff-En:   0.000D+00 0.961D-01 0.000D+00 0.904D+00
 Coeff:      0.222D-02 0.365D+00 0.158D+00 0.475D+00
 Gap=     0.182 Goal=   None    Shift=    0.000
 RMSDP=7.50D-05 MaxDP=1.27D-03 DE=-3.18D-03 OVMax= 2.78D-03

 Cycle   5  Pass 1  IDiag  1:
 E= -304.430264806554     Delta-E=       -0.000103790301 Rises=F Damp=F
 DIIS: error= 9.03D-05 at cycle   5 NSaved=   5.
 NSaved= 5 IEnMin= 5 EnMin= -304.430264806554     IErMin= 5 ErrMin= 9.03D-05
 ErrMax= 9.03D-05  0.00D+00 EMaxC= 1.00D-01 BMatC= 2.35D-06 BMatP= 1.36D-04
 IDIUse=1 WtCom= 1.00D+00 WtEn= 0.00D+00
 Coeff-Com: -0.271D-05 0.144D+00 0.593D-01 0.241D+00 0.556D+00
 Coeff:     -0.271D-05 0.144D+00 0.593D-01 0.241D+00 0.556D+00
 Gap=     0.181 Goal=   None    Shift=    0.000
 RMSDP=1.05D-05 MaxDP=1.73D-04 DE=-1.04D-04 OVMax= 4.85D-04

 Cycle   6  Pass 1  IDiag  1:
 E= -304.430266090534     Delta-E=       -0.000001283979 Rises=F Damp=F
 DIIS: error= 4.57D-05 at cycle   6 NSaved=   6.
 NSaved= 6 IEnMin= 6 EnMin= -304.430266090534     IErMin= 6 ErrMin= 4.57D-05
 ErrMax= 4.57D-05  0.00D+00 EMaxC= 1.00D-01 BMatC= 5.57D-07 BMatP= 2.35D-06
 IDIUse=1 WtCom= 1.00D+00 WtEn= 0.00D+00
 Coeff-Com: -0.178D-03 0.462D-01 0.180D-01 0.992D-01 0.377D+00 0.460D+00
 Coeff:     -0.178D-03 0.462D-01 0.180D-01 0.992D-01 0.377D+00 0.460D+00
 Gap=     0.181 Goal=   None    Shift=    0.000
 RMSDP=3.95D-06 MaxDP=7.67D-05 DE=-1.28D-06 OVMax= 1.63D-04

 Cycle   7  Pass 1  IDiag  1:
 E= -304.430266515489     Delta-E=       -0.000000424955 Rises=F Damp=F
 DIIS: error= 6.38D-06 at cycle   7 NSaved=   7.
 NSaved= 7 IEnMin= 7 EnMin= -304.430266515489     IErMin= 7 ErrMin= 6.38D-06
 ErrMax= 6.38D-06  0.00D+00 EMaxC= 1.00D-01 BMatC= 1.03D-08 BMatP= 5.57D-07
 IDIUse=1 WtCom= 1.00D+00 WtEn= 0.00D+00
 Coeff-Com: -0.677D-04 0.107D-01 0.345D-02 0.280D-01 0.124D+00 0.194D+00
 Coeff-Com:  0.640D+00
 Coeff:     -0.677D-04 0.107D-01 0.345D-02 0.280D-01 0.124D+00 0.194D+00
 Coeff:      0.640D+00
 Gap=     0.181 Goal=   None    Shift=    0.000
 RMSDP=6.84D-07 MaxDP=1.13D-05 DE=-4.25D-07 OVMax= 2.01D-05

 Cycle   8  Pass 1  IDiag  1:
 E= -304.430266538966     Delta-E=       -0.000000023477 Rises=F Damp=F
 DIIS: error= 2.24D-06 at cycle   8 NSaved=   8.
 NSaved= 8 IEnMin= 8 EnMin= -304.430266538966     IErMin= 8 ErrMin= 2.24D-06
 ErrMax= 2.24D-06  0.00D+00 EMaxC= 1.00D-01 BMatC= 1.46D-09 BMatP= 1.03D-08
 IDIUse=1 WtCom= 1.00D+00 WtEn= 0.00D+00
 Coeff-Com: -0.191D-04 0.266D-02 0.544D-03 0.810D-02 0.371D-01 0.706D-01
 Coeff-Com:  0.347D+00 0.534D+00
 Coeff:     -0.191D-04 0.266D-02 0.544D-03 0.810D-02 0.371D-01 0.706D-01
 Coeff:      0.347D+00 0.534D+00
 Gap=     0.181 Goal=   None    Shift=    0.000
 RMSDP=3.09D-07 MaxDP=6.24D-06 DE=-2.35D-08 OVMax= 8.08D-06

 Cycle   9  Pass 1  IDiag  1:
 E= -304.430266540256     Delta-E=       -0.000000001290 Rises=F Damp=F
 DIIS: error= 3.06D-07 at cycle   9 NSaved=   9.
 NSaved= 9 IEnMin= 9 EnMin= -304.430266540256     IErMin= 9 ErrMin= 3.06D-07
 ErrMax= 3.06D-07  0.00D+00 EMaxC= 1.00D-01 BMatC= 2.89D-11 BMatP= 1.46D-09
 IDIUse=1 WtCom= 1.00D+00 WtEn= 0.00D+00
 Coeff-Com: -0.545D-05 0.464D-03-0.915D-05 0.176D-02 0.871D-02 0.183D-01
 Coeff-Com:  0.105D+00 0.188D+00 0.677D+00
 Coeff:     -0.545D-05 0.464D-03-0.915D-05 0.176D-02 0.871D-02 0.183D-01
 Coeff:      0.105D+00 0.188D+00 0.677D+00
 Gap=     0.181 Goal=   None    Shift=    0.000
 RMSDP=4.88D-08 MaxDP=8.06D-07 DE=-1.29D-09 OVMax= 1.55D-06

 Cycle  10  Pass 1  IDiag  1:
 E= -304.430266540268     Delta-E=       -0.000000000012 Rises=F Damp=F
 DIIS: error= 2.63D-07 at cycle  10 NSaved=  10.
 NSaved=10 IEnMin=10 EnMin= -304.430266540268     IErMin=10 ErrMin= 2.63D-07
 ErrMax= 2.63D-07  0.00D+00 EMaxC= 1.00D-01 BMatC= 1.39D-11 BMatP= 2.89D-11
 IDIUse=1 WtCom= 1.00D+00 WtEn= 0.00D+00
 Coeff-Com: -0.170D-05 0.629D-04-0.468D-04 0.352D-03 0.194D-02 0.446D-02
 Coeff-Com:  0.315D-01 0.640D-01 0.474D+00 0.424D+00
 Coeff:     -0.170D-05 0.629D-04-0.468D-04 0.352D-03 0.194D-02 0.446D-02
 Coeff:      0.315D-01 0.640D-01 0.474D+00 0.424D+00
 Gap=     0.181 Goal=   None    Shift=    0.000
 RMSDP=2.53D-08 MaxDP=4.07D-07 DE=-1.24D-11 OVMax= 7.83D-07

 Cycle  11  Pass 1  IDiag  1:
 E= -304.430266540278     Delta-E=       -0.000000000009 Rises=F Damp=F
 DIIS: error= 2.64D-08 at cycle  11 NSaved=  11.
 NSaved=11 IEnMin=11 EnMin= -304.430266540278     IErMin=11 ErrMin= 2.64D-08
 ErrMax= 2.64D-08  0.00D+00 EMaxC= 1.00D-01 BMatC= 1.70D-13 BMatP= 1.39D-11
 IDIUse=1 WtCom= 1.00D+00 WtEn= 0.00D+00
 Coeff-Com:  0.663D-07-0.240D-04-0.124D-04-0.451D-04-0.105D-03-0.150D-03
 Coeff-Com:  0.119D-02 0.421D-02 0.864D-01 0.125D+00 0.784D+00
 Coeff:      0.663D-07-0.240D-04-0.124D-04-0.451D-04-0.105D-03-0.150D-03
 Coeff:      0.119D-02 0.421D-02 0.864D-01 0.125D+00 0.784D+00
 Gap=     0.181 Goal=   None    Shift=    0.000
 RMSDP=3.61D-09 MaxDP=5.06D-08 DE=-9.49D-12 OVMax= 1.16D-07

 Error on total polarization charges =  0.00702
 SCF Done:  E(RB-P86) =  -304.430266540     A.U. after   11 cycles
            NFock= 11  Conv=0.36D-08     -V/T= 2.0040
 KE= 3.032245041346D+02 PE=-1.071224967293D+03 EE= 2.861556485868D+02
 Leave Link  502 at Mon Feb 22 20:57:25 2021, MaxMem=   104857600 cpu:              70.1 elap:               2.7
 (Enter /sw/arch/RedHatEnterpriseServer7/EB_production/2019/software/Gaussian/g16.c01/l701.exe)
 ... and contract with generalized density number  0.
 Compute integral first derivatives.
 R6Disp: Adding Grimme-D3 dispersion energy 1st derivatives to the gradient.
 PrsmSu:  requested number of processors reduced to:  30 ShMem   1 Linda.
 D1PCM: PCM CHGder 1st derivatives, ID1Alg=3 FixD1E=F DoIter=F DoCFld=F I1PDM=0.
 GePol: Maximum number of non-zero 1st derivatives   =     215
 CoulSu:  requested number of processors reduced to:  30 ShMem   1 Linda.
 CoulSu:  requested number of processors reduced to:  30 ShMem   1 Linda.
 Leave Link  701 at Mon Feb 22 20:57:26 2021, MaxMem=   104857600 cpu:              16.1 elap:               0.6
 (Enter /sw/arch/RedHatEnterpriseServer7/EB_production/2019/software/Gaussian/g16.c01/l702.exe)
 L702 exits ... SP integral derivatives will be done elsewhere.
 Leave Link  702 at Mon Feb 22 20:57:26 2021, MaxMem=   104857600 cpu:               0.7 elap:               0.0
 (Enter /sw/arch/RedHatEnterpriseServer7/EB_production/2019/software/Gaussian/g16.c01/l703.exe)
 Integral derivatives from FoFJK, PRISM(SPDF).
 Compute integral first derivatives, UseDBF=F ICtDFT=           0.
 Calling FoFJK, ICntrl=      2527 FMM=F ISym2X=0 I1Cent= 0 IOpClX= 0 NMat=1 NMatS=1 NMatT=0.
 FoFJK:  IHMeth= 1 ICntrl=    2527 DoSepK=F KAlg= 0 I1Cent=           0 FoldK=F
 IRaf=         0 NMat=       1 IRICut=       1 DoRegI=T DoRafI=F ISym2E= 0 IDoP0=0 IntGTp=1.
 FoFCou: FMM=F IPFlag=           0 FMFlag=      100000 FMFlg1=         800
         NFxFlg=           0 DoJE=F BraDBF=F KetDBF=F FulRan=T
         wScrn=  0.000000 ICntrl=      2527 IOpCl=  0 I1Cent=           0 NGrid=           0
         NMat0=    1 NMatS0=      1 NMatT0=    0 NMatD0=    1 NMtDS0=    0 NMtDT0=    0
 Symmetry not used in FoFCou.
 Leave Link  703 at Mon Feb 22 20:57:26 2021, MaxMem=   104857600 cpu:              10.6 elap:               0.4
 (Enter /sw/arch/RedHatEnterpriseServer7/EB_production/2019/software/Gaussian/g16.c01/l716.exe)
 Dipole        =-1.84584157D-01-1.35342813D+00 5.67336865D-01
 ***** Axes restored to original set *****
 -------------------------------------------------------------------
 Center     Atomic                   Forces (Hartrees/Bohr)
 Number     Number              X              Y              Z
 -------------------------------------------------------------------
      1        8           0.007881824   -0.015150748   -0.001635951
      2        6          -0.009112132    0.028628611   -0.001609038
      3        8           0.003586082   -0.008092059   -0.000099701
      4        6          -0.004422231   -0.012269766    0.001602471
      5        8           0.001033395    0.000012332    0.001291848
      6        1           0.002066768    0.005202443   -0.000526824
      7        1          -0.000426931    0.001019745   -0.000753673
      8        1          -0.000628096   -0.000065626    0.001680598
      9        1           0.000021320    0.000715068    0.000050270
 -------------------------------------------------------------------
 Cartesian Forces:  Max     0.028628611 RMS     0.007429829
 Leave Link  716 at Mon Feb 22 20:57:26 2021, MaxMem=   104857600 cpu:               0.6 elap:               0.0
 (Enter /sw/arch/RedHatEnterpriseServer7/EB_production/2019/software/Gaussian/g16.c01/l103.exe)

 GradGradGradGradGradGradGradGradGradGradGradGradGradGradGradGradGradGrad
 Berny optimization.
 Using GEDIIS/GDIIS optimizer.
 FormGI is forming the generalized inverse of G from B-inverse, IUseBI=4.
 Internal  Forces:  Max     0.016739541 RMS     0.004292001
 Search for a local minimum.
 Step number   2 out of a maximum of   40
 All quantities printed in internal units (Hartrees-Bohrs-Radians)
 RMS Force = .42920D-02 SwitMx=.10000D-02 MixMth= 1
 Mixed Optimization -- RFO/linear search
 Update second derivatives using D2CorX and points    1    2
 DE= -1.08D-02 DEPred=-1.04D-02 R= 1.04D+00
 TightC=F SS=  1.41D+00  RLast= 2.93D-01 DXNew= 5.0454D-01 8.7980D-01
 Trust test= 1.04D+00 RLast= 2.93D-01 DXMaxT set to 5.05D-01
 ITU=  1  0
 Use linear search instead of GDIIS.
     Eigenvalues ---    0.01172   0.01391   0.01468   0.02305   0.06873
     Eigenvalues ---    0.07953   0.11181   0.13808   0.15889   0.16028
     Eigenvalues ---    0.21916   0.23484   0.26678   0.33935   0.34650
     Eigenvalues ---    0.35274   0.42514   0.51266   0.51808   0.55944
     Eigenvalues ---    0.79393
 RFO step:  Lambda=-1.37082891D-03 EMin= 1.17200839D-02
 Quartic linear search produced a step of  0.10585.
 Iteration  1 RMS(Cart)=  0.03552608 RMS(Int)=  0.00060062
 Iteration  2 RMS(Cart)=  0.00084896 RMS(Int)=  0.00013284
 Iteration  3 RMS(Cart)=  0.00000057 RMS(Int)=  0.00013283
 ITry= 1 IFail=0 DXMaxC= 9.24D-02 DCOld= 1.00D+10 DXMaxT= 5.05D-01 DXLimC= 3.00D+00 Rises=F
 Variable       Old X    -DE/DX   Delta X   Delta X   Delta X     New X
                                 (Linear)    (Quad)   (Total)
    R1        2.33278  -0.01674  -0.00357  -0.02108  -0.02465   2.30814
    R2        2.53586   0.00622  -0.00230   0.01353   0.01123   2.54710
    R3        2.83530   0.01164   0.00627   0.03303   0.03931   2.87460
    R4        1.84520   0.00537  -0.00065   0.01176   0.01111   1.85631
    R5        2.72180  -0.00164   0.00353  -0.00578  -0.00225   2.71955
    R6        2.08659  -0.00108   0.00231  -0.00446  -0.00215   2.08445
    R7        2.08513   0.00174   0.00250   0.00442   0.00693   2.09206
    R8        1.84156  -0.00052  -0.00116  -0.00065  -0.00181   1.83975
    A1        2.16651  -0.00289   0.00957  -0.01727  -0.00790   2.15862
    A2        2.13791   0.00571   0.00378   0.02334   0.02689   2.16481
    A3        1.97876  -0.00282  -0.01335  -0.00600  -0.01956   1.95920
    A4        1.90630  -0.00277  -0.02023  -0.00766  -0.02789   1.87842
    A5        1.87325  -0.00082  -0.00480  -0.00230  -0.00710   1.86615
    A6        1.93183  -0.00003   0.00066  -0.00038   0.00033   1.93216
    A7        1.86169   0.00061  -0.00529   0.00781   0.00249   1.86418
    A8        1.95450   0.00051   0.00553  -0.00050   0.00499   1.95949
    A9        1.94858  -0.00041   0.00425  -0.00795  -0.00390   1.94469
   A10        1.89206   0.00012  -0.00053   0.00363   0.00296   1.89502
   A11        1.86180   0.00020   0.00364  -0.00065   0.00299   1.86479
    D1        0.00376   0.00039   0.00219   0.00729   0.00981   0.01357
    D2       -3.13979   0.00093   0.00178   0.04512   0.04657  -3.09322
    D3        1.03548  -0.00054  -0.00354  -0.02641  -0.02978   1.00570
    D4       -3.11004  -0.00046   0.00062  -0.02874  -0.02802  -3.13806
    D5       -1.05518   0.00003  -0.00284  -0.02004  -0.02284  -1.07802
    D6       -2.10419  -0.00106  -0.00313  -0.06348  -0.06665  -2.17084
    D7        0.03348  -0.00098   0.00103  -0.06581  -0.06490  -0.03141
    D8        2.08834  -0.00049  -0.00244  -0.05711  -0.05971   2.02862
    D9       -3.13531   0.00018   0.00320   0.01639   0.01960  -3.11572
   D10        1.02433   0.00044   0.00202   0.01871   0.02087   1.04520
   D11       -1.10103   0.00021  -0.00367   0.02009   0.01627  -1.08476
         Item               Value     Threshold  Converged?
 Maximum Force            0.016740     0.000450     NO 
 RMS     Force            0.004292     0.000300     NO 
 Maximum Displacement     0.092444     0.001800     NO 
 RMS     Displacement     0.035771     0.001200     NO 
 Predicted change in Energy=-8.282880D-04
 Lowest energy point so far.  Saving SCF results.
 GradGradGradGradGradGradGradGradGradGradGradGradGradGradGradGradGradGrad

 Leave Link  103 at Mon Feb 22 20:57:26 2021, MaxMem=   104857600 cpu:               0.7 elap:               0.1
 (Enter /sw/arch/RedHatEnterpriseServer7/EB_production/2019/software/Gaussian/g16.c01/l202.exe)
                          Input orientation:                          
 ---------------------------------------------------------------------
 Center     Atomic      Atomic             Coordinates (Angstroms)
 Number     Number       Type             X           Y           Z
 ---------------------------------------------------------------------
      1          8           0        1.019522    1.304422    0.007383
      2          6           0        1.353774    0.130335    0.047955
      3          8           0        2.585752   -0.307824   -0.279142
      4          6           0        0.447275   -0.997199    0.517952
      5          8           0       -0.724735   -0.967992   -0.316687
      6          1           0        3.123688    0.475521   -0.528028
      7          1           0        0.972074   -1.966107    0.467906
      8          1           0        0.196028   -0.786389    1.575325
      9          1           0       -1.314568   -1.674647    0.000397
 ---------------------------------------------------------------------
                    Distance matrix (angstroms):
                    1          2          3          4          5
     1  O    0.000000
     2  C    1.221414   0.000000
     3  O    2.265946   1.347867   0.000000
     4  C    2.426027   1.521174   2.384047   0.000000
     5  O    2.882935   2.378967   3.375878   1.439125   0.000000
     6  H    2.324060   1.893015   0.982318   3.228957   4.115672
     7  H    3.303133   2.171893   2.431448   1.103041   2.119192
     8  H    2.740086   2.124528   3.062492   1.107070   2.111988
     9  H    3.784558   3.221843   4.142324   1.957266   0.973554
                    6          7          8          9
     6  H    0.000000
     7  H    3.403363   0.000000
     8  H    3.819386   1.794536   0.000000
     9  H    4.959897   2.352072   2.356120   0.000000
 Stoichiometry    C2H4O3
 Framework group  C1[X(C2H4O3)]
 Deg. of freedom    21
 Full point group                 C1      NOp   1
 RotChk:  IX=0 Diff= 5.54D-02
 Largest Abelian subgroup         C1      NOp   1
 Largest concise Abelian subgroup C1      NOp   1
                         Standard orientation:                         
 ---------------------------------------------------------------------
 Center     Atomic      Atomic             Coordinates (Angstroms)
 Number     Number       Type             X           Y           Z
 ---------------------------------------------------------------------
      1          8           0        0.817356    1.291476    0.084332
      2          6           0        0.545719    0.100659    0.079808
      3          8           0        1.435648   -0.867889   -0.214612
      4          6           0       -0.817373   -0.463078    0.451496
      5          8           0       -1.777253    0.145442   -0.431349
      6          1           0        2.297312   -0.433915   -0.399417
      7          1           0       -0.818235   -1.563489    0.375381
      8          1           0       -1.003185   -0.182353    1.506139
      9          1           0       -2.651970   -0.197962   -0.176884
 ---------------------------------------------------------------------
 Rotational constants (GHZ):           9.4819452           3.9253363           3.0764412
 Leave Link  202 at Mon Feb 22 20:57:26 2021, MaxMem=   104857600 cpu:               0.4 elap:               0.0
 (Enter /sw/arch/RedHatEnterpriseServer7/EB_production/2019/software/Gaussian/g16.c01/l301.exe)
 Standard basis: TZVP (5D, 7F)
 Ernie: Thresh=  0.10000D-02 Tol=  0.10000D-05 Strict=F.
 There are   124 symmetry adapted cartesian basis functions of A   symmetry.
 There are   119 symmetry adapted basis functions of A   symmetry.
   119 basis functions,   207 primitive gaussians,   124 cartesian basis functions
    20 alpha electrons       20 beta electrons
       nuclear repulsion energy       177.0590351592 Hartrees.
 IExCor=  404 DFT=T Ex=B Corr=P86 ExCW=0 ScaHFX=  0.000000
 ScaDFX=  1.000000  1.000000  1.000000  1.000000 ScalE2=  1.000000  1.000000
 IRadAn=      5 IRanWt=     -1 IRanGd=            0 ICorTp=0 IEmpDi=131
 NAtoms=    9 NActive=    9 NUniq=    9 SFac= 1.00D+00 NAtFMM=   60 NAOKFM=F Big=F
 Integral buffers will be    131072 words long.
 Raffenetti 2 integral format.
 Two-electron integral symmetry is turned on.
 R6Disp:  Grimme-D3 Dispersion energy=       -0.0047414025 Hartrees.
 Nuclear repulsion after empirical dispersion term =      177.0542937567 Hartrees.
 ------------------------------------------------------------------------------
 Polarizable Continuum Model (PCM)
 =================================
 Model                : PCM.
 Atomic radii         : UFF (Universal Force Field).
 Polarization charges : Total charges.
 Charge compensation  : None.
 Solution method      : On-the-fly selection.
 Cavity type          : Scaled VdW (van der Waals Surface) (Alpha=1.100).
 Cavity algorithm     : GePol (No added spheres)
                        Default sphere list used, NSphG=    9.
                        Lebedev-Laikov grids with approx.  5.0 points / Ang**2.
                        Smoothing algorithm: York/Karplus (Gamma=1.0000).
                        Polarization charges: spherical gaussians, with
                                              point-specific exponents (IZeta= 3).
                        Self-potential: point-specific (ISelfS= 7).
                        Self-field    : sphere-specific E.n sum rule (ISelfD= 2).
 1st derivatives      : Analytical E(r).r(x)/FMM algorithm (CHGder, D1EAlg=3).
                        Cavity 1st derivative terms included.
 Solvent              : Water, Eps=  78.355300 Eps(inf)=   1.777849
 ------------------------------------------------------------------------------
 Spheres list:
 ISph  on   Nord     Re0    Alpha      Xe            Ye            Ze
    1   O      1    1.7500  1.100      0.817356      1.291476      0.084332
    2   C      2    1.9255  1.100      0.545719      0.100659      0.079808
    3   O      3    1.7500  1.100      1.435648     -0.867889     -0.214612
    4   C      4    1.9255  1.100     -0.817373     -0.463078      0.451496
    5   O      5    1.7500  1.100     -1.777253      0.145442     -0.431349
    6   H      6    1.4430  1.100      2.297312     -0.433915     -0.399417
    7   H      7    1.4430  1.100     -0.818235     -1.563489      0.375381
    8   H      8    1.4430  1.100     -1.003185     -0.182353      1.506139
    9   H      9    1.4430  1.100     -2.651970     -0.197962     -0.176884
 ------------------------------------------------------------------------------
 GePol: Number of generator spheres                  =       9
 GePol: Total number of spheres                      =       9
 GePol: Number of exposed spheres                    =       9 (100.00%)
 GePol: Number of points                             =     917
 GePol: Average weight of points                     =       0.14
 GePol: Minimum weight of points                     =   0.90D-11
 GePol: Maximum weight of points                     =    0.20577
 GePol: Number of points with low weight             =      37
 GePol: Fraction of low-weight points (<1% of avg)   =       4.03%
 GePol: Cavity surface area                          =    125.449 Ang**2
 GePol: Cavity volume                                =    108.642 Ang**3
 Leave Link  301 at Mon Feb 22 20:57:27 2021, MaxMem=   104857600 cpu:               1.6 elap:               0.1
 (Enter /sw/arch/RedHatEnterpriseServer7/EB_production/2019/software/Gaussian/g16.c01/l302.exe)
 NPDir=0 NMtPBC=     1 NCelOv=     1 NCel=       1 NClECP=     1 NCelD=      1
         NCelK=      1 NCelE2=     1 NClLst=     1 CellRange=     0.0.
 One-electron integrals computed using PRISM.
 One-electron integral symmetry used in STVInt
 PrsmSu:  requested number of processors reduced to:  30 ShMem   1 Linda.
 NBasis=   119 RedAO= T EigKep=  5.66D-04  NBF=   119
 NBsUse=   119 1.00D-06 EigRej= -1.00D+00 NBFU=   119
 Precomputing XC quadrature grid using
 IXCGrd= 4 IRadAn=           5 IRanWt=          -1 IRanGd=           0 AccXCQ= 0.00D+00.
 Generated NRdTot=       0 NPtTot=           0 NUsed=           0 NTot=          32
 NSgBfM=   123   123   123   123   123 MxSgAt=     9 MxSgA2=     9.
 Leave Link  302 at Mon Feb 22 20:57:27 2021, MaxMem=   104857600 cpu:               5.5 elap:               0.2
 (Enter /sw/arch/RedHatEnterpriseServer7/EB_production/2019/software/Gaussian/g16.c01/l303.exe)
 DipDrv:  MaxL=1.
 Leave Link  303 at Mon Feb 22 20:57:27 2021, MaxMem=   104857600 cpu:               2.0 elap:               0.1
 (Enter /sw/arch/RedHatEnterpriseServer7/EB_production/2019/software/Gaussian/g16.c01/l401.exe)
 Initial guess from the checkpoint file:  "AEMRFAOFKBGASW-UHFFFAOYSA-N.chk"
 B after Tr=    -0.000000   -0.000000    0.000000
         Rot=    0.999937   -0.011161   -0.000174    0.000987 Ang=  -1.28 deg.
 Guess basis will be translated and rotated to current coordinates.
 JPrj=2 DoOrth=T DoCkMO=T.
 Generating alternative initial guess.
 ExpMin= 9.52D-02 ExpMax= 2.70D+04 ExpMxC= 9.22D+02 IAcc=3 IRadAn=         5 AccDes= 0.00D+00
 Harris functional with IExCor=  404 and IRadAn=       5 diagonalized for initial guess.
 HarFok:  IExCor=  404 AccDes= 0.00D+00 IRadAn=         5 IDoV= 1 UseB2=F ITyADJ=14
 ICtDFT=  3500011 ScaDFX=  1.000000  1.000000  1.000000  1.000000
 FoFCou: FMM=F IPFlag=           0 FMFlag=      100000 FMFlg1=           0
         NFxFlg=           0 DoJE=T BraDBF=F KetDBF=T FulRan=T
[...]
 Charge =  0 Multiplicity = 1
 Redundant internal coordinates found in file.  (old form).
 O,0,0.9654304687,1.0676660015,-0.7395716804
 C,0,1.333523894,0.0937997381,-0.110171359
 O,0,2.6261626901,-0.1314401992,0.2510581443
 C,0,0.4545684884,-1.0392634639,0.3885945678
 O,0,-0.892404749,-0.788861139,0.0029494693
 H,0,3.1651909766,0.6162363341,-0.0855447909
 H,0,0.8529691158,-1.9796052312,-0.0373594922
 H,0,0.5806545346,-1.0977235102,1.486356906
 H,0,-1.4272854191,-1.5306885303,0.336748235
 Recover connectivity data from disk.
                           ----------------------------
                           !    Current Parameters    !
                           ! (Angstroms and Degrees)  !
 --------------------------                            --------------------------
 ! Name  Definition              Value                                          !
 --------------------------------------------------------------------------------
 ! R1    R(1,2)                  1.2166                                         !
 ! R2    R(2,3)                  1.3609                                         !
 ! R3    R(2,4)                  1.5183                                         !
 ! R4    R(3,6)                  0.9813                                         !
 ! R5    R(4,5)                  1.4233                                         !
 ! R6    R(4,7)                  1.1065                                         !
 ! R7    R(4,8)                  1.1065                                         !
 ! R8    R(5,9)                  0.9736                                         !
 ! A1    A(1,2,3)              123.8616                                         !
 ! A2    A(1,2,4)              126.3128                                         !
 ! A3    A(3,2,4)              109.8256                                         !
 ! A4    A(2,3,6)              107.7341                                         !
 ! A5    A(2,4,5)              109.1213                                         !
 ! A6    A(2,4,7)              107.4159                                         !
 ! A7    A(2,4,8)              107.4196                                         !
 ! A8    A(5,4,7)              112.7025                                         !
 ! A9    A(5,4,8)              112.7021                                         !
 ! A10   A(7,4,8)              107.216                                          !
 ! A11   A(4,5,9)              107.0371                                         !
 ! D1    D(1,2,3,6)             -0.0068                                         !
 ! D2    D(4,2,3,6)            179.9914                                         !
 ! D3    D(1,2,4,5)              0.0035                                         !
 ! D4    D(1,2,4,7)            122.4739                                         !
 ! D5    D(1,2,4,8)           -122.4686                                         !
 ! D6    D(3,2,4,5)           -179.9946                                         !
 ! D7    D(3,2,4,7)            -57.5242                                         !
 ! D8    D(3,2,4,8)             57.5333                                         !
 ! D9    D(2,4,5,9)           -180.0                                            !
 ! D10   D(7,4,5,9)             60.7623                                         !
 ! D11   D(8,4,5,9)            -60.7579                                         !
 --------------------------------------------------------------------------------
                          Input orientation:                          
 ---------------------------------------------------------------------
 Center     Atomic      Atomic             Coordinates (Angstroms)
 Number     Number       Type             X           Y           Z
 ---------------------------------------------------------------------
      1          8           0        0.965430    1.067666   -0.739572
      2          6           0        1.333524    0.093800   -0.110171
      3          8           0        2.626163   -0.131440    0.251058
      4          6           0        0.454568   -1.039263    0.388595
      5          8           0       -0.892405   -0.788861    0.002949
      6          1           0        3.165191    0.616236   -0.085545
      7          1           0        0.852969   -1.979605   -0.037359
      8          1           0        0.580655   -1.097724    1.486357
      9          1           0       -1.427285   -1.530689    0.336748
 ---------------------------------------------------------------------
                    Distance matrix (angstroms):
                    1          2          3          4          5
     1  O    0.000000
     2  C    1.216574   0.000000
     3  O    2.275354   1.360932   0.000000
     4  C    2.443950   1.518276   2.357728   0.000000
     5  O    2.729392   2.397216   3.588046   1.423292   0.000000
     6  H    2.338907   1.904876   0.981261   3.211380   4.294905
     7  H    3.129155   2.129611   2.577424   1.106527   2.113250
     8  H    3.129173   2.129658   2.577551   1.106525   2.113243
     9  H    3.692560   3.234311   4.289019   1.945652   0.973564
                    6          7          8          9
     6  H    0.000000
     7  H    3.476649   0.000000
     8  H    3.476832   1.781455   0.000000
     9  H    5.087087   2.353942   2.353908   0.000000
 Stoichiometry    C2H4O3
 Framework group  C1[X(C2H4O3)]
 Deg. of freedom    21
 Full point group                 C1      NOp   1
 Largest Abelian subgroup         C1      NOp   1
 Largest concise Abelian subgroup C1      NOp   1
                         Standard orientation:                         
 ---------------------------------------------------------------------
 Center     Atomic      Atomic             Coordinates (Angstroms)
 Number     Number       Type             X           Y           Z
 ---------------------------------------------------------------------
      1          8           0        0.634971    1.330018    0.000019
      2          6           0        0.537002    0.117395    0.000027
      3          8           0        1.602365   -0.729443   -0.000015
      4          6           0       -0.754850   -0.680277    0.000039
      5          8           0       -1.858060    0.218993   -0.000044
      6          1           0        2.417918   -0.183781   -0.000161
      7          1           0       -0.738828   -1.336621   -0.890668
      8          1           0       -0.738926   -1.336564    0.890787
      9          1           0       -2.667284   -0.322287   -0.000034
 ---------------------------------------------------------------------
 Rotational constants (GHZ):          10.4363407           3.9227431           2.9034830
 Standard basis: TZVP (5D, 7F)
 There are   124 symmetry adapted cartesian basis functions of A   symmetry.
 There are   119 symmetry adapted basis functions of A   symmetry.
   119 basis functions,   207 primitive gaussians,   124 cartesian basis functions
    20 alpha electrons       20 beta electrons
       nuclear repulsion energy       177.1643684356 Hartrees.
 NAtoms=    9 NActive=    9 NUniq=    9 SFac= 1.00D+00 NAtFMM=   60 NAOKFM=F Big=F
 Integral buffers will be    131072 words long.
 Raffenetti 2 integral format.
 Two-electron integral symmetry is turned on.
 Warning! Using old PCM defaults because the COSMOthermo output has been requested.
 These settings can be overridden by following keywords.
 ------------------------------------------------------------------------------
 Polarizable Continuum Model (PCM)
 =================================
 Model                : C-PCM.
 Atomic radii         : Klamt.
 XCosmo               : -1.000 (infinite dielectric limit)
 Polarization charges : Electronic and nuclear charges.
 Charge compensation  : Type 3 (Electronic density weighted correction).
 Solution method      : On-the-fly selection.
 Cavity type          : VdW (van der Waals Surface) (Alpha=1.000).
 Cavity algorithm     : GePol (No added spheres)
                        Default sphere list used, NSphG=    9.
                        Tesserae with average area of 0.200 Ang**2.
                        Smoothing algorithm: None.
                        Polarization charges: point-like.
                        Self-potential: constant (ISelfS= 1).
                        Self-field    : global E.n sum rule (ISelfD= 3).
 Solvent              : Water, Eps=  78.355300 Eps(inf)=   1.777849
 ------------------------------------------------------------------------------
 Spheres list:
 ISph  on   Nord     Re0    Alpha      Xe            Ye            Ze
    1   O      1    1.7200  1.000      0.634971      1.330018      0.000019
    2   C      2    2.0000  1.000      0.537002      0.117395      0.000027
    3   O      3    1.7200  1.000      1.602365     -0.729443     -0.000015
    4   C      4    2.0000  1.000     -0.754850     -0.680277      0.000039
    5   O      5    1.7200  1.000     -1.858060      0.218993     -0.000044
    6   H      6    1.3000  1.000      2.417918     -0.183781     -0.000161
    7   H      7    1.3000  1.000     -0.738828     -1.336621     -0.890668
    8   H      8    1.3000  1.000     -0.738926     -1.336564      0.890787
    9   H      9    1.3000  1.000     -2.667284     -0.322287     -0.000034
 ------------------------------------------------------------------------------
 One-electron integrals computed using PRISM.
 PrsmSu:  requested number of processors reduced to:  30 ShMem   1 Linda.
 NBasis=   119 RedAO= T EigKep=  5.24D-04  NBF=   119
 NBsUse=   119 1.00D-06 EigRej= -1.00D+00 NBFU=   119
 Initial guess from the checkpoint file:  "AEMRFAOFKBGASW-UHFFFAOYSA-N.chk"
 B after Tr=    -0.000000   -0.000000   -0.000000
         Rot=    1.000000    0.000000    0.000000    0.000000 Ang=   0.00 deg.
 Keep J ints in memory in canonical form, NReq=55946220.
 Requested convergence on RMS density matrix=1.00D-08 within 128 cycles.
 Requested convergence on MAX density matrix=1.00D-06.
 Requested convergence on             energy=1.00D-06.
 No special actions if energy rises.
 Inv3:  Mode=1 IEnd=     1470000.
 Iteration    1 A*A^-1 deviation from unit magnitude is 2.89D-15 for    206.
 Iteration    1 A*A^-1 deviation from orthogonality  is 2.22D-15 for    460    328.
 Iteration    1 A^-1*A deviation from unit magnitude is 2.66D-15 for    103.
 Iteration    1 A^-1*A deviation from orthogonality  is 4.44D-15 for    460    328.
 Error on nuclear    polarization charges =  0.01098
 Error on electronic polarization charges = -0.02975
 SCF Done:  E(RB-P86) =  -304.438229153     A.U. after   11 cycles
            NFock= 11  Conv=0.22D-08     -V/T= 2.0041
 --------------------------------------------------------------------
 Variational C-PCM results
 =========================
 <psi(f)|   H    |psi(f)>                     (a.u.) =    -304.411344
 <psi(f)|H+V(f)/2|psi(f)>                     (a.u.) =    -304.438229
 Total free energy in solution:
 - with all non electrostatic terms           (a.u.) =    -304.431372
 --------------------------------------------------------------------
 (Polarized solute)-Solvent               (kcal/mol) =     -16.87
 --------------------------------------------------------------------
 Cavitation energy                        (kcal/mol) =      13.46
 Dispersion energy                        (kcal/mol) =     -10.10
 Repulsion energy                         (kcal/mol) =       0.94
 Total non electrostatic                  (kcal/mol) =       4.30
 --------------------------------------------------------------------
 Partition over spheres:
 Sphere  on Atom  Surface  Charge   GEl     GCav    GDR
    1      O1      19.88   0.235   -4.84    2.47   -1.64
    2      C2      11.00  -0.041   -0.23    1.29   -0.74
    3      O3      15.79   0.081   -0.48    1.96   -1.39
    4      C4      12.70  -0.058   -0.77    1.49   -0.66
    5      O5      15.88   0.177   -3.57    1.97   -1.35
    6      H6       8.50  -0.156   -2.95    1.20   -0.87
    7      H7       6.61  -0.052   -0.67    0.93   -0.79
    8      H8       6.61  -0.052   -0.67    0.93   -0.79
    9      H9       8.51  -0.136   -2.70    1.20   -0.93
 --------------------------------------------------------------------
 - cavitation energy not included in the total energy.
 - dispersion energy not included in the total energy.
 - repulsion  energy not included in the total energy.
 After PCM corrections, the energy is  -304.438229153     a.u.
 --------------------------------------------------------------------
 Writing COSMO formatted file "AEMRFAOFKBGASW-UHFFFAOYSA-N.cosmo"
 Recomputed dielectric energy= -0.026987 old= -0.026885 diff=-1.02D-04

 **********************************************************************

            Population analysis using the SCF Density.

 **********************************************************************

 Orbital symmetries:
       Occupied  (A) (A) (A) (A) (A) (A) (A) (A) (A) (A) (A) (A)
                 (A) (A) (A) (A) (A) (A) (A) (A)
       Virtual   (A) (A) (A) (A) (A) (A) (A) (A) (A) (A) (A) (A)
                 (A) (A) (A) (A) (A) (A) (A) (A) (A) (A) (A) (A)
                 (A) (A) (A) (A) (A) (A) (A) (A) (A) (A) (A) (A)
                 (A) (A) (A) (A) (A) (A) (A) (A) (A) (A) (A) (A)
                 (A) (A) (A) (A) (A) (A) (A) (A) (A) (A) (A) (A)
                 (A) (A) (A) (A) (A) (A) (A) (A) (A) (A) (A) (A)
                 (A) (A) (A) (A) (A) (A) (A) (A) (A) (A) (A) (A)
                 (A) (A) (A) (A) (A) (A) (A) (A) (A) (A) (A) (A)
                 (A) (A) (A)
 The electronic state is 1-A.
 Alpha  occ. eigenvalues --  -18.82428 -18.78353 -18.77612 -10.03776  -9.96402
 Alpha  occ. eigenvalues --   -1.02800  -0.95499  -0.94237  -0.68229  -0.55730
 Alpha  occ. eigenvalues --   -0.48362  -0.44330  -0.44234  -0.43703  -0.37500
 Alpha  occ. eigenvalues --   -0.36731  -0.32335  -0.29808  -0.25520  -0.24686
 Alpha virt. eigenvalues --   -0.04936   0.01858   0.02841   0.07458   0.10273
 Alpha virt. eigenvalues --    0.10878   0.15249   0.15456   0.18275   0.21675
 Alpha virt. eigenvalues --    0.25193   0.27642   0.27656   0.30115   0.32376
 Alpha virt. eigenvalues --    0.34912   0.36046   0.38777   0.39905   0.41784
 Alpha virt. eigenvalues --    0.43956   0.45543   0.45842   0.48704   0.48819
 Alpha virt. eigenvalues --    0.50202   0.55904   0.58822   0.65564   0.66367
 Alpha virt. eigenvalues --    0.75730   0.81767   0.89388   1.10033   1.17288
 Alpha virt. eigenvalues --    1.21084   1.22860   1.24496   1.29081   1.30645
 Alpha virt. eigenvalues --    1.31922   1.35968   1.38793   1.45862   1.48257
 Alpha virt. eigenvalues --    1.49324   1.53241   1.62757   1.68632   1.69852
 Alpha virt. eigenvalues --    1.73198   1.80493   1.90957   1.95680   1.97826
 Alpha virt. eigenvalues --    2.01137   2.08085   2.13575   2.22990   2.23111
 Alpha virt. eigenvalues --    2.31532   2.40250   2.41773   2.41823   2.50353
 Alpha virt. eigenvalues --    2.50370   2.52907   2.54956   2.55427   2.58015
 Alpha virt. eigenvalues --    2.61010   2.61132   2.63687   2.77215   2.79338
 Alpha virt. eigenvalues --    2.83676   2.83810   2.84653   2.84740   2.91496
 Alpha virt. eigenvalues --    2.93408   2.98954   3.06560   3.08968   3.12192
 Alpha virt. eigenvalues --    3.16014   3.22240   3.23305   3.39355   3.77848
 Alpha virt. eigenvalues --    3.84175   4.09738   4.16497   4.18451  21.57777
 Alpha virt. eigenvalues --   21.71223  42.98140  43.05081  43.14166
          Condensed to atoms (all electrons):
               1          2          3          4          5          6
     1  O    7.960442   0.593769  -0.105370  -0.101637   0.010930   0.002845
     2  C    0.593769   4.899242   0.306241   0.102977  -0.081899  -0.012899
     3  O   -0.105370   0.306241   7.911697  -0.125960   0.003776   0.286365
     4  C   -0.101637   0.102977  -0.125960   5.246440   0.290280   0.012429
     5  O    0.010930  -0.081899   0.003776   0.290280   7.984288  -0.000326
     6  H    0.002845  -0.012899   0.286365   0.012429  -0.000326   0.374760
     7  H    0.000607  -0.033470   0.006572   0.396933  -0.045011  -0.000500
     8  H    0.000606  -0.033445   0.006569   0.396929  -0.045004  -0.000499
     9  H    0.000052   0.015363  -0.000237  -0.036411   0.307131   0.000025
               7          8          9
     1  O    0.000607   0.000606   0.000052
     2  C   -0.033470  -0.033445   0.015363
     3  O    0.006572   0.006569  -0.000237
     4  C    0.396933   0.396929  -0.036411
     5  O   -0.045011  -0.045004   0.307131
     6  H   -0.000500  -0.000499   0.000025
     7  H    0.546605  -0.044499  -0.002962
     8  H   -0.044499   0.546553  -0.002960
     9  H   -0.002962  -0.002960   0.395351
 Mulliken charges:
               1
     1  O   -0.362243
     2  C    0.244120
     3  O   -0.289652
     4  C   -0.181980
     5  O   -0.424166
     6  H    0.337800
     7  H    0.175723
     8  H    0.175751
     9  H    0.324647
 Sum of Mulliken charges =  -0.00000
 Mulliken charges with hydrogens summed into heavy atoms:
               1
     1  O   -0.362243
     2  C    0.244120
     3  O    0.048147
     4  C    0.169494
     5  O   -0.099518
 Electronic spatial extent (au):  <R**2>=            408.9953
 Charge=             -0.0000 electrons
 Dipole moment (field-independent basis, Debye):
    X=             -0.0241    Y=             -4.3801    Z=             -0.0002  Tot=              4.3802
 Quadrupole moment (field-independent basis, Debye-Ang):
   XX=            -18.5321   YY=            -34.4233   ZZ=            -28.6741
   XY=              4.8375   XZ=             -0.0013   YZ=             -0.0003
 Traceless Quadrupole moment (field-independent basis, Debye-Ang):
   XX=              8.6777   YY=             -7.2135   ZZ=             -1.4643
   XY=              4.8375   XZ=             -0.0013   YZ=             -0.0003
 Octapole moment (field-independent basis, Debye-Ang**2):
  XXX=              1.2388  YYY=             -7.0002  ZZZ=              0.0001  XYY=             -6.0256
  XXY=             -7.5974  XXZ=             -0.0023  XZZ=              0.6131  YZZ=             -1.1832
  YYZ=              0.0000  XYZ=              0.0005
 Hexadecapole moment (field-independent basis, Debye-Ang**3):
 XXXX=           -175.6710 YYYY=           -148.2263 ZZZZ=            -31.9517 XXXY=             19.5507
 XXXZ=             -0.0055 YYYX=             -0.4604 YYYZ=             -0.0005 ZZZX=             -0.0012
 ZZZY=             -0.0005 XXYY=            -80.3612 XXZZ=            -58.8650 YYZZ=            -26.9708
 XXYZ=              0.0002 YYXZ=             -0.0007 ZZXY=              1.6475
 N-N= 1.771643684356D+02 E-N=-1.070796059235D+03  KE= 3.032019651168D+02
 Unable to Open any file for archive entry.
 1\1\GINC-TCN1626\SP\RBP86\TZVP\C2H4O3\ELENAA\22-Feb-2021\0\\# BP86/TZV
 P SCRF=COSMORS geom=CHECKPOINT guess=CHECKPOINT\\COSMO-file for #AEMRF
 AOFKBGASW-UHFFFAOYSA-N\\0,1\O,0,0.9654304687,1.0676660015,-0.739571680
 4\C,0,1.333523894,0.0937997381,-0.110171359\O,0,2.6261626901,-0.131440
 1992,0.2510581443\C,0,0.4545684884,-1.0392634639,0.3885945678\O,0,-0.8
 92404749,-0.788861139,0.0029494693\H,0,3.1651909766,0.6162363341,-0.08
 55447909\H,0,0.8529691158,-1.9796052312,-0.0373594922\H,0,0.5806545346
 ,-1.0977235102,1.486356906\H,0,-1.4272854191,-1.5306885303,0.336748235
 \\Version=ES64L-G16RevC.01\State=1-A\HF=-304.4382292\RMSD=2.180e-09\Di
 pole=0.6416324,-1.3319456,0.8854269\Quadrupole=2.1144109,-0.1900742,-1
 .9243368,5.9932056,-2.8973445,0.5499771\PG=C01 [X(C2H4O3)]\\@
 The archive entry for this job was punched.


 THE FIRST AND LAST THING REQUIRED OF GENIUS IS THE LOVE OF TRUTH.

                          -- GOETHE
 Job cpu time:       0 days  0 hours  1 minutes 26.1 seconds.
 Elapsed time:       0 days  0 hours  0 minutes  3.5 seconds.
 File lengths (MBytes):  RWF=     16 Int=      0 D2E=      0 Chk=      4 Scr=      1
 Normal termination of Gaussian 16 at Mon Feb 22 20:58:38 2021.
