 Entering Gaussian System, Link 0=g16
 Input=AQHHHDLHHXJYJD-UHFFFAOYSA-N.gjf
 Output=AQHHHDLHHXJYJD-UHFFFAOYSA-N.log
 Initial command:
 /sw/arch/RedHatEnterpriseServer7/EB_production/2019/software/Gaussian/g16.c01/l1.exe "/scratch-local/elenaa.9715178/Gau-32211.inp" -scrdir="/scratch-local/elenaa.9715178/"
 Entering Link 1 = /sw/arch/RedHatEnterpriseServer7/EB_production/2019/software/Gaussian/g16.c01/l1.exe PID=     32214.
  
 Copyright (c) 1988-2019, Gaussian, Inc.  All Rights Reserved.
  
 This is part of the Gaussian(R) 16 program.  It is based on
 the Gaussian(R) 09 system (copyright 2009, Gaussian, Inc.),
 the Gaussian(R) 03 system (copyright 2003, Gaussian, Inc.),
 the Gaussian(R) 98 system (copyright 1998, Gaussian, Inc.),
 the Gaussian(R) 94 system (copyright 1995, Gaussian, Inc.),
 the Gaussian 92(TM) system (copyright 1992, Gaussian, Inc.),
 the Gaussian 90(TM) system (copyright 1990, Gaussian, Inc.),
 the Gaussian 88(TM) system (copyright 1988, Gaussian, Inc.),
 the Gaussian 86(TM) system (copyright 1986, Carnegie Mellon
 University), and the Gaussian 82(TM) system (copyright 1983,
 Carnegie Mellon University). Gaussian is a federally registered
 trademark of Gaussian, Inc.
  
 This software contains proprietary and confidential information,
 including trade secrets, belonging to Gaussian, Inc.
  
 This software is provided under written license and may be
 used, copied, transmitted, or stored only in accord with that
 written license.
  
 The following legend is applicable only to US Government
 contracts under FAR:
  
                    RESTRICTED RIGHTS LEGEND
  
 Use, reproduction and disclosure by the US Government is
 subject to restrictions as set forth in subparagraphs (a)
 and (c) of the Commercial Computer Software - Restricted
 Rights clause in FAR 52.227-19.
  
 Gaussian, Inc.
 340 Quinnipiac St., Bldg. 40, Wallingford CT 06492
  
  
 ---------------------------------------------------------------
 Warning -- This program may not be used in any manner that
 competes with the business of Gaussian, Inc. or will provide
 assistance to any competitor of Gaussian, Inc.  The licensee
 of this program is prohibited from giving any competitor of
 Gaussian, Inc. access to this program.  By using this program,
 the user acknowledges that Gaussian, Inc. is engaged in the
 business of creating and licensing software in the field of
 computational chemistry and represents and warrants to the
 licensee that it is not a competitor of Gaussian, Inc. and that
 it will not use this program in any manner prohibited above.
 ---------------------------------------------------------------
  

 Cite this work as:
 Gaussian 16, Revision C.01,
 M. J. Frisch, G. W. Trucks, H. B. Schlegel, G. E. Scuseria, 
 M. A. Robb, J. R. Cheeseman, G. Scalmani, V. Barone, 
 G. A. Petersson, H. Nakatsuji, X. Li, M. Caricato, A. V. Marenich, 
 J. Bloino, B. G. Janesko, R. Gomperts, B. Mennucci, H. P. Hratchian, 
 J. V. Ortiz, A. F. Izmaylov, J. L. Sonnenberg, D. Williams-Young, 
 F. Ding, F. Lipparini, F. Egidi, J. Goings, B. Peng, A. Petrone, 
 T. Henderson, D. Ranasinghe, V. G. Zakrzewski, J. Gao, N. Rega, 
 G. Zheng, W. Liang, M. Hada, M. Ehara, K. Toyota, R. Fukuda, 
 J. Hasegawa, M. Ishida, T. Nakajima, Y. Honda, O. Kitao, H. Nakai, 
 T. Vreven, K. Throssell, J. A. Montgomery, Jr., J. E. Peralta, 
 F. Ogliaro, M. J. Bearpark, J. J. Heyd, E. N. Brothers, K. N. Kudin, 
 V. N. Staroverov, T. A. Keith, R. Kobayashi, J. Normand, 
 K. Raghavachari, A. P. Rendell, J. C. Burant, S. S. Iyengar, 
 J. Tomasi, M. Cossi, J. M. Millam, M. Klene, C. Adamo, R. Cammi, 
 J. W. Ochterski, R. L. Martin, K. Morokuma, O. Farkas, 
 J. B. Foresman, and D. J. Fox, Gaussian, Inc., Wallingford CT, 2019.
 
 ******************************************
 Gaussian 16:  ES64L-G16RevC.01  3-Jul-2019
                22-Feb-2021 
 ******************************************
 %chk=AQHHHDLHHXJYJD-UHFFFAOYSA-N.chk
 %NProcShared=32
 Will use up to   32 processors via shared memory.
 -------------------------------------------------------------
 #P BP86/TZVP EmpiricalDispersion=GD3 SCRF=(Solvent=Water) Opt
 -------------------------------------------------------------
 1/18=20,19=15,26=3,38=1/1,3;
 2/9=110,12=2,17=6,18=5,40=1/2;
 3/5=19,7=101,11=2,25=1,30=1,70=2201,71=1,72=1,74=404,124=31/1,2,3;
 4//1;
 5/5=2,38=5,53=1/2;
 6/7=2,8=2,9=2,10=2,28=1/1;
 7//1,2,3,16;
 1/18=20,19=15,26=3/3(2);
 2/9=110/2;
 99//99;
 2/9=110/2;
 3/5=19,7=101,11=2,25=1,30=1,70=2205,71=1,72=1,74=404,124=31/1,2,3;
 4/5=5,16=3,69=1/1;
 5/5=2,38=5,53=1/2;
 7//1,2,3,16;
 1/18=20,19=15,26=3/3(-5);
 2/9=110/2;
 6/7=2,8=2,9=2,10=2,19=2,28=1/1;
 99/9=1/99;
 Leave Link    1 at Mon Feb 22 20:57:15 2021, MaxMem=           0 cpu:               2.2 elap:               0.1
 (Enter /sw/arch/RedHatEnterpriseServer7/EB_production/2019/software/Gaussian/g16.c01/l101.exe)
 -------------------------------------
 Particle #AQHHHDLHHXJYJD-UHFFFAOYSA-N
 -------------------------------------
 Symbolic Z-matrix:
 Charge =  0 Multiplicity = 1
 C                     1.9226   -6.48309   1.24389 
 C                     2.2659   -5.25802   0.36089 
 C                     2.94301  -5.7001   -0.96846 
 N                     1.00909  -4.48663   0.15313 
 C                     1.16026  -3.17002  -0.50252 
 C                    -0.18022  -2.39662  -0.61057 
 O                    -0.69715  -2.07146   0.6782 
 C                    -0.01361  -1.08249  -1.41171 
 O                     0.96419  -0.24511  -0.75408 
 C                     1.28641   0.88532  -1.45372 
 C                     0.53645   2.05608  -1.22075 
 C                     0.81224   3.23314  -1.93472 
 C                     1.84704   3.25073  -2.88423 
 C                     2.63094   2.09678  -3.11151 
 C                     3.68155   2.1136   -4.05776 
 C                     4.46534   0.96777  -4.27432 
 C                     4.22211  -0.20163  -3.53665 
 C                     3.18415  -0.23338  -2.59117 
 C                     2.3636    0.90299  -2.3773 
 H                     1.19304  -7.1245    0.74492 
 H                     2.82108  -7.06736   1.4512 
 H                     1.50415  -6.15762   2.19867 
 H                     2.97239  -4.64025   0.92461 
 H                     3.35362  -4.84043  -1.50175 
 H                     3.76854  -6.38638  -0.76988 
 H                     2.22212  -6.1999   -1.61791 
 H                     0.63736  -4.29441   1.08519 
 H                     1.87563  -2.57      0.06473 
 H                     1.54554  -3.32363  -1.51191 
 H                    -0.91508  -3.0271   -1.11866 
 H                    -0.87068  -2.93338   1.10779 
 H                    -0.98074  -0.57358  -1.45947 
 H                     0.29164  -1.33345  -2.43324 
 H                    -0.21902   2.05163  -0.53162 
 H                     0.25788   4.0769   -1.76895 
 H                     2.02123   4.11383  -3.40353 
 H                     3.88885   2.95965  -4.59345 
 H                     5.21797   0.98937  -4.9642 
 H                     4.80255  -1.03037  -3.68357 
 H                     3.04393  -1.09683  -2.06216 
 
 ITRead=  0  0  0  0  0  0  0  0  0  0  0  0  0  0  0  0  0  0  0  0
 ITRead=  0  0  0  0  0  0  0  0  0  0  0  0  0  0  0  0  0  0  0  0
 MicOpt= -1 -1 -1 -1 -1 -1 -1 -1 -1 -1 -1 -1 -1 -1 -1 -1 -1 -1 -1 -1
 MicOpt= -1 -1 -1 -1 -1 -1 -1 -1 -1 -1 -1 -1 -1 -1 -1 -1 -1 -1 -1 -1
 NAtoms=     40 NQM=       40 NQMF=       0 NMMI=      0 NMMIF=      0
                NMic=       0 NMicF=      0.
                    Isotopes and Nuclear Properties:
 (Nuclear quadrupole moments (NQMom) in fm**2, nuclear magnetic moments (NMagM)
  in nuclear magnetons)

  Atom         1           2           3           4           5           6           7           8           9          10
 IAtWgt=          12          12          12          14          12          12          16          12          16          12
 AtmWgt=  12.0000000  12.0000000  12.0000000  14.0030740  12.0000000  12.0000000  15.9949146  12.0000000  15.9949146  12.0000000
 NucSpn=           0           0           0           2           0           0           0           0           0           0
 AtZEff=  -0.0000000  -0.0000000  -0.0000000  -0.0000000  -0.0000000  -0.0000000  -0.0000000  -0.0000000  -0.0000000  -0.0000000
 NQMom=    0.0000000   0.0000000   0.0000000   2.0440000   0.0000000   0.0000000   0.0000000   0.0000000   0.0000000   0.0000000
 NMagM=    0.0000000   0.0000000   0.0000000   0.4037610   0.0000000   0.0000000   0.0000000   0.0000000   0.0000000   0.0000000
 AtZNuc=   6.0000000   6.0000000   6.0000000   7.0000000   6.0000000   6.0000000   8.0000000   6.0000000   8.0000000   6.0000000

  Atom        11          12          13          14          15          16          17          18          19          20
 IAtWgt=          12          12          12          12          12          12          12          12          12           1
 AtmWgt=  12.0000000  12.0000000  12.0000000  12.0000000  12.0000000  12.0000000  12.0000000  12.0000000  12.0000000   1.0078250
 NucSpn=           0           0           0           0           0           0           0           0           0           1
 AtZEff=  -0.0000000  -0.0000000  -0.0000000  -0.0000000  -0.0000000  -0.0000000  -0.0000000  -0.0000000  -0.0000000  -0.0000000
 NQMom=    0.0000000   0.0000000   0.0000000   0.0000000   0.0000000   0.0000000   0.0000000   0.0000000   0.0000000   0.0000000
 NMagM=    0.0000000   0.0000000   0.0000000   0.0000000   0.0000000   0.0000000   0.0000000   0.0000000   0.0000000   2.7928460
 AtZNuc=   6.0000000   6.0000000   6.0000000   6.0000000   6.0000000   6.0000000   6.0000000   6.0000000   6.0000000   1.0000000

  Atom        21          22          23          24          25          26          27          28          29          30
 IAtWgt=           1           1           1           1           1           1           1           1           1           1
 AtmWgt=   1.0078250   1.0078250   1.0078250   1.0078250   1.0078250   1.0078250   1.0078250   1.0078250   1.0078250   1.0078250
 NucSpn=           1           1           1           1           1           1           1           1           1           1
 AtZEff=  -0.0000000  -0.0000000  -0.0000000  -0.0000000  -0.0000000  -0.0000000  -0.0000000  -0.0000000  -0.0000000  -0.0000000
 NQMom=    0.0000000   0.0000000   0.0000000   0.0000000   0.0000000   0.0000000   0.0000000   0.0000000   0.0000000   0.0000000
 NMagM=    2.7928460   2.7928460   2.7928460   2.7928460   2.7928460   2.7928460   2.7928460   2.7928460   2.7928460   2.7928460
 AtZNuc=   1.0000000   1.0000000   1.0000000   1.0000000   1.0000000   1.0000000   1.0000000   1.0000000   1.0000000   1.0000000

  Atom        31          32          33          34          35          36          37          38          39          40
 IAtWgt=           1           1           1           1           1           1           1           1           1           1
 AtmWgt=   1.0078250   1.0078250   1.0078250   1.0078250   1.0078250   1.0078250   1.0078250   1.0078250   1.0078250   1.0078250
 NucSpn=           1           1           1           1           1           1           1           1           1           1
 AtZEff=  -0.0000000  -0.0000000  -0.0000000  -0.0000000  -0.0000000  -0.0000000  -0.0000000  -0.0000000  -0.0000000  -0.0000000
 NQMom=    0.0000000   0.0000000   0.0000000   0.0000000   0.0000000   0.0000000   0.0000000   0.0000000   0.0000000   0.0000000
 NMagM=    2.7928460   2.7928460   2.7928460   2.7928460   2.7928460   2.7928460   2.7928460   2.7928460   2.7928460   2.7928460
 AtZNuc=   1.0000000   1.0000000   1.0000000   1.0000000   1.0000000   1.0000000   1.0000000   1.0000000   1.0000000   1.0000000
 Leave Link  101 at Mon Feb 22 20:57:15 2021, MaxMem=   104857600 cpu:               3.3 elap:               0.1
 (Enter /sw/arch/RedHatEnterpriseServer7/EB_production/2019/software/Gaussian/g16.c01/l103.exe)

 GradGradGradGradGradGradGradGradGradGradGradGradGradGradGradGradGradGrad
 Berny optimization.
 Initialization pass.
                           ----------------------------
                           !    Initial Parameters    !
                           ! (Angstroms and Degrees)  !
 --------------------------                            --------------------------
 ! Name  Definition              Value          Derivative Info.                !
 --------------------------------------------------------------------------------
 ! R1    R(1,2)                  1.5487         estimate D2E/DX2                !
 ! R2    R(1,20)                 1.0921         estimate D2E/DX2                !
 ! R3    R(1,21)                 1.0916         estimate D2E/DX2                !
 ! R4    R(1,22)                 1.0921         estimate D2E/DX2                !
 ! R5    R(2,3)                  1.556          estimate D2E/DX2                !
 ! R6    R(2,4)                  1.4892         estimate D2E/DX2                !
 ! R7    R(2,23)                 1.0948         estimate D2E/DX2                !
 ! R8    R(3,24)                 1.0918         estimate D2E/DX2                !
 ! R9    R(3,25)                 1.0917         estimate D2E/DX2                !
 ! R10   R(3,26)                 1.0915         estimate D2E/DX2                !
 ! R11   R(4,5)                  1.4786         estimate D2E/DX2                !
 ! R12   R(4,27)                 1.0217         estimate D2E/DX2                !
 ! R13   R(5,6)                  1.5514         estimate D2E/DX2                !
 ! R14   R(5,28)                 1.0925         estimate D2E/DX2                !
 ! R15   R(5,29)                 1.0913         estimate D2E/DX2                !
 ! R16   R(6,7)                  1.4261         estimate D2E/DX2                !
 ! R17   R(6,8)                  1.5481         estimate D2E/DX2                !
 ! R18   R(6,30)                 1.0935         estimate D2E/DX2                !
 ! R19   R(7,31)                 0.9786         estimate D2E/DX2                !
 ! R20   R(8,9)                  1.4456         estimate D2E/DX2                !
 ! R21   R(8,32)                 1.0939         estimate D2E/DX2                !
 ! R22   R(8,33)                 1.0953         estimate D2E/DX2                !
 ! R23   R(9,10)                 1.3679         estimate D2E/DX2                !
 ! R24   R(10,11)                1.4097         estimate D2E/DX2                !
 ! R25   R(10,19)                1.419          estimate D2E/DX2                !
 ! R26   R(11,12)                1.404          estimate D2E/DX2                !
 ! R27   R(11,34)                1.0226         estimate D2E/DX2                !
 ! R28   R(12,13)                1.4045         estimate D2E/DX2                !
 ! R29   R(12,35)                1.0231         estimate D2E/DX2                !
 ! R30   R(13,14)                1.4134         estimate D2E/DX2                !
 ! R31   R(13,36)                1.0222         estimate D2E/DX2                !
 ! R32   R(14,15)                1.414          estimate D2E/DX2                !
 ! R33   R(14,19)                1.4268         estimate D2E/DX2                !
 ! R34   R(15,16)                1.405          estimate D2E/DX2                !
 ! R35   R(15,37)                1.0226         estimate D2E/DX2                !
 ! R36   R(16,17)                1.4039         estimate D2E/DX2                !
 ! R37   R(16,38)                1.0212         estimate D2E/DX2                !
 ! R38   R(17,18)                1.4044         estimate D2E/DX2                !
 ! R39   R(17,39)                1.0224         estimate D2E/DX2                !
 ! R40   R(18,19)                1.4179         estimate D2E/DX2                !
 ! R41   R(18,40)                1.0223         estimate D2E/DX2                !
 ! A1    A(2,1,20)             110.6212         estimate D2E/DX2                !
 ! A2    A(2,1,21)             110.44           estimate D2E/DX2                !
 ! A3    A(2,1,22)             110.3449         estimate D2E/DX2                !
 ! A4    A(20,1,21)            108.7999         estimate D2E/DX2                !
 ! A5    A(20,1,22)            108.5736         estimate D2E/DX2                !
 ! A6    A(21,1,22)            107.9903         estimate D2E/DX2                !
 ! A7    A(1,2,3)              111.0289         estimate D2E/DX2                !
 ! A8    A(1,2,4)              107.5907         estimate D2E/DX2                !
 ! A9    A(1,2,23)             107.2081         estimate D2E/DX2                !
 ! A10   A(3,2,4)              113.2803         estimate D2E/DX2                !
 ! A11   A(3,2,23)             108.6276         estimate D2E/DX2                !
 ! A12   A(4,2,23)             108.9147         estimate D2E/DX2                !
 ! A13   A(2,3,24)             110.9317         estimate D2E/DX2                !
 ! A14   A(2,3,25)             110.625          estimate D2E/DX2                !
 ! A15   A(2,3,26)             110.5514         estimate D2E/DX2                !
 ! A16   A(24,3,25)            107.423          estimate D2E/DX2                !
 ! A17   A(24,3,26)            108.5612         estimate D2E/DX2                !
 ! A18   A(25,3,26)            108.6514         estimate D2E/DX2                !
 ! A19   A(2,4,5)              115.9011         estimate D2E/DX2                !
 ! A20   A(2,4,27)             106.0954         estimate D2E/DX2                !
 ! A21   A(5,4,27)             105.9143         estimate D2E/DX2                !
 ! A22   A(4,5,6)              112.7346         estimate D2E/DX2                !
 ! A23   A(4,5,28)             109.0118         estimate D2E/DX2                !
 ! A24   A(4,5,29)             108.718          estimate D2E/DX2                !
 ! A25   A(6,5,28)             109.1568         estimate D2E/DX2                !
 ! A26   A(6,5,29)             108.1082         estimate D2E/DX2                !
 ! A27   A(28,5,29)            109.0496         estimate D2E/DX2                !
 ! A28   A(5,6,7)              111.3413         estimate D2E/DX2                !
 ! A29   A(5,6,8)              111.4841         estimate D2E/DX2                !
 ! A30   A(5,6,30)             109.0025         estimate D2E/DX2                !
 ! A31   A(7,6,8)              108.2477         estimate D2E/DX2                !
 ! A32   A(7,6,30)             107.9248         estimate D2E/DX2                !
 ! A33   A(8,6,30)             108.7426         estimate D2E/DX2                !
 ! A34   A(6,7,31)             105.0803         estimate D2E/DX2                !
 ! A35   A(6,8,9)              109.2139         estimate D2E/DX2                !
 ! A36   A(6,8,32)             108.806          estimate D2E/DX2                !
 ! A37   A(6,8,33)             108.551          estimate D2E/DX2                !
 ! A38   A(9,8,32)             110.3886         estimate D2E/DX2                !
 ! A39   A(9,8,33)             111.6228         estimate D2E/DX2                !
 ! A40   A(32,8,33)            108.1961         estimate D2E/DX2                !
 ! A41   A(8,9,10)             113.9129         estimate D2E/DX2                !
 ! A42   A(9,10,11)            118.4545         estimate D2E/DX2                !
 ! A43   A(9,10,19)            121.4657         estimate D2E/DX2                !
 ! A44   A(11,10,19)           120.0691         estimate D2E/DX2                !
 ! A45   A(10,11,12)           120.5103         estimate D2E/DX2                !
 ! A46   A(10,11,34)           120.0516         estimate D2E/DX2                !
 ! A47   A(12,11,34)           119.437          estimate D2E/DX2                !
 ! A48   A(11,12,13)           119.9336         estimate D2E/DX2                !
 ! A49   A(11,12,35)           120.17           estimate D2E/DX2                !
 ! A50   A(13,12,35)           119.8955         estimate D2E/DX2                !
 ! A51   A(12,13,14)           120.4709         estimate D2E/DX2                !
 ! A52   A(12,13,36)           118.6561         estimate D2E/DX2                !
 ! A53   A(14,13,36)           120.8729         estimate D2E/DX2                !
 ! A54   A(13,14,15)           120.6618         estimate D2E/DX2                !
 ! A55   A(13,14,19)           119.7648         estimate D2E/DX2                !
 ! A56   A(15,14,19)           119.5732         estimate D2E/DX2                !
 ! A57   A(14,15,16)           120.525          estimate D2E/DX2                !
 ! A58   A(14,15,37)           120.7311         estimate D2E/DX2                !
 ! A59   A(16,15,37)           118.7431         estimate D2E/DX2                !
 ! A60   A(15,16,17)           120.1108         estimate D2E/DX2                !
 ! A61   A(15,16,38)           119.8681         estimate D2E/DX2                !
 ! A62   A(17,16,38)           120.0191         estimate D2E/DX2                !
 ! A63   A(16,17,18)           120.0425         estimate D2E/DX2                !
 ! A64   A(16,17,39)           120.0884         estimate D2E/DX2                !
 ! A65   A(18,17,39)           119.8686         estimate D2E/DX2                !
 ! A66   A(17,18,19)           120.7405         estimate D2E/DX2                !
 ! A67   A(17,18,40)           117.96           estimate D2E/DX2                !
 ! A68   A(19,18,40)           121.2988         estimate D2E/DX2                !
 ! A69   A(10,19,14)           119.1817         estimate D2E/DX2                !
 ! A70   A(10,19,18)           121.8366         estimate D2E/DX2                !
 ! A71   A(14,19,18)           118.9816         estimate D2E/DX2                !
 ! D1    D(20,1,2,3)           -63.2732         estimate D2E/DX2                !
 ! D2    D(20,1,2,4)            61.2045         estimate D2E/DX2                !
 ! D3    D(20,1,2,23)          178.2171         estimate D2E/DX2                !
 ! D4    D(21,1,2,3)            57.2379         estimate D2E/DX2                !
 ! D5    D(21,1,2,4)          -178.2844         estimate D2E/DX2                !
 ! D6    D(21,1,2,23)          -61.2719         estimate D2E/DX2                !
 ! D7    D(22,1,2,3)           176.561          estimate D2E/DX2                !
 ! D8    D(22,1,2,4)           -58.9613         estimate D2E/DX2                !
 ! D9    D(22,1,2,23)           58.0513         estimate D2E/DX2                !
 ! D10   D(1,2,3,24)          -169.2621         estimate D2E/DX2                !
 ! D11   D(1,2,3,25)           -50.1515         estimate D2E/DX2                !
 ! D12   D(1,2,3,26)            70.2489         estimate D2E/DX2                !
 ! D13   D(4,2,3,24)            69.5473         estimate D2E/DX2                !
 ! D14   D(4,2,3,25)          -171.3422         estimate D2E/DX2                !
 ! D15   D(4,2,3,26)           -50.9417         estimate D2E/DX2                !
 ! D16   D(23,2,3,24)          -51.6127         estimate D2E/DX2                !
 ! D17   D(23,2,3,25)           67.4978         estimate D2E/DX2                !
 ! D18   D(23,2,3,26)         -172.1017         estimate D2E/DX2                !
 ! D19   D(1,2,4,5)            171.4168         estimate D2E/DX2                !
 ! D20   D(1,2,4,27)            54.1991         estimate D2E/DX2                !
 ! D21   D(3,2,4,5)            -65.4754         estimate D2E/DX2                !
 ! D22   D(3,2,4,27)           177.307          estimate D2E/DX2                !
 ! D23   D(23,2,4,5)            55.5228         estimate D2E/DX2                !
 ! D24   D(23,2,4,27)          -61.6949         estimate D2E/DX2                !
 ! D25   D(2,4,5,6)           -176.7857         estimate D2E/DX2                !
 ! D26   D(2,4,5,28)           -55.4063         estimate D2E/DX2                !
 ! D27   D(2,4,5,29)            63.3603         estimate D2E/DX2                !
 ! D28   D(27,4,5,6)           -59.4673         estimate D2E/DX2                !
 ! D29   D(27,4,5,28)           61.9121         estimate D2E/DX2                !
 ! D30   D(27,4,5,29)         -179.3212         estimate D2E/DX2                !
 ! D31   D(4,5,6,7)             64.0883         estimate D2E/DX2                !
 ! D32   D(4,5,6,8)           -174.9101         estimate D2E/DX2                !
 ! D33   D(4,5,6,30)           -54.8602         estimate D2E/DX2                !
 ! D34   D(28,5,6,7)           -57.2087         estimate D2E/DX2                !
 ! D35   D(28,5,6,8)            63.7929         estimate D2E/DX2                !
 ! D36   D(28,5,6,30)         -176.1571         estimate D2E/DX2                !
 ! D37   D(29,5,6,7)          -175.7065         estimate D2E/DX2                !
 ! D38   D(29,5,6,8)           -54.705          estimate D2E/DX2                !
 ! D39   D(29,5,6,30)           65.345          estimate D2E/DX2                !
 ! D40   D(5,6,7,31)           -62.7964         estimate D2E/DX2                !
 ! D41   D(8,6,7,31)           174.3259         estimate D2E/DX2                !
 ! D42   D(30,6,7,31)           56.794          estimate D2E/DX2                !
 ! D43   D(5,6,8,9)            -59.3546         estimate D2E/DX2                !
 ! D44   D(5,6,8,32)          -179.9136         estimate D2E/DX2                !
 ! D45   D(5,6,8,33)            62.5546         estimate D2E/DX2                !
 ! D46   D(7,6,8,9)             63.4363         estimate D2E/DX2                !
 ! D47   D(7,6,8,32)           -57.1227         estimate D2E/DX2                !
 ! D48   D(7,6,8,33)          -174.6545         estimate D2E/DX2                !
 ! D49   D(30,6,8,9)          -179.5576         estimate D2E/DX2                !
 ! D50   D(30,6,8,32)           59.8833         estimate D2E/DX2                !
 ! D51   D(30,6,8,33)          -57.6485         estimate D2E/DX2                !
 ! D52   D(6,8,9,10)           173.7729         estimate D2E/DX2                !
 ! D53   D(32,8,9,10)          -66.6411         estimate D2E/DX2                !
 ! D54   D(33,8,9,10)           53.7356         estimate D2E/DX2                !
 ! D55   D(8,9,10,11)           90.2335         estimate D2E/DX2                !
 ! D56   D(8,9,10,19)          -90.9549         estimate D2E/DX2                !
 ! D57   D(9,10,11,12)        -178.6911         estimate D2E/DX2                !
 ! D58   D(9,10,11,34)           0.9326         estimate D2E/DX2                !
 ! D59   D(19,10,11,12)          2.4803         estimate D2E/DX2                !
 ! D60   D(19,10,11,34)       -177.896          estimate D2E/DX2                !
 ! D61   D(9,10,19,14)         178.0655         estimate D2E/DX2                !
 ! D62   D(9,10,19,18)          -1.9854         estimate D2E/DX2                !
 ! D63   D(11,10,19,14)         -3.1419         estimate D2E/DX2                !
 ! D64   D(11,10,19,18)        176.8072         estimate D2E/DX2                !
 ! D65   D(10,11,12,13)         -0.3387         estimate D2E/DX2                !
 ! D66   D(10,11,12,35)        179.3176         estimate D2E/DX2                !
 ! D67   D(34,11,12,13)       -179.9647         estimate D2E/DX2                !
 ! D68   D(34,11,12,35)         -0.3084         estimate D2E/DX2                !
 ! D69   D(11,12,13,14)         -1.1053         estimate D2E/DX2                !
 ! D70   D(11,12,13,36)        179.0337         estimate D2E/DX2                !
 ! D71   D(35,12,13,14)        179.2375         estimate D2E/DX2                !
 ! D72   D(35,12,13,36)         -0.6235         estimate D2E/DX2                !
 ! D73   D(12,13,14,15)       -179.4237         estimate D2E/DX2                !
 ! D74   D(12,13,14,19)          0.4038         estimate D2E/DX2                !
 ! D75   D(36,13,14,15)          0.4341         estimate D2E/DX2                !
 ! D76   D(36,13,14,19)       -179.7383         estimate D2E/DX2                !
 ! D77   D(13,14,15,16)        179.5291         estimate D2E/DX2                !
 ! D78   D(13,14,15,37)         -0.1445         estimate D2E/DX2                !
 ! D79   D(19,14,15,16)         -0.2988         estimate D2E/DX2                !
 ! D80   D(19,14,15,37)       -179.9724         estimate D2E/DX2                !
 ! D81   D(13,14,19,10)          1.7118         estimate D2E/DX2                !
 ! D82   D(13,14,19,18)       -178.2388         estimate D2E/DX2                !
 ! D83   D(15,14,19,10)       -178.4588         estimate D2E/DX2                !
 ! D84   D(15,14,19,18)          1.5906         estimate D2E/DX2                !
 ! D85   D(14,15,16,17)         -0.8796         estimate D2E/DX2                !
 ! D86   D(14,15,16,38)        179.633          estimate D2E/DX2                !
 ! D87   D(37,15,16,17)        178.8004         estimate D2E/DX2                !
 ! D88   D(37,15,16,38)         -0.687          estimate D2E/DX2                !
 ! D89   D(15,16,17,18)          0.7396         estimate D2E/DX2                !
 ! D90   D(15,16,17,39)       -178.9944         estimate D2E/DX2                !
 ! D91   D(38,16,17,18)       -179.7738         estimate D2E/DX2                !
 ! D92   D(38,16,17,39)          0.4923         estimate D2E/DX2                !
 ! D93   D(16,17,18,19)          0.5873         estimate D2E/DX2                !
 ! D94   D(16,17,18,40)       -179.1181         estimate D2E/DX2                !
 ! D95   D(39,17,18,19)       -179.6782         estimate D2E/DX2                !
 ! D96   D(39,17,18,40)          0.6164         estimate D2E/DX2                !
 ! D97   D(17,18,19,10)        178.3053         estimate D2E/DX2                !
 ! D98   D(17,18,19,14)         -1.7456         estimate D2E/DX2                !
 ! D99   D(40,18,19,10)         -1.9993         estimate D2E/DX2                !
 ! D100  D(40,18,19,14)        177.9499         estimate D2E/DX2                !
 --------------------------------------------------------------------------------
 Trust Radius=3.00D-01 FncErr=1.00D-07 GrdErr=1.00D-06 EigMax=2.50D+02 EigMin=1.00D-04
 Number of steps in this run=    222 maximum allowed number of steps=    240.
 GradGradGradGradGradGradGradGradGradGradGradGradGradGradGradGradGradGrad

 Leave Link  103 at Mon Feb 22 20:57:15 2021, MaxMem=   104857600 cpu:               0.5 elap:               0.0
 (Enter /sw/arch/RedHatEnterpriseServer7/EB_production/2019/software/Gaussian/g16.c01/l202.exe)
                          Input orientation:                          
 ---------------------------------------------------------------------
 Center     Atomic      Atomic             Coordinates (Angstroms)
 Number     Number       Type             X           Y           Z
 ---------------------------------------------------------------------
      1          6           0        1.922600   -6.483090    1.243890
      2          6           0        2.265900   -5.258020    0.360890
      3          6           0        2.943010   -5.700100   -0.968460
      4          7           0        1.009090   -4.486630    0.153130
      5          6           0        1.160260   -3.170020   -0.502520
      6          6           0       -0.180220   -2.396620   -0.610570
      7          8           0       -0.697150   -2.071460    0.678200
      8          6           0       -0.013610   -1.082490   -1.411710
      9          8           0        0.964190   -0.245110   -0.754080
     10          6           0        1.286410    0.885320   -1.453720
     11          6           0        0.536450    2.056080   -1.220750
     12          6           0        0.812240    3.233140   -1.934720
     13          6           0        1.847040    3.250730   -2.884230
     14          6           0        2.630940    2.096780   -3.111510
     15          6           0        3.681550    2.113600   -4.057760
     16          6           0        4.465340    0.967770   -4.274320
     17          6           0        4.222110   -0.201630   -3.536650
     18          6           0        3.184150   -0.233380   -2.591170
     19          6           0        2.363600    0.902990   -2.377300
     20          1           0        1.193040   -7.124500    0.744920
     21          1           0        2.821080   -7.067360    1.451200
     22          1           0        1.504150   -6.157620    2.198670
     23          1           0        2.972390   -4.640250    0.924610
     24          1           0        3.353620   -4.840430   -1.501750
     25          1           0        3.768540   -6.386380   -0.769880
     26          1           0        2.222120   -6.199900   -1.617910
     27          1           0        0.637360   -4.294410    1.085190
     28          1           0        1.875630   -2.570000    0.064730
     29          1           0        1.545540   -3.323630   -1.511910
     30          1           0       -0.915080   -3.027100   -1.118660
     31          1           0       -0.870680   -2.933380    1.107790
     32          1           0       -0.980740   -0.573580   -1.459470
     33          1           0        0.291640   -1.333450   -2.433240
     34          1           0       -0.219020    2.051630   -0.531620
     35          1           0        0.257880    4.076900   -1.768950
     36          1           0        2.021230    4.113830   -3.403530
     37          1           0        3.888850    2.959650   -4.593450
     38          1           0        5.217970    0.989370   -4.964200
     39          1           0        4.802550   -1.030370   -3.683570
     40          1           0        3.043930   -1.096830   -2.062160
 ---------------------------------------------------------------------
                    Distance matrix (angstroms):
                    1          2          3          4          5
     1  C    0.000000
     2  C    1.548658   0.000000
     3  C    2.559063   1.555983   0.000000
     4  N    2.451553   1.489221   2.543722   0.000000
     5  C    3.821982   2.515484   3.129952   1.478577   0.000000
     6  C    4.955816   3.887782   4.560223   2.523061   1.551357
     7  O    5.161935   4.362856   5.397155   3.003331   2.459859
     8  C    6.321993   5.076744   5.500945   3.883659   2.561714
     9  O    6.619881   5.297818   5.806772   4.337688   2.942248
    10  C    7.872439   6.480188   6.807904   5.613975   4.167311
    11  C    8.995181   7.680406   8.124870   6.702088   5.311978
    12  C   10.283073   8.915310   9.234534   7.999545   6.570599
    13  C   10.573284   9.116198   9.218931   8.354308   6.882604
    14  C    9.648079   8.141492   8.092057   7.525261   6.058788
    15  C   10.252047   8.710299   8.434638   8.272646   6.849327
    16  C    9.614129   8.067414   7.596492   7.829333   6.501641
    17  C    8.221803   6.677174   6.202005   6.503783   5.233757
    18  C    7.440300   5.899563   5.707571   5.509283   4.133091
    19  C    8.237820   6.742794   6.776529   6.106208   4.642439
    20  H    1.092079   2.186837   2.833193   2.709688   4.146697
    21  H    1.091611   2.184196   2.781910   3.410053   4.665255
    22  H    1.092079   2.183341   3.508612   2.687290   4.042331
    23  H    2.144775   1.094782   2.169760   2.115024   2.735341
    24  H    3.504952   2.197031   1.091802   2.891474   2.932500
    25  H    2.733517   2.193117   1.091748   3.474991   4.149648
    26  H    2.891333   2.191964   1.091452   2.746510   3.398796
    27  H    2.543098   2.026153   3.392560   1.021698   2.014572
    28  H    4.087163   2.732302   3.464723   2.105274   1.092498
    29  H    4.209370   2.787142   2.809959   2.100644   1.091286
    30  H    5.057464   4.157488   4.695993   2.729489   2.169583
    31  H    4.519002   3.974914   5.148765   2.618682   2.602655
    32  H    7.117573   5.983173   6.474420   4.676736   3.498733
    33  H    6.534532   5.206449   5.314412   4.140844   2.802708
    34  H    8.976660   7.771897   8.383232   6.687749   5.400823
    35  H   11.106840   9.783102  10.170567   8.808675   7.411881
    36  H   11.571644  10.102588  10.153446   9.361740   7.887433
    37  H   11.274130   9.731883   9.435382   9.288171   7.858356
    38  H   10.258533   8.723599   8.117290   8.595831   7.326126
    39  H    7.893423   6.376933   5.712801   6.407522   5.288049
    40  H    6.418656   4.877705   4.732490   4.531978   3.206058
                    6          7          8          9         10
     6  C    0.000000
     7  O    1.426139   0.000000
     8  C    1.548070   2.411019   0.000000
     9  O    2.441161   2.854300   1.445606   0.000000
    10  C    3.692294   4.149957   2.358833   1.367916   0.000000
    11  C    4.551096   4.707905   3.192124   2.386675   1.409750
    12  C    5.867925   6.102818   4.424955   3.676306   2.443043
    13  C    6.416531   6.891264   4.940357   4.187823   2.820608
    14  C    5.860714   6.543112   4.471099   3.717523   2.454315
    15  C    6.865746   7.688762   5.556148   4.884860   3.745182
    16  C    6.806130   7.772752   5.697288   5.110892   4.250668
    17  C    5.723673   6.742429   4.820022   4.284697   3.760105
    18  C    4.463336   5.397389   3.512518   2.881538   2.479254
    19  C    4.525459   5.248964   3.244322   2.431322   1.419032
    20  H    5.106471   5.395413   6.527859   7.044528   8.306621
    21  H    5.922374   6.159098   7.214596   7.406375   8.604585
    22  H    4.987389   4.884082   6.410568   6.630842   7.936647
    23  H    4.162884   4.486081   5.199254   5.115479   6.247472
    24  H    4.387987   5.369182   5.046628   5.233102   6.087682
    25  H    5.615716   6.376351   6.545827   6.751283   7.714028
    26  H    4.609871   5.553222   5.588282   6.147204   7.148626
    27  H    2.673134   2.624512   4.120037   4.459435   5.804906
    28  H    2.170855   2.691484   2.821664   2.627981   3.819962
    29  H    2.156388   3.375525   2.731977   3.223284   4.217321
    30  H    1.093471   2.046814   2.163339   3.376987   4.501761
    31  H    1.928110   0.978553   3.241642   3.749680   5.079059
    32  H    2.164472   2.625586   1.093897   2.094808   2.695995
    33  H    2.162200   3.347152   1.095300   2.111015   2.621444
    34  H    4.449120   4.323441   3.261818   2.593162   2.115861
    35  H    6.590921   6.686027   5.178864   4.495398   3.368000
    36  H    7.418421   7.893537   5.925341   5.209345   3.842525
    37  H    7.817307   8.610096   6.456900   5.793521   4.575308
    38  H    7.717479   8.728918   6.654489   6.110949   5.271761
    39  H    6.011486   7.096168   5.325360   4.891989   4.583158
    40  H    3.767189   4.738687   3.125995   2.600350   2.718087
                   11         12         13         14         15
    11  C    0.000000
    12  C    1.404024   0.000000
    13  C    2.431461   1.404525   0.000000
    14  C    2.821971   2.446184   1.413420   0.000000
    15  C    4.235987   3.740803   2.456759   1.414020   0.000000
    16  C    5.093612   4.893952   3.741624   2.447818   1.405045
    17  C    4.903543   5.098141   4.240920   2.827588   2.433937
    18  C    3.758988   4.251311   3.743363   2.450804   2.811869
    19  C    2.450653   2.834113   2.456765   1.426769   2.454896
    20  H    9.411590  10.705428  11.011078  10.098100  10.705181
    21  H    9.777321  11.027248  11.234220  10.238942  10.741465
    22  H    8.949511  10.283483  10.699089   9.879412  10.597031
    23  H    7.441586   8.650566   8.834095   7.860943   8.422672
    24  H    7.455016   8.475176   8.345532   7.158106   7.416148
    25  H    9.051233  10.130732  10.051693   8.873633   9.114131
    26  H    8.435664   9.543080   9.542466   8.439957   8.786187
    27  H    6.756942   8.112610   8.610967   7.901516   8.762398
    28  H    4.984624   6.229369   6.525188   5.695422   6.495566
    29  H    5.481270   6.611182   6.722825   5.754794   6.372391
    30  H    5.287351   6.545242   7.082210   6.542160   7.496273
    31  H    5.683030   7.079199   7.846365   7.440856   8.536844
    32  H    3.045318   4.234591   4.965041   4.785843   5.975700
    33  H    3.608182   4.623126   4.861828   4.207000   5.100266
    34  H    1.022573   2.104318   3.352793   3.844495   5.258512
    35  H    2.112306   1.023096   2.109937   3.369682   4.562315
    36  H    3.347153   2.096348   1.022231   2.127325   2.680597
    37  H    4.840468   4.075435   2.678647   2.126741   1.022613
    38  H    6.088343   5.798509   4.561052   3.369205   2.108581
    39  H    5.813025   6.095783   5.263250   3.849962   3.358751
    40  H    4.115370   4.872917   4.583625   3.386863   3.833515
                   16         17         18         19         20
    16  C    0.000000
    17  C    1.403857   0.000000
    18  C    2.432530   1.404387   0.000000
    19  C    2.831994   2.453230   1.417879   0.000000
    20  H   10.069039   8.685231   7.910850   8.692472   0.000000
    21  H   10.002424   8.601150   7.948324   8.853992   1.775559
    22  H   10.071714   8.703736   7.801384   8.457563   1.773425
    23  H    7.791512   6.416073   5.641459   6.480798   3.061025
    24  H    6.531329   5.139412   4.737137   5.893522   3.864273
    25  H    8.176194   6.790572   6.443448   7.595563   3.077765
    26  H    7.966432   6.607629   6.121446   7.144770   2.738039
    27  H    8.430203   7.138815   6.041004   6.479329   2.904130
    28  H    6.168450   4.907656   3.771713   4.273556   4.655326
    29  H    5.879818   4.583719   3.660531   4.391177   4.434428
    30  H    7.407165   6.341977   5.174635   5.270628   4.970492
    31  H    8.524036   7.414162   6.116694   6.109350   4.685734
    32  H    6.321307   5.614505   4.329294   3.769255   7.245634
    33  H    5.109301   4.236405   3.098663   3.049231   6.667045
    34  H    6.093093   5.816444   4.587438   3.375772   9.371490
    35  H    5.800542   6.094727   5.274241   3.857182  11.518048
    36  H    4.077946   4.846111   4.572805   3.388194  12.008147
    37  H    2.098040   3.349863   3.834210   3.386378  11.724149
    38  H    1.021202   2.109056   3.356011   3.853173  10.706493
    39  H    2.110749   1.022402   2.108969   3.375307   8.353353
    40  H    3.343147   2.088926   1.022281   2.135753   6.902050
                   21         22         23         24         25
    21  H    0.000000
    22  H    1.766534   0.000000
    23  H    2.488183   2.466043   0.000000
    24  H    3.736674   4.341502   2.464271   0.000000
    25  H    2.508906   3.740599   2.560102   1.760044   0.000000
    26  H    3.245100   3.883755   3.075682   1.772553   1.773512
    27  H    3.548499   2.337245   2.365958   3.790576   4.197846
    28  H    4.800252   4.190789   2.495638   3.129404   4.341018
    29  H    4.941916   4.669220   3.115448   2.360072   3.856524
    30  H    6.073448   5.163091   4.678635   4.653678   5.774314
    31  H    5.553090   4.150369   4.209055   5.318952   6.080396
    32  H    8.068148   7.123073   6.152144   6.082308   7.537894
    33  H    7.373240   6.796866   5.421854   4.747874   6.355132
    34  H    9.814773   8.821314   7.555591   7.823388   9.335814
    35  H   11.879979  11.047199   9.519062   9.443187  11.081656
    36  H   12.215857  11.711307   9.811800   9.250449  10.965565
    37  H   11.756652  11.616553   9.436491   8.407516  10.098635
    38  H   10.574183  10.778619   8.450641   7.032135   8.607837
    39  H    8.169292   8.471652   6.133192   4.623450   6.184303
    40  H    6.931132   6.792436   4.634840   3.797961   5.493122
                   26         27         28         29         30
    26  H    0.000000
    27  H    3.667302   0.000000
    28  H    4.015907   2.355470   0.000000
    29  H    2.956675   2.917556   1.778401   0.000000
    30  H    4.489759   2.978775   3.065520   2.509428   0.000000
    31  H    5.259753   2.031526   2.960108   3.585142   2.228864
    32  H    6.476024   4.789376   3.803647   3.734651   2.477947
    33  H    5.298476   4.611524   3.205922   2.526248   2.460233
    34  H    8.673346   6.604520   5.109076   5.741782   5.159711
    35  H   10.463922   8.852624   7.082427   7.516115   7.229490
    36  H   10.469089   9.631314   7.531508   7.688974   8.052045
    37  H    9.773903   9.769367   7.505246   7.380149   8.425739
    38  H    8.476932   9.246374   7.009314   6.633779   8.278557
    39  H    6.135928   7.123471   4.998707   4.536878   6.577004
    40  H    5.187876   5.091356   2.838805   2.739815   4.504431
                   31         32         33         34         35
    31  H    0.000000
    32  H    3.488781   0.000000
    33  H    4.055818   1.773297   0.000000
    34  H    5.287972   2.886668   3.916082   0.000000
    35  H    7.661156   4.822543   5.451083   2.420772   0.000000
    36  H    8.853153   5.896016   5.797051   4.185601   2.404708
    37  H    9.480773   6.783690   6.003094   5.847868   4.733919
    38  H    9.451386   7.290401   6.005829   7.094859   6.659201
    39  H    7.665776   6.213028   4.690788   6.682041   7.099578
    40  H    5.361499   4.103047   2.787255   4.785624   5.883496
                   36         37         38         39         40
    36  H    0.000000
    37  H    2.497208   0.000000
    38  H    4.734669   2.405414   0.000000
    39  H    5.854653   4.193207   2.427331   0.000000
    40  H    5.476876   4.855548   4.183362   2.392934   0.000000
 Stoichiometry    C16H21NO2
 Framework group  C1[X(C16H21NO2)]
 Deg. of freedom   114
 Full point group                 C1      NOp   1
 Largest Abelian subgroup         C1      NOp   1
 Largest concise Abelian subgroup C1      NOp   1
                         Standard orientation:                         
 ---------------------------------------------------------------------
 Center     Atomic      Atomic             Coordinates (Angstroms)
 Number     Number       Type             X           Y           Z
 ---------------------------------------------------------------------
      1          6           0       -5.955882    0.606311   -0.632602
      2          6           0       -4.445484    0.911735   -0.478482
      3          6           0       -4.220554    2.224957    0.325222
      4          7           0       -3.807273   -0.278745    0.148592
      5          6           0       -2.329725   -0.266280    0.202329
      6          6           0       -1.740337   -1.572737    0.796049
      7          8           0       -2.035853   -2.697498   -0.029455
      8          6           0       -0.203421   -1.479700    0.956534
      9          8           0        0.395912   -1.234763   -0.335975
     10          6           0        1.742901   -1.001426   -0.287320
     11          6           0        2.619352   -2.099973   -0.398776
     12          6           0        4.009051   -1.913265   -0.326947
     13          6           0        4.534608   -0.622873   -0.149836
     14          6           0        3.674926    0.495927   -0.066229
     15          6           0        4.200266    1.798182    0.099910
     16          6           0        3.343505    2.909397    0.172802
     17          6           0        1.954735    2.736388    0.062347
     18          6           0        1.417668    1.449690   -0.105786
     19          6           0        2.262748    0.312185   -0.153770
     20          1           0       -6.414676    0.432614    0.343089
     21          1           0       -6.465976    1.440649   -1.117679
     22          1           0       -6.102424   -0.283062   -1.249187
     23          1           0       -4.037350    1.043927   -1.485707
     24          1           0       -3.176623    2.540382    0.272816
     25          1           0       -4.827699    3.034910   -0.083759
     26          1           0       -4.488419    2.083111    1.373743
     27          1           0       -4.059578   -1.076900   -0.437204
     28          1           0       -1.938070   -0.122752   -0.807402
     29          1           0       -2.009145    0.566555    0.830436
     30          1           0       -2.186108   -1.750078    1.778657
     31          1           0       -3.011870   -2.767713   -0.024222
     32          1           0        0.165010   -2.420719    1.375286
     33          1           0        0.024909   -0.677024    1.665941
     34          1           0        2.244925   -3.042810   -0.527293
     35          1           0        4.639983   -2.715511   -0.398027
     36          1           0        5.548661   -0.511184   -0.085191
     37          1           0        5.209455    1.950268    0.164292
     38          1           0        3.733421    3.844819    0.298516
     39          1           0        1.332636    3.546869    0.100032
     40          1           0        0.403218    1.361834   -0.196511
 ---------------------------------------------------------------------
 Rotational constants (GHZ):           0.6394252           0.1785984           0.1437865
 Leave Link  202 at Mon Feb 22 20:57:15 2021, MaxMem=   104857600 cpu:               1.3 elap:               0.1
 (Enter /sw/arch/RedHatEnterpriseServer7/EB_production/2019/software/Gaussian/g16.c01/l301.exe)
 Standard basis: TZVP (5D, 7F)
 Ernie: Thresh=  0.10000D-02 Tol=  0.10000D-05 Strict=F.
 There are   506 symmetry adapted cartesian basis functions of A   symmetry.
 There are   487 symmetry adapted basis functions of A   symmetry.
   487 basis functions,   833 primitive gaussians,   506 cartesian basis functions
    70 alpha electrons       70 beta electrons
       nuclear repulsion energy      1385.3537530395 Hartrees.
 IExCor=  404 DFT=T Ex=B Corr=P86 ExCW=0 ScaHFX=  0.000000
 ScaDFX=  1.000000  1.000000  1.000000  1.000000 ScalE2=  1.000000  1.000000
 IRadAn=      5 IRanWt=     -1 IRanGd=            0 ICorTp=0 IEmpDi=131
 NAtoms=   40 NActive=   40 NUniq=   40 SFac= 1.00D+00 NAtFMM=   60 NAOKFM=F Big=F
 Integral buffers will be    131072 words long.
 Raffenetti 2 integral format.
 Two-electron integral symmetry is turned on.
 R6Disp:  Grimme-D3 Dispersion energy=       -0.0425395720 Hartrees.
 Nuclear repulsion after empirical dispersion term =     1385.3112134675 Hartrees.
 ------------------------------------------------------------------------------
 Polarizable Continuum Model (PCM)
 =================================
 Model                : PCM.
 Atomic radii         : UFF (Universal Force Field).
 Polarization charges : Total charges.
 Charge compensation  : None.
 Solution method      : On-the-fly selection.
 Cavity type          : Scaled VdW (van der Waals Surface) (Alpha=1.100).
 Cavity algorithm     : GePol (No added spheres)
                        Default sphere list used, NSphG=   40.
                        Lebedev-Laikov grids with approx.  5.0 points / Ang**2.
                        Smoothing algorithm: York/Karplus (Gamma=1.0000).
                        Polarization charges: spherical gaussians, with
                                              point-specific exponents (IZeta= 3).
                        Self-potential: point-specific (ISelfS= 7).
                        Self-field    : sphere-specific E.n sum rule (ISelfD= 2).
 1st derivatives      : Analytical E(r).r(x)/FMM algorithm (CHGder, D1EAlg=3).
                        Cavity 1st derivative terms included.
 Solvent              : Water, Eps=  78.355300 Eps(inf)=   1.777849
 ------------------------------------------------------------------------------
 GePol: Number of generator spheres                  =      40
 GePol: Total number of spheres                      =      40
 GePol: Number of exposed spheres                    =      40 (100.00%)
 GePol: Number of points                             =    2840
 GePol: Average weight of points                     =       0.13
 GePol: Minimum weight of points                     =   0.52D-10
 GePol: Maximum weight of points                     =    0.20577
 GePol: Number of points with low weight             =     198
 GePol: Fraction of low-weight points (<1% of avg)   =       6.97%
 GePol: Cavity surface area                          =    366.722 Ang**2
 GePol: Cavity volume                                =    394.088 Ang**3
 Leave Link  301 at Mon Feb 22 20:57:15 2021, MaxMem=   104857600 cpu:               2.9 elap:               0.2
 (Enter /sw/arch/RedHatEnterpriseServer7/EB_production/2019/software/Gaussian/g16.c01/l302.exe)
 NPDir=0 NMtPBC=     1 NCelOv=     1 NCel=       1 NClECP=     1 NCelD=      1
         NCelK=      1 NCelE2=     1 NClLst=     1 CellRange=     0.0.
 One-electron integrals computed using PRISM.
 One-electron integral symmetry used in STVInt
 PrsmSu:  requested number of processors reduced to:  24 ShMem   1 Linda.
 NBasis=   487 RedAO= T EigKep=  6.71D-06  NBF=   487
 NBsUse=   487 1.00D-06 EigRej= -1.00D+00 NBFU=   487
 Precomputing XC quadrature grid using
 IXCGrd= 4 IRadAn=           5 IRanWt=          -1 IRanGd=           0 AccXCQ= 0.00D+00.
 Generated NRdTot=       0 NPtTot=           0 NUsed=           0 NTot=          32
 NSgBfM=   494   494   494   494   494 MxSgAt=    40 MxSgA2=    40.
 Leave Link  302 at Mon Feb 22 20:57:16 2021, MaxMem=   104857600 cpu:              18.3 elap:               0.6
 (Enter /sw/arch/RedHatEnterpriseServer7/EB_production/2019/software/Gaussian/g16.c01/l303.exe)
 DipDrv:  MaxL=1.
 Leave Link  303 at Mon Feb 22 20:57:16 2021, MaxMem=   104857600 cpu:               3.5 elap:               0.2
 (Enter /sw/arch/RedHatEnterpriseServer7/EB_production/2019/software/Gaussian/g16.c01/l401.exe)
 ExpMin= 9.52D-02 ExpMax= 2.70D+04 ExpMxC= 9.22D+02 IAcc=3 IRadAn=         5 AccDes= 0.00D+00
 Harris functional with IExCor=  404 and IRadAn=       5 diagonalized for initial guess.
 HarFok:  IExCor=  404 AccDes= 0.00D+00 IRadAn=         5 IDoV= 1 UseB2=F ITyADJ=14
 ICtDFT=  3500011 ScaDFX=  1.000000  1.000000  1.000000  1.000000
 FoFCou: FMM=F IPFlag=           0 FMFlag=      100000 FMFlg1=           0
         NFxFlg=           0 DoJE=T BraDBF=F KetDBF=T FulRan=T
         wScrn=  0.000000 ICntrl=       500 IOpCl=  0 I1Cent=   200000004 NGrid=           0
         NMat0=    1 NMatS0=      1 NMatT0=    0 NMatD0=    1 NMtDS0=    0 NMtDT0=    0
 Petite list used in FoFCou.
 Harris En= -828.188267415652    
 JPrj=0 DoOrth=F DoCkMO=F.
 Leave Link  401 at Mon Feb 22 20:57:17 2021, MaxMem=   104857600 cpu:              34.1 elap:               1.1
 (Enter /sw/arch/RedHatEnterpriseServer7/EB_production/2019/software/Gaussian/g16.c01/l502.exe)
 Integral symmetry usage will be decided dynamically.
 Closed shell SCF:
 Using DIIS extrapolation, IDIIS=  1040.
 NGot=   104857600 LenX=   104323232 LenY=   104066690
 Requested convergence on RMS density matrix=1.00D-08 within 128 cycles.
 Requested convergence on MAX density matrix=1.00D-06.
 Requested convergence on             energy=1.00D-06.
 No special actions if energy rises.
 Fock matrices will be formed incrementally for  20 cycles.

 Cycle   1  Pass 1  IDiag  1:
 FoFJK:  IHMeth= 1 ICntrl=     500 DoSepK=F KAlg= 0 I1Cent=           0 FoldK=F
 IRaf= 770000000 NMat=       1 IRICut=       1 DoRegI=T DoRafI=F ISym2E= 0 IDoP0=0 IntGTp=1.
 FoFCou: FMM=F IPFlag=           0 FMFlag=      100000 FMFlg1=           0
         NFxFlg=           0 DoJE=T BraDBF=F KetDBF=F FulRan=T
         wScrn=  0.000000 ICntrl=       500 IOpCl=  0 I1Cent=           0 NGrid=           0
         NMat0=    1 NMatS0=      1 NMatT0=    0 NMatD0=    1 NMtDS0=    0 NMtDT0=    0
 Symmetry not used in FoFCou.
 Inv3:  Mode=1 IEnd=    24196800.
 Iteration    1 A*A^-1 deviation from unit magnitude is 3.11D-15 for    379.
 Iteration    1 A*A^-1 deviation from orthogonality  is 2.11D-15 for   2786   1381.
 Iteration    1 A^-1*A deviation from unit magnitude is 2.89D-15 for    337.
 Iteration    1 A^-1*A deviation from orthogonality  is 1.78D-15 for   2763   1215.
 E= -827.378932325999    
 DIIS: error= 2.68D-02 at cycle   1 NSaved=   1.
 NSaved= 1 IEnMin= 1 EnMin= -827.378932325999     IErMin= 1 ErrMin= 2.68D-02
 ErrMax= 2.68D-02  0.00D+00 EMaxC= 1.00D-01 BMatC= 4.40D-01 BMatP= 4.40D-01
 IDIUse=3 WtCom= 7.32D-01 WtEn= 2.68D-01
 Coeff-Com:  0.100D+01
 Coeff-En:   0.100D+01
 Coeff:      0.100D+01
 Gap=     0.111 Goal=   None    Shift=    0.000
 GapD=    0.111 DampG=1.000 DampE=0.500 DampFc=0.5000 IDamp=-1.
 Damping current iteration by 5.00D-01
 RMSDP=7.88D-03 MaxDP=5.80D-01              OVMax= 2.46D-01

 Cycle   2  Pass 1  IDiag  1:
 RMSU=  3.89D-03    CP:  1.06D+00
 E= -827.521826733830     Delta-E=       -0.142894407831 Rises=F Damp=T
 DIIS: error= 6.89D-03 at cycle   2 NSaved=   2.
 NSaved= 2 IEnMin= 2 EnMin= -827.521826733830     IErMin= 2 ErrMin= 6.89D-03
 ErrMax= 6.89D-03  0.00D+00 EMaxC= 1.00D-01 BMatC= 5.08D-02 BMatP= 4.40D-01
 IDIUse=3 WtCom= 9.31D-01 WtEn= 6.89D-02
 Coeff-Com:  0.187D+00 0.813D+00
 Coeff-En:   0.301D+00 0.699D+00
 Coeff:      0.194D+00 0.806D+00
 Gap=     0.132 Goal=   None    Shift=    0.000
 RMSDP=3.39D-03 MaxDP=2.94D-01 DE=-1.43D-01 OVMax= 2.75D-01

 Cycle   3  Pass 1  IDiag  1:
 RMSU=  2.19D-03    CP:  9.24D-01  4.46D-01
 E= -827.780616601888     Delta-E=       -0.258789868057 Rises=F Damp=F
 DIIS: error= 6.67D-03 at cycle   3 NSaved=   3.
 NSaved= 3 IEnMin= 3 EnMin= -827.780616601888     IErMin= 3 ErrMin= 6.67D-03
 ErrMax= 6.67D-03  0.00D+00 EMaxC= 1.00D-01 BMatC= 3.86D-02 BMatP= 5.08D-02
 IDIUse=3 WtCom= 9.33D-01 WtEn= 6.67D-02
 Coeff-Com:  0.566D-01 0.466D+00 0.477D+00
 Coeff-En:   0.000D+00 0.000D+00 0.100D+01
 Coeff:      0.529D-01 0.435D+00 0.512D+00
 Gap=     0.111 Goal=   None    Shift=    0.000
 RMSDP=1.70D-03 MaxDP=1.14D-01 DE=-2.59D-01 OVMax= 1.47D-01

 Cycle   4  Pass 1  IDiag  1:
 RMSU=  7.72D-04    CP:  9.92D-01  5.67D-01  4.32D-01
 E= -827.804510027702     Delta-E=       -0.023893425814 Rises=F Damp=F
 DIIS: error= 5.08D-03 at cycle   4 NSaved=   4.
 NSaved= 4 IEnMin= 4 EnMin= -827.804510027702     IErMin= 4 ErrMin= 5.08D-03
 ErrMax= 5.08D-03  0.00D+00 EMaxC= 1.00D-01 BMatC= 1.25D-02 BMatP= 3.86D-02
 IDIUse=3 WtCom= 9.49D-01 WtEn= 5.08D-02
 Coeff-Com:  0.112D-01 0.165D+00 0.364D+00 0.459D+00
 Coeff-En:   0.000D+00 0.000D+00 0.309D+00 0.691D+00
 Coeff:      0.106D-01 0.157D+00 0.361D+00 0.471D+00
 Gap=     0.105 Goal=   None    Shift=    0.000
 RMSDP=7.66D-04 MaxDP=5.92D-02 DE=-2.39D-02 OVMax= 8.76D-02

 Cycle   5  Pass 1  IDiag  1:
 RMSU=  2.50D-04    CP:  9.62D-01  5.30D-01  6.75D-01  5.53D-01
 E= -827.816623088507     Delta-E=       -0.012113060805 Rises=F Damp=F
 DIIS: error= 1.55D-03 at cycle   5 NSaved=   5.
 NSaved= 5 IEnMin= 5 EnMin= -827.816623088507     IErMin= 5 ErrMin= 1.55D-03
 ErrMax= 1.55D-03  0.00D+00 EMaxC= 1.00D-01 BMatC= 1.46D-03 BMatP= 1.25D-02
 IDIUse=3 WtCom= 9.85D-01 WtEn= 1.55D-02
 Coeff-Com:  0.223D-02 0.629D-01 0.200D+00 0.325D+00 0.410D+00
 Coeff-En:   0.000D+00 0.000D+00 0.000D+00 0.981D-01 0.902D+00
 Coeff:      0.220D-02 0.619D-01 0.197D+00 0.321D+00 0.417D+00
 Gap=     0.109 Goal=   None    Shift=    0.000
 RMSDP=1.57D-04 MaxDP=9.88D-03 DE=-1.21D-02 OVMax= 2.70D-02

 Cycle   6  Pass 1  IDiag  1:
 RMSU=  1.10D-04    CP:  9.60D-01  5.12D-01  6.68D-01  5.93D-01  7.05D-01
 E= -827.818065395817     Delta-E=       -0.001442307311 Rises=F Damp=F
 DIIS: error= 3.19D-04 at cycle   6 NSaved=   6.
 NSaved= 6 IEnMin= 6 EnMin= -827.818065395817     IErMin= 6 ErrMin= 3.19D-04
 ErrMax= 3.19D-04  0.00D+00 EMaxC= 1.00D-01 BMatC= 1.29D-04 BMatP= 1.46D-03
 IDIUse=3 WtCom= 9.97D-01 WtEn= 3.19D-03
 Coeff-Com: -0.105D-03 0.143D-01 0.698D-01 0.131D+00 0.267D+00 0.519D+00
 Coeff-En:   0.000D+00 0.000D+00 0.000D+00 0.000D+00 0.688D-01 0.931D+00
 Coeff:     -0.105D-03 0.143D-01 0.695D-01 0.130D+00 0.266D+00 0.520D+00
 Gap=     0.109 Goal=   None    Shift=    0.000
 RMSDP=4.62D-05 MaxDP=3.88D-03 DE=-1.44D-03 OVMax= 5.99D-03

 Cycle   7  Pass 1  IDiag  1:
 RMSU=  2.12D-05    CP:  9.61D-01  5.18D-01  6.68D-01  5.88D-01  7.09D-01
                    CP:  7.24D-01
 E= -827.818179915640     Delta-E=       -0.000114519823 Rises=F Damp=F
 DIIS: error= 1.09D-04 at cycle   7 NSaved=   7.
 NSaved= 7 IEnMin= 7 EnMin= -827.818179915640     IErMin= 7 ErrMin= 1.09D-04
 ErrMax= 1.09D-04  0.00D+00 EMaxC= 1.00D-01 BMatC= 9.30D-06 BMatP= 1.29D-04
 IDIUse=3 WtCom= 9.99D-01 WtEn= 1.09D-03
 EnCoef did     2 forward-backward iterations
 Coeff-Com: -0.132D-03 0.448D-02 0.283D-01 0.553D-01 0.130D+00 0.307D+00
 Coeff-Com:  0.475D+00
 Coeff-En:   0.000D+00 0.000D+00 0.000D+00 0.000D+00 0.000D+00 0.270D-02
 Coeff-En:   0.997D+00
 Coeff:     -0.132D-03 0.448D-02 0.282D-01 0.553D-01 0.129D+00 0.307D+00
 Coeff:      0.476D+00
 Gap=     0.109 Goal=   None    Shift=    0.000
 RMSDP=1.01D-05 MaxDP=6.39D-04 DE=-1.15D-04 OVMax= 1.18D-03

 Cycle   8  Pass 1  IDiag  1:
 RMSU=  6.23D-06    CP:  9.61D-01  5.18D-01  6.67D-01  5.91D-01  7.02D-01
                    CP:  7.12D-01  6.99D-01
 E= -827.818188656246     Delta-E=       -0.000008740605 Rises=F Damp=F
 DIIS: error= 4.22D-05 at cycle   8 NSaved=   8.
 NSaved= 8 IEnMin= 8 EnMin= -827.818188656246     IErMin= 8 ErrMin= 4.22D-05
 ErrMax= 4.22D-05  0.00D+00 EMaxC= 1.00D-01 BMatC= 8.16D-07 BMatP= 9.30D-06
 IDIUse=1 WtCom= 1.00D+00 WtEn= 0.00D+00
 Coeff-Com: -0.386D-04 0.139D-02 0.101D-01 0.199D-01 0.507D-01 0.131D+00
 Coeff-Com:  0.281D+00 0.507D+00
 Coeff:     -0.386D-04 0.139D-02 0.101D-01 0.199D-01 0.507D-01 0.131D+00
 Coeff:      0.281D+00 0.507D+00
 Gap=     0.109 Goal=   None    Shift=    0.000
 RMSDP=3.71D-06 MaxDP=2.51D-04 DE=-8.74D-06 OVMax= 4.61D-04

 Cycle   9  Pass 1  IDiag  1:
 RMSU=  3.00D-06    CP:  9.61D-01  5.18D-01  6.66D-01  5.91D-01  7.01D-01
                    CP:  7.04D-01  7.05D-01  8.36D-01
 E= -827.818189295249     Delta-E=       -0.000000639003 Rises=F Damp=F
 DIIS: error= 1.82D-05 at cycle   9 NSaved=   9.
 NSaved= 9 IEnMin= 9 EnMin= -827.818189295249     IErMin= 9 ErrMin= 1.82D-05
 ErrMax= 1.82D-05  0.00D+00 EMaxC= 1.00D-01 BMatC= 1.84D-07 BMatP= 8.16D-07
 IDIUse=1 WtCom= 1.00D+00 WtEn= 0.00D+00
 Coeff-Com:  0.101D-04 0.424D-05 0.112D-02 0.211D-02 0.768D-02 0.248D-01
 Coeff-Com:  0.923D-01 0.351D+00 0.521D+00
 Coeff:      0.101D-04 0.424D-05 0.112D-02 0.211D-02 0.768D-02 0.248D-01
 Coeff:      0.923D-01 0.351D+00 0.521D+00
 Gap=     0.109 Goal=   None    Shift=    0.000
 RMSDP=2.25D-06 MaxDP=2.25D-04 DE=-6.39D-07 OVMax= 1.31D-04

 Cycle  10  Pass 1  IDiag  1:
 RMSU=  8.49D-07    CP:  9.61D-01  5.18D-01  6.67D-01  5.91D-01  7.03D-01
                    CP:  7.11D-01  7.23D-01  8.53D-01  6.76D-01
 E= -827.818189485370     Delta-E=       -0.000000190121 Rises=F Damp=F
 DIIS: error= 2.08D-06 at cycle  10 NSaved=  10.
 NSaved=10 IEnMin=10 EnMin= -827.818189485370     IErMin=10 ErrMin= 2.08D-06
 ErrMax= 2.08D-06  0.00D+00 EMaxC= 1.00D-01 BMatC= 6.13D-09 BMatP= 1.84D-07
 IDIUse=1 WtCom= 1.00D+00 WtEn= 0.00D+00
 Coeff-Com:  0.833D-05-0.403D-04 0.194D-03 0.285D-03 0.186D-02 0.738D-02
 Coeff-Com:  0.358D-01 0.161D+00 0.270D+00 0.524D+00
 Coeff:      0.833D-05-0.403D-04 0.194D-03 0.285D-03 0.186D-02 0.738D-02
 Coeff:      0.358D-01 0.161D+00 0.270D+00 0.524D+00
 Gap=     0.109 Goal=   None    Shift=    0.000
 RMSDP=3.28D-07 MaxDP=1.22D-05 DE=-1.90D-07 OVMax= 2.76D-05

 Cycle  11  Pass 1  IDiag  1:
 RMSU=  2.30D-07    CP:  9.61D-01  5.18D-01  6.67D-01  5.91D-01  7.03D-01
                    CP:  7.12D-01  7.24D-01  8.61D-01  6.94D-01  8.20D-01
 E= -827.818189506206     Delta-E=       -0.000000020836 Rises=F Damp=F
 DIIS: error= 1.03D-06 at cycle  11 NSaved=  11.
 NSaved=11 IEnMin=11 EnMin= -827.818189506206     IErMin=11 ErrMin= 1.03D-06
 ErrMax= 1.03D-06  0.00D+00 EMaxC= 1.00D-01 BMatC= 1.39D-09 BMatP= 6.13D-09
 IDIUse=1 WtCom= 1.00D+00 WtEn= 0.00D+00
 Coeff-Com:  0.385D-05-0.245D-04-0.324D-04-0.124D-03 0.865D-04 0.120D-02
 Coeff-Com:  0.968D-02 0.536D-01 0.981D-01 0.342D+00 0.495D+00
 Coeff:      0.385D-05-0.245D-04-0.324D-04-0.124D-03 0.865D-04 0.120D-02
 Coeff:      0.968D-02 0.536D-01 0.981D-01 0.342D+00 0.495D+00
 Gap=     0.109 Goal=   None    Shift=    0.000
 RMSDP=1.27D-07 MaxDP=7.36D-06 DE=-2.08D-08 OVMax= 1.16D-05

 Cycle  12  Pass 1  IDiag  1:
 RMSU=  6.83D-08    CP:  9.61D-01  5.18D-01  6.67D-01  5.91D-01  7.03D-01
                    CP:  7.12D-01  7.25D-01  8.66D-01  6.92D-01  8.29D-01
                    CP:  6.78D-01
 E= -827.818189507488     Delta-E=       -0.000000001282 Rises=F Damp=F
 DIIS: error= 2.47D-07 at cycle  12 NSaved=  12.
 NSaved=12 IEnMin=12 EnMin= -827.818189507488     IErMin=12 ErrMin= 2.47D-07
 ErrMax= 2.47D-07  0.00D+00 EMaxC= 1.00D-01 BMatC= 5.56D-11 BMatP= 1.39D-09
 IDIUse=1 WtCom= 1.00D+00 WtEn= 0.00D+00
 Coeff-Com:  0.157D-05-0.106D-04-0.238D-04-0.783D-04-0.341D-04 0.318D-03
 Coeff-Com:  0.356D-02 0.214D-01 0.402D-01 0.161D+00 0.269D+00 0.504D+00
 Coeff:      0.157D-05-0.106D-04-0.238D-04-0.783D-04-0.341D-04 0.318D-03
 Coeff:      0.356D-02 0.214D-01 0.402D-01 0.161D+00 0.269D+00 0.504D+00
 Gap=     0.109 Goal=   None    Shift=    0.000
 RMSDP=3.15D-08 MaxDP=2.12D-06 DE=-1.28D-09 OVMax= 3.84D-06

 Cycle  13  Pass 1  IDiag  1:
 RMSU=  2.45D-08    CP:  9.61D-01  5.18D-01  6.67D-01  5.91D-01  7.03D-01
                    CP:  7.12D-01  7.25D-01  8.67D-01  6.94D-01  8.34D-01
                    CP:  6.82D-01  7.75D-01
 E= -827.818189507549     Delta-E=       -0.000000000061 Rises=F Damp=F
 DIIS: error= 1.26D-07 at cycle  13 NSaved=  13.
 NSaved=13 IEnMin=13 EnMin= -827.818189507549     IErMin=13 ErrMin= 1.26D-07
 ErrMax= 1.26D-07  0.00D+00 EMaxC= 1.00D-01 BMatC= 1.34D-11 BMatP= 5.56D-11
 IDIUse=1 WtCom= 1.00D+00 WtEn= 0.00D+00
 Coeff-Com:  0.271D-06-0.223D-05-0.817D-05-0.263D-04-0.323D-04 0.370D-05
 Coeff-Com:  0.542D-03 0.412D-02 0.827D-02 0.431D-01 0.875D-01 0.342D+00
 Coeff-Com:  0.514D+00
 Coeff:      0.271D-06-0.223D-05-0.817D-05-0.263D-04-0.323D-04 0.370D-05
 Coeff:      0.542D-03 0.412D-02 0.827D-02 0.431D-01 0.875D-01 0.342D+00
 Coeff:      0.514D+00
 Gap=     0.109 Goal=   None    Shift=    0.000
 RMSDP=1.21D-08 MaxDP=4.75D-07 DE=-6.14D-11 OVMax= 1.35D-06

 Cycle  14  Pass 1  IDiag  1:
 RMSU=  7.77D-09    CP:  9.61D-01  5.18D-01  6.67D-01  5.91D-01  7.03D-01
                    CP:  7.12D-01  7.25D-01  8.67D-01  6.95D-01  8.39D-01
                    CP:  6.91D-01  7.93D-01  7.46D-01
 E= -827.818189507556     Delta-E=       -0.000000000007 Rises=F Damp=F
 DIIS: error= 1.99D-08 at cycle  14 NSaved=  14.
 NSaved=14 IEnMin=14 EnMin= -827.818189507556     IErMin=14 ErrMin= 1.99D-08
 ErrMax= 1.99D-08  0.00D+00 EMaxC= 1.00D-01 BMatC= 4.51D-13 BMatP= 1.34D-11
 IDIUse=1 WtCom= 1.00D+00 WtEn= 0.00D+00
 Coeff-Com:  0.372D-07-0.619D-06-0.304D-05-0.943D-05-0.152D-04-0.143D-04
 Coeff-Com:  0.901D-04 0.984D-03 0.220D-02 0.132D-01 0.300D-01 0.146D+00
 Coeff-Com:  0.259D+00 0.548D+00
 Coeff:      0.372D-07-0.619D-06-0.304D-05-0.943D-05-0.152D-04-0.143D-04
 Coeff:      0.901D-04 0.984D-03 0.220D-02 0.132D-01 0.300D-01 0.146D+00
 Coeff:      0.259D+00 0.548D+00
 Gap=     0.109 Goal=   None    Shift=    0.000
 RMSDP=3.57D-09 MaxDP=3.18D-07 DE=-6.59D-12 OVMax= 2.27D-07

 Error on total polarization charges =  0.01971
 SCF Done:  E(RB-P86) =  -827.818189508     A.U. after   14 cycles
            NFock= 14  Conv=0.36D-08     -V/T= 2.0039
 KE= 8.245755505499D+02 PE=-4.698285319569D+03 EE= 1.660580366044D+03
 Leave Link  502 at Mon Feb 22 20:58:17 2021, MaxMem=   104857600 cpu:            1859.0 elap:              59.2
 (Enter /sw/arch/RedHatEnterpriseServer7/EB_production/2019/software/Gaussian/g16.c01/l601.exe)
 Copying SCF densities to generalized density rwf, IOpCl= 0 IROHF=0.

 **********************************************************************

            Population analysis using the SCF Density.

 **********************************************************************

 Orbital symmetries:
       Occupied  (A) (A) (A) (A) (A) (A) (A) (A) (A) (A) (A) (A)
                 (A) (A) (A) (A) (A) (A) (A) (A) (A) (A) (A) (A)
                 (A) (A) (A) (A) (A) (A) (A) (A) (A) (A) (A) (A)
                 (A) (A) (A) (A) (A) (A) (A) (A) (A) (A) (A) (A)
                 (A) (A) (A) (A) (A) (A) (A) (A) (A) (A) (A) (A)
                 (A) (A) (A) (A) (A) (A) (A) (A) (A) (A)
       Virtual   (A) (A) (A) (A) (A) (A) (A) (A) (A) (A) (A) (A)
                 (A) (A) (A) (A) (A) (A) (A) (A) (A) (A) (A) (A)
                 (A) (A) (A) (A) (A) (A) (A) (A) (A) (A) (A) (A)
                 (A) (A) (A) (A) (A) (A) (A) (A) (A) (A) (A) (A)
                 (A) (A) (A) (A) (A) (A) (A) (A) (A) (A) (A) (A)
                 (A) (A) (A) (A) (A) (A) (A) (A) (A) (A) (A) (A)
                 (A) (A) (A) (A) (A) (A) (A) (A) (A) (A) (A) (A)
                 (A) (A) (A) (A) (A) (A) (A) (A) (A) (A) (A) (A)
                 (A) (A) (A) (A) (A) (A) (A) (A) (A) (A) (A) (A)
                 (A) (A) (A) (A) (A) (A) (A) (A) (A) (A) (A) (A)
                 (A) (A) (A) (A) (A) (A) (A) (A) (A) (A) (A) (A)
                 (A) (A) (A) (A) (A) (A) (A) (A) (A) (A) (A) (A)
                 (A) (A) (A) (A) (A) (A) (A) (A) (A) (A) (A) (A)
                 (A) (A) (A) (A) (A) (A) (A) (A) (A) (A) (A) (A)
                 (A) (A) (A) (A) (A) (A) (A) (A) (A) (A) (A) (A)
                 (A) (A) (A) (A) (A) (A) (A) (A) (A) (A) (A) (A)
                 (A) (A) (A) (A) (A) (A) (A) (A) (A) (A) (A) (A)
                 (A) (A) (A) (A) (A) (A) (A) (A) (A) (A) (A) (A)
                 (A) (A) (A) (A) (A) (A) (A) (A) (A) (A) (A) (A)
                 (A) (A) (A) (A) (A) (A) (A) (A) (A) (A) (A) (A)
                 (A) (A) (A) (A) (A) (A) (A) (A) (A) (A) (A) (A)
                 (A) (A) (A) (A) (A) (A) (A) (A) (A) (A) (A) (A)
                 (A) (A) (A) (A) (A) (A) (A) (A) (A) (A) (A) (A)
                 (A) (A) (A) (A) (A) (A) (A) (A) (A) (A) (A) (A)
                 (A) (A) (A) (A) (A) (A) (A) (A) (A) (A) (A) (A)
                 (A) (A) (A) (A) (A) (A) (A) (A) (A) (A) (A) (A)
                 (A) (A) (A) (A) (A) (A) (A) (A) (A) (A) (A) (A)
                 (A) (A) (A) (A) (A) (A) (A) (A) (A) (A) (A) (A)
                 (A) (A) (A) (A) (A) (A) (A) (A) (A) (A) (A) (A)
                 (A) (A) (A) (A) (A) (A) (A) (A) (A) (A) (A) (A)
                 (A) (A) (A) (A) (A) (A) (A) (A) (A) (A) (A) (A)
                 (A) (A) (A) (A) (A) (A) (A) (A) (A) (A) (A) (A)
                 (A) (A) (A) (A) (A) (A) (A) (A) (A) (A) (A) (A)
                 (A) (A) (A) (A) (A) (A) (A) (A) (A) (A) (A) (A)
                 (A) (A) (A) (A) (A) (A) (A) (A) (A)
 The electronic state is 1-A.
 Alpha  occ. eigenvalues --  -18.79830 -18.78076 -13.99353  -9.96357  -9.95973
 Alpha  occ. eigenvalues --   -9.95762  -9.93118  -9.91986  -9.91868  -9.91841
 Alpha  occ. eigenvalues --   -9.90380  -9.90331  -9.90290  -9.90163  -9.90118
 Alpha  occ. eigenvalues --   -9.90060  -9.90018  -9.88598  -9.88526  -0.98292
 Alpha  occ. eigenvalues --   -0.95078  -0.83003  -0.80603  -0.75559  -0.72149
 Alpha  occ. eigenvalues --   -0.70525  -0.68790  -0.68586  -0.65283  -0.62670
 Alpha  occ. eigenvalues --   -0.60886  -0.58227  -0.56891  -0.55525  -0.53585
 Alpha  occ. eigenvalues --   -0.51982  -0.49804  -0.48301  -0.47111  -0.45906
 Alpha  occ. eigenvalues --   -0.45298  -0.44119  -0.43325  -0.41850  -0.41112
 Alpha  occ. eigenvalues --   -0.39969  -0.39655  -0.39111  -0.38081  -0.37331
 Alpha  occ. eigenvalues --   -0.36888  -0.36139  -0.35622  -0.35044  -0.34806
 Alpha  occ. eigenvalues --   -0.33770  -0.33283  -0.32677  -0.31451  -0.31104
 Alpha  occ. eigenvalues --   -0.30459  -0.30032  -0.29851  -0.29198  -0.26058
 Alpha  occ. eigenvalues --   -0.24483  -0.24048  -0.23705  -0.19955  -0.19619
 Alpha virt. eigenvalues --   -0.08709  -0.05422  -0.02366   0.00041   0.02702
 Alpha virt. eigenvalues --    0.02821   0.03613   0.04511   0.05604   0.05828
 Alpha virt. eigenvalues --    0.05994   0.06900   0.07432   0.07962   0.08220
 Alpha virt. eigenvalues --    0.08766   0.09020   0.09484   0.09852   0.10437
 Alpha virt. eigenvalues --    0.11358   0.11470   0.11515   0.11994   0.12180
 Alpha virt. eigenvalues --    0.12671   0.12817   0.13365   0.13865   0.14096
 Alpha virt. eigenvalues --    0.14856   0.15487   0.16083   0.16545   0.16742
 Alpha virt. eigenvalues --    0.17306   0.17654   0.18444   0.18501   0.19260
 Alpha virt. eigenvalues --    0.20197   0.20462   0.21016   0.21693   0.21966
 Alpha virt. eigenvalues --    0.22482   0.22519   0.23440   0.23687   0.24365
 Alpha virt. eigenvalues --    0.24969   0.25418   0.25812   0.25973   0.26933
 Alpha virt. eigenvalues --    0.27456   0.27773   0.28480   0.29032   0.29539
 Alpha virt. eigenvalues --    0.30038   0.30394   0.31106   0.31759   0.32144
 Alpha virt. eigenvalues --    0.32354   0.32704   0.32797   0.33867   0.34297
 Alpha virt. eigenvalues --    0.34550   0.35254   0.35977   0.36471   0.37136
 Alpha virt. eigenvalues --    0.37469   0.37569   0.38586   0.39382   0.40243
 Alpha virt. eigenvalues --    0.40321   0.40680   0.40832   0.41075   0.41381
 Alpha virt. eigenvalues --    0.41827   0.42312   0.42682   0.42844   0.43368
 Alpha virt. eigenvalues --    0.43747   0.43906   0.44202   0.44309   0.44963
 Alpha virt. eigenvalues --    0.45093   0.45514   0.46413   0.46678   0.47263
 Alpha virt. eigenvalues --    0.47478   0.48035   0.48753   0.49010   0.49981
 Alpha virt. eigenvalues --    0.50769   0.50874   0.51328   0.51954   0.53653
 Alpha virt. eigenvalues --    0.54505   0.55396   0.55630   0.56170   0.58504
 Alpha virt. eigenvalues --    0.58943   0.59349   0.60461   0.60892   0.62284
 Alpha virt. eigenvalues --    0.63375   0.64147   0.65187   0.65624   0.66006
 Alpha virt. eigenvalues --    0.66976   0.68273   0.69465   0.70356   0.70680
 Alpha virt. eigenvalues --    0.71226   0.72780   0.74707   0.75937   0.77374
 Alpha virt. eigenvalues --    0.80158   0.81528   0.82997   0.84499   0.87578
 Alpha virt. eigenvalues --    0.89280   0.91983   0.93844   1.07720   1.09301
 Alpha virt. eigenvalues --    1.11692   1.12438   1.14360   1.14771   1.15961
 Alpha virt. eigenvalues --    1.16434   1.17904   1.18830   1.19046   1.19214
 Alpha virt. eigenvalues --    1.20056   1.20269   1.20844   1.20970   1.21440
 Alpha virt. eigenvalues --    1.21801   1.23495   1.23695   1.24078   1.24851
 Alpha virt. eigenvalues --    1.25368   1.25683   1.26348   1.27073   1.27449
 Alpha virt. eigenvalues --    1.28219   1.28600   1.29238   1.30803   1.31420
 Alpha virt. eigenvalues --    1.32273   1.32566   1.33554   1.34059   1.34360
 Alpha virt. eigenvalues --    1.35847   1.36089   1.36561   1.37830   1.38297
 Alpha virt. eigenvalues --    1.38892   1.39548   1.40022   1.40478   1.41113
 Alpha virt. eigenvalues --    1.41352   1.41993   1.42409   1.42704   1.43463
 Alpha virt. eigenvalues --    1.44011   1.44531   1.44884   1.45004   1.45906
 Alpha virt. eigenvalues --    1.46178   1.47100   1.47651   1.47923   1.48056
 Alpha virt. eigenvalues --    1.49214   1.50229   1.50417   1.51722   1.51791
 Alpha virt. eigenvalues --    1.52556   1.53058   1.54428   1.54829   1.55552
 Alpha virt. eigenvalues --    1.57503   1.57967   1.58288   1.59534   1.60285
 Alpha virt. eigenvalues --    1.60845   1.62688   1.63638   1.65800   1.66263
 Alpha virt. eigenvalues --    1.67689   1.69630   1.70150   1.72543   1.72862
 Alpha virt. eigenvalues --    1.73384   1.73609   1.74191   1.74905   1.75186
 Alpha virt. eigenvalues --    1.75339   1.75952   1.76450   1.77474   1.77887
 Alpha virt. eigenvalues --    1.79595   1.79697   1.80742   1.81453   1.82686
 Alpha virt. eigenvalues --    1.83122   1.83481   1.84008   1.84730   1.85125
 Alpha virt. eigenvalues --    1.86638   1.87256   1.87345   1.88676   1.89179
 Alpha virt. eigenvalues --    1.89884   1.90070   1.90601   1.92644   1.92835
 Alpha virt. eigenvalues --    1.93778   1.95558   1.95859   1.96773   1.97766
 Alpha virt. eigenvalues --    1.99262   2.01319   2.01730   2.02372   2.03094
 Alpha virt. eigenvalues --    2.03769   2.05492   2.06145   2.07218   2.09147
 Alpha virt. eigenvalues --    2.12836   2.13431   2.14873   2.15774   2.16212
 Alpha virt. eigenvalues --    2.17415   2.18591   2.18753   2.19024   2.19792
 Alpha virt. eigenvalues --    2.20245   2.20701   2.21919   2.23444   2.23588
 Alpha virt. eigenvalues --    2.24550   2.25377   2.25635   2.26434   2.26884
 Alpha virt. eigenvalues --    2.27565   2.27822   2.30190   2.31054   2.33274
 Alpha virt. eigenvalues --    2.33788   2.37516   2.38284   2.41387   2.42199
 Alpha virt. eigenvalues --    2.43252   2.43823   2.44638   2.45068   2.45861
 Alpha virt. eigenvalues --    2.45952   2.47467   2.48570   2.49187   2.50258
 Alpha virt. eigenvalues --    2.52954   2.54512   2.55395   2.56126   2.56557
 Alpha virt. eigenvalues --    2.57492   2.57601   2.58651   2.58796   2.59353
 Alpha virt. eigenvalues --    2.60682   2.61556   2.62357   2.62503   2.63740
 Alpha virt. eigenvalues --    2.64445   2.64583   2.65869   2.67183   2.68151
 Alpha virt. eigenvalues --    2.70069   2.71297   2.72100   2.73163   2.74078
 Alpha virt. eigenvalues --    2.74697   2.75146   2.78478   2.80159   2.81731
 Alpha virt. eigenvalues --    2.83053   2.85573   2.87889   2.89546   2.93516
 Alpha virt. eigenvalues --    2.94555   2.96012   2.97226   2.98180   2.99555
 Alpha virt. eigenvalues --    3.01347   3.01453   3.03023   3.04892   3.05846
 Alpha virt. eigenvalues --    3.06290   3.06992   3.08107   3.08909   3.09429
 Alpha virt. eigenvalues --    3.10286   3.11023   3.12090   3.13426   3.15347
 Alpha virt. eigenvalues --    3.16622   3.19682   3.21929   3.24072   3.25051
 Alpha virt. eigenvalues --    3.25222   3.26064   3.27608   3.29093   3.29322
 Alpha virt. eigenvalues --    3.31623   3.33733   3.34234   3.35001   3.35502
 Alpha virt. eigenvalues --    3.36196   3.37424   3.40687   3.41552   3.46496
 Alpha virt. eigenvalues --    3.61484   3.72373   3.74034   3.79578   3.87898
 Alpha virt. eigenvalues --    3.90666   4.08462   4.17729  21.00712  21.36111
 Alpha virt. eigenvalues --   21.64808  21.67772  21.70380  21.75082  21.76132
 Alpha virt. eigenvalues --   21.79301  21.81028  21.82402  21.83480  21.85682
 Alpha virt. eigenvalues --   21.86173  21.90470  22.01589  22.04823  31.62425
 Alpha virt. eigenvalues --   43.23132  43.34064
          Condensed to atoms (all electrons):
               1          2          3          4          5          6
     1  C    5.150560   0.249438  -0.040423  -0.078596   0.013836  -0.000640
     2  C    0.249438   5.226710   0.205347   0.275967  -0.059753   0.008239
     3  C   -0.040423   0.205347   5.273978  -0.073388  -0.002558   0.001972
     4  N   -0.078596   0.275967  -0.073388   6.744269   0.248745  -0.045906
     5  C    0.013836  -0.059753  -0.002558   0.248745   5.507654   0.072227
     6  C   -0.000640   0.008239   0.001972  -0.045906   0.072227   5.366966
     7  O    0.000173  -0.002146   0.000128  -0.013251  -0.024397   0.267031
     8  C    0.000135  -0.001886  -0.000374   0.016404  -0.025677   0.094089
     9  O   -0.000003   0.000100  -0.000019   0.000287  -0.019179  -0.015319
    10  C    0.000001  -0.000093   0.000020  -0.000300  -0.003589  -0.007125
    11  C   -0.000000  -0.000003   0.000001  -0.000004  -0.001781   0.004307
    12  C    0.000000   0.000000  -0.000000   0.000001   0.000079  -0.000658
    13  C   -0.000000  -0.000000   0.000000  -0.000000  -0.000101   0.000301
    14  C   -0.000000   0.000002  -0.000002   0.000005   0.000957  -0.001624
    15  C    0.000000   0.000000   0.000000   0.000000   0.000034   0.000013
    16  C   -0.000000  -0.000001  -0.000001  -0.000001  -0.000088   0.000009
    17  C   -0.000000   0.000006   0.000003  -0.000004   0.000288   0.000372
    18  C    0.000003  -0.000017   0.000130   0.000208  -0.000689   0.001789
    19  C   -0.000000   0.000053  -0.000010   0.000119   0.001453   0.004862
    20  H    0.390012  -0.032827  -0.021931   0.008060  -0.000396  -0.000144
    21  H    0.387008  -0.028216  -0.011377   0.008841  -0.000938   0.000075
    22  H    0.404656  -0.042611   0.015602  -0.003758  -0.000228  -0.000052
    23  H   -0.061996   0.452081  -0.105640  -0.071483  -0.015087  -0.000451
    24  H    0.011659  -0.043395   0.407623  -0.004386   0.004267   0.000274
    25  H   -0.010407  -0.026297   0.385226   0.006921   0.000829  -0.000003
[...]
     7  O    0.000012  -0.000027  -0.000000   0.000000  -0.000004  -0.000018
     8  C    0.003228   0.003640  -0.001386   0.000743  -0.005506  -0.009098
     9  O    0.000489   0.022476  -0.000547  -0.000039   0.004288   0.007804
    10  C   -0.420790   0.261272   0.084644  -0.014243   0.057211  -0.316407
    11  C    0.227169  -0.283239  -0.018895   0.005209  -0.009925   0.082777
    12  C    0.122899   0.159613   0.048747  -0.008266   0.005442  -0.031941
    13  C    5.686141   0.186281  -0.207422   0.044079  -0.020583   0.101103
    14  C    0.186281   5.862790   0.276586   0.050996  -0.149617  -0.090741
    15  C   -0.207422   0.276586   5.570217   0.237993   0.126253  -0.289204
    16  C    0.044079   0.050996   0.237993   5.265832   0.233417   0.113563
    17  C   -0.020583  -0.149617   0.126253   0.233417   5.335859   0.177731
    18  C    0.101103  -0.090741  -0.289204   0.113563   0.177731   5.733624
    19  C    0.109939  -0.352878   0.024096  -0.154813   0.098968   0.238220
    20  H   -0.000000  -0.000000   0.000000  -0.000000   0.000000   0.000000
    21  H    0.000000  -0.000000   0.000000  -0.000000  -0.000000   0.000000
    22  H    0.000000   0.000000  -0.000000   0.000000  -0.000000  -0.000001
    23  H   -0.000000  -0.000002   0.000000   0.000000  -0.000007   0.000040
    24  H   -0.000000  -0.000001   0.000000  -0.000001   0.000034  -0.000011
    25  H   -0.000000  -0.000000   0.000000  -0.000000  -0.000000   0.000005
    26  H   -0.000000  -0.000000  -0.000000   0.000000   0.000000  -0.000003
    27  H    0.000000  -0.000000  -0.000000   0.000000   0.000002  -0.000005
    28  H    0.000009  -0.000376   0.000008   0.000002   0.000571   0.000677
    29  H    0.000010  -0.000117   0.000002  -0.000001   0.000325   0.000683
    30  H    0.000014  -0.000077  -0.000001   0.000001   0.000028   0.000318
    31  H   -0.000001   0.000002   0.000000  -0.000000   0.000000  -0.000001
    32  H   -0.000234   0.000957  -0.000001  -0.000013   0.000097   0.001165
    33  H    0.000951  -0.005859   0.000024   0.000121  -0.002108   0.000143
    34  H    0.023972  -0.007667  -0.000184   0.000022  -0.000028   0.000095
    35  H   -0.080241   0.023078  -0.000660   0.000011   0.000031  -0.000218
    36  H    0.430572  -0.060227  -0.016425   0.001236  -0.000030  -0.000515
    37  H   -0.017776  -0.056923   0.428116  -0.062593   0.013096  -0.002379
    38  H   -0.000646   0.020913  -0.068962   0.444647  -0.071791   0.020908
    39  H   -0.000157  -0.000989   0.018169  -0.073776   0.441420  -0.063120
    40  H    0.002696   0.014307  -0.005899   0.016695  -0.059358   0.441760
              19         20         21         22         23         24
     1  C   -0.000000   0.385589   0.389455   0.404467  -0.067696   0.014394
     2  C    0.000069  -0.027730  -0.032375  -0.044514   0.447437  -0.039858
     3  C   -0.000006  -0.024580  -0.004966   0.015748  -0.101956   0.398237
     4  N    0.000101   0.005921   0.008974  -0.003204  -0.070909  -0.003667
     5  C    0.002719   0.000170  -0.000810  -0.000222  -0.002970   0.001001
     6  C    0.005840  -0.000058   0.000057  -0.000146  -0.000931  -0.000682
     7  O    0.000303  -0.000000  -0.000006  -0.000069   0.000057  -0.000017
     8  C    0.012993   0.000032  -0.000001  -0.000018   0.000813   0.000103
     9  O   -0.118941   0.000000   0.000000   0.000000  -0.000045   0.000013
    10  C   -0.557508   0.000000  -0.000000  -0.000000   0.000028   0.000002
    11  C    0.209907  -0.000000  -0.000000   0.000000  -0.000002  -0.000000
    12  C   -0.246418   0.000000   0.000000  -0.000000   0.000000  -0.000000
    13  C    0.109939  -0.000000   0.000000   0.000000  -0.000000  -0.000000
    14  C   -0.352878  -0.000000  -0.000000   0.000000  -0.000002  -0.000001
    15  C    0.024096   0.000000   0.000000  -0.000000   0.000000   0.000000
    16  C   -0.154813  -0.000000  -0.000000   0.000000   0.000000  -0.000001
    17  C    0.098968   0.000000  -0.000000  -0.000000  -0.000007   0.000034
    18  C    0.238220   0.000000   0.000000  -0.000001   0.000040  -0.000011
    19  C    6.816640  -0.000000   0.000000   0.000000  -0.000010  -0.000005
    20  H   -0.000000   0.560954  -0.023230  -0.029191   0.012350  -0.000203
    21  H    0.000000  -0.023230   0.532648  -0.021964   0.000800  -0.000122
    22  H    0.000000  -0.029191  -0.021964   0.536201  -0.008737  -0.000502
    23  H   -0.000010   0.012350   0.000800  -0.008737   0.646928  -0.004939
    24  H   -0.000005  -0.000203  -0.000122  -0.000502  -0.004939   0.532621
    25  H    0.000000   0.001855   0.003721  -0.000293   0.005412  -0.022817
    26  H   -0.000000   0.009383   0.000730  -0.000458   0.012672  -0.026315
    27  H   -0.000021  -0.002675   0.000319   0.005387  -0.006814  -0.000269
    28  H   -0.001922   0.000266   0.000115  -0.000191   0.016772   0.000336
    29  H   -0.000668  -0.000163  -0.000080   0.000011  -0.006035   0.003103
    30  H   -0.000212   0.000097   0.000004  -0.000019   0.000428   0.000107
    31  H   -0.000000   0.000092   0.000000  -0.000040   0.000166  -0.000003
    32  H   -0.009514  -0.000000   0.000000   0.000000  -0.000008   0.000002
    33  H    0.029194   0.000000   0.000000   0.000000   0.000017  -0.000033
    34  H    0.042539  -0.000000   0.000000   0.000000  -0.000000  -0.000000
    35  H   -0.006802   0.000000  -0.000000  -0.000000   0.000000   0.000000
    36  H    0.029299   0.000000   0.000000  -0.000000   0.000000   0.000000
    37  H    0.025129   0.000000   0.000000  -0.000000   0.000000   0.000000
    38  H   -0.004496   0.000000   0.000000   0.000000   0.000000  -0.000000
    39  H    0.022105   0.000000   0.000000  -0.000000   0.000002   0.000018
    40  H   -0.074660   0.000000  -0.000001   0.000001   0.000079   0.000042
              25         26         27         28         29         30
     1  C   -0.012483  -0.017463  -0.001927  -0.001044   0.002066  -0.000312
     2  C   -0.031755  -0.025173  -0.044054  -0.015627  -0.000926  -0.001555
     3  C    0.382045   0.370443   0.013691  -0.003341   0.006932  -0.000715
     4  N    0.009025   0.008673   0.355203  -0.061664  -0.040341   0.009922
     5  C    0.001747  -0.001516  -0.047255   0.402092   0.345506  -0.082394
     6  C    0.000033  -0.000254  -0.018514  -0.048274  -0.003312   0.426540
     7  O    0.000003  -0.000021   0.021558  -0.001592   0.008122  -0.053601
     8  C    0.000029   0.000075   0.000938  -0.004425   0.009517  -0.032847
     9  O   -0.000000   0.000001   0.000034   0.020539  -0.003171   0.005133
    10  C    0.000000   0.000001  -0.000007   0.003480  -0.000297   0.001693
    11  C   -0.000000  -0.000000   0.000007  -0.000356   0.000200   0.000216
    12  C    0.000000   0.000000  -0.000000  -0.000027  -0.000008  -0.000048
    13  C   -0.000000  -0.000000   0.000000   0.000009   0.000010   0.000014
    14  C   -0.000000  -0.000000  -0.000000  -0.000376  -0.000117  -0.000077
    15  C    0.000000  -0.000000  -0.000000   0.000008   0.000002  -0.000001
    16  C   -0.000000   0.000000   0.000000   0.000002  -0.000001   0.000001
    17  C   -0.000000   0.000000   0.000002   0.000571   0.000325   0.000028
    18  C    0.000005  -0.000003  -0.000005   0.000677   0.000683   0.000318
    19  C    0.000000  -0.000000  -0.000021  -0.001922  -0.000668  -0.000212
    20  H    0.001855   0.009383  -0.002675   0.000266  -0.000163   0.000097
    21  H    0.003721   0.000730   0.000319   0.000115  -0.000080   0.000004
    22  H   -0.000293  -0.000458   0.005387  -0.000191   0.000011  -0.000019
    23  H    0.005412   0.012672  -0.006814   0.016772  -0.006035   0.000428
    24  H   -0.022817  -0.026315  -0.000269   0.000336   0.003103   0.000107
    25  H    0.540639  -0.019538  -0.000591   0.000403  -0.000941   0.000031
    26  H   -0.019538   0.565175  -0.000748   0.000524  -0.001308   0.000367
    27  H   -0.000591  -0.000748   0.500418  -0.010214   0.011316  -0.000075
    28  H    0.000403   0.000524  -0.010214   0.590598  -0.044779   0.011535
    29  H   -0.000941  -0.001308   0.011316  -0.044779   0.571944  -0.005273
    30  H    0.000031   0.000367  -0.000075   0.011535  -0.005273   0.559279
    31  H    0.000002   0.000029  -0.000093   0.000465  -0.000468  -0.010590
    32  H   -0.000000  -0.000000  -0.000112  -0.000179  -0.001020  -0.003001
    33  H   -0.000002   0.000004  -0.000100   0.001071   0.000161  -0.001069
    34  H   -0.000000  -0.000000  -0.000001   0.000031  -0.000003   0.000069
    35  H    0.000000   0.000000  -0.000000   0.000000  -0.000000  -0.000000
    36  H    0.000000   0.000000   0.000000  -0.000000   0.000000   0.000000
    37  H    0.000000   0.000000  -0.000000   0.000000  -0.000000   0.000000
    38  H    0.000000   0.000000  -0.000000   0.000000  -0.000000   0.000000
    39  H    0.000001  -0.000000  -0.000000   0.000016  -0.000010  -0.000001
    40  H   -0.000010   0.000010   0.000042   0.004153  -0.002072   0.000843
              31         32         33         34         35         36
     1  C    0.000109  -0.000002  -0.000002  -0.000000   0.000000  -0.000000
     2  C   -0.000102   0.000082  -0.000260  -0.000000   0.000000  -0.000000
     3  C   -0.000026  -0.000009   0.000115   0.000000  -0.000000   0.000000
     4  N    0.011702  -0.000475  -0.000093  -0.000002   0.000000  -0.000000
     5  C   -0.008547   0.024187  -0.019628  -0.000112   0.000001  -0.000000
     6  C   -0.033474  -0.035690  -0.003667   0.000971  -0.000009   0.000000
     7  O    0.306305   0.007539   0.005042   0.000941  -0.000001   0.000000
     8  C    0.014104   0.364713   0.375814  -0.003791  -0.000115   0.000009
     9  O   -0.000263  -0.042447  -0.058651   0.003114  -0.000258   0.000020
    10  C   -0.000019   0.013013  -0.024202  -0.100924   0.027924  -0.003076
    11  C   -0.000077   0.002766   0.010450   0.450427  -0.077972   0.015827
    12  C    0.000006  -0.001570  -0.000804  -0.080699   0.453803  -0.069619
    13  C   -0.000001  -0.000234   0.000951   0.023972  -0.080241   0.430572
    14  C    0.000002   0.000957  -0.005859  -0.007667   0.023078  -0.060227
    15  C    0.000000  -0.000001   0.000024  -0.000184  -0.000660  -0.016425
    16  C   -0.000000  -0.000013   0.000121   0.000022   0.000011   0.001236
    17  C    0.000000   0.000097  -0.002108  -0.000028   0.000031  -0.000030
    18  C   -0.000001   0.001165   0.000143   0.000095  -0.000218  -0.000515
    19  C   -0.000000  -0.009514   0.029194   0.042539  -0.006802   0.029299
    20  H    0.000092  -0.000000   0.000000  -0.000000   0.000000   0.000000
    21  H    0.000000   0.000000   0.000000   0.000000  -0.000000   0.000000
    22  H   -0.000040   0.000000   0.000000   0.000000  -0.000000  -0.000000
    23  H    0.000166  -0.000008   0.000017  -0.000000   0.000000   0.000000
    24  H   -0.000003   0.000002  -0.000033  -0.000000   0.000000   0.000000
    25  H    0.000002  -0.000000  -0.000002  -0.000000   0.000000   0.000000
    26  H    0.000029  -0.000000   0.000004  -0.000000   0.000000   0.000000
    27  H   -0.000093  -0.000112  -0.000100  -0.000001  -0.000000   0.000000
    28  H    0.000465  -0.000179   0.001071   0.000031   0.000000  -0.000000
    29  H   -0.000468  -0.001020   0.000161  -0.000003  -0.000000   0.000000
    30  H   -0.010590  -0.003001  -0.001069   0.000069  -0.000000   0.000000
    31  H    0.404871  -0.000346  -0.000415  -0.000031   0.000000  -0.000000
    32  H   -0.000346   0.546935  -0.029719  -0.000256   0.000034  -0.000002
    33  H   -0.000415  -0.029719   0.543569   0.001304  -0.000021   0.000004
    34  H   -0.000031  -0.000256   0.001304   0.536089  -0.007862  -0.000130
    35  H    0.000000   0.000034  -0.000021  -0.007862   0.532221  -0.007135
    36  H   -0.000000  -0.000002   0.000004  -0.000130  -0.007135   0.533632
    37  H    0.000000  -0.000000  -0.000000  -0.000003   0.000005   0.003952
    38  H    0.000000  -0.000000  -0.000001   0.000000  -0.000000  -0.000008
    39  H    0.000000   0.000000  -0.000004  -0.000000   0.000000  -0.000004
    40  H   -0.000051  -0.000018  -0.000834   0.000136  -0.000010   0.000003
              37         38         39         40
     1  C    0.000000  -0.000000   0.000000  -0.000019
     2  C    0.000000  -0.000000   0.000009  -0.000510
     3  C    0.000000  -0.000000   0.000000   0.000011
     4  N    0.000000  -0.000000   0.000002  -0.000761
     5  C    0.000000   0.000000   0.000095   0.000195
     6  C    0.000000  -0.000000  -0.000027   0.001394
     7  O   -0.000000   0.000000  -0.000000   0.000369
     8  C   -0.000005   0.000003  -0.000033   0.000070
     9  O    0.000003  -0.000001  -0.000010   0.012541
    10  C   -0.000752  -0.000154  -0.001322  -0.042210
    11  C   -0.000155  -0.000001  -0.000084   0.006987
    12  C    0.001696   0.000041   0.000044  -0.002017
    13  C   -0.017776  -0.000646  -0.000157   0.002696
    14  C   -0.056923   0.020913  -0.000989   0.014307
    15  C    0.428116  -0.068962   0.018169  -0.005899
    16  C   -0.062593   0.444647  -0.073776   0.016695
    17  C    0.013096  -0.071791   0.441420  -0.059358
    18  C   -0.002379   0.020908  -0.063120   0.441760
    19  C    0.025129  -0.004496   0.022105  -0.074660
    20  H    0.000000   0.000000   0.000000   0.000000
    21  H    0.000000   0.000000   0.000000  -0.000001
    22  H   -0.000000   0.000000  -0.000000   0.000001
    23  H    0.000000   0.000000   0.000002   0.000079
    24  H    0.000000  -0.000000   0.000018   0.000042
    25  H    0.000000   0.000000   0.000001  -0.000010
    26  H    0.000000   0.000000  -0.000000   0.000010
    27  H   -0.000000  -0.000000  -0.000000   0.000042
    28  H    0.000000   0.000000   0.000016   0.004153
    29  H   -0.000000  -0.000000  -0.000010  -0.002072
    30  H    0.000000   0.000000  -0.000001   0.000843
    31  H    0.000000   0.000000   0.000000  -0.000051
    32  H   -0.000000  -0.000000   0.000000  -0.000018
    33  H   -0.000000  -0.000001  -0.000004  -0.000834
    34  H   -0.000003   0.000000  -0.000000   0.000136
    35  H    0.000005  -0.000000   0.000000  -0.000010
    36  H    0.003952  -0.000008  -0.000004   0.000003
    37  H    0.532847  -0.006692  -0.000187   0.000020
    38  H   -0.006692   0.528115  -0.006581  -0.000132
    39  H   -0.000187  -0.006581   0.530244  -0.008139
    40  H    0.000020  -0.000132  -0.008139   0.522182
 Mulliken charges:
               1
     1  C   -0.414420
     2  C   -0.083563
     3  C   -0.405466
     4  N   -0.317170
     5  C   -0.268894
     6  C   -0.030291
     7  O   -0.435998
     8  C   -0.166072
     9  O   -0.254293
    10  C    0.122674
    11  C   -0.194821
    12  C   -0.098308
    13  C   -0.192002
    14  C    0.126551
    15  C   -0.205284
    16  C   -0.100784
    17  C   -0.176124
    18  C   -0.118012
    19  C   -0.139186
    20  H    0.131120
    21  H    0.146731
    22  H    0.147752
    23  H    0.127060
    24  H    0.149430
    25  H    0.143477
    26  H    0.124711
    27  H    0.224560
    28  H    0.140347
    29  H    0.151095
    30  H    0.175163
    31  H    0.316693
    32  H    0.163122
    33  H    0.179485
    34  H    0.141984
    35  H    0.144196
    36  H    0.142616
    37  H    0.142603
    38  H    0.144837
    39  H    0.142319
    40  H    0.172166
 Sum of Mulliken charges =  -0.00000
 Mulliken charges with hydrogens summed into heavy atoms:
               1
     1  C    0.011182
     2  C    0.043497
     3  C    0.012153
     4  N   -0.092610
     5  C    0.022547
     6  C    0.144872
     7  O   -0.119305
     8  C    0.176536
     9  O   -0.254293
    10  C    0.122674
    11  C   -0.052837
    12  C    0.045888
    13  C   -0.049386
    14  C    0.126551
    15  C   -0.062682
    16  C    0.044053
    17  C   -0.033806
    18  C    0.054154
    19  C   -0.139186
 Electronic spatial extent (au):  <R**2>=           7360.8181
 Charge=             -0.0000 electrons
 Dipole moment (field-independent basis, Debye):
    X=             -0.6345    Y=              1.4250    Z=              1.8477  Tot=              2.4182
 Quadrupole moment (field-independent basis, Debye-Ang):
   XX=            -98.3181   YY=           -107.1113   ZZ=           -119.3138
   XY=              0.3250   XZ=              3.5501   YZ=             -3.4400
 Traceless Quadrupole moment (field-independent basis, Debye-Ang):
   XX=              9.9296   YY=              1.1364   ZZ=            -11.0660
   XY=              0.3250   XZ=              3.5501   YZ=             -3.4400
 Octapole moment (field-independent basis, Debye-Ang**2):
  XXX=             29.7308  YYY=              0.0667  ZZZ=              4.3426  XYY=              5.7454
  XXY=            -14.1554  XXZ=            -20.8686  XZZ=            -28.8073  YZZ=            -12.3689
  YYZ=              9.3782  XYZ=              8.4937
 Hexadecapole moment (field-independent basis, Debye-Ang**3):
 XXXX=          -7235.1036 YYYY=          -1916.7021 ZZZZ=           -336.0565 XXXY=             74.6902
 XXXZ=            110.3389 YYYX=             63.6921 YYYZ=             -9.8795 ZZZX=              9.3232
 ZZZY=             -9.2266 XXYY=          -1437.5196 XXZZ=          -1429.1459 YYZZ=           -424.8461
 XXYZ=              5.1267 YYXZ=             -4.3203 ZZXY=              8.4292
 N-N= 1.385917164350D+03 E-N=-4.699251535957D+03  KE= 8.238107030093D+02
 Unable to Open any file for archive entry.
 1\1\GINC-TCN1706\SP\RBP86\TZVP\C16H21N1O2\ELENAA\22-Feb-2021\0\\# BP86
 /TZVP SCRF=COSMORS geom=CHECKPOINT guess=CHECKPOINT\\COSMO-file for #A
 QHHHDLHHXJYJD-UHFFFAOYSA-N\\0,1\C,0,2.1588739874,-6.2779915129,1.37869
 5118\C,0,2.3095646846,-5.2450889379,0.2577701397\C,0,2.553842793,-5.93
 39351041,-1.090375355\N,0,1.0812869986,-4.4168004919,0.2060908631\C,0,
 1.242108567,-3.1524520595,-0.5252630331\C,0,-0.1071103846,-2.442250613
 5,-0.6745636544\O,0,-0.7118706346,-2.1777018396,0.615012402\C,0,0.0070
 121866,-1.1288980217,-1.4289947789\O,0,0.9483075953,-0.2558208306,-0.7
 511870402\C,0,1.2293794132,0.9046475899,-1.4595083606\C,0,0.4541548424
 ,2.0349996364,-1.2762987085\C,0,0.7632604807,3.2298630152,-1.973264040
 6\C,0,1.8364134369,3.2787050248,-2.8434248313\C,0,2.6536000178,2.13149
 08864,-3.0515317437\C,0,3.7707414898,2.1449642765,-3.9348137651\C,0,4.
 5487691848,1.0160907193,-4.1136036252\C,0,4.2491990358,-0.1796218701,-
 3.4107304919\C,0,3.1745975409,-0.2301424249,-2.5419214584\C,0,2.352319
 7376,0.9131926401,-2.3440391812\H,0,1.2857293086,-6.9228949694,1.18906
 06236\H,0,3.0524445383,-6.9160427045,1.4410664194\H,0,2.022548123,-5.7
 907024428,2.3574875978\H,0,3.1940120978,-4.6089091379,0.4876337155\H,0
 ,2.6812617239,-5.2099907364,-1.9087220399\H,0,3.4668882824,-6.54681918
 ,-1.0464366737\H,0,1.7038859163,-6.5889628763,-1.3396571045\H,0,0.8326
 404828,-4.1798313086,1.1720656414\H,0,1.9670695223,-2.4676423948,-0.03
 98171258\H,0,1.6199295443,-3.3683331063,-1.53714872\H,0,-0.7776420104,
 -3.0894342099,-1.2709809816\H,0,-1.1549862576,-2.9970737052,0.89798426
 61\H,0,-0.9806836236,-0.639008844,-1.4800071944\H,0,0.3584043092,-1.32
 8119644,-2.4576243334\H,0,-0.3930656146,1.9909684493,-0.5891915949\H,0
 ,0.1434865555,4.1149437632,-1.8157636675\H,0,2.0723925398,4.1997984779
 ,-3.38171476\H,0,4.0040481909,3.0680605234,-4.4716449963\H,0,5.4015655
 89,1.0424739805,-4.7952197831\H,0,4.8751090567,-1.0625790704,-3.556078
 8555\H,0,2.9464107522,-1.1431009459,-1.9898888877\\Version=ES64L-G16Re
 vC.01\State=1-A\HF=-827.8174192\RMSD=5.301e-09\Dipole=0.0637867,-0.604
 3548,-0.7319848\Quadrupole=0.430512,3.5483363,-3.9788483,-1.6481178,-2
 .7522212,-7.1008807\PG=C01 [X(C16H21N1O2)]\\@
 The archive entry for this job was punched.


 You never know when you're making a memory.
                        -- Rickie Lee Jones
 Job cpu time:       0 days  0 hours 24 minutes 39.3 seconds.
 Elapsed time:       0 days  0 hours  0 minutes 47.5 seconds.
 File lengths (MBytes):  RWF=    179 Int=      0 D2E=      0 Chk=     22 Scr=      1
 Normal termination of Gaussian 16 at Mon Feb 22 21:13:07 2021.
