 Entering Gaussian System, Link 0=g16
 Input=ARIKQVYYYDITGU-UHFFFAOYSA-N.gjf
 Output=ARIKQVYYYDITGU-UHFFFAOYSA-N.log
 Initial command:
 /sw/arch/RedHatEnterpriseServer7/EB_production/2019/software/Gaussian/g16.c01/l1.exe "/scratch-local/elenaa.9715179/Gau-1192.inp" -scrdir="/scratch-local/elenaa.9715179/"
 Entering Link 1 = /sw/arch/RedHatEnterpriseServer7/EB_production/2019/software/Gaussian/g16.c01/l1.exe PID=      1193.
  
 Copyright (c) 1988-2019, Gaussian, Inc.  All Rights Reserved.
  
 This is part of the Gaussian(R) 16 program.  It is based on
 the Gaussian(R) 09 system (copyright 2009, Gaussian, Inc.),
 the Gaussian(R) 03 system (copyright 2003, Gaussian, Inc.),
 the Gaussian(R) 98 system (copyright 1998, Gaussian, Inc.),
 the Gaussian(R) 94 system (copyright 1995, Gaussian, Inc.),
 the Gaussian 92(TM) system (copyright 1992, Gaussian, Inc.),
 the Gaussian 90(TM) system (copyright 1990, Gaussian, Inc.),
 the Gaussian 88(TM) system (copyright 1988, Gaussian, Inc.),
 the Gaussian 86(TM) system (copyright 1986, Carnegie Mellon
 University), and the Gaussian 82(TM) system (copyright 1983,
 Carnegie Mellon University). Gaussian is a federally registered
 trademark of Gaussian, Inc.
  
 This software contains proprietary and confidential information,
 including trade secrets, belonging to Gaussian, Inc.
  
 This software is provided under written license and may be
 used, copied, transmitted, or stored only in accord with that
 written license.
  
 The following legend is applicable only to US Government
 contracts under FAR:
  
                    RESTRICTED RIGHTS LEGEND
  
 Use, reproduction and disclosure by the US Government is
 subject to restrictions as set forth in subparagraphs (a)
 and (c) of the Commercial Computer Software - Restricted
 Rights clause in FAR 52.227-19.
  
 Gaussian, Inc.
 340 Quinnipiac St., Bldg. 40, Wallingford CT 06492
  
  
 ---------------------------------------------------------------
 Warning -- This program may not be used in any manner that
 competes with the business of Gaussian, Inc. or will provide
 assistance to any competitor of Gaussian, Inc.  The licensee
 of this program is prohibited from giving any competitor of
 Gaussian, Inc. access to this program.  By using this program,
 the user acknowledges that Gaussian, Inc. is engaged in the
 business of creating and licensing software in the field of
 computational chemistry and represents and warrants to the
 licensee that it is not a competitor of Gaussian, Inc. and that
 it will not use this program in any manner prohibited above.
 ---------------------------------------------------------------
  

 Cite this work as:
 Gaussian 16, Revision C.01,
 M. J. Frisch, G. W. Trucks, H. B. Schlegel, G. E. Scuseria, 
 M. A. Robb, J. R. Cheeseman, G. Scalmani, V. Barone, 
 G. A. Petersson, H. Nakatsuji, X. Li, M. Caricato, A. V. Marenich, 
 J. Bloino, B. G. Janesko, R. Gomperts, B. Mennucci, H. P. Hratchian, 
 J. V. Ortiz, A. F. Izmaylov, J. L. Sonnenberg, D. Williams-Young, 
 F. Ding, F. Lipparini, F. Egidi, J. Goings, B. Peng, A. Petrone, 
 T. Henderson, D. Ranasinghe, V. G. Zakrzewski, J. Gao, N. Rega, 
 G. Zheng, W. Liang, M. Hada, M. Ehara, K. Toyota, R. Fukuda, 
 J. Hasegawa, M. Ishida, T. Nakajima, Y. Honda, O. Kitao, H. Nakai, 
 T. Vreven, K. Throssell, J. A. Montgomery, Jr., J. E. Peralta, 
 F. Ogliaro, M. J. Bearpark, J. J. Heyd, E. N. Brothers, K. N. Kudin, 
 V. N. Staroverov, T. A. Keith, R. Kobayashi, J. Normand, 
 K. Raghavachari, A. P. Rendell, J. C. Burant, S. S. Iyengar, 
 J. Tomasi, M. Cossi, J. M. Millam, M. Klene, C. Adamo, R. Cammi, 
 J. W. Ochterski, R. L. Martin, K. Morokuma, O. Farkas, 
 J. B. Foresman, and D. J. Fox, Gaussian, Inc., Wallingford CT, 2019.
 
 ******************************************
 Gaussian 16:  ES64L-G16RevC.01  3-Jul-2019
                22-Feb-2021 
 ******************************************
 %chk=ARIKQVYYYDITGU-UHFFFAOYSA-N.chk
 %NProcShared=32
 Will use up to   32 processors via shared memory.
 -------------------------------------------------------------
 #P BP86/TZVP EmpiricalDispersion=GD3 SCRF=(Solvent=Water) Opt
 -------------------------------------------------------------
 1/18=20,19=15,26=3,38=1/1,3;
 2/9=110,12=2,17=6,18=5,40=1/2;
 3/5=19,7=101,11=2,25=1,30=1,70=2201,71=1,72=1,74=404,124=31/1,2,3;
 4//1;
 5/5=2,38=5,53=1/2;
 6/7=2,8=2,9=2,10=2,28=1/1;
 7//1,2,3,16;
 1/18=20,19=15,26=3/3(2);
 2/9=110/2;
 99//99;
 2/9=110/2;
 3/5=19,7=101,11=2,25=1,30=1,70=2205,71=1,72=1,74=404,124=31/1,2,3;
 4/5=5,16=3,69=1/1;
 5/5=2,38=5,53=1/2;
 7//1,2,3,16;
 1/18=20,19=15,26=3/3(-5);
 2/9=110/2;
 6/7=2,8=2,9=2,10=2,19=2,28=1/1;
 99/9=1/99;
 Leave Link    1 at Mon Feb 22 20:57:15 2021, MaxMem=           0 cpu:               2.4 elap:               0.1
 (Enter /sw/arch/RedHatEnterpriseServer7/EB_production/2019/software/Gaussian/g16.c01/l101.exe)
 -------------------------------------
 Particle #ARIKQVYYYDITGU-UHFFFAOYSA-N
 -------------------------------------
 Symbolic Z-matrix:
 Charge =  0 Multiplicity = 1
 N                    -0.65174   2.47324   1.05684 
 C                     0.29817   1.71697   0.48509 
 O                     0.22246   0.47201   0.60047 
 N                     1.29907   2.33501  -0.19379 
 C                     2.38458   1.68033  -0.8492 
 F                     3.14789   0.97278   0.04773 
 F                     3.18329   2.63226  -1.4301 
 F                     1.9363    0.8388   -1.83821 
 H                    -0.61206   3.43926   0.98157 
 H                    -1.37715   2.0565    1.54712 
 H                     1.27445   3.30449  -0.23164 
 
 ITRead=  0  0  0  0  0  0  0  0  0  0  0
 MicOpt= -1 -1 -1 -1 -1 -1 -1 -1 -1 -1 -1
 NAtoms=     11 NQM=       11 NQMF=       0 NMMI=      0 NMMIF=      0
                NMic=       0 NMicF=      0.
                    Isotopes and Nuclear Properties:
 (Nuclear quadrupole moments (NQMom) in fm**2, nuclear magnetic moments (NMagM)
  in nuclear magnetons)

  Atom         1           2           3           4           5           6           7           8           9          10
 IAtWgt=          14          12          16          14          12          19          19          19           1           1
 AtmWgt=  14.0030740  12.0000000  15.9949146  14.0030740  12.0000000  18.9984032  18.9984032  18.9984032   1.0078250   1.0078250
 NucSpn=           2           0           0           2           0           1           1           1           1           1
 AtZEff=  -0.0000000  -0.0000000  -0.0000000  -0.0000000  -0.0000000  -0.0000000  -0.0000000  -0.0000000  -0.0000000  -0.0000000
 NQMom=    2.0440000   0.0000000   0.0000000   2.0440000   0.0000000   0.0000000   0.0000000   0.0000000   0.0000000   0.0000000
 NMagM=    0.4037610   0.0000000   0.0000000   0.4037610   0.0000000   2.6288670   2.6288670   2.6288670   2.7928460   2.7928460
 AtZNuc=   7.0000000   6.0000000   8.0000000   7.0000000   6.0000000   9.0000000   9.0000000   9.0000000   1.0000000   1.0000000

  Atom        11
 IAtWgt=           1
 AtmWgt=   1.0078250
 NucSpn=           1
 AtZEff=  -0.0000000
 NQMom=    0.0000000
 NMagM=    2.7928460
 AtZNuc=   1.0000000
 Leave Link  101 at Mon Feb 22 20:57:15 2021, MaxMem=   104857600 cpu:               2.9 elap:               0.1
 (Enter /sw/arch/RedHatEnterpriseServer7/EB_production/2019/software/Gaussian/g16.c01/l103.exe)

 GradGradGradGradGradGradGradGradGradGradGradGradGradGradGradGradGradGrad
 Berny optimization.
 Initialization pass.
                           ----------------------------
                           !    Initial Parameters    !
                           ! (Angstroms and Degrees)  !
 --------------------------                            --------------------------
 ! Name  Definition              Value          Derivative Info.                !
 --------------------------------------------------------------------------------
 ! R1    R(1,2)                  1.3421         estimate D2E/DX2                !
 ! R2    R(1,9)                  0.9698         estimate D2E/DX2                !
 ! R3    R(1,10)                 0.9697         estimate D2E/DX2                !
 ! R4    R(2,3)                  1.2526         estimate D2E/DX2                !
 ! R5    R(2,4)                  1.3582         estimate D2E/DX2                !
 ! R6    R(4,5)                  1.4271         estimate D2E/DX2                !
 ! R7    R(4,11)                 0.9705         estimate D2E/DX2                !
 ! R8    R(5,6)                  1.374          estimate D2E/DX2                !
 ! R9    R(5,7)                  1.3717         estimate D2E/DX2                !
 ! R10   R(5,8)                  1.3738         estimate D2E/DX2                !
 ! A1    A(2,1,9)              119.9541         estimate D2E/DX2                !
 ! A2    A(2,1,10)             120.1799         estimate D2E/DX2                !
 ! A3    A(9,1,10)             119.8658         estimate D2E/DX2                !
 ! A4    A(1,2,3)              118.5584         estimate D2E/DX2                !
 ! A5    A(1,2,4)              118.5627         estimate D2E/DX2                !
 ! A6    A(3,2,4)              122.8789         estimate D2E/DX2                !
 ! A7    A(2,4,5)              125.5469         estimate D2E/DX2                !
 ! A8    A(2,4,11)             117.0879         estimate D2E/DX2                !
 ! A9    A(5,4,11)             117.3645         estimate D2E/DX2                !
 ! A10   A(4,5,6)              111.0402         estimate D2E/DX2                !
 ! A11   A(4,5,7)              108.6051         estimate D2E/DX2                !
 ! A12   A(4,5,8)              111.3121         estimate D2E/DX2                !
 ! A13   A(6,5,7)              108.0803         estimate D2E/DX2                !
 ! A14   A(6,5,8)              109.6212         estimate D2E/DX2                !
 ! A15   A(7,5,8)              108.0733         estimate D2E/DX2                !
 ! D1    D(9,1,2,3)            179.8872         estimate D2E/DX2                !
 ! D2    D(9,1,2,4)             -0.1436         estimate D2E/DX2                !
 ! D3    D(10,1,2,3)             0.0274         estimate D2E/DX2                !
 ! D4    D(10,1,2,4)           179.9966         estimate D2E/DX2                !
 ! D5    D(1,2,4,5)            179.6156         estimate D2E/DX2                !
 ! D6    D(1,2,4,11)            -0.0753         estimate D2E/DX2                !
 ! D7    D(3,2,4,5)             -0.4166         estimate D2E/DX2                !
 ! D8    D(3,2,4,11)           179.8925         estimate D2E/DX2                !
 ! D9    D(2,4,5,6)            -61.7056         estimate D2E/DX2                !
 ! D10   D(2,4,5,7)            179.5862         estimate D2E/DX2                !
 ! D11   D(2,4,5,8)             60.7243         estimate D2E/DX2                !
 ! D12   D(11,4,5,6)           117.9846         estimate D2E/DX2                !
 ! D13   D(11,4,5,7)            -0.7236         estimate D2E/DX2                !
 ! D14   D(11,4,5,8)          -119.5855         estimate D2E/DX2                !
 --------------------------------------------------------------------------------
 Trust Radius=3.00D-01 FncErr=1.00D-07 GrdErr=1.00D-06 EigMax=2.50D+02 EigMin=1.00D-04
 Number of steps in this run=     49 maximum allowed number of steps=    100.
 GradGradGradGradGradGradGradGradGradGradGradGradGradGradGradGradGradGrad

 Leave Link  103 at Mon Feb 22 20:57:15 2021, MaxMem=   104857600 cpu:               0.5 elap:               0.0
 (Enter /sw/arch/RedHatEnterpriseServer7/EB_production/2019/software/Gaussian/g16.c01/l202.exe)
                          Input orientation:                          
 ---------------------------------------------------------------------
 Center     Atomic      Atomic             Coordinates (Angstroms)
 Number     Number       Type             X           Y           Z
 ---------------------------------------------------------------------
      1          7           0       -0.651740    2.473240    1.056840
      2          6           0        0.298170    1.716970    0.485090
      3          8           0        0.222460    0.472010    0.600470
      4          7           0        1.299070    2.335010   -0.193790
      5          6           0        2.384580    1.680330   -0.849200
      6          9           0        3.147890    0.972780    0.047730
      7          9           0        3.183290    2.632260   -1.430100
      8          9           0        1.936300    0.838800   -1.838210
      9          1           0       -0.612060    3.439260    0.981570
     10          1           0       -1.377150    2.056500    1.547120
     11          1           0        1.274450    3.304490   -0.231640
 ---------------------------------------------------------------------
                    Distance matrix (angstroms):
                    1          2          3          4          5
     1  N    0.000000
     2  C    1.342077   0.000000
     3  O    2.231013   1.252585   0.000000
     4  N    2.321388   1.358180   2.293623   0.000000
     5  C    3.671639   2.476849   2.869903   1.427060   0.000000
     6  F    4.207953   2.977584   3.019012   2.309142   1.373955
     7  F    4.573578   3.581847   4.190037   2.273127   1.371697
     8  F    4.213153   2.975294   3.003155   2.312752   1.373779
     9  H    0.969760   2.010297   3.105839   2.500651   3.927519
    10  H    0.969673   2.012433   2.442439   3.204760   4.475988
    11  H    2.461984   1.996758   3.134012   0.970531   2.061957
                    6          7          8          9         10
     6  F    0.000000
     7  F    2.222411   0.000000
     8  F    2.245589   2.222169   0.000000
     9  H    4.592690   4.568597   4.605181   0.000000
    10  H    4.888620   5.476582   4.891033   1.678462   0.000000
    11  H    3.004113   2.351993   3.016412   2.246989   3.428184
                   11
    11  H    0.000000
 Stoichiometry    C2H3F3N2O
 Framework group  C1[X(C2H3F3N2O)]
 Deg. of freedom    27
 Full point group                 C1      NOp   1
 Largest Abelian subgroup         C1      NOp   1
 Largest concise Abelian subgroup C1      NOp   1
                         Standard orientation:                         
 ---------------------------------------------------------------------
 Center     Atomic      Atomic             Coordinates (Angstroms)
 Number     Number       Type             X           Y           Z
 ---------------------------------------------------------------------
      1          7           0       -2.570589    0.687285   -0.000734
      2          6           0       -1.427740   -0.016326   -0.001937
      3          8           0       -1.494618   -1.267122    0.000506
      4          7           0       -0.249380    0.659025   -0.006391
      5          6           0        1.047798    0.064218   -0.000435
      6          9           0        1.241838   -0.684723    1.134989
      7          9           0        1.987471    1.063362   -0.017113
      8          9           0        1.241752   -0.721826   -1.110293
      9          1           0       -2.542413    1.656635   -0.000921
     10          1           0       -3.425153    0.229052    0.002375
     11          1           0       -0.295617    1.628448   -0.009637
 ---------------------------------------------------------------------
 Rotational constants (GHZ):           3.8333549           1.3808113           1.2570426
 Leave Link  202 at Mon Feb 22 20:57:15 2021, MaxMem=   104857600 cpu:               0.7 elap:               0.1
 (Enter /sw/arch/RedHatEnterpriseServer7/EB_production/2019/software/Gaussian/g16.c01/l301.exe)
 Standard basis: TZVP (5D, 7F)
 Ernie: Thresh=  0.10000D-02 Tol=  0.10000D-05 Strict=F.
 There are   178 symmetry adapted cartesian basis functions of A   symmetry.
 There are   170 symmetry adapted basis functions of A   symmetry.
   170 basis functions,   304 primitive gaussians,   178 cartesian basis functions
    32 alpha electrons       32 beta electrons
       nuclear repulsion energy       416.7387597489 Hartrees.
 IExCor=  404 DFT=T Ex=B Corr=P86 ExCW=0 ScaHFX=  0.000000
 ScaDFX=  1.000000  1.000000  1.000000  1.000000 ScalE2=  1.000000  1.000000
 IRadAn=      5 IRanWt=     -1 IRanGd=            0 ICorTp=0 IEmpDi=131
 NAtoms=   11 NActive=   11 NUniq=   11 SFac= 1.00D+00 NAtFMM=   60 NAOKFM=F Big=F
 Integral buffers will be    131072 words long.
 Raffenetti 2 integral format.
 Two-electron integral symmetry is turned on.
 R6Disp:  Grimme-D3 Dispersion energy=       -0.0077466686 Hartrees.
 Nuclear repulsion after empirical dispersion term =      416.7310130804 Hartrees.
 ------------------------------------------------------------------------------
 Polarizable Continuum Model (PCM)
 =================================
 Model                : PCM.
 Atomic radii         : UFF (Universal Force Field).
 Polarization charges : Total charges.
 Charge compensation  : None.
 Solution method      : On-the-fly selection.
 Cavity type          : Scaled VdW (van der Waals Surface) (Alpha=1.100).
 Cavity algorithm     : GePol (No added spheres)
                        Default sphere list used, NSphG=   11.
                        Lebedev-Laikov grids with approx.  5.0 points / Ang**2.
                        Smoothing algorithm: York/Karplus (Gamma=1.0000).
                        Polarization charges: spherical gaussians, with
                                              point-specific exponents (IZeta= 3).
                        Self-potential: point-specific (ISelfS= 7).
                        Self-field    : sphere-specific E.n sum rule (ISelfD= 2).
 1st derivatives      : Analytical E(r).r(x)/FMM algorithm (CHGder, D1EAlg=3).
                        Cavity 1st derivative terms included.
 Solvent              : Water, Eps=  78.355300 Eps(inf)=   1.777849
 ------------------------------------------------------------------------------
 Spheres list:
 ISph  on   Nord     Re0    Alpha      Xe            Ye            Ze
    1   N      1    1.8300  1.100     -2.570589      0.687285     -0.000734
    2   C      2    1.9255  1.100     -1.427740     -0.016326     -0.001937
    3   O      3    1.7500  1.100     -1.494618     -1.267122      0.000506
    4   N      4    1.8300  1.100     -0.249380      0.659025     -0.006391
    5   C      5    1.9255  1.100      1.047798      0.064218     -0.000435
    6   F      6    1.6820  1.100      1.241838     -0.684723      1.134989
    7   F      7    1.6820  1.100      1.987471      1.063362     -0.017113
    8   F      8    1.6820  1.100      1.241752     -0.721826     -1.110293
    9   H      9    1.4430  1.100     -2.542413      1.656635     -0.000921
   10   H     10    1.4430  1.100     -3.425153      0.229052      0.002375
   11   H     11    1.4430  1.100     -0.295617      1.628448     -0.009637
 ------------------------------------------------------------------------------
 GePol: Number of generator spheres                  =      11
 GePol: Total number of spheres                      =      11
 GePol: Number of exposed spheres                    =      11 (100.00%)
 GePol: Number of points                             =    1174
 GePol: Average weight of points                     =       0.13
 GePol: Minimum weight of points                     =   0.56D-10
 GePol: Maximum weight of points                     =    0.20299
 GePol: Number of points with low weight             =      46
 GePol: Fraction of low-weight points (<1% of avg)   =       3.92%
 GePol: Cavity surface area                          =    153.302 Ang**2
 GePol: Cavity volume                                =    139.648 Ang**3
 Leave Link  301 at Mon Feb 22 20:57:15 2021, MaxMem=   104857600 cpu:               1.9 elap:               0.1
 (Enter /sw/arch/RedHatEnterpriseServer7/EB_production/2019/software/Gaussian/g16.c01/l302.exe)
 NPDir=0 NMtPBC=     1 NCelOv=     1 NCel=       1 NClECP=     1 NCelD=      1
         NCelK=      1 NCelE2=     1 NClLst=     1 CellRange=     0.0.
 One-electron integrals computed using PRISM.
 One-electron integral symmetry used in STVInt
 PrsmSu:  requested number of processors reduced to:  29 ShMem   1 Linda.
 NBasis=   170 RedAO= T EigKep=  1.07D-03  NBF=   170
 NBsUse=   170 1.00D-06 EigRej= -1.00D+00 NBFU=   170
 Precomputing XC quadrature grid using
 IXCGrd= 4 IRadAn=           5 IRanWt=          -1 IRanGd=           0 AccXCQ= 0.00D+00.
 Generated NRdTot=       0 NPtTot=           0 NUsed=           0 NTot=          32
 NSgBfM=   177   177   177   177   177 MxSgAt=    11 MxSgA2=    11.
 Leave Link  302 at Mon Feb 22 20:57:16 2021, MaxMem=   104857600 cpu:               6.2 elap:               0.2
 (Enter /sw/arch/RedHatEnterpriseServer7/EB_production/2019/software/Gaussian/g16.c01/l303.exe)
 DipDrv:  MaxL=1.
 Leave Link  303 at Mon Feb 22 20:57:16 2021, MaxMem=   104857600 cpu:               1.7 elap:               0.1
 (Enter /sw/arch/RedHatEnterpriseServer7/EB_production/2019/software/Gaussian/g16.c01/l401.exe)
 ExpMin= 9.52D-02 ExpMax= 3.55D+04 ExpMxC= 1.21D+03 IAcc=3 IRadAn=         5 AccDes= 0.00D+00
 Harris functional with IExCor=  404 and IRadAn=       5 diagonalized for initial guess.
 HarFok:  IExCor=  404 AccDes= 0.00D+00 IRadAn=         5 IDoV= 1 UseB2=F ITyADJ=14
 ICtDFT=  3500011 ScaDFX=  1.000000  1.000000  1.000000  1.000000
 FoFCou: FMM=F IPFlag=           0 FMFlag=      100000 FMFlg1=           0
         NFxFlg=           0 DoJE=T BraDBF=F KetDBF=T FulRan=T
         wScrn=  0.000000 ICntrl=       500 IOpCl=  0 I1Cent=   200000004 NGrid=           0
         NMat0=    1 NMatS0=      1 NMatT0=    0 NMatD0=    1 NMtDS0=    0 NMtDT0=    0
 Petite list used in FoFCou.
 Harris En= -562.605170095337    
 JPrj=0 DoOrth=F DoCkMO=F.
 Leave Link  401 at Mon Feb 22 20:57:16 2021, MaxMem=   104857600 cpu:               8.0 elap:               0.3
 (Enter /sw/arch/RedHatEnterpriseServer7/EB_production/2019/software/Gaussian/g16.c01/l502.exe)
 Integral symmetry usage will be decided dynamically.
 Closed shell SCF:
 Using DIIS extrapolation, IDIIS=  1040.
 NGot=   104857600 LenX=   104786454 LenY=   104754329
 Requested convergence on RMS density matrix=1.00D-08 within 128 cycles.
 Requested convergence on MAX density matrix=1.00D-06.
 Requested convergence on             energy=1.00D-06.
 No special actions if energy rises.
 Fock matrices will be formed incrementally for  20 cycles.

 Cycle   1  Pass 1  IDiag  1:
 FoFJK:  IHMeth= 1 ICntrl=     500 DoSepK=F KAlg= 0 I1Cent=           0 FoldK=F
 IRaf= 930000000 NMat=       1 IRICut=       1 DoRegI=T DoRafI=F ISym2E= 0 IDoP0=0 IntGTp=1.
 FoFCou: FMM=F IPFlag=           0 FMFlag=      100000 FMFlg1=           0
         NFxFlg=           0 DoJE=T BraDBF=F KetDBF=F FulRan=T
         wScrn=  0.000000 ICntrl=       500 IOpCl=  0 I1Cent=           0 NGrid=           0
         NMat0=    1 NMatS0=      1 NMatT0=    0 NMatD0=    1 NMtDS0=    0 NMtDT0=    0
 Symmetry not used in FoFCou.
 Inv3:  Mode=1 IEnd=     4134828.
 Iteration    1 A*A^-1 deviation from unit magnitude is 2.89D-15 for    553.
 Iteration    1 A*A^-1 deviation from orthogonality  is 2.13D-15 for    725     63.
 Iteration    1 A^-1*A deviation from unit magnitude is 2.66D-15 for    553.
 Iteration    1 A^-1*A deviation from orthogonality  is 3.49D-14 for    989    961.
 E= -562.322875553313    
 DIIS: error= 4.12D-02 at cycle   1 NSaved=   1.
 NSaved= 1 IEnMin= 1 EnMin= -562.322875553313     IErMin= 1 ErrMin= 4.12D-02
 ErrMax= 4.12D-02  0.00D+00 EMaxC= 1.00D-01 BMatC= 3.17D-01 BMatP= 3.17D-01
 IDIUse=3 WtCom= 5.88D-01 WtEn= 4.12D-01
 Coeff-Com:  0.100D+01
 Coeff-En:   0.100D+01
 Coeff:      0.100D+01
 Gap=     0.246 Goal=   None    Shift=    0.000
 GapD=    0.246 DampG=1.000 DampE=0.500 DampFc=0.5000 IDamp=-1.
 Damping current iteration by 5.00D-01
 RMSDP=9.53D-03 MaxDP=3.64D-01              OVMax= 3.50D-01

 Cycle   2  Pass 1  IDiag  1:
 RMSU=  4.77D-03    CP:  9.95D-01
 E= -562.286772230892     Delta-E=        0.036103322421 Rises=F Damp=T
 DIIS: error= 2.79D-02 at cycle   2 NSaved=   2.
 NSaved= 2 IEnMin= 1 EnMin= -562.322875553313     IErMin= 2 ErrMin= 2.79D-02
 ErrMax= 2.79D-02  0.00D+00 EMaxC= 1.00D-01 BMatC= 1.15D-01 BMatP= 3.17D-01
 IDIUse=3 WtCom= 7.21D-01 WtEn= 2.79D-01
 Coeff-Com:  0.361D+00 0.639D+00
 Coeff-En:   0.549D+00 0.451D+00
 Coeff:      0.413D+00 0.587D+00
 Gap=     0.252 Goal=   None    Shift=    0.000
 RMSDP=3.38D-03 MaxDP=1.48D-01 DE= 3.61D-02 OVMax= 3.11D-01

 Cycle   3  Pass 1  IDiag  1:
 RMSU=  1.54D-03    CP:  9.94D-01  3.69D-01
 E= -562.508610636396     Delta-E=       -0.221838405504 Rises=F Damp=F
 DIIS: error= 1.86D-02 at cycle   3 NSaved=   3.
 NSaved= 3 IEnMin= 3 EnMin= -562.508610636396     IErMin= 3 ErrMin= 1.86D-02
 ErrMax= 1.86D-02  0.00D+00 EMaxC= 1.00D-01 BMatC= 4.87D-02 BMatP= 1.15D-01
 IDIUse=3 WtCom= 8.14D-01 WtEn= 1.86D-01
 Coeff-Com:  0.233D+00 0.394D+00 0.373D+00
 Coeff-En:   0.218D-02 0.000D+00 0.998D+00
 Coeff:      0.190D+00 0.321D+00 0.489D+00
 Gap=     0.252 Goal=   None    Shift=    0.000
 RMSDP=1.26D-03 MaxDP=3.48D-02 DE=-2.22D-01 OVMax= 1.27D-01

 Cycle   4  Pass 1  IDiag  1:
 RMSU=  8.67D-04    CP:  9.98D-01  4.68D-01  4.89D-01
 E= -562.533664835564     Delta-E=       -0.025054199169 Rises=F Damp=F
 DIIS: error= 1.33D-02 at cycle   4 NSaved=   4.
 NSaved= 4 IEnMin= 4 EnMin= -562.533664835564     IErMin= 4 ErrMin= 1.33D-02
 ErrMax= 1.33D-02  0.00D+00 EMaxC= 1.00D-01 BMatC= 1.83D-02 BMatP= 4.87D-02
 IDIUse=3 WtCom= 8.67D-01 WtEn= 1.33D-01
 Coeff-Com:  0.482D-01 0.494D-01 0.367D+00 0.535D+00
 Coeff-En:   0.000D+00 0.000D+00 0.315D+00 0.685D+00
 Coeff:      0.417D-01 0.428D-01 0.360D+00 0.555D+00
 Gap=     0.223 Goal=   None    Shift=    0.000
 RMSDP=5.85D-04 MaxDP=1.58D-02 DE=-2.51D-02 OVMax= 5.48D-02

 Cycle   5  Pass 1  IDiag  1:
 RMSU=  1.69D-04    CP:  9.97D-01  4.00D-01  6.83D-01  6.02D-01
 E= -562.546850181083     Delta-E=       -0.013185345519 Rises=F Damp=F
 DIIS: error= 1.69D-03 at cycle   5 NSaved=   5.
 NSaved= 5 IEnMin= 5 EnMin= -562.546850181083     IErMin= 5 ErrMin= 1.69D-03
 ErrMax= 1.69D-03  0.00D+00 EMaxC= 1.00D-01 BMatC= 8.03D-04 BMatP= 1.83D-02
 IDIUse=3 WtCom= 9.83D-01 WtEn= 1.69D-02
 Coeff-Com:  0.118D-01 0.194D-02 0.205D+00 0.356D+00 0.425D+00
 Coeff-En:   0.000D+00 0.000D+00 0.000D+00 0.000D+00 0.100D+01
 Coeff:      0.116D-01 0.190D-02 0.202D+00 0.350D+00 0.435D+00
 Gap=     0.221 Goal=   None    Shift=    0.000
 RMSDP=1.46D-04 MaxDP=3.25D-03 DE=-1.32D-02 OVMax= 7.94D-03

 Cycle   6  Pass 1  IDiag  1:
 RMSU=  5.06D-05    CP:  9.97D-01  4.18D-01  6.70D-01  6.40D-01  4.03D-01
 E= -562.547402998389     Delta-E=       -0.000552817306 Rises=F Damp=F
 DIIS: error= 4.33D-04 at cycle   6 NSaved=   6.
 NSaved= 6 IEnMin= 6 EnMin= -562.547402998389     IErMin= 6 ErrMin= 4.33D-04
 ErrMax= 4.33D-04  0.00D+00 EMaxC= 1.00D-01 BMatC= 4.34D-05 BMatP= 8.03D-04
 IDIUse=3 WtCom= 9.96D-01 WtEn= 4.33D-03
 Coeff-Com:  0.388D-02-0.128D-02 0.678D-01 0.113D+00 0.228D+00 0.589D+00
 Coeff-En:   0.000D+00 0.000D+00 0.000D+00 0.000D+00 0.000D+00 0.100D+01
 Coeff:      0.386D-02-0.128D-02 0.675D-01 0.112D+00 0.227D+00 0.591D+00
 Gap=     0.222 Goal=   None    Shift=    0.000
 RMSDP=2.27D-05 MaxDP=5.61D-04 DE=-5.53D-04 OVMax= 1.57D-03

 Cycle   7  Pass 1  IDiag  1:
 RMSU=  1.61D-05    CP:  9.97D-01  4.17D-01  6.73D-01  6.33D-01  4.30D-01
                    CP:  7.58D-01
 E= -562.547431227410     Delta-E=       -0.000028229021 Rises=F Damp=F
 DIIS: error= 1.29D-04 at cycle   7 NSaved=   7.
 NSaved= 7 IEnMin= 7 EnMin= -562.547431227410     IErMin= 7 ErrMin= 1.29D-04
 ErrMax= 1.29D-04  0.00D+00 EMaxC= 1.00D-01 BMatC= 3.03D-06 BMatP= 4.34D-05
 IDIUse=3 WtCom= 9.99D-01 WtEn= 1.29D-03
 Coeff-Com:  0.101D-02-0.105D-02 0.161D-01 0.232D-01 0.827D-01 0.300D+00
 Coeff-Com:  0.578D+00
 Coeff-En:   0.000D+00 0.000D+00 0.000D+00 0.000D+00 0.000D+00 0.000D+00
 Coeff-En:   0.100D+01
 Coeff:      0.101D-02-0.104D-02 0.161D-01 0.231D-01 0.826D-01 0.299D+00
 Coeff:      0.579D+00
 Gap=     0.222 Goal=   None    Shift=    0.000
 RMSDP=1.01D-05 MaxDP=2.26D-04 DE=-2.82D-05 OVMax= 3.81D-04

 Cycle   8  Pass 1  IDiag  1:
 RMSU=  3.78D-06    CP:  9.97D-01  4.15D-01  6.73D-01  6.31D-01  4.51D-01
                    CP:  7.53D-01  6.17D-01
 E= -562.547433657208     Delta-E=       -0.000002429799 Rises=F Damp=F
 DIIS: error= 2.61D-05 at cycle   8 NSaved=   8.
 NSaved= 8 IEnMin= 8 EnMin= -562.547433657208     IErMin= 8 ErrMin= 2.61D-05
 ErrMax= 2.61D-05  0.00D+00 EMaxC= 1.00D-01 BMatC= 1.50D-07 BMatP= 3.03D-06
 IDIUse=1 WtCom= 1.00D+00 WtEn= 0.00D+00
 Coeff-Com:  0.229D-03-0.496D-03 0.336D-02 0.382D-02 0.250D-01 0.984D-01
 Coeff-Com:  0.259D+00 0.610D+00
 Coeff:      0.229D-03-0.496D-03 0.336D-02 0.382D-02 0.250D-01 0.984D-01
 Coeff:      0.259D+00 0.610D+00
 Gap=     0.222 Goal=   None    Shift=    0.000
 RMSDP=2.08D-06 MaxDP=4.24D-05 DE=-2.43D-06 OVMax= 1.39D-04

 Cycle   9  Pass 1  IDiag  1:
 RMSU=  1.29D-06    CP:  9.97D-01  4.16D-01  6.74D-01  6.31D-01  4.53D-01
                    CP:  7.62D-01  6.64D-01  6.97D-01
 E= -562.547433751779     Delta-E=       -0.000000094571 Rises=F Damp=F
 DIIS: error= 1.10D-05 at cycle   9 NSaved=   9.
 NSaved= 9 IEnMin= 9 EnMin= -562.547433751779     IErMin= 9 ErrMin= 1.10D-05
 ErrMax= 1.10D-05  0.00D+00 EMaxC= 1.00D-01 BMatC= 2.59D-08 BMatP= 1.50D-07
 IDIUse=1 WtCom= 1.00D+00 WtEn= 0.00D+00
 Coeff-Com:  0.796D-04-0.129D-03 0.295D-03-0.235D-03 0.521D-02 0.239D-01
 Coeff-Com:  0.852D-01 0.348D+00 0.538D+00
 Coeff:      0.796D-04-0.129D-03 0.295D-03-0.235D-03 0.521D-02 0.239D-01
 Coeff:      0.852D-01 0.348D+00 0.538D+00
 Gap=     0.222 Goal=   None    Shift=    0.000
 RMSDP=6.90D-07 MaxDP=1.58D-05 DE=-9.46D-08 OVMax= 5.86D-05

 Cycle  10  Pass 1  IDiag  1:
 RMSU=  2.76D-07    CP:  9.97D-01  4.16D-01  6.74D-01  6.31D-01  4.52D-01
                    CP:  7.62D-01  6.66D-01  7.50D-01  6.01D-01
 E= -562.547433770269     Delta-E=       -0.000000018490 Rises=F Damp=F
 DIIS: error= 2.24D-06 at cycle  10 NSaved=  10.
 NSaved=10 IEnMin=10 EnMin= -562.547433770269     IErMin=10 ErrMin= 2.24D-06
 ErrMax= 2.24D-06  0.00D+00 EMaxC= 1.00D-01 BMatC= 1.48D-09 BMatP= 2.59D-08
 IDIUse=1 WtCom= 1.00D+00 WtEn= 0.00D+00
 Coeff-Com:  0.405D-04-0.570D-04 0.103D-04-0.345D-03 0.195D-02 0.103D-01
 Coeff-Com:  0.396D-01 0.176D+00 0.312D+00 0.460D+00
 Coeff:      0.405D-04-0.570D-04 0.103D-04-0.345D-03 0.195D-02 0.103D-01
 Coeff:      0.396D-01 0.176D+00 0.312D+00 0.460D+00
 Gap=     0.222 Goal=   None    Shift=    0.000
 RMSDP=1.46D-07 MaxDP=4.05D-06 DE=-1.85D-08 OVMax= 7.86D-06

 Cycle  11  Pass 1  IDiag  1:
 RMSU=  9.78D-08    CP:  9.97D-01  4.16D-01  6.74D-01  6.31D-01  4.52D-01
                    CP:  7.62D-01  6.66D-01  7.59D-01  6.12D-01  6.57D-01
 E= -562.547433771315     Delta-E=       -0.000000001047 Rises=F Damp=F
 DIIS: error= 7.12D-07 at cycle  11 NSaved=  11.
 NSaved=11 IEnMin=11 EnMin= -562.547433771315     IErMin=11 ErrMin= 7.12D-07
 ErrMax= 7.12D-07  0.00D+00 EMaxC= 1.00D-01 BMatC= 8.21D-11 BMatP= 1.48D-09
 IDIUse=1 WtCom= 1.00D+00 WtEn= 0.00D+00
 Coeff-Com:  0.736D-05-0.110D-04-0.120D-04-0.539D-04 0.474D-04 0.795D-03
 Coeff-Com:  0.335D-02 0.201D-01 0.527D-01 0.206D+00 0.718D+00
 Coeff:      0.736D-05-0.110D-04-0.120D-04-0.539D-04 0.474D-04 0.795D-03
 Coeff:      0.335D-02 0.201D-01 0.527D-01 0.206D+00 0.718D+00
 Gap=     0.222 Goal=   None    Shift=    0.000
 RMSDP=3.92D-08 MaxDP=8.31D-07 DE=-1.05D-09 OVMax= 1.76D-06

 Cycle  12  Pass 1  IDiag  1:
 RMSU=  1.59D-08    CP:  9.97D-01  4.16D-01  6.74D-01  6.31D-01  4.52D-01
                    CP:  7.62D-01  6.66D-01  7.58D-01  6.21D-01  7.15D-01
                    CP:  7.55D-01
 E= -562.547433771378     Delta-E=       -0.000000000063 Rises=F Damp=F
 DIIS: error= 1.21D-07 at cycle  12 NSaved=  12.
 NSaved=12 IEnMin=12 EnMin= -562.547433771378     IErMin=12 ErrMin= 1.21D-07
 ErrMax= 1.21D-07  0.00D+00 EMaxC= 1.00D-01 BMatC= 2.88D-12 BMatP= 8.21D-11
 IDIUse=1 WtCom= 1.00D+00 WtEn= 0.00D+00
 Coeff-Com:  0.277D-05-0.419D-05-0.431D-05-0.177D-04-0.999D-05 0.144D-03
 Coeff-Com:  0.701D-03 0.544D-02 0.168D-01 0.748D-01 0.307D+00 0.595D+00
 Coeff:      0.277D-05-0.419D-05-0.431D-05-0.177D-04-0.999D-05 0.144D-03
 Coeff:      0.701D-03 0.544D-02 0.168D-01 0.748D-01 0.307D+00 0.595D+00
 Gap=     0.222 Goal=   None    Shift=    0.000
 RMSDP=7.10D-09 MaxDP=1.61D-07 DE=-6.28D-11 OVMax= 3.07D-07

 Error on total polarization charges =  0.00655
 SCF Done:  E(RB-P86) =  -562.547433771     A.U. after   12 cycles
            NFock= 12  Conv=0.71D-08     -V/T= 2.0033
 KE= 5.607237995712D+02 PE=-2.163909733355D+03 EE= 6.239074869322D+02
 Leave Link  502 at Mon Feb 22 20:57:22 2021, MaxMem=   104857600 cpu:             184.2 elap:               5.9
 (Enter /sw/arch/RedHatEnterpriseServer7/EB_production/2019/software/Gaussian/g16.c01/l601.exe)
 Copying SCF densities to generalized density rwf, IOpCl= 0 IROHF=0.

 **********************************************************************

            Population analysis using the SCF Density.

 **********************************************************************

 Orbital symmetries:
       Occupied  (A) (A) (A) (A) (A) (A) (A) (A) (A) (A) (A) (A)
                 (A) (A) (A) (A) (A) (A) (A) (A) (A) (A) (A) (A)
                 (A) (A) (A) (A) (A) (A) (A) (A)
       Virtual   (A) (A) (A) (A) (A) (A) (A) (A) (A) (A) (A) (A)
                 (A) (A) (A) (A) (A) (A) (A) (A) (A) (A) (A) (A)
                 (A) (A) (A) (A) (A) (A) (A) (A) (A) (A) (A) (A)
                 (A) (A) (A) (A) (A) (A) (A) (A) (A) (A) (A) (A)
                 (A) (A) (A) (A) (A) (A) (A) (A) (A) (A) (A) (A)
                 (A) (A) (A) (A) (A) (A) (A) (A) (A) (A) (A) (A)
                 (A) (A) (A) (A) (A) (A) (A) (A) (A) (A) (A) (A)
                 (A) (A) (A) (A) (A) (A) (A) (A) (A) (A) (A) (A)
                 (A) (A) (A) (A) (A) (A) (A) (A) (A) (A) (A) (A)
                 (A) (A) (A) (A) (A) (A) (A) (A) (A) (A) (A) (A)
                 (A) (A) (A) (A) (A) (A) (A) (A) (A) (A) (A) (A)
                 (A) (A) (A) (A) (A) (A)
 The electronic state is 1-A.
 Alpha  occ. eigenvalues --  -24.33661 -24.32926 -24.32894 -18.73943 -14.06329
 Alpha  occ. eigenvalues --  -14.02670 -10.19742 -10.03886  -1.22393  -1.14534
 Alpha  occ. eigenvalues --   -1.14168  -0.98146  -0.88942  -0.85064  -0.68115
 Alpha  occ. eigenvalues --   -0.60493  -0.57649  -0.55650  -0.53743  -0.52463
 Alpha  occ. eigenvalues --   -0.49636  -0.42967  -0.42283  -0.41523  -0.39822
 Alpha  occ. eigenvalues --   -0.39377  -0.38478  -0.37827  -0.37205  -0.27292
 Alpha  occ. eigenvalues --   -0.24790  -0.23759
 Alpha virt. eigenvalues --   -0.01557   0.01223   0.03767   0.05650   0.07549
 Alpha virt. eigenvalues --    0.09981   0.10118   0.10511   0.14201   0.16821
 Alpha virt. eigenvalues --    0.17740   0.18976   0.21442   0.22852   0.24635
 Alpha virt. eigenvalues --    0.25054   0.31262   0.32808   0.34432   0.34554
 Alpha virt. eigenvalues --    0.36992   0.38710   0.38978   0.42890   0.44536
 Alpha virt. eigenvalues --    0.45872   0.48555   0.48903   0.49609   0.52164
 Alpha virt. eigenvalues --    0.52292   0.53359   0.58168   0.59411   0.62878
 Alpha virt. eigenvalues --    0.65603   0.67104   0.70622   0.72646   0.73289
 Alpha virt. eigenvalues --    0.79294   0.81140   0.85723   0.88212   0.92519
 Alpha virt. eigenvalues --    1.02791   1.16706   1.18242   1.24271   1.24749
 Alpha virt. eigenvalues --    1.26829   1.27661   1.29361   1.34957   1.41882
 Alpha virt. eigenvalues --    1.42171   1.43713   1.47946   1.51724   1.53021
 Alpha virt. eigenvalues --    1.54927   1.64229   1.68299   1.68538   1.82821
 Alpha virt. eigenvalues --    1.86782   1.89825   1.90396   2.02804   2.03578
 Alpha virt. eigenvalues --    2.06017   2.12096   2.13205   2.14213   2.18252
 Alpha virt. eigenvalues --    2.21959   2.26787   2.32790   2.37103   2.41964
 Alpha virt. eigenvalues --    2.42174   2.48766   2.50203   2.51819   2.54625
 Alpha virt. eigenvalues --    2.57639   2.59187   2.64073   2.68409   2.75345
 Alpha virt. eigenvalues --    2.75526   2.80433   2.81354   2.88422   2.90600
 Alpha virt. eigenvalues --    2.91361   2.91660   2.91783   2.95250   2.99356
 Alpha virt. eigenvalues --    3.03728   3.04598   3.06107   3.08701   3.09610
 Alpha virt. eigenvalues --    3.11692   3.12558   3.13657   3.16007   3.16303
 Alpha virt. eigenvalues --    3.23903   3.24111   3.26158   3.27258   3.34698
 Alpha virt. eigenvalues --    3.37359   3.44485   3.47842   3.51427   3.56266
 Alpha virt. eigenvalues --    3.60280   3.74098   3.75432   3.81816   3.89084
 Alpha virt. eigenvalues --    3.92833   4.07117   4.15545   4.37755   4.45623
 Alpha virt. eigenvalues --   21.51366  21.77269  31.40583  31.43700  43.13677
 Alpha virt. eigenvalues --   56.28735  56.36881  56.49484
          Condensed to atoms (all electrons):
               1          2          3          4          5          6
     1  N    6.543189   0.378353  -0.134876  -0.135221   0.003860  -0.000437
     2  C    0.378353   4.504317   0.651528   0.256317  -0.012976  -0.005569
     3  O   -0.134876   0.651528   8.036142  -0.122799   0.018192  -0.003520
     4  N   -0.135221   0.256317  -0.122799   6.842994   0.317469  -0.080065
     5  C    0.003860  -0.012976   0.018192   0.317469   4.390186   0.300899
     6  F   -0.000437  -0.005569  -0.003520  -0.080065   0.300899   9.033203
     7  F   -0.000120   0.003292  -0.000114  -0.053377   0.289146  -0.057276
     8  F   -0.000412  -0.005995  -0.003650  -0.078238   0.300945  -0.060409
     9  H    0.334603  -0.014203   0.007105   0.014525  -0.000335   0.000034
    10  H    0.375550  -0.015310   0.001168   0.005013   0.000045   0.000007
    11  H    0.006731   0.000645   0.004720   0.332940  -0.013972   0.001600
               7          8          9         10         11
     1  N   -0.000120  -0.000412   0.334603   0.375550   0.006731
     2  C    0.003292  -0.005995  -0.014203  -0.015310   0.000645
     3  O   -0.000114  -0.003650   0.007105   0.001168   0.004720
     4  N   -0.053377  -0.078238   0.014525   0.005013   0.332940
     5  C    0.289146   0.300945  -0.000335   0.000045  -0.013972
     6  F   -0.057276  -0.060409   0.000034   0.000007   0.001600
     7  F    9.018893  -0.057181  -0.000029   0.000008  -0.003615
     8  F   -0.057181   9.031178   0.000034   0.000008   0.001640
     9  H   -0.000029   0.000034   0.412467  -0.016823  -0.002376
    10  H    0.000008   0.000008  -0.016823   0.365947   0.000091
    11  H   -0.003615   0.001640  -0.002376   0.000091   0.366345
 Mulliken charges:
               1
     1  N   -0.371219
     2  C    0.259599
     3  O   -0.453896
     4  N   -0.299557
     5  C    0.406542
     6  F   -0.128466
     7  F   -0.139626
     8  F   -0.127920
     9  H    0.264997
    10  H    0.284295
    11  H    0.305251
 Sum of Mulliken charges =  -0.00000
 Mulliken charges with hydrogens summed into heavy atoms:
               1
     1  N    0.178074
     2  C    0.259599
     3  O   -0.453896
     4  N    0.005694
     5  C    0.406542
     6  F   -0.128466
     7  F   -0.139626
     8  F   -0.127920
 Electronic spatial extent (au):  <R**2>=            920.1588
 Charge=             -0.0000 electrons
 Dipole moment (field-independent basis, Debye):
    X=             -2.7239    Y=              6.6046    Z=             -0.0163  Tot=              7.1442
 Quadrupole moment (field-independent basis, Debye-Ang):
   XX=            -36.4777   YY=            -43.3299   ZZ=            -46.3094
   XY=             -8.9224   XZ=             -0.0139   YZ=             -0.0139
 Traceless Quadrupole moment (field-independent basis, Debye-Ang):
   XX=              5.5613   YY=             -1.2909   ZZ=             -4.2704
   XY=             -8.9224   XZ=             -0.0139   YZ=             -0.0139
 Octapole moment (field-independent basis, Debye-Ang**2):
  XXX=            -25.5074  YYY=             20.3143  ZZZ=             -0.0207  XYY=              3.5607
  XXY=             15.3598  XXZ=              0.0694  XZZ=              7.2698  YZZ=              0.1577
  YYZ=              0.0028  XYZ=              0.0074
 Hexadecapole moment (field-independent basis, Debye-Ang**3):
 XXXX=           -537.7713 YYYY=           -186.0305 ZZZZ=           -112.7454 XXXY=            -39.7691
 XXXZ=             -0.2222 YYYX=            -29.8255 YYYZ=             -0.0420 ZZZX=             -0.1211
 ZZZY=              0.0486 XXYY=           -145.2599 XXZZ=           -143.7777 YYZZ=            -53.8171
 XXYZ=              0.0488 YYXZ=              0.0559 ZZXY=              2.9087
 N-N= 4.167310130804D+02 E-N=-2.163909734004D+03  KE= 5.607237995712D+02
 No NMR shielding tensors so no spin-rotation constants.
 Leave Link  601 at Mon Feb 22 20:57:22 2021, MaxMem=   104857600 cpu:               6.3 elap:               0.3
 (Enter /sw/arch/RedHatEnterpriseServer7/EB_production/2019/software/Gaussian/g16.c01/l701.exe)
 ... and contract with generalized density number  0.
 Compute integral first derivatives.
 R6Disp: Adding Grimme-D3 dispersion energy 1st derivatives to the gradient.
 PrsmSu:  requested number of processors reduced to:  30 ShMem   1 Linda.
 D1PCM: PCM CHGder 1st derivatives, ID1Alg=3 FixD1E=F DoIter=F DoCFld=F I1PDM=0.
 GePol: Maximum number of non-zero 1st derivatives   =     210
 CoulSu:  requested number of processors reduced to:  29 ShMem   1 Linda.
 CoulSu:  requested number of processors reduced to:  30 ShMem   1 Linda.
 Leave Link  701 at Mon Feb 22 20:57:23 2021, MaxMem=   104857600 cpu:              16.6 elap:               0.6
 (Enter /sw/arch/RedHatEnterpriseServer7/EB_production/2019/software/Gaussian/g16.c01/l702.exe)
 L702 exits ... SP integral derivatives will be done elsewhere.
 Leave Link  702 at Mon Feb 22 20:57:23 2021, MaxMem=   104857600 cpu:               0.6 elap:               0.0
 (Enter /sw/arch/RedHatEnterpriseServer7/EB_production/2019/software/Gaussian/g16.c01/l703.exe)
 Integral derivatives from FoFJK, PRISM(SPDF).
 Compute integral first derivatives, UseDBF=F ICtDFT=           0.
 Calling FoFJK, ICntrl=      2527 FMM=F ISym2X=0 I1Cent= 0 IOpClX= 0 NMat=1 NMatS=1 NMatT=0.
 FoFJK:  IHMeth= 1 ICntrl=    2527 DoSepK=F KAlg= 0 I1Cent=           0 FoldK=F
 IRaf=         0 NMat=       1 IRICut=       1 DoRegI=T DoRafI=F ISym2E= 0 IDoP0=0 IntGTp=1.
 FoFCou: FMM=F IPFlag=           0 FMFlag=      100000 FMFlg1=         800
         NFxFlg=           0 DoJE=F BraDBF=F KetDBF=F FulRan=T
         wScrn=  0.000000 ICntrl=      2527 IOpCl=  0 I1Cent=           0 NGrid=           0
         NMat0=    1 NMatS0=      1 NMatT0=    0 NMatD0=    1 NMtDS0=    0 NMtDT0=    0
 Symmetry not used in FoFCou.
 Leave Link  703 at Mon Feb 22 20:57:25 2021, MaxMem=   104857600 cpu:              20.3 elap:               0.7
 (Enter /sw/arch/RedHatEnterpriseServer7/EB_production/2019/software/Gaussian/g16.c01/l716.exe)
 Dipole        =-1.07166244D+00 2.59843790D+00-6.42132585D-03
 ***** Axes restored to original set *****
 -------------------------------------------------------------------
 Center     Atomic                   Forces (Hartrees/Bohr)
 Number     Number              X              Y              Z
 -------------------------------------------------------------------
      1        7           0.030996700    0.006574221   -0.020431283
      2        6          -0.020701478   -0.062124726    0.016686473
      3        8           0.010805431    0.005039516   -0.007120948
      4        7           0.018495508   -0.020659665   -0.011395847
      5        6          -0.010875058    0.006671965    0.006706099
      6        9          -0.004294366    0.000095645   -0.014887718
      7        9          -0.007174120   -0.009976404    0.005351236
      8        9           0.011384953    0.002431738    0.010460036
      9        1          -0.004726773    0.045978574    0.000697245
     10        1          -0.030341040   -0.020525372    0.020657669
     11        1           0.006430241    0.046494508   -0.006722964
 -------------------------------------------------------------------
 Cartesian Forces:  Max     0.062124726 RMS     0.020674778
 Leave Link  716 at Mon Feb 22 20:57:25 2021, MaxMem=   104857600 cpu:               0.9 elap:               0.1
 (Enter /sw/arch/RedHatEnterpriseServer7/EB_production/2019/software/Gaussian/g16.c01/l103.exe)

 GradGradGradGradGradGradGradGradGradGradGradGradGradGradGradGradGradGrad
 Berny optimization.
 FormGI is forming the generalized inverse of G from B-inverse, IUseBI=4.
 Internal  Forces:  Max     0.046545195 RMS     0.015848515
 Search for a local minimum.
 Step number   1 out of a maximum of   49
 All quantities printed in internal units (Hartrees-Bohrs-Radians)
 RMS Force = .15849D-01 SwitMx=.10000D-02 MixMth= 1
 Mixed Optimization -- RFO/linear search
 Second derivative matrix not updated -- first step.
 ITU=  0
     Eigenvalues ---    0.01334   0.01697   0.02245   0.02347   0.02458
     Eigenvalues ---    0.02458   0.11274   0.11891   0.16000   0.16000
     Eigenvalues ---    0.16000   0.22000   0.25000   0.25000   0.25000
     Eigenvalues ---    0.25000   0.25000   0.41415   0.50224   0.50257
     Eigenvalues ---    0.50652   0.53269   0.53317   0.53426   0.53444
     Eigenvalues ---    0.56742   0.82289
 RFO step:  Lambda=-2.20786229D-02 EMin= 1.33382899D-02
 Linear search not attempted -- first point.
 Iteration  1 RMS(Cart)=  0.04298645 RMS(Int)=  0.00100337
 Iteration  2 RMS(Cart)=  0.00130530 RMS(Int)=  0.00010796
 Iteration  3 RMS(Cart)=  0.00000066 RMS(Int)=  0.00010796
 ITry= 1 IFail=0 DXMaxC= 1.07D-01 DCOld= 1.00D+10 DXMaxT= 3.00D-01 DXLimC= 3.00D+00 Rises=F
 Variable       Old X    -DE/DX   Delta X   Delta X   Delta X     New X
                                 (Linear)    (Quad)   (Total)
    R1        2.53616   0.02131   0.00000   0.03615   0.03615   2.57231
    R2        1.83258   0.04554   0.00000   0.08186   0.08186   1.91444
    R3        1.83242   0.04197   0.00000   0.07542   0.07542   1.90783
    R4        2.36704  -0.00631   0.00000  -0.00747  -0.00747   2.35957
    R5        2.56659   0.02696   0.00000   0.04856   0.04856   2.61514
    R6        2.69675  -0.01149   0.00000  -0.02635  -0.02635   2.67040
    R7        1.83404   0.04655   0.00000   0.08390   0.08390   1.91794
    R8        2.59640  -0.01216   0.00000  -0.02319  -0.02319   2.57321
    R9        2.59213  -0.01336   0.00000  -0.02527  -0.02527   2.56686
   R10        2.59607  -0.01274   0.00000  -0.02429  -0.02429   2.57178
    A1        2.09359   0.01130   0.00000   0.06207   0.06207   2.15566
    A2        2.09754  -0.00819   0.00000  -0.04500  -0.04500   2.05254
    A3        2.09205  -0.00311   0.00000  -0.01707  -0.01707   2.07498
    A4        2.06923   0.02374   0.00000   0.08727   0.08727   2.15650
    A5        2.06931  -0.01820   0.00000  -0.06687  -0.06687   2.00244
    A6        2.14464  -0.00555   0.00000  -0.02040  -0.02040   2.12425
    A7        2.19121  -0.01074   0.00000  -0.04439  -0.04439   2.14682
    A8        2.04357   0.01367   0.00000   0.06776   0.06776   2.11133
    A9        2.04840  -0.00293   0.00000  -0.02338  -0.02338   2.02502
   A10        1.93802   0.01202   0.00000   0.04270   0.04238   1.98039
   A11        1.89552  -0.00135   0.00000  -0.00170  -0.00187   1.89364
   A12        1.94276   0.01078   0.00000   0.03773   0.03744   1.98020
   A13        1.88636  -0.00391   0.00000  -0.01076  -0.01094   1.87542
   A14        1.91325  -0.01459   0.00000  -0.05952  -0.05992   1.85333
   A15        1.88624  -0.00363   0.00000  -0.01058  -0.01071   1.87553
    D1        3.13962  -0.00003   0.00000  -0.00068  -0.00069   3.13893
    D2       -0.00251   0.00000   0.00000   0.00013   0.00015  -0.00236
    D3        0.00048  -0.00003   0.00000  -0.00077  -0.00078  -0.00030
    D4        3.14153  -0.00000   0.00000   0.00004   0.00006   3.14159
    D5        3.13488  -0.00000   0.00000   0.00023   0.00023   3.13511
    D6       -0.00131   0.00004   0.00000   0.00075   0.00078  -0.00054
    D7       -0.00727   0.00004   0.00000   0.00111   0.00109  -0.00618
    D8        3.13972   0.00009   0.00000   0.00164   0.00163   3.14135
    D9       -1.07697   0.00144   0.00000   0.01179   0.01170  -1.06526
   D10        3.13437  -0.00008   0.00000   0.00064   0.00062   3.13499
   D11        1.05984  -0.00122   0.00000  -0.00789  -0.00780   1.05204
   D12        2.05922   0.00144   0.00000   0.01151   0.01144   2.07066
   D13       -0.01263  -0.00008   0.00000   0.00037   0.00035  -0.01227
   D14       -2.08716  -0.00121   0.00000  -0.00817  -0.00806  -2.09522
         Item               Value     Threshold  Converged?
 Maximum Force            0.046545     0.000450     NO 
 RMS     Force            0.015849     0.000300     NO 
 Maximum Displacement     0.107486     0.001800     NO 
 RMS     Displacement     0.042782     0.001200     NO 
 Predicted change in Energy=-1.168772D-02
 Lowest energy point so far.  Saving SCF results.
 GradGradGradGradGradGradGradGradGradGradGradGradGradGradGradGradGradGrad

 Leave Link  103 at Mon Feb 22 20:57:25 2021, MaxMem=   104857600 cpu:               0.9 elap:               0.1
 (Enter /sw/arch/RedHatEnterpriseServer7/EB_production/2019/software/Gaussian/g16.c01/l202.exe)
                          Input orientation:                          
 ---------------------------------------------------------------------
 Center     Atomic      Atomic             Coordinates (Angstroms)
 Number     Number       Type             X           Y           Z
 ---------------------------------------------------------------------
      1          7           0       -0.648356    2.485311    1.053236
      2          6           0        0.293227    1.679154    0.490725
      3          8           0        0.273412    0.433372    0.572663
      4          7           0        1.294616    2.347400   -0.191754
      5          6           0        2.363284    1.683149   -0.834885
      6          9           0        3.137023    0.952135    0.014312
      7          9           0        3.163352    2.615093   -1.414896
      8          9           0        1.959101    0.826707   -1.812262
      9          1           0       -0.630346    3.496139    0.988184
     10          1           0       -1.399641    2.042629    1.562020
     11          1           0        1.299589    3.360560   -0.251461
 ---------------------------------------------------------------------
                    Distance matrix (angstroms):
                    1          2          3          4          5
     1  N    0.000000
     2  C    1.361208   0.000000
     3  O    2.300230   1.248631   0.000000
     4  N    2.311744   1.383875   2.300151   0.000000
     5  C    3.643959   2.458128   2.812597   1.413117   0.000000
     6  F    4.214152   2.973667   2.963299   2.320278   1.361686
     7  F    4.542867   3.570012   4.130624   2.249425   1.358323
     8  F    4.214366   2.967415   2.946885   2.319503   1.360927
     9  H    1.013079   2.098068   3.220245   2.533246   3.946180
    10  H    1.009583   2.036072   2.523419   3.229184   4.475934
    11  H    2.502555   2.095406   3.209462   1.014929   2.070154
                    6          7          8          9         10
     6  F    0.000000
     7  F    2.192887   0.000000
     8  F    2.177063   2.192360   0.000000
     9  H    4.649027   4.576373   4.655492   0.000000
    10  H    4.915882   5.478198   4.913797   1.741778   0.000000
    11  H    3.040938   2.320111   3.048191   2.297771   3.508774
                   11
    11  H    0.000000
 Stoichiometry    C2H3F3N2O
 Framework group  C1[X(C2H3F3N2O)]
 Deg. of freedom    27
 Full point group                 C1      NOp   1
 RotChk:  IX=0 Diff= 1.54D-02
 Largest Abelian subgroup         C1      NOp   1
 Largest concise Abelian subgroup C1      NOp   1
                         Standard orientation:                         
 ---------------------------------------------------------------------
 Center     Atomic      Atomic             Coordinates (Angstroms)
 Number     Number       Type             X           Y           Z
 ---------------------------------------------------------------------
      1          7           0       -2.576531    0.683664    0.001378
      2          6           0       -1.435522   -0.058613   -0.001516
      3          8           0       -1.424345   -1.307195   -0.001223
      4          7           0       -0.264799    0.679294   -0.004493
      5          6           0        1.018277    0.087185   -0.000070
      6          9           0        1.256195   -0.683252    1.097204
      7          9           0        1.949328    1.076131   -0.013153
      8          9           0        1.251786   -0.707775   -1.079717
      9          1           0       -2.584743    1.696708    0.003386
     10          1           0       -3.456501    0.188786    0.003614
     11          1           0       -0.286989    1.693981   -0.004910
 ---------------------------------------------------------------------
 Rotational constants (GHZ):           3.8452854           1.4091087           1.2633419
 Leave Link  202 at Mon Feb 22 20:57:25 2021, MaxMem=   104857600 cpu:               1.0 elap:               0.1
 (Enter /sw/arch/RedHatEnterpriseServer7/EB_production/2019/software/Gaussian/g16.c01/l301.exe)
 Standard basis: TZVP (5D, 7F)
 Ernie: Thresh=  0.10000D-02 Tol=  0.10000D-05 Strict=F.
 There are   178 symmetry adapted cartesian basis functions of A   symmetry.
 There are   170 symmetry adapted basis functions of A   symmetry.
   170 basis functions,   304 primitive gaussians,   178 cartesian basis functions
    32 alpha electrons       32 beta electrons
       nuclear repulsion energy       417.8782314174 Hartrees.
 IExCor=  404 DFT=T Ex=B Corr=P86 ExCW=0 ScaHFX=  0.000000
 ScaDFX=  1.000000  1.000000  1.000000  1.000000 ScalE2=  1.000000  1.000000
 IRadAn=      5 IRanWt=     -1 IRanGd=            0 ICorTp=0 IEmpDi=131
 NAtoms=   11 NActive=   11 NUniq=   11 SFac= 1.00D+00 NAtFMM=   60 NAOKFM=F Big=F
 Integral buffers will be    131072 words long.
 Raffenetti 2 integral format.
 Two-electron integral symmetry is turned on.
 R6Disp:  Grimme-D3 Dispersion energy=       -0.0077447669 Hartrees.
 Nuclear repulsion after empirical dispersion term =      417.8704866505 Hartrees.
 ------------------------------------------------------------------------------
 Polarizable Continuum Model (PCM)
 =================================
 Model                : PCM.
 Atomic radii         : UFF (Universal Force Field).
 Polarization charges : Total charges.
 Charge compensation  : None.
 Solution method      : On-the-fly selection.
 Cavity type          : Scaled VdW (van der Waals Surface) (Alpha=1.100).
 Cavity algorithm     : GePol (No added spheres)
                        Default sphere list used, NSphG=   11.
                        Lebedev-Laikov grids with approx.  5.0 points / Ang**2.
                        Smoothing algorithm: York/Karplus (Gamma=1.0000).
                        Polarization charges: spherical gaussians, with
                                              point-specific exponents (IZeta= 3).
                        Self-potential: point-specific (ISelfS= 7).
                        Self-field    : sphere-specific E.n sum rule (ISelfD= 2).
 1st derivatives      : Analytical E(r).r(x)/FMM algorithm (CHGder, D1EAlg=3).
                        Cavity 1st derivative terms included.
 Solvent              : Water, Eps=  78.355300 Eps(inf)=   1.777849
 ------------------------------------------------------------------------------
 Spheres list:
 ISph  on   Nord     Re0    Alpha      Xe            Ye            Ze
    1   N      1    1.8300  1.100     -2.576531      0.683664      0.001378
    2   C      2    1.9255  1.100     -1.435522     -0.058613     -0.001516
    3   O      3    1.7500  1.100     -1.424345     -1.307195     -0.001223
    4   N      4    1.8300  1.100     -0.264799      0.679294     -0.004493
    5   C      5    1.9255  1.100      1.018277      0.087185     -0.000070
    6   F      6    1.6820  1.100      1.256195     -0.683252      1.097204
    7   F      7    1.6820  1.100      1.949328      1.076131     -0.013153
    8   F      8    1.6820  1.100      1.251786     -0.707775     -1.079717
    9   H      9    1.4430  1.100     -2.584743      1.696708      0.003386
   10   H     10    1.4430  1.100     -3.456501      0.188786      0.003614
   11   H     11    1.4430  1.100     -0.286989      1.693981     -0.004910
 ------------------------------------------------------------------------------
 GePol: Number of generator spheres                  =      11
 GePol: Total number of spheres                      =      11
 GePol: Number of exposed spheres                    =      11 (100.00%)
 GePol: Number of points                             =    1186
 GePol: Average weight of points                     =       0.13
 GePol: Minimum weight of points                     =   0.39D-10
 GePol: Maximum weight of points                     =    0.20299
 GePol: Number of points with low weight             =      69
 GePol: Fraction of low-weight points (<1% of avg)   =       5.82%
 GePol: Cavity surface area                          =    154.090 Ang**2
 GePol: Cavity volume                                =    140.507 Ang**3
 Leave Link  301 at Mon Feb 22 20:57:25 2021, MaxMem=   104857600 cpu:               2.0 elap:               0.1
 (Enter /sw/arch/RedHatEnterpriseServer7/EB_production/2019/software/Gaussian/g16.c01/l302.exe)
 NPDir=0 NMtPBC=     1 NCelOv=     1 NCel=       1 NClECP=     1 NCelD=      1
         NCelK=      1 NCelE2=     1 NClLst=     1 CellRange=     0.0.
 One-electron integrals computed using PRISM.
 One-electron integral symmetry used in STVInt
 PrsmSu:  requested number of processors reduced to:  29 ShMem   1 Linda.
 NBasis=   170 RedAO= T EigKep=  1.16D-03  NBF=   170
 NBsUse=   170 1.00D-06 EigRej= -1.00D+00 NBFU=   170
 Precomputing XC quadrature grid using
 IXCGrd= 4 IRadAn=           5 IRanWt=          -1 IRanGd=           0 AccXCQ= 0.00D+00.
 Generated NRdTot=       0 NPtTot=           0 NUsed=           0 NTot=          32
 NSgBfM=   177   176   176   176   177 MxSgAt=    11 MxSgA2=    11.
 Leave Link  302 at Mon Feb 22 20:57:25 2021, MaxMem=   104857600 cpu:               4.8 elap:               0.2
 (Enter /sw/arch/RedHatEnterpriseServer7/EB_production/2019/software/Gaussian/g16.c01/l303.exe)
 DipDrv:  MaxL=1.
 Leave Link  303 at Mon Feb 22 20:57:26 2021, MaxMem=   104857600 cpu:               3.9 elap:               0.2
 (Enter /sw/arch/RedHatEnterpriseServer7/EB_production/2019/software/Gaussian/g16.c01/l401.exe)
 Initial guess from the checkpoint file:  "ARIKQVYYYDITGU-UHFFFAOYSA-N.chk"
 B after Tr=     0.000000    0.000000    0.000000
         Rot=    0.999975   -0.001900   -0.000273   -0.006811 Ang=  -0.81 deg.
 Guess basis will be translated and rotated to current coordinates.
 JPrj=2 DoOrth=T DoCkMO=T.
 Generating alternative initial guess.
 ExpMin= 9.52D-02 ExpMax= 3.55D+04 ExpMxC= 1.21D+03 IAcc=3 IRadAn=         5 AccDes= 0.00D+00
 Harris functional with IExCor=  404 and IRadAn=       5 diagonalized for initial guess.
 HarFok:  IExCor=  404 AccDes= 0.00D+00 IRadAn=         5 IDoV= 1 UseB2=F ITyADJ=14
 ICtDFT=  3500011 ScaDFX=  1.000000  1.000000  1.000000  1.000000
 FoFCou: FMM=F IPFlag=           0 FMFlag=      100000 FMFlg1=           0
         NFxFlg=           0 DoJE=T BraDBF=F KetDBF=T FulRan=T
         wScrn=  0.000000 ICntrl=       500 IOpCl=  0 I1Cent=   200000004 NGrid=           0
         NMat0=    1 NMatS0=      1 NMatT0=    0 NMatD0=    1 NMtDS0=    0 NMtDT0=    0
 Petite list used in FoFCou.
 Harris En= -562.602199847345    
 Leave Link  401 at Mon Feb 22 20:57:26 2021, MaxMem=   104857600 cpu:               9.5 elap:               0.4
 (Enter /sw/arch/RedHatEnterpriseServer7/EB_production/2019/software/Gaussian/g16.c01/l502.exe)
 Integral symmetry usage will be decided dynamically.
 Closed shell SCF:
 Using DIIS extrapolation, IDIIS=  1040.
 NGot=   104857600 LenX=   104786454 LenY=   104754329
 Requested convergence on RMS density matrix=1.00D-08 within 128 cycles.
 Requested convergence on MAX density matrix=1.00D-06.
 Requested convergence on             energy=1.00D-06.
 No special actions if energy rises.
 Fock matrices will be formed incrementally for  20 cycles.

 Cycle   1  Pass 1  IDiag  1:
 FoFJK:  IHMeth= 1 ICntrl=     500 DoSepK=F KAlg= 0 I1Cent=           0 FoldK=F
 IRaf= 930000000 NMat=       1 IRICut=       1 DoRegI=T DoRafI=F ISym2E= 0 IDoP0=0 IntGTp=1.
 FoFCou: FMM=F IPFlag=           0 FMFlag=      100000 FMFlg1=           0
         NFxFlg=           0 DoJE=T BraDBF=F KetDBF=F FulRan=T
         wScrn=  0.000000 ICntrl=       500 IOpCl=  0 I1Cent=           0 NGrid=           0
         NMat0=    1 NMatS0=      1 NMatT0=    0 NMatD0=    1 NMtDS0=    0 NMtDT0=    0
 Symmetry not used in FoFCou.
 Inv3:  Mode=1 IEnd=     4219788.
 Iteration    1 A*A^-1 deviation from unit magnitude is 2.66D-15 for    929.
 Iteration    1 A*A^-1 deviation from orthogonality  is 1.78D-15 for    972     74.
 Iteration    1 A^-1*A deviation from unit magnitude is 3.11D-15 for    929.
 Iteration    1 A^-1*A deviation from orthogonality  is 9.83D-15 for   1000    972.
 E= -562.553977837763    
 DIIS: error= 3.21D-03 at cycle   1 NSaved=   1.
 NSaved= 1 IEnMin= 1 EnMin= -562.553977837763     IErMin= 1 ErrMin= 3.21D-03
 ErrMax= 3.21D-03  0.00D+00 EMaxC= 1.00D-01 BMatC= 4.50D-03 BMatP= 4.50D-03
 IDIUse=3 WtCom= 9.68D-01 WtEn= 3.21D-02
 Coeff-Com:  0.100D+01
 Coeff-En:   0.100D+01
 Coeff:      0.100D+01
 Gap=     0.611 Goal=   None    Shift=    0.000
 GapD=    0.611 DampG=2.000 DampE=1.000 DampFc=2.0000 IDamp=-1.
 RMSDP=6.06D-04 MaxDP=9.57D-03              OVMax= 2.39D-02

 Cycle   2  Pass 1  IDiag  1:
 RMSU=  6.06D-04    CP:  9.98D-01
 E= -562.557041306513     Delta-E=       -0.003063468750 Rises=F Damp=F
 DIIS: error= 4.98D-03 at cycle   2 NSaved=   2.
 NSaved= 2 IEnMin= 2 EnMin= -562.557041306513     IErMin= 1 ErrMin= 3.21D-03
 ErrMax= 4.98D-03  0.00D+00 EMaxC= 1.00D-01 BMatC= 2.54D-03 BMatP= 4.50D-03
 IDIUse=3 WtCom= 9.50D-01 WtEn= 4.98D-02
 Coeff-Com:  0.397D+00 0.603D+00
 Coeff-En:   0.000D+00 0.100D+01
 Coeff:      0.377D+00 0.623D+00
 Gap=     0.236 Goal=   None    Shift=    0.000
 RMSDP=4.21D-04 MaxDP=1.23D-02 DE=-3.06D-03 OVMax= 4.34D-02

 Cycle   3  Pass 1  IDiag  1:
 RMSU=  3.85D-04    CP:  1.00D+00  7.25D-01
 E= -562.555920331692     Delta-E=        0.001120974822 Rises=F Damp=F
 DIIS: error= 7.19D-03 at cycle   3 NSaved=   3.
 NSaved= 3 IEnMin= 2 EnMin= -562.557041306513     IErMin= 1 ErrMin= 3.21D-03
 ErrMax= 7.19D-03  0.00D+00 EMaxC= 1.00D-01 BMatC= 4.00D-03 BMatP= 2.54D-03
 IDIUse=3 WtCom= 1.06D-01 WtEn= 8.94D-01
 Coeff-Com:  0.473D-01 0.541D+00 0.412D+00
 Coeff-En:   0.000D+00 0.580D+00 0.420D+00
 Coeff:      0.499D-02 0.576D+00 0.419D+00
 Gap=     0.228 Goal=   None    Shift=    0.000
 RMSDP=2.75D-04 MaxDP=8.17D-03 DE= 1.12D-03 OVMax= 2.32D-02

 Cycle   4  Pass 1  IDiag  1:
 RMSU=  1.01D-04    CP:  9.99D-01  8.51D-01  3.69D-01
 E= -562.558895866647     Delta-E=       -0.002975534955 Rises=F Damp=F
 DIIS: error= 7.90D-04 at cycle   4 NSaved=   4.
 NSaved= 4 IEnMin= 4 EnMin= -562.558895866647     IErMin= 4 ErrMin= 7.90D-04
 ErrMax= 7.90D-04  0.00D+00 EMaxC= 1.00D-01 BMatC= 1.37D-04 BMatP= 2.54D-03
 IDIUse=3 WtCom= 9.92D-01 WtEn= 7.90D-03
 Coeff-Com:  0.103D-01 0.332D+00 0.248D+00 0.409D+00
 Coeff-En:   0.000D+00 0.000D+00 0.000D+00 0.100D+01
 Coeff:      0.103D-01 0.330D+00 0.246D+00 0.413D+00
 Gap=     0.227 Goal=   None    Shift=    0.000
 RMSDP=5.31D-05 MaxDP=1.27D-03 DE=-2.98D-03 OVMax= 2.79D-03

 Cycle   5  Pass 1  IDiag  1:
 RMSU=  1.91D-05    CP:  9.99D-01  8.61D-01  3.78D-01  5.16D-01
 E= -562.558998906442     Delta-E=       -0.000103039795 Rises=F Damp=F
 DIIS: error= 1.51D-04 at cycle   5 NSaved=   5.
 NSaved= 5 IEnMin= 5 EnMin= -562.558998906442     IErMin= 5 ErrMin= 1.51D-04
 ErrMax= 1.51D-04  0.00D+00 EMaxC= 1.00D-01 BMatC= 4.68D-06 BMatP= 1.37D-04
 IDIUse=3 WtCom= 9.98D-01 WtEn= 1.51D-03
 Coeff-Com:  0.141D-02 0.103D+00 0.826D-01 0.190D+00 0.623D+00
 Coeff-En:   0.000D+00 0.000D+00 0.000D+00 0.000D+00 0.100D+01
 Coeff:      0.140D-02 0.102D+00 0.825D-01 0.190D+00 0.624D+00
 Gap=     0.228 Goal=   None    Shift=    0.000
 RMSDP=9.40D-06 MaxDP=3.28D-04 DE=-1.03D-04 OVMax= 6.61D-04

 Cycle   6  Pass 1  IDiag  1:
 RMSU=  6.90D-06    CP:  9.99D-01  8.63D-01  3.82D-01  5.24D-01  6.93D-01
 E= -562.559001739020     Delta-E=       -0.000002832578 Rises=F Damp=F
 DIIS: error= 8.06D-05 at cycle   6 NSaved=   6.
 NSaved= 6 IEnMin= 6 EnMin= -562.559001739020     IErMin= 6 ErrMin= 8.06D-05
 ErrMax= 8.06D-05  0.00D+00 EMaxC= 1.00D-01 BMatC= 9.83D-07 BMatP= 4.68D-06
 IDIUse=1 WtCom= 1.00D+00 WtEn= 0.00D+00
 Coeff-Com:  0.328D-03 0.447D-01 0.384D-01 0.931D-01 0.394D+00 0.429D+00
 Coeff:      0.328D-03 0.447D-01 0.384D-01 0.931D-01 0.394D+00 0.429D+00
 Gap=     0.227 Goal=   None    Shift=    0.000
 RMSDP=3.84D-06 MaxDP=9.35D-05 DE=-2.83D-06 OVMax= 2.80D-04

 Cycle   7  Pass 1  IDiag  1:
 RMSU=  2.42D-06    CP:  9.99D-01  8.63D-01  3.83D-01  5.31D-01  7.22D-01
                    CP:  5.92D-01
 E= -562.559002494448     Delta-E=       -0.000000755428 Rises=F Damp=F
 DIIS: error= 1.48D-05 at cycle   7 NSaved=   7.
 NSaved= 7 IEnMin= 7 EnMin= -562.559002494448     IErMin= 7 ErrMin= 1.48D-05
 ErrMax= 1.48D-05  0.00D+00 EMaxC= 1.00D-01 BMatC= 3.56D-08 BMatP= 9.83D-07
 IDIUse=1 WtCom= 1.00D+00 WtEn= 0.00D+00
 Coeff-Com:  0.190D-05 0.119D-01 0.113D-01 0.265D-01 0.133D+00 0.212D+00
 Coeff-Com:  0.605D+00
 Coeff:      0.190D-05 0.119D-01 0.113D-01 0.265D-01 0.133D+00 0.212D+00
 Coeff:      0.605D+00
 Gap=     0.227 Goal=   None    Shift=    0.000
 RMSDP=9.46D-07 MaxDP=2.94D-05 DE=-7.55D-07 OVMax= 6.04D-05

 Cycle   8  Pass 1  IDiag  1:
 RMSU=  6.21D-07    CP:  9.99D-01  8.63D-01  3.84D-01  5.32D-01  7.22D-01
                    CP:  6.09D-01  7.53D-01
 E= -562.559002517964     Delta-E=       -0.000000023516 Rises=F Damp=F
 DIIS: error= 5.12D-06 at cycle   8 NSaved=   8.
 NSaved= 8 IEnMin= 8 EnMin= -562.559002517964     IErMin= 8 ErrMin= 5.12D-06
 ErrMax= 5.12D-06  0.00D+00 EMaxC= 1.00D-01 BMatC= 6.05D-09 BMatP= 3.56D-08
 IDIUse=1 WtCom= 1.00D+00 WtEn= 0.00D+00
 Coeff-Com: -0.474D-04 0.256D-02 0.287D-02 0.659D-02 0.415D-01 0.855D-01
 Coeff-Com:  0.368D+00 0.493D+00
 Coeff:     -0.474D-04 0.256D-02 0.287D-02 0.659D-02 0.415D-01 0.855D-01
 Coeff:      0.368D+00 0.493D+00
 Gap=     0.227 Goal=   None    Shift=    0.000
 RMSDP=3.32D-07 MaxDP=9.27D-06 DE=-2.35D-08 OVMax= 2.39D-05

 Cycle   9  Pass 1  IDiag  1:
 RMSU=  1.63D-07    CP:  9.99D-01  8.63D-01  3.84D-01  5.31D-01  7.25D-01
                    CP:  6.09D-01  7.58D-01  5.96D-01
 E= -562.559002522725     Delta-E=       -0.000000004761 Rises=F Damp=F
 DIIS: error= 1.35D-06 at cycle   9 NSaved=   9.
 NSaved= 9 IEnMin= 9 EnMin= -562.559002522725     IErMin= 9 ErrMin= 1.35D-06
 ErrMax= 1.35D-06  0.00D+00 EMaxC= 1.00D-01 BMatC= 1.87D-10 BMatP= 6.05D-09
 IDIUse=1 WtCom= 1.00D+00 WtEn= 0.00D+00
 Coeff-Com: -0.202D-04 0.616D-03 0.687D-03 0.181D-02 0.115D-01 0.266D-01
 Coeff-Com:  0.128D+00 0.215D+00 0.616D+00
 Coeff:     -0.202D-04 0.616D-03 0.687D-03 0.181D-02 0.115D-01 0.266D-01
 Coeff:      0.128D+00 0.215D+00 0.616D+00
 Gap=     0.227 Goal=   None    Shift=    0.000
 RMSDP=8.29D-08 MaxDP=2.04D-06 DE=-4.76D-09 OVMax= 3.36D-06

 Cycle  10  Pass 1  IDiag  1:
 RMSU=  4.13D-08    CP:  9.99D-01  8.63D-01  3.84D-01  5.31D-01  7.25D-01
                    CP:  6.11D-01  7.69D-01  6.10D-01  7.69D-01
 E= -562.559002522866     Delta-E=       -0.000000000141 Rises=F Damp=F
 DIIS: error= 4.24D-07 at cycle  10 NSaved=  10.
 NSaved=10 IEnMin=10 EnMin= -562.559002522866     IErMin=10 ErrMin= 4.24D-07
 ErrMax= 4.24D-07  0.00D+00 EMaxC= 1.00D-01 BMatC= 2.33D-11 BMatP= 1.87D-10
 IDIUse=1 WtCom= 1.00D+00 WtEn= 0.00D+00
 Coeff-Com: -0.601D-05 0.122D-03 0.113D-03 0.437D-03 0.248D-02 0.694D-02
 Coeff-Com:  0.369D-01 0.749D-01 0.332D+00 0.546D+00
 Coeff:     -0.601D-05 0.122D-03 0.113D-03 0.437D-03 0.248D-02 0.694D-02
 Coeff:      0.369D-01 0.749D-01 0.332D+00 0.546D+00
 Gap=     0.227 Goal=   None    Shift=    0.000
 RMSDP=1.92D-08 MaxDP=3.51D-07 DE=-1.41D-10 OVMax= 1.05D-06

 Cycle  11  Pass 1  IDiag  1:
 RMSU=  1.05D-08    CP:  9.99D-01  8.63D-01  3.84D-01  5.31D-01  7.25D-01
                    CP:  6.11D-01  7.68D-01  6.15D-01  7.88D-01  7.29D-01
 E= -562.559002522881     Delta-E=       -0.000000000015 Rises=F Damp=F
 DIIS: error= 1.23D-07 at cycle  11 NSaved=  11.
 NSaved=11 IEnMin=11 EnMin= -562.559002522881     IErMin=11 ErrMin= 1.23D-07
 ErrMax= 1.23D-07  0.00D+00 EMaxC= 1.00D-01 BMatC= 1.98D-12 BMatP= 2.33D-11
 IDIUse=1 WtCom= 1.00D+00 WtEn= 0.00D+00
 Coeff-Com: -0.127D-05 0.112D-04 0.608D-06 0.879D-04 0.420D-03 0.171D-02
 Coeff-Com:  0.103D-01 0.236D-01 0.132D+00 0.308D+00 0.524D+00
 Coeff:     -0.127D-05 0.112D-04 0.608D-06 0.879D-04 0.420D-03 0.171D-02
 Coeff:      0.103D-01 0.236D-01 0.132D+00 0.308D+00 0.524D+00
 Gap=     0.227 Goal=   None    Shift=    0.000
 RMSDP=5.23D-09 MaxDP=1.15D-07 DE=-1.48D-11 OVMax= 2.55D-07

 Error on total polarization charges =  0.00670
 SCF Done:  E(RB-P86) =  -562.559002523     A.U. after   11 cycles
            NFock= 11  Conv=0.52D-08     -V/T= 2.0036
 KE= 5.605333402457D+02 PE=-2.166269379120D+03 EE= 6.253065497010D+02
 Leave Link  502 at Mon Feb 22 20:57:31 2021, MaxMem=   104857600 cpu:             171.4 elap:               5.5
 (Enter /sw/arch/RedHatEnterpriseServer7/EB_production/2019/software/Gaussian/g16.c01/l701.exe)
 ... and contract with generalized density number  0.
 Compute integral first derivatives.
 R6Disp: Adding Grimme-D3 dispersion energy 1st derivatives to the gradient.
 PrsmSu:  requested number of processors reduced to:  30 ShMem   1 Linda.
 D1PCM: PCM CHGder 1st derivatives, ID1Alg=3 FixD1E=F DoIter=F DoCFld=F I1PDM=0.
 GePol: Maximum number of non-zero 1st derivatives   =     210
 CoulSu:  requested number of processors reduced to:  29 ShMem   1 Linda.
 CoulSu:  requested number of processors reduced to:  30 ShMem   1 Linda.
 Leave Link  701 at Mon Feb 22 20:57:32 2021, MaxMem=   104857600 cpu:              16.9 elap:               0.6
 (Enter /sw/arch/RedHatEnterpriseServer7/EB_production/2019/software/Gaussian/g16.c01/l702.exe)
 L702 exits ... SP integral derivatives will be done elsewhere.
 Leave Link  702 at Mon Feb 22 20:57:32 2021, MaxMem=   104857600 cpu:               0.6 elap:               0.0
 (Enter /sw/arch/RedHatEnterpriseServer7/EB_production/2019/software/Gaussian/g16.c01/l703.exe)
 Integral derivatives from FoFJK, PRISM(SPDF).
 Compute integral first derivatives, UseDBF=F ICtDFT=           0.
 Calling FoFJK, ICntrl=      2527 FMM=F ISym2X=0 I1Cent= 0 IOpClX= 0 NMat=1 NMatS=1 NMatT=0.
 FoFJK:  IHMeth= 1 ICntrl=    2527 DoSepK=F KAlg= 0 I1Cent=           0 FoldK=F
 IRaf=         0 NMat=       1 IRICut=       1 DoRegI=T DoRafI=F ISym2E= 0 IDoP0=0 IntGTp=1.
 FoFCou: FMM=F IPFlag=           0 FMFlag=      100000 FMFlg1=         800
         NFxFlg=           0 DoJE=F BraDBF=F KetDBF=F FulRan=T
         wScrn=  0.000000 ICntrl=      2527 IOpCl=  0 I1Cent=           0 NGrid=           0
         NMat0=    1 NMatS0=      1 NMatT0=    0 NMatD0=    1 NMtDS0=    0 NMtDT0=    0
 Symmetry not used in FoFCou.
 Leave Link  703 at Mon Feb 22 20:57:33 2021, MaxMem=   104857600 cpu:              22.4 elap:               0.8
 (Enter /sw/arch/RedHatEnterpriseServer7/EB_production/2019/software/Gaussian/g16.c01/l716.exe)
 Dipole        =-1.32428693D+00 2.59149171D+00 4.10549570D-04
 ***** Axes restored to original set *****
 -------------------------------------------------------------------
 Center     Atomic                   Forces (Hartrees/Bohr)
 Number     Number              X              Y              Z
 -------------------------------------------------------------------
      1        7           0.004406437    0.000386188   -0.002912258
      2        6          -0.009132932   -0.024189521    0.007406032
      3        8           0.000130459    0.015278459   -0.000891852
      4        7           0.009856366    0.004713797   -0.006728109
      5        6          -0.002854560    0.002162495    0.001601130
      6        9           0.000779916   -0.001313603    0.001986031
      7        9           0.000372829    0.002157570   -0.000249551
      8        9          -0.001413498   -0.001635932   -0.001485661
      9        1          -0.001147480    0.001364983    0.000688066
     10        1          -0.002818504   -0.001076979    0.001862771
     11        1           0.001820967    0.002152542   -0.001276599
 -------------------------------------------------------------------
 Cartesian Forces:  Max     0.024189521 RMS     0.006054123
 Leave Link  716 at Mon Feb 22 20:57:33 2021, MaxMem=   104857600 cpu:               0.6 elap:               0.0
 (Enter /sw/arch/RedHatEnterpriseServer7/EB_production/2019/software/Gaussian/g16.c01/l103.exe)

 GradGradGradGradGradGradGradGradGradGradGradGradGradGradGradGradGradGrad
 Berny optimization.
 Using GEDIIS/GDIIS optimizer.
 FormGI is forming the generalized inverse of G from B-inverse, IUseBI=4.
 Internal  Forces:  Max     0.015306187 RMS     0.003517170
 Search for a local minimum.
 Step number   2 out of a maximum of   49
 All quantities printed in internal units (Hartrees-Bohrs-Radians)
 RMS Force = .35172D-02 SwitMx=.10000D-02 MixMth= 1
 Mixed Optimization -- RFO/linear search
 Update second derivatives using D2CorX and points    1    2
 DE= -1.16D-02 DEPred=-1.17D-02 R= 9.90D-01
 TightC=F SS=  1.41D+00  RLast= 2.43D-01 DXNew= 5.0454D-01 7.2756D-01
 Trust test= 9.90D-01 RLast= 2.43D-01 DXMaxT set to 5.05D-01
 ITU=  1  0
 Use linear search instead of GDIIS.
     Eigenvalues ---    0.01334   0.01719   0.02245   0.02354   0.02458
     Eigenvalues ---    0.02458   0.10703   0.11545   0.15743   0.16000
     Eigenvalues ---    0.16068   0.21868   0.24804   0.25000   0.25000
     Eigenvalues ---    0.25000   0.26259   0.40794   0.47353   0.50239
     Eigenvalues ---    0.50464   0.50931   0.53328   0.53435   0.55951
     Eigenvalues ---    0.57846   0.83897
 RFO step:  Lambda=-8.48783047D-04 EMin= 1.33380861D-02
 Quartic linear search produced a step of  0.08407.
 Iteration  1 RMS(Cart)=  0.01146440 RMS(Int)=  0.00006420
 Iteration  2 RMS(Cart)=  0.00007363 RMS(Int)=  0.00001149
 Iteration  3 RMS(Cart)=  0.00000000 RMS(Int)=  0.00001149
 ITry= 1 IFail=0 DXMaxC= 4.08D-02 DCOld= 1.00D+10 DXMaxT= 5.05D-01 DXLimC= 3.00D+00 Rises=F
 Variable       Old X    -DE/DX   Delta X   Delta X   Delta X     New X
                                 (Linear)    (Quad)   (Total)
    R1        2.57231  -0.00005   0.00304  -0.00171   0.00132   2.57363
    R2        1.91444   0.00130   0.00688  -0.00103   0.00585   1.92030
    R3        1.90783   0.00351   0.00634   0.00372   0.01006   1.91790
    R4        2.35957  -0.01531  -0.00063  -0.01980  -0.02043   2.33914
    R5        2.61514   0.01320   0.00408   0.02461   0.02870   2.64384
    R6        2.67040  -0.00384  -0.00222  -0.00885  -0.01107   2.65933
    R7        1.91794   0.00223   0.00705   0.00078   0.00783   1.92577
    R8        2.57321   0.00239  -0.00195   0.00619   0.00424   2.57745
    R9        2.56686   0.00180  -0.00212   0.00498   0.00286   2.56972
   R10        2.57178   0.00252  -0.00204   0.00650   0.00446   2.57624
    A1        2.15566   0.00146   0.00522   0.00719   0.01241   2.16807
    A2        2.05254  -0.00023  -0.00378   0.00034  -0.00344   2.04910
    A3        2.07498  -0.00122  -0.00144  -0.00753  -0.00897   2.06601
    A4        2.15650   0.00008   0.00734  -0.00345   0.00389   2.16039
    A5        2.00244  -0.00054  -0.00562   0.00059  -0.00503   1.99740
    A6        2.12425   0.00046  -0.00171   0.00286   0.00115   2.12539
    A7        2.14682  -0.00166  -0.00373  -0.00622  -0.00995   2.13687
    A8        2.11133   0.00289   0.00570   0.01505   0.02074   2.13208
    A9        2.02502  -0.00123  -0.00197  -0.00884  -0.01081   2.01421
   A10        1.98039  -0.00076   0.00356  -0.00542  -0.00189   1.97851
   A11        1.89364  -0.00173  -0.00016  -0.00713  -0.00731   1.88633
   A12        1.98020  -0.00065   0.00315  -0.00439  -0.00127   1.97893
   A13        1.87542   0.00131  -0.00092   0.00611   0.00516   1.88058
   A14        1.85333   0.00071  -0.00504   0.00518   0.00011   1.85344
   A15        1.87553   0.00140  -0.00090   0.00710   0.00618   1.88171
    D1        3.13893  -0.00000  -0.00006  -0.00013  -0.00019   3.13874
    D2       -0.00236  -0.00002   0.00001  -0.00096  -0.00094  -0.00330
    D3       -0.00030  -0.00001  -0.00007  -0.00021  -0.00028  -0.00058
    D4        3.14159  -0.00002   0.00000  -0.00104  -0.00104   3.14056
    D5        3.13511   0.00002   0.00002   0.00087   0.00087   3.13599
    D6       -0.00054   0.00007   0.00007   0.00316   0.00324   0.00270
    D7       -0.00618   0.00000   0.00009   0.00006   0.00013  -0.00605
    D8        3.14135   0.00005   0.00014   0.00235   0.00250  -3.13933
    D9       -1.06526   0.00011   0.00098   0.00479   0.00576  -1.05950
   D10        3.13499   0.00013   0.00005   0.00541   0.00544   3.14043
   D11        1.05204  -0.00004  -0.00066   0.00413   0.00347   1.05551
   D12        2.07066   0.00007   0.00096   0.00267   0.00364   2.07430
   D13       -0.01227   0.00010   0.00003   0.00329   0.00333  -0.00895
   D14       -2.09522  -0.00007  -0.00068   0.00202   0.00135  -2.09387
         Item               Value     Threshold  Converged?
 Maximum Force            0.015306     0.000450     NO 
 RMS     Force            0.003517     0.000300     NO 
 Maximum Displacement     0.040755     0.001800     NO 
 RMS     Displacement     0.011472     0.001200     NO 
 Predicted change in Energy=-4.804927D-04
 Lowest energy point so far.  Saving SCF results.
 GradGradGradGradGradGradGradGradGradGradGradGradGradGradGradGradGradGrad

 Leave Link  103 at Mon Feb 22 20:57:33 2021, MaxMem=   104857600 cpu:               1.4 elap:               0.1
 (Enter /sw/arch/RedHatEnterpriseServer7/EB_production/2019/software/Gaussian/g16.c01/l202.exe)
                          Input orientation:                          
 ---------------------------------------------------------------------
 Center     Atomic      Atomic             Coordinates (Angstroms)
 Number     Number       Type             X           Y           Z
 ---------------------------------------------------------------------
      1          7           0       -0.649430    2.481474    1.053987
      2          6           0        0.292546    1.673344    0.493272
      3          8           0        0.276821    0.438334    0.575123
      4          7           0        1.301428    2.353125   -0.197687
      5          6           0        2.362378    1.683711   -0.835377
      6          9           0        3.128973    0.947513    0.019401
      7          9           0        3.164890    2.617827   -1.412053
      8          9           0        1.951764    0.826168   -1.812398
      9          1           0       -0.641789    3.495792    0.993015
     10          1           0       -1.403477    2.034722    1.565713
     11          1           0        1.321155    3.369640   -0.267116
 ---------------------------------------------------------------------
                    Distance matrix (angstroms):
                    1          2          3          4          5
     1  N    0.000000
     2  C    1.361909   0.000000
     3  O    2.293833   1.237819   0.000000
     4  N    2.321424   1.399060   2.305098   0.000000
     5  C    3.643777   2.459597   2.808918   1.407259   0.000000
     6  F    4.207105   2.965924   2.950061   2.315771   1.363929
     7  F    4.544115   3.573887   4.127953   2.239920   1.359835
     8  F    4.209800   2.964258   2.942126   2.315562   1.363289
     9  H    1.016178   2.108090   3.219709   2.549422   3.956220
[...]
 ! D7    D(3,2,4,5)             -0.4171                                         !
 ! D8    D(3,2,4,11)          -179.8016                                         !
 ! D9    D(2,4,5,6)            -60.3923                                         !
 ! D10   D(2,4,5,7)           -179.8483                                         !
 ! D11   D(2,4,5,8)             60.6766                                         !
 ! D12   D(11,4,5,6)           119.0285                                         !
 ! D13   D(11,4,5,7)            -0.4276                                         !
 ! D14   D(11,4,5,8)          -119.9027                                         !
 --------------------------------------------------------------------------------
                          Input orientation:                          
 ---------------------------------------------------------------------
 Center     Atomic      Atomic             Coordinates (Angstroms)
 Number     Number       Type             X           Y           Z
 ---------------------------------------------------------------------
      1          7           0       -0.649557    2.479633    1.054183
      2          6           0        0.287448    1.665475    0.497218
      3          8           0        0.276335    0.435723    0.577860
      4          7           0        1.300750    2.354597   -0.199222
      5          6           0        2.360704    1.688324   -0.834571
      6          9           0        3.130163    0.946335    0.017860
      7          9           0        3.170649    2.618009   -1.412618
      8          9           0        1.955556    0.828328   -1.816658
      9          1           0       -0.635209    3.491758    0.987872
     10          1           0       -1.406404    2.043951    1.569341
     11          1           0        1.314826    3.369518   -0.265386
 ---------------------------------------------------------------------
                    Distance matrix (angstroms):
                    1          2          3          4          5
     1  N    0.000000
     2  C    1.360529   0.000000
     3  O    2.293846   1.232444   0.000000
     4  N    2.321713   1.409503   2.309840   0.000000
     5  C    3.640773   2.464259   2.812217   1.403955   0.000000
     6  F    4.208473   2.971191   2.952738   2.318853   1.367206
     7  F    4.549530   3.587150   4.135388   2.244602   1.361787
     8  F    4.213685   2.972780   2.950871   2.318268   1.366833
     9  H    1.014396   2.104126   3.215334   2.539737   3.943243
    10  H    1.013915   2.040055   2.530028   3.248537   4.482896
    11  H    2.528231   2.130923   3.224388   1.017172   2.060156
                    6          7          8          9         10
     6  F    0.000000
     7  F    2.200545   0.000000
     8  F    2.181532   2.200604   0.000000
     9  H    4.647379   4.583705   4.655245   0.000000
    10  H    4.918566   5.492816   4.923972   1.740400   0.000000
    11  H    3.040968   2.307593   3.045427   2.321257   3.539553
                   11
    11  H    0.000000
 Stoichiometry    C2H3F3N2O
 Framework group  C1[X(C2H3F3N2O)]
 Deg. of freedom    27
 Full point group                 C1      NOp   1
 Largest Abelian subgroup         C1      NOp   1
 Largest concise Abelian subgroup C1      NOp   1
                         Standard orientation:                         
 ---------------------------------------------------------------------
 Center     Atomic      Atomic             Coordinates (Angstroms)
 Number     Number       Type             X           Y           Z
 ---------------------------------------------------------------------
      1          7           0       -2.574894    0.686970    0.000676
      2          6           0       -1.442764   -0.067559   -0.001594
      3          8           0       -1.428601   -1.299921   -0.000433
      4          7           0       -0.253191    0.688482   -0.005793
      5          6           0        1.016495    0.089350   -0.000264
      6          9           0        1.246192   -0.696237    1.094882
      7          9           0        1.958226    1.073016   -0.002911
      8          9           0        1.250157   -0.706552   -1.086622
      9          1           0       -2.582207    1.701338    0.002579
     10          1           0       -3.464998    0.201448    0.003488
     11          1           0       -0.260962    1.705622   -0.003776
 ---------------------------------------------------------------------
 Rotational constants (GHZ):           3.8342989           1.4070425           1.2616571
 Standard basis: TZVP (5D, 7F)
 There are   178 symmetry adapted cartesian basis functions of A   symmetry.
 There are   170 symmetry adapted basis functions of A   symmetry.
   170 basis functions,   304 primitive gaussians,   178 cartesian basis functions
    32 alpha electrons       32 beta electrons
       nuclear repulsion energy       417.4091276496 Hartrees.
 NAtoms=   11 NActive=   11 NUniq=   11 SFac= 1.00D+00 NAtFMM=   60 NAOKFM=F Big=F
 Integral buffers will be    131072 words long.
 Raffenetti 2 integral format.
 Two-electron integral symmetry is turned on.
 Warning! Using old PCM defaults because the COSMOthermo output has been requested.
 These settings can be overridden by following keywords.
 ------------------------------------------------------------------------------
 Polarizable Continuum Model (PCM)
 =================================
 Model                : C-PCM.
 Atomic radii         : Klamt.
 XCosmo               : -1.000 (infinite dielectric limit)
 Polarization charges : Electronic and nuclear charges.
 Charge compensation  : Type 3 (Electronic density weighted correction).
 Solution method      : On-the-fly selection.
 Cavity type          : VdW (van der Waals Surface) (Alpha=1.000).
 Cavity algorithm     : GePol (No added spheres)
                        Default sphere list used, NSphG=   11.
                        Tesserae with average area of 0.200 Ang**2.
                        Smoothing algorithm: None.
                        Polarization charges: point-like.
                        Self-potential: constant (ISelfS= 1).
                        Self-field    : global E.n sum rule (ISelfD= 3).
 Solvent              : Water, Eps=  78.355300 Eps(inf)=   1.777849
 ------------------------------------------------------------------------------
 Spheres list:
 ISph  on   Nord     Re0    Alpha      Xe            Ye            Ze
    1   N      1    1.8300  1.000     -2.574894      0.686970      0.000676
    2   C      2    2.0000  1.000     -1.442764     -0.067559     -0.001594
    3   O      3    1.7200  1.000     -1.428601     -1.299921     -0.000433
    4   N      4    1.8300  1.000     -0.253191      0.688482     -0.005793
    5   C      5    2.0000  1.000      1.016495      0.089350     -0.000264
    6   F      6    1.7200  1.000      1.246192     -0.696237      1.094882
    7   F      7    1.7200  1.000      1.958226      1.073016     -0.002911
    8   F      8    1.7200  1.000      1.250157     -0.706552     -1.086622
    9   H      9    1.3000  1.000     -2.582207      1.701338      0.002579
   10   H     10    1.3000  1.000     -3.464998      0.201448      0.003488
   11   H     11    1.3000  1.000     -0.260962      1.705622     -0.003776
 ------------------------------------------------------------------------------
 One-electron integrals computed using PRISM.
 PrsmSu:  requested number of processors reduced to:  29 ShMem   1 Linda.
 NBasis=   170 RedAO= T EigKep=  1.18D-03  NBF=   170
 NBsUse=   170 1.00D-06 EigRej= -1.00D+00 NBFU=   170
 Initial guess from the checkpoint file:  "ARIKQVYYYDITGU-UHFFFAOYSA-N.chk"
 B after Tr=     0.000000   -0.000000    0.000000
         Rot=    1.000000    0.000000    0.000000    0.000000 Ang=   0.00 deg.
 Requested convergence on RMS density matrix=1.00D-08 within 128 cycles.
 Requested convergence on MAX density matrix=1.00D-06.
 Requested convergence on             energy=1.00D-06.
 No special actions if energy rises.
 Inv3:  Mode=1 IEnd=     2339067.
 Iteration    1 A*A^-1 deviation from unit magnitude is 3.11D-15 for    400.
 Iteration    1 A*A^-1 deviation from orthogonality  is 5.00D-15 for    121     25.
 Iteration    1 A^-1*A deviation from unit magnitude is 3.11D-15 for    400.
 Iteration    1 A^-1*A deviation from orthogonality  is 3.71D-15 for    121     25.
 Error on nuclear    polarization charges =  0.01735
 Error on electronic polarization charges = -0.03315
 SCF Done:  E(RB-P86) =  -562.560730432     A.U. after   11 cycles
            NFock= 11  Conv=0.23D-08     -V/T= 2.0037
 --------------------------------------------------------------------
 Variational C-PCM results
 =========================
 <psi(f)|   H    |psi(f)>                     (a.u.) =    -562.527292
 <psi(f)|H+V(f)/2|psi(f)>                     (a.u.) =    -562.560730
 Total free energy in solution:
 - with all non electrostatic terms           (a.u.) =    -562.551314
 --------------------------------------------------------------------
 (Polarized solute)-Solvent               (kcal/mol) =     -20.98
 --------------------------------------------------------------------
 Cavitation energy                        (kcal/mol) =      17.28
 Dispersion energy                        (kcal/mol) =     -12.39
 Repulsion energy                         (kcal/mol) =       1.02
 Total non electrostatic                  (kcal/mol) =       5.91
 --------------------------------------------------------------------
 Partition over spheres:
 Sphere  on Atom  Surface  Charge   GEl     GCav    GDR
    1      N1      14.21  -0.014   -0.92    1.72   -1.26
    2      C2      10.55  -0.010   -0.13    1.24   -0.67
    3      O3      18.64   0.266   -6.22    2.32   -1.47
    4      N4       6.74  -0.022   -0.63    0.82   -0.47
    5      C5       2.71  -0.023   -0.10    0.32   -0.03
    6      F6      20.11   0.072   -0.91    2.50   -1.63
    7      F7      20.68   0.040   -0.25    2.57   -1.78
    8      F8      20.11   0.072   -0.91    2.50   -1.63
    9      H9       7.88  -0.126   -4.21    1.11   -0.83
   10      H10      8.05  -0.118   -2.23    1.14   -0.88
   11      H11      7.45  -0.138   -4.47    1.05   -0.73
 --------------------------------------------------------------------
 - cavitation energy not included in the total energy.
 - dispersion energy not included in the total energy.
 - repulsion  energy not included in the total energy.
 After PCM corrections, the energy is  -562.560730432     a.u.
 --------------------------------------------------------------------
 Writing COSMO formatted file "ARIKQVYYYDITGU-UHFFFAOYSA-N.cosmo"
 Recomputed dielectric energy= -0.033480 old= -0.033438 diff=-4.20D-05

 **********************************************************************

            Population analysis using the SCF Density.

 **********************************************************************

 Orbital symmetries:
       Occupied  (A) (A) (A) (A) (A) (A) (A) (A) (A) (A) (A) (A)
                 (A) (A) (A) (A) (A) (A) (A) (A) (A) (A) (A) (A)
                 (A) (A) (A) (A) (A) (A) (A) (A)
       Virtual   (A) (A) (A) (A) (A) (A) (A) (A) (A) (A) (A) (A)
                 (A) (A) (A) (A) (A) (A) (A) (A) (A) (A) (A) (A)
                 (A) (A) (A) (A) (A) (A) (A) (A) (A) (A) (A) (A)
                 (A) (A) (A) (A) (A) (A) (A) (A) (A) (A) (A) (A)
                 (A) (A) (A) (A) (A) (A) (A) (A) (A) (A) (A) (A)
                 (A) (A) (A) (A) (A) (A) (A) (A) (A) (A) (A) (A)
                 (A) (A) (A) (A) (A) (A) (A) (A) (A) (A) (A) (A)
                 (A) (A) (A) (A) (A) (A) (A) (A) (A) (A) (A) (A)
                 (A) (A) (A) (A) (A) (A) (A) (A) (A) (A) (A) (A)
                 (A) (A) (A) (A) (A) (A) (A) (A) (A) (A) (A) (A)
                 (A) (A) (A) (A) (A) (A) (A) (A) (A) (A) (A) (A)
                 (A) (A) (A) (A) (A) (A)
 The electronic state is 1-A.
 Alpha  occ. eigenvalues --  -24.32763 -24.31955 -24.31943 -18.75264 -14.05480
 Alpha  occ. eigenvalues --  -14.02827 -10.18252 -10.04329  -1.22255  -1.14069
 Alpha  occ. eigenvalues --   -1.13284  -0.98333  -0.88131  -0.83610  -0.66275
 Alpha  occ. eigenvalues --   -0.59592  -0.56531  -0.54961  -0.52658  -0.50989
 Alpha  occ. eigenvalues --   -0.46812  -0.42328  -0.41916  -0.40740  -0.39905
 Alpha  occ. eigenvalues --   -0.39106  -0.37935  -0.37701  -0.36325  -0.26728
 Alpha  occ. eigenvalues --   -0.25241  -0.24941
 Alpha virt. eigenvalues --   -0.01662   0.01831   0.04385   0.06905   0.08782
 Alpha virt. eigenvalues --    0.10233   0.10696   0.10912   0.16151   0.17505
 Alpha virt. eigenvalues --    0.17999   0.19637   0.20719   0.22815   0.24868
 Alpha virt. eigenvalues --    0.25363   0.30288   0.32294   0.33007   0.34487
 Alpha virt. eigenvalues --    0.36485   0.39044   0.39257   0.42975   0.44207
 Alpha virt. eigenvalues --    0.46292   0.48278   0.49001   0.50049   0.51749
 Alpha virt. eigenvalues --    0.51908   0.53541   0.58141   0.60161   0.62533
 Alpha virt. eigenvalues --    0.66010   0.66960   0.70806   0.73430   0.73516
 Alpha virt. eigenvalues --    0.80355   0.81417   0.85685   0.87961   0.92426
 Alpha virt. eigenvalues --    1.03232   1.17649   1.19918   1.25245   1.25300
 Alpha virt. eigenvalues --    1.27276   1.27742   1.29037   1.36408   1.40651
 Alpha virt. eigenvalues --    1.42356   1.44190   1.47985   1.48768   1.54083
 Alpha virt. eigenvalues --    1.55008   1.63957   1.66667   1.67394   1.85656
 Alpha virt. eigenvalues --    1.86644   1.89406   1.89727   2.02078   2.04508
 Alpha virt. eigenvalues --    2.08161   2.11492   2.14532   2.14913   2.18392
 Alpha virt. eigenvalues --    2.21504   2.25851   2.28888   2.35156   2.41585
 Alpha virt. eigenvalues --    2.41994   2.47976   2.48632   2.49769   2.50114
 Alpha virt. eigenvalues --    2.52935   2.58316   2.63013   2.66396   2.71978
 Alpha virt. eigenvalues --    2.75693   2.79746   2.81811   2.89279   2.89298
 Alpha virt. eigenvalues --    2.91386   2.92188   2.92392   2.95997   2.97618
 Alpha virt. eigenvalues --    3.04368   3.05353   3.07517   3.09077   3.09427
 Alpha virt. eigenvalues --    3.11377   3.12903   3.14501   3.17400   3.17413
 Alpha virt. eigenvalues --    3.24172   3.24657   3.25707   3.28552   3.31615
 Alpha virt. eigenvalues --    3.36911   3.42588   3.48617   3.51004   3.54321
 Alpha virt. eigenvalues --    3.58465   3.73536   3.74665   3.78817   3.82241
 Alpha virt. eigenvalues --    3.90181   4.12251   4.16475   4.38713   4.50652
 Alpha virt. eigenvalues --   21.55758  21.74466  31.35867  31.42762  43.12151
 Alpha virt. eigenvalues --   56.28034  56.38855  56.52981
          Condensed to atoms (all electrons):
               1          2          3          4          5          6
     1  N    6.559295   0.387155  -0.113026  -0.140052   0.002315  -0.000352
     2  C    0.387155   4.478257   0.644333   0.263418  -0.012729  -0.003499
     3  O   -0.113026   0.644333   8.018412  -0.120780   0.015716  -0.004413
     4  N   -0.140052   0.263418  -0.120780   6.848891   0.341494  -0.081054
     5  C    0.002315  -0.012729   0.015716   0.341494   4.387764   0.302528
     6  F   -0.000352  -0.003499  -0.004413  -0.081054   0.302528   9.059229
     7  F   -0.000162   0.002951  -0.000175  -0.061335   0.293639  -0.059878
     8  F   -0.000338  -0.003839  -0.004425  -0.080460   0.302513  -0.071939
     9  H    0.339322  -0.012687   0.004299   0.009375  -0.000048   0.000025
    10  H    0.356704  -0.013250   0.001502   0.005349   0.000001   0.000007
    11  H    0.004906  -0.001031   0.003956   0.328803  -0.013908   0.001488
               7          8          9         10         11
     1  N   -0.000162  -0.000338   0.339322   0.356704   0.004906
     2  C    0.002951  -0.003839  -0.012687  -0.013250  -0.001031
     3  O   -0.000175  -0.004425   0.004299   0.001502   0.003956
     4  N   -0.061335  -0.080460   0.009375   0.005349   0.328803
     5  C    0.293639   0.302513  -0.000048   0.000001  -0.013908
     6  F   -0.059878  -0.071939   0.000025   0.000007   0.001488
     7  F    9.036133  -0.059802  -0.000030   0.000008  -0.003969
     8  F   -0.059802   9.058475   0.000024   0.000008   0.001530
     9  H   -0.000030   0.000024   0.376059  -0.015687  -0.001850
    10  H    0.000008   0.000008  -0.015687   0.367042   0.000128
    11  H   -0.003969   0.001530  -0.001850   0.000128   0.344879
 Mulliken charges:
               1
     1  N   -0.395767
     2  C    0.270923
     3  O   -0.445401
     4  N   -0.313650
     5  C    0.380715
     6  F   -0.142143
     7  F   -0.147382
     8  F   -0.141748
     9  H    0.301197
    10  H    0.298187
    11  H    0.335068
 Sum of Mulliken charges =  -0.00000
 Mulliken charges with hydrogens summed into heavy atoms:
               1
     1  N    0.203617
     2  C    0.270923
     3  O   -0.445401
     4  N    0.021418
     5  C    0.380715
     6  F   -0.142143
     7  F   -0.147382
     8  F   -0.141748
 Electronic spatial extent (au):  <R**2>=            913.3019
 Charge=              0.0000 electrons
 Dipole moment (field-independent basis, Debye):
    X=             -3.7652    Y=              6.9791    Z=              0.0069  Tot=              7.9300
 Quadrupole moment (field-independent basis, Debye-Ang):
   XX=            -35.0649   YY=            -42.5892   ZZ=            -46.6757
   XY=             -8.9687   XZ=             -0.0319   YZ=              0.0088
 Traceless Quadrupole moment (field-independent basis, Debye-Ang):
   XX=              6.3784   YY=             -1.1459   ZZ=             -5.2325
   XY=             -8.9687   XZ=             -0.0319   YZ=              0.0088
 Octapole moment (field-independent basis, Debye-Ang**2):
  XXX=            -32.9510  YYY=             23.3104  ZZZ=              0.0214  XYY=              1.5967
  XXY=             16.1723  XXZ=              0.1122  XZZ=              7.2298  YZZ=              0.0781
  YYZ=              0.0298  XYZ=             -0.0261
 Hexadecapole moment (field-independent basis, Debye-Ang**3):
 XXXX=           -513.1727 YYYY=           -187.1867 ZZZZ=           -109.9777 XXXY=            -42.4230
 XXXZ=             -0.3635 YYYX=            -34.0070 YYYZ=              0.0187 ZZZX=             -0.0457
 ZZZY=              0.0341 XXYY=           -140.7598 XXZZ=           -142.8659 YYZZ=            -54.4647
 XXYZ=              0.0793 YYXZ=             -0.0350 ZZXY=              3.3254
 N-N= 4.174091276496D+02 E-N=-2.165452179583D+03  KE= 5.605108744775D+02
 Unable to Open any file for archive entry.
 1\1\GINC-TCN1681\SP\RBP86\TZVP\C2H3F3N2O1\ELENAA\22-Feb-2021\0\\# BP86
 /TZVP SCRF=COSMORS geom=CHECKPOINT guess=CHECKPOINT\\COSMO-file for #A
 RIKQVYYYDITGU-UHFFFAOYSA-N\\0,1\N,0,-0.6495566178,2.4796330701,1.05418
 28509\C,0,0.2874478506,1.6654750739,0.4972183799\O,0,0.2763345338,0.43
 57226705,0.5778601206\N,0,1.3007499135,2.3545971754,-0.1992219235\C,0,
 2.3607035256,1.6883240147,-0.8345706469\F,0,3.1301630496,0.9463352266,
 0.0178598236\F,0,3.1706488332,2.6180086704,-1.4126183811\F,0,1.9555557
 305,0.8283279336,-1.8166578061\H,0,-0.6352092645,3.4917578112,0.987872
 0724\H,0,-1.4064035036,2.0439508343,1.5693410821\H,0,1.3148259491,3.36
 95175193,-0.265385572\\Version=ES64L-G16RevC.01\State=1-A\HF=-562.5607
 304\RMSD=2.298e-09\Dipole=-1.1924184,2.819046,0.6040008\Quadrupole=1.9
 87161,-0.118935,-1.868226,-5.9227421,-3.452389,3.5933653\PG=C01 [X(C2H
 3F3N2O1)]\\@
 The archive entry for this job was punched.


 NOT WHAT WE DID SHALL BE THE TEST
 WHEN ACT AND WILL ARE DONE,
 BUT WHAT OUR LORD INFERS WE WOULD-
 HAD WE DIVINER BEEN.
           EMILY DICKINSON  POEMS NO. CLXXV
 Job cpu time:       0 days  0 hours  3 minutes  6.7 seconds.
 Elapsed time:       0 days  0 hours  0 minutes  6.2 seconds.
 File lengths (MBytes):  RWF=     28 Int=      0 D2E=      0 Chk=      6 Scr=      1
 Normal termination of Gaussian 16 at Mon Feb 22 20:58:08 2021.
