 Entering Gaussian System, Link 0=g16
 Input=AZFQCTBZOPUVOW-UHFFFAOYSA-N.gjf
 Output=AZFQCTBZOPUVOW-UHFFFAOYSA-N.log
 Initial command:
 /sw/arch/RedHatEnterpriseServer7/EB_production/2019/software/Gaussian/g16.c01/l1.exe "/scratch-local/elenaa.9716245/Gau-13933.inp" -scrdir="/scratch-local/elenaa.9716245/"
 Entering Link 1 = /sw/arch/RedHatEnterpriseServer7/EB_production/2019/software/Gaussian/g16.c01/l1.exe PID=     13934.
  
 Copyright (c) 1988-2019, Gaussian, Inc.  All Rights Reserved.
  
 This is part of the Gaussian(R) 16 program.  It is based on
 the Gaussian(R) 09 system (copyright 2009, Gaussian, Inc.),
 the Gaussian(R) 03 system (copyright 2003, Gaussian, Inc.),
 the Gaussian(R) 98 system (copyright 1998, Gaussian, Inc.),
 the Gaussian(R) 94 system (copyright 1995, Gaussian, Inc.),
 the Gaussian 92(TM) system (copyright 1992, Gaussian, Inc.),
 the Gaussian 90(TM) system (copyright 1990, Gaussian, Inc.),
 the Gaussian 88(TM) system (copyright 1988, Gaussian, Inc.),
 the Gaussian 86(TM) system (copyright 1986, Carnegie Mellon
 University), and the Gaussian 82(TM) system (copyright 1983,
 Carnegie Mellon University). Gaussian is a federally registered
 trademark of Gaussian, Inc.
  
 This software contains proprietary and confidential information,
 including trade secrets, belonging to Gaussian, Inc.
  
 This software is provided under written license and may be
 used, copied, transmitted, or stored only in accord with that
 written license.
  
 The following legend is applicable only to US Government
 contracts under FAR:
  
                    RESTRICTED RIGHTS LEGEND
  
 Use, reproduction and disclosure by the US Government is
 subject to restrictions as set forth in subparagraphs (a)
 and (c) of the Commercial Computer Software - Restricted
 Rights clause in FAR 52.227-19.
  
 Gaussian, Inc.
 340 Quinnipiac St., Bldg. 40, Wallingford CT 06492
  
  
 ---------------------------------------------------------------
 Warning -- This program may not be used in any manner that
 competes with the business of Gaussian, Inc. or will provide
 assistance to any competitor of Gaussian, Inc.  The licensee
 of this program is prohibited from giving any competitor of
 Gaussian, Inc. access to this program.  By using this program,
 the user acknowledges that Gaussian, Inc. is engaged in the
 business of creating and licensing software in the field of
 computational chemistry and represents and warrants to the
 licensee that it is not a competitor of Gaussian, Inc. and that
 it will not use this program in any manner prohibited above.
 ---------------------------------------------------------------
  

 Cite this work as:
 Gaussian 16, Revision C.01,
 M. J. Frisch, G. W. Trucks, H. B. Schlegel, G. E. Scuseria, 
 M. A. Robb, J. R. Cheeseman, G. Scalmani, V. Barone, 
 G. A. Petersson, H. Nakatsuji, X. Li, M. Caricato, A. V. Marenich, 
 J. Bloino, B. G. Janesko, R. Gomperts, B. Mennucci, H. P. Hratchian, 
 J. V. Ortiz, A. F. Izmaylov, J. L. Sonnenberg, D. Williams-Young, 
 F. Ding, F. Lipparini, F. Egidi, J. Goings, B. Peng, A. Petrone, 
 T. Henderson, D. Ranasinghe, V. G. Zakrzewski, J. Gao, N. Rega, 
 G. Zheng, W. Liang, M. Hada, M. Ehara, K. Toyota, R. Fukuda, 
 J. Hasegawa, M. Ishida, T. Nakajima, Y. Honda, O. Kitao, H. Nakai, 
 T. Vreven, K. Throssell, J. A. Montgomery, Jr., J. E. Peralta, 
 F. Ogliaro, M. J. Bearpark, J. J. Heyd, E. N. Brothers, K. N. Kudin, 
 V. N. Staroverov, T. A. Keith, R. Kobayashi, J. Normand, 
 K. Raghavachari, A. P. Rendell, J. C. Burant, S. S. Iyengar, 
 J. Tomasi, M. Cossi, J. M. Millam, M. Klene, C. Adamo, R. Cammi, 
 J. W. Ochterski, R. L. Martin, K. Morokuma, O. Farkas, 
 J. B. Foresman, and D. J. Fox, Gaussian, Inc., Wallingford CT, 2019.
 
 ******************************************
 Gaussian 16:  ES64L-G16RevC.01  3-Jul-2019
                23-Feb-2021 
 ******************************************
 %NProcShared=32
 Will use up to   32 processors via shared memory.
 -------------------------
 #P BP86/TZVP SCRF=COSMORS
 -------------------------
 1/38=1,172=1/1;
 2/12=2,17=6,18=5,40=1/2;
 3/5=19,7=101,11=2,25=1,30=1,70=12101,74=404/1,2,3;
 4//1;
 5/5=2,38=5/2;
 6/7=2,8=2,9=2,10=2,28=1/1;
 99/5=1,9=1/99;
 Leave Link    1 at Tue Feb 23 02:35:29 2021, MaxMem=           0 cpu:               1.9 elap:               0.1
 (Enter /sw/arch/RedHatEnterpriseServer7/EB_production/2019/software/Gaussian/g16.c01/l101.exe)
 -------------------------------------
 Particle #AZFQCTBZOPUVOW-UHFFFAOYSA-N
 -------------------------------------
 Symbolic Z-matrix:
 Charge =  1 Multiplicity = 1
 C                     1.13959  -0.33807   1.66 
 P                     1.55934  -1.4376    0.26752 
 C                     2.38578  -2.93511   0.88788 
 C                     3.37817  -2.82002   1.87786 
 C                     4.04748  -3.96575   2.31382 
 C                     3.73457  -5.21578   1.7642 
 C                     2.7497   -5.32551   0.77605 
 C                     2.07028  -4.18682   0.33318 
 C                     2.66962  -0.57484  -0.88696 
 C                     2.40871   0.76186  -1.23916 
 C                     3.23828   1.40163  -2.16295 
 C                     4.31723   0.71451  -2.73407 
 C                     4.57155  -0.61618  -2.38325 
 C                     3.74952  -1.26753  -1.4591 
 C                     0.03392  -1.91548  -0.60221 
 C                    -1.03887  -2.443     0.13968 
 C                    -2.20199  -2.83813  -0.52416 
 C                    -2.29456  -2.71173  -1.91673 
 C                    -1.22321  -2.19118  -2.65088 
 C                    -0.05302  -1.79126  -1.99783 
 H                     0.55726   0.51053   1.28013 
 H                     0.54176  -0.90007   2.38832 
 H                     2.06294   0.02362   2.12867 
 H                     3.63591  -1.8498    2.30612 
 H                     4.81566  -3.88092   3.08424 
 H                     4.26147  -6.10761   2.10865 
 H                     2.5058   -6.2991    0.34773 
 H                     1.30018  -4.27412  -0.43503 
 H                     1.56785   1.3053   -0.80486 
 H                     3.04065   2.43944  -2.43622 
 H                     4.96218   1.21969  -3.45548 
 H                     5.4131   -1.15085  -2.82681 
 H                     3.951    -2.30405  -1.18292 
 H                    -0.97075  -2.55594   1.22353 
 H                    -3.03684  -3.24665   0.04764 
 H                    -3.20609  -3.02263  -2.43059 
 H                    -1.29466  -2.09477  -3.73551 
 H                     0.78271  -1.38566  -2.5705 
 
 ITRead=  0  0  0  0  0  0  0  0  0  0  0  0  0  0  0  0  0  0  0  0
 ITRead=  0  0  0  0  0  0  0  0  0  0  0  0  0  0  0  0  0  0
 MicOpt= -1 -1 -1 -1 -1 -1 -1 -1 -1 -1 -1 -1 -1 -1 -1 -1 -1 -1 -1 -1
 MicOpt= -1 -1 -1 -1 -1 -1 -1 -1 -1 -1 -1 -1 -1 -1 -1 -1 -1 -1
 NAtoms=     38 NQM=       38 NQMF=       0 NMMI=      0 NMMIF=      0
                NMic=       0 NMicF=      0.
                    Isotopes and Nuclear Properties:
 (Nuclear quadrupole moments (NQMom) in fm**2, nuclear magnetic moments (NMagM)
  in nuclear magnetons)

  Atom         1           2           3           4           5           6           7           8           9          10
 IAtWgt=          12          31          12          12          12          12          12          12          12          12
 AtmWgt=  12.0000000  30.9737634  12.0000000  12.0000000  12.0000000  12.0000000  12.0000000  12.0000000  12.0000000  12.0000000
 NucSpn=           0           1           0           0           0           0           0           0           0           0
 AtZEff=  -0.0000000  -0.0000000  -0.0000000  -0.0000000  -0.0000000  -0.0000000  -0.0000000  -0.0000000  -0.0000000  -0.0000000
 NQMom=    0.0000000   0.0000000   0.0000000   0.0000000   0.0000000   0.0000000   0.0000000   0.0000000   0.0000000   0.0000000
 NMagM=    0.0000000   1.1316000   0.0000000   0.0000000   0.0000000   0.0000000   0.0000000   0.0000000   0.0000000   0.0000000
 AtZNuc=   6.0000000  15.0000000   6.0000000   6.0000000   6.0000000   6.0000000   6.0000000   6.0000000   6.0000000   6.0000000

  Atom        11          12          13          14          15          16          17          18          19          20
 IAtWgt=          12          12          12          12          12          12          12          12          12          12
 AtmWgt=  12.0000000  12.0000000  12.0000000  12.0000000  12.0000000  12.0000000  12.0000000  12.0000000  12.0000000  12.0000000
 NucSpn=           0           0           0           0           0           0           0           0           0           0
 AtZEff=  -0.0000000  -0.0000000  -0.0000000  -0.0000000  -0.0000000  -0.0000000  -0.0000000  -0.0000000  -0.0000000  -0.0000000
 NQMom=    0.0000000   0.0000000   0.0000000   0.0000000   0.0000000   0.0000000   0.0000000   0.0000000   0.0000000   0.0000000
 NMagM=    0.0000000   0.0000000   0.0000000   0.0000000   0.0000000   0.0000000   0.0000000   0.0000000   0.0000000   0.0000000
 AtZNuc=   6.0000000   6.0000000   6.0000000   6.0000000   6.0000000   6.0000000   6.0000000   6.0000000   6.0000000   6.0000000

  Atom        21          22          23          24          25          26          27          28          29          30
 IAtWgt=           1           1           1           1           1           1           1           1           1           1
 AtmWgt=   1.0078250   1.0078250   1.0078250   1.0078250   1.0078250   1.0078250   1.0078250   1.0078250   1.0078250   1.0078250
 NucSpn=           1           1           1           1           1           1           1           1           1           1
 AtZEff=  -0.0000000  -0.0000000  -0.0000000  -0.0000000  -0.0000000  -0.0000000  -0.0000000  -0.0000000  -0.0000000  -0.0000000
 NQMom=    0.0000000   0.0000000   0.0000000   0.0000000   0.0000000   0.0000000   0.0000000   0.0000000   0.0000000   0.0000000
 NMagM=    2.7928460   2.7928460   2.7928460   2.7928460   2.7928460   2.7928460   2.7928460   2.7928460   2.7928460   2.7928460
 AtZNuc=   1.0000000   1.0000000   1.0000000   1.0000000   1.0000000   1.0000000   1.0000000   1.0000000   1.0000000   1.0000000

  Atom        31          32          33          34          35          36          37          38
 IAtWgt=           1           1           1           1           1           1           1           1
 AtmWgt=   1.0078250   1.0078250   1.0078250   1.0078250   1.0078250   1.0078250   1.0078250   1.0078250
 NucSpn=           1           1           1           1           1           1           1           1
 AtZEff=  -0.0000000  -0.0000000  -0.0000000  -0.0000000  -0.0000000  -0.0000000  -0.0000000  -0.0000000
 NQMom=    0.0000000   0.0000000   0.0000000   0.0000000   0.0000000   0.0000000   0.0000000   0.0000000
 NMagM=    2.7928460   2.7928460   2.7928460   2.7928460   2.7928460   2.7928460   2.7928460   2.7928460
 AtZNuc=   1.0000000   1.0000000   1.0000000   1.0000000   1.0000000   1.0000000   1.0000000   1.0000000
 Leave Link  101 at Tue Feb 23 02:35:30 2021, MaxMem=   104857600 cpu:               2.7 elap:               0.1
 (Enter /sw/arch/RedHatEnterpriseServer7/EB_production/2019/software/Gaussian/g16.c01/l202.exe)
                          Input orientation:                          
 ---------------------------------------------------------------------
 Center     Atomic      Atomic             Coordinates (Angstroms)
 Number     Number       Type             X           Y           Z
 ---------------------------------------------------------------------
      1          6           0        1.139587   -0.338069    1.659997
      2         15           0        1.559337   -1.437602    0.267523
      3          6           0        2.385775   -2.935109    0.887880
      4          6           0        3.378168   -2.820015    1.877863
      5          6           0        4.047479   -3.965746    2.313817
      6          6           0        3.734570   -5.215781    1.764203
      7          6           0        2.749703   -5.325510    0.776045
      8          6           0        2.070284   -4.186824    0.333183
      9          6           0        2.669622   -0.574838   -0.886957
     10          6           0        2.408707    0.761857   -1.239155
     11          6           0        3.238284    1.401629   -2.162948
     12          6           0        4.317229    0.714511   -2.734071
     13          6           0        4.571554   -0.616180   -2.383248
     14          6           0        3.749522   -1.267531   -1.459104
     15          6           0        0.033922   -1.915483   -0.602209
     16          6           0       -1.038875   -2.443004    0.139675
     17          6           0       -2.201989   -2.838132   -0.524155
     18          6           0       -2.294561   -2.711726   -1.916732
     19          6           0       -1.223214   -2.191178   -2.650879
     20          6           0       -0.053020   -1.791263   -1.997833
     21          1           0        0.557262    0.510528    1.280134
     22          1           0        0.541756   -0.900074    2.388317
     23          1           0        2.062942    0.023619    2.128672
     24          1           0        3.635909   -1.849799    2.306123
     25          1           0        4.815658   -3.880920    3.084244
     26          1           0        4.261469   -6.107609    2.108648
     27          1           0        2.505801   -6.299103    0.347729
     28          1           0        1.300183   -4.274121   -0.435028
     29          1           0        1.567852    1.305301   -0.804857
     30          1           0        3.040652    2.439440   -2.436224
     31          1           0        4.962182    1.219691   -3.455479
     32          1           0        5.413098   -1.150854   -2.826814
     33          1           0        3.950999   -2.304045   -1.182918
     34          1           0       -0.970752   -2.555941    1.223526
     35          1           0       -3.036841   -3.246646    0.047643
     36          1           0       -3.206087   -3.022631   -2.430586
     37          1           0       -1.294663   -2.094770   -3.735514
     38          1           0        0.782705   -1.385659   -2.570498
 ---------------------------------------------------------------------
                    Distance matrix (angstroms):
                    1          2          3          4          5
     1  C    0.000000
     2  P    1.823224   0.000000
     3  C    2.982242   1.819442   0.000000
     4  C    3.349443   2.795068   1.406470   0.000000
     5  C    4.695035   4.095080   2.420076   1.396686   0.000000
     6  C    5.526018   4.609374   2.790816   2.424796   1.400919
     7  C    5.314924   4.097730   2.420530   2.808287   2.428564
     8  C    4.176068   2.797070   1.404996   2.442287   2.807327
     9  C    2.980611   1.819318   2.966731   3.631403   4.862273
    10  C    3.350460   2.798058   4.265250   4.846180   6.136727
    11  C    4.695315   4.097229   5.370439   5.845511   7.035974
    12  C    5.523872   4.609460   5.492610   5.885970   6.889031
    13  C    5.310704   4.095702   4.566765   4.943493   5.792812
    14  C    4.171864   2.794114   3.185743   3.699116   4.648018
    15  C    2.971247   1.819806   2.964998   4.260624   5.368000
    16  C    3.389370   2.788886   3.539803   4.761691   5.737302
    17  C    4.710304   4.090943   4.801128   6.075210   6.955677
    18  C    5.497328   4.609435   5.460888   6.825726   7.726033
    19  C    5.253617   4.102138   5.108919   6.486729   7.455032
    20  C    4.112640   2.802964   3.947587   5.277537   6.335045
    21  H    1.097048   2.413451   3.920426   4.405373   5.769501
    22  H    1.097133   2.412918   3.129390   3.462942   4.657681
    23  H    1.096840   2.419227   3.224571   3.143084   4.459563
    24  H    2.989052   2.939039   2.179942   1.091401   2.155616
    25  H    5.300356   4.950490   3.409238   2.155749   1.091262
    26  H    6.575335   5.700897   3.882429   3.412002   2.162282
    27  H    6.254799   4.953425   3.409197   3.899537   3.418600
    28  H    4.461774   2.933697   2.172912   3.432479   3.898574
    29  H    2.993256   2.945096   4.638473   5.243326   6.607467
    30  H    5.301663   4.953382   6.353291   6.810810   8.037599
    31  H    6.573199   5.700991   6.539496   6.875526   7.810904
    32  H    6.249399   4.950618   5.113433   5.390828   6.017858
    33  H    4.455476   2.928233   2.671399   3.156381   3.872688
    34  H    3.092409   2.926769   3.394510   4.405791   5.325310
    35  H    5.338732   4.944273   5.496164   6.684614   7.472633
    36  H    6.544053   5.700998   6.502984   7.871226   8.718546
    37  H    6.174392   4.959989   5.968883   7.339709   8.284530
    38  H    4.372859   2.942825   4.114731   5.346188   6.416551
                    6          7          8          9         10
     6  C    0.000000
     7  C    1.399450   0.000000
     8  C    2.424133   1.397978   0.000000
     9  C    5.449873   5.033972   3.859325   0.000000
    10  C    6.819841   6.421320   5.203482   1.406724   0.000000
    11  C    7.710962   7.357363   6.231027   2.420320   1.396746
    12  C    7.466078   7.159602   6.203216   2.790853   2.424762
    13  C    6.249658   5.956346   5.136618   2.420318   2.808174
    14  C    5.096922   4.739485   3.815024   1.404763   2.442249
    15  C    5.494240   4.572016   3.190724   2.970745   3.635031
    16  C    5.754404   4.802825   3.570045   4.277495   4.904909
    17  C    6.792093   5.691821   4.561394   5.383932   5.893188
    18  C    7.494664   6.287091   5.127368   5.501803   5.886053
    19  C    7.295258   6.111621   4.871792   4.569261   4.889195
    20  C    6.342403   5.295334   3.959895   3.182219   3.626860
    21  H    6.566599   6.254618   5.025044   3.215022   3.136532
    22  H    5.404526   5.201820   4.166857   3.919313   4.405233
    23  H    5.511669   5.560074   4.577299   3.133725   3.465084
    24  H    3.410754   3.899624   3.435893   3.571414   4.571189
    25  H    2.166359   3.418010   3.898588   5.595184   6.785320
    26  H    1.091614   2.161700   3.412182   6.489929   7.863210
    27  H    2.165608   1.091250   2.156759   5.858199   7.237733
    28  H    3.413148   2.161764   1.091249   3.970428   5.218862
    29  H    7.336160   6.918358   5.631253   2.180725   1.091322
    30  H    8.759425   8.408197   7.246972   3.409364   2.155600
    31  H    8.376599   8.101883   7.207457   3.882457   3.412029
    32  H    6.357557   6.123889   5.511542   3.409032   3.899422
    33  H    4.148562   3.796037   3.062761   2.172482   3.432431
    34  H    5.432047   4.659671   3.563761   4.650939   5.337914
    35  H    7.257829   6.191634   5.200788   6.369910   6.883163
    36  H    8.401124   7.145430   6.069090   6.549690   6.875156
    37  H    8.079652   6.866494   5.679248   5.112732   5.301611
    38  H    6.494072   5.530900   4.235062   2.655597   3.004693
                   11         12         13         14         15
    11  C    0.000000
    12  C    1.400869   0.000000
    13  C    2.428517   1.399463   0.000000
    14  C    2.807343   2.424113   1.397869   0.000000
    15  C    4.868991   5.459709   5.044838   3.867789   0.000000
    16  C    6.194947   6.849538   6.417113   5.183298   1.406970
    17  C    7.089273   7.746303   7.367101   6.225865   2.420056
    18  C    6.898745   7.491523   7.193920   6.231056   2.789947
    19  C    5.749026   6.256713   6.010955   5.196302   2.419390
    20  C    4.588519   5.091171   4.787071   3.876061   1.403836
    21  H    4.453847   5.503890   5.550169   4.566776   3.114904
    22  H    5.769152   6.565054   6.252016   5.022692   3.198780
    23  H    4.658148   5.404203   5.201913   4.169383   3.915961
    24  H    5.540982   5.695914   4.938365   3.811677   4.630013
    25  H    7.610943   7.430963   6.372722   5.348688   6.349636
    26  H    8.699546   8.366383   7.101343   6.034675   6.541775
    27  H    8.132730   7.872074   6.634846   5.488916   5.121396
    28  H    6.241481   6.266946   5.279958   4.010932   2.682264
    29  H    2.155002   3.410275   3.899440   3.436159   3.573158
    30  H    1.091233   2.166504   3.418081   3.898576   5.600838
    31  H    2.162305   1.091605   2.161641   3.412086   6.500632
    32  H    3.418436   2.165437   1.091249   2.156787   5.871036
    33  H    3.898774   3.413485   2.162121   1.091436   3.978906
    34  H    6.696757   7.370290   6.891201   5.580098   2.180107
    35  H    8.116056   8.804036   8.409296   7.227856   3.409382
    36  H    7.821485   8.405868   8.141557   7.239106   3.881546
    37  H    5.936782   6.355177   6.198980   5.595549   3.408061
    38  H    3.736969   4.114648   3.870728   3.170355   2.171532
                   16         17         18         19         20
    16  C    0.000000
    17  C    1.396292   0.000000
    18  C    2.424411   1.401363   0.000000
    19  C    2.807951   2.428890   1.399188   0.000000
    20  C    2.442461   2.808154   2.424528   1.398483   0.000000
    21  H    3.545652   4.699197   5.360575   5.091382   4.051636
    22  H    3.152050   4.445976   5.464451   5.493229   4.515118
    23  H    4.434141   5.780722   6.544863   6.208724   4.979873
    24  H    5.186424   6.562646   7.331159   6.949783   5.668832
    25  H    6.709221   7.959605   8.771088   8.497931   7.341539
    26  H    6.737940   7.706972   8.409354   8.250653   7.355871
    27  H    5.241900   5.907774   6.406289   6.306524   5.689451
    28  H    3.025635   3.786188   4.190311   3.951731   3.230805
    29  H    4.662291   5.608791   5.682518   4.839753   3.693119
    30  H    6.864114   7.680759   7.434304   6.298353   5.259453
    31  H    7.896401   8.739790   8.395481   7.109186   6.028501
    32  H    7.217871   8.132570   7.916601   6.719662   5.565589
    33  H    5.164049   6.211158   6.301723   5.379603   4.118155
    34  H    1.091846   2.156378   3.411445   3.899718   3.435712
    35  H    2.155500   1.091244   2.167000   3.418373   3.899397
    36  H    3.411600   2.162575   1.091599   2.161395   3.412532
    37  H    3.899203   3.418867   2.165271   1.091253   2.157158
    38  H    3.432371   3.899435   3.414005   2.163107   1.091282
                   21         22         23         24         25
    21  H    0.000000
    22  H    1.793909   0.000000
    23  H    1.795597   1.798508   0.000000
    24  H    4.012713   3.237671   2.452633   0.000000
    25  H    6.377583   5.256995   4.871959   2.474416   0.000000
    26  H    7.629372   6.405693   6.513515   4.308047   2.493403
    27  H    7.144037   6.096801   6.583669   4.990867   4.321060
    28  H    5.136787   4.464379   5.062107   4.341297   4.989834
    29  H    2.449519   4.014089   3.239354   4.889756   7.250534
    30  H    4.868187   6.377541   5.256461   6.421975   8.577480
    31  H    6.506325   7.627812   6.404602   6.661593   8.294919
    32  H    6.573154   7.140760   6.095882   5.476675   6.538410
    33  H    5.050336   5.133010   4.466476   3.532567   4.630642
    34  H    3.426553   2.527116   4.083714   4.784556   6.220963
    35  H    5.343498   4.877654   6.405709   7.181748   8.443044
    36  H    6.357315   6.463235   7.604547   8.403860   9.772328
    37  H    5.947599   6.503925   7.081650   7.802046   9.329279
    38  H    4.298106   4.988356   5.070234   5.669006   7.380186
                   26         27         28         29         30
    26  H    0.000000
    27  H    2.493968   0.000000
    28  H    4.312909   2.483299   0.000000
    29  H    8.408051   7.748236   5.598068   0.000000
    30  H    9.756962   9.186871   7.218443   2.473210   0.000000
    31  H    9.227125   8.776700   7.260532   4.307505   2.493781
    32  H    7.089038   6.710780   5.691354   4.990684   4.321027
    33  H    5.039633   4.515746   3.386350   4.341624   4.990006
    34  H    6.385446   5.183117   3.295465   5.046587   7.378276
    35  H    8.105441   6.334700   4.483130   6.530710   8.685453
    36  H    9.267477   7.147025   5.084776   6.645636   8.297952
    37  H    9.007092   6.985185   4.730328   5.323836   6.406416
    38  H    7.502867   5.968839   3.629219   3.312885   4.443843
                   31         32         33         34         35
    31  H    0.000000
    32  H    2.493598   0.000000
    33  H    4.313205   2.483944   0.000000
    34  H    8.446786   7.689803   5.484347   0.000000
    35  H    9.808384   9.168223   7.157701   2.475580   0.000000
    36  H    9.261119   8.828980   7.300474   4.308951   2.494082
    37  H    7.086055   6.834528   5.837509   4.990959   4.321375
    38  H    5.003905   4.643422   3.578673   4.340367   4.990678
                   36         37         38
    36  H    0.000000
    37  H    2.493452   0.000000
    38  H    4.313898   2.485067   0.000000
 Stoichiometry    C19H18P(1+)
 Framework group  C1[X(C19H18P)]
 Deg. of freedom   108
 Full point group                 C1      NOp   1
 Largest Abelian subgroup         C1      NOp   1
 Largest concise Abelian subgroup C1      NOp   1
                         Standard orientation:                         
 ---------------------------------------------------------------------
 Center     Atomic      Atomic             Coordinates (Angstroms)
 Number     Number       Type             X           Y           Z
 ---------------------------------------------------------------------
      1          6           0        0.004852    0.014716    2.650399
      2         15           0        0.000701    0.000589    0.827234
      3          6           0       -1.599289   -0.613285    0.216038
      4          6           0       -2.188914   -1.736644    0.823134
      5          6           0       -3.390932   -2.237004    0.317639
      6          6           0       -3.998310   -1.626501   -0.787328
      7          6           0       -3.406103   -0.511707   -1.391467
      8          6           0       -2.204632    0.000740   -0.893263
      9          6           0        1.330530   -1.079821    0.215526
     10          6           0        2.604506   -1.023622    0.809411
     11          6           0        3.632750   -1.821551    0.302535
     12          6           0        3.395005   -2.666314   -0.789384
     13          6           0        2.126936   -2.717017   -1.379237
     14          6           0        1.089044   -1.924345   -0.880751
     15          6           0        0.264180    1.692942    0.212241
     16          6           0       -0.548614    2.731950    0.701516
     17          6           0       -0.371167    4.028108    0.213544
     18          6           0        0.606314    4.286746   -0.756743
     19          6           0        1.408923    3.249368   -1.243970
     20          6           0        1.241548    1.946923   -0.762952
     21          1           0        0.935925    0.477432    3.000417
     22          1           0       -0.853810    0.599716    3.002788
     23          1           0       -0.062146   -1.015069    3.022035
     24          1           0       -1.719413   -2.225194    1.678729
     25          1           0       -3.853234   -3.106340    0.788154
     26          1           0       -4.937498   -2.022434   -1.178208
     27          1           0       -3.878995   -0.035994   -2.252221
     28          1           0       -1.745528    0.872096   -1.363141
     29          1           0        2.802737   -0.365250    1.656898
     30          1           0        4.621472   -1.782752    0.762659
     31          1           0        4.202472   -3.287656   -1.181215
     32          1           0        1.941290   -3.376398   -2.228693
     33          1           0        0.099279   -1.967526   -1.338719
     34          1           0       -1.320464    2.537153    1.448798
     35          1           0       -0.998654    4.837060    0.591264
     36          1           0        0.740404    5.301888   -1.135021
     37          1           0        2.168626    3.450555   -2.001075
     38          1           0        1.867270    1.137777   -1.143284
 ---------------------------------------------------------------------
 Rotational constants (GHZ):           0.3242987           0.3228641           0.2009064
 Leave Link  202 at Tue Feb 23 02:35:30 2021, MaxMem=   104857600 cpu:               0.3 elap:               0.0
 (Enter /sw/arch/RedHatEnterpriseServer7/EB_production/2019/software/Gaussian/g16.c01/l301.exe)
 Standard basis: TZVP (5D, 7F)
 Ernie: Thresh=  0.10000D-02 Tol=  0.10000D-05 Strict=F.
 There are   511 symmetry adapted cartesian basis functions of A   symmetry.
 There are   491 symmetry adapted basis functions of A   symmetry.
   491 basis functions,   856 primitive gaussians,   511 cartesian basis functions
    73 alpha electrons       73 beta electrons
       nuclear repulsion energy      1580.8027781319 Hartrees.
 IExCor=  404 DFT=T Ex=B Corr=P86 ExCW=0 ScaHFX=  0.000000
 ScaDFX=  1.000000  1.000000  1.000000  1.000000 ScalE2=  1.000000  1.000000
 IRadAn=      5 IRanWt=     -1 IRanGd=            0 ICorTp=0 IEmpDi=  4
 NAtoms=   38 NActive=   38 NUniq=   38 SFac= 1.00D+00 NAtFMM=   60 NAOKFM=F Big=F
 Integral buffers will be    131072 words long.
 Raffenetti 2 integral format.
 Two-electron integral symmetry is turned on.
 Warning! Using old PCM defaults because the COSMOthermo output has been requested.
 These settings can be overridden by following keywords.
 ------------------------------------------------------------------------------
 Polarizable Continuum Model (PCM)
 =================================
 Model                : C-PCM.
 Atomic radii         : Klamt.
 XCosmo               : -1.000 (infinite dielectric limit)
 Polarization charges : Electronic and nuclear charges.
 Charge compensation  : Type 3 (Electronic density weighted correction).
 Solution method      : On-the-fly selection.
 Cavity type          : VdW (van der Waals Surface) (Alpha=1.000).
 Cavity algorithm     : GePol (No added spheres)
                        Default sphere list used, NSphG=   38.
                        Tesserae with average area of 0.200 Ang**2.
                        Smoothing algorithm: None.
                        Polarization charges: point-like.
                        Self-potential: constant (ISelfS= 1).
                        Self-field    : global E.n sum rule (ISelfD= 3).
 Solvent              : Water, Eps=  78.355300 Eps(inf)=   1.777849
 ------------------------------------------------------------------------------
 GePol: Number of generator spheres                  =      38
 GePol: Total number of spheres                      =      38
 GePol: Number of exposed spheres                    =      38 (100.00%)
 GePol: Number of tesserae                           =    2487
 GePol: Average area of tesserae                     =       0.13 Ang**2
 GePol: Minimum area of tessera                      =   0.10D-02 Ang**2
 GePol: Maximum area of tessera                      =    0.35817 Ang**2
 GePol: Number of small tesserae                     =      12
 GePol: Fraction of small tesserae (<1% of avg)      =       0.48%
 GePol: Total count of vertices                      =    8554
 GePol: Maximum number of vertices in a tessera      =       7
 GePol: Cavity surface area                          =    333.907 Ang**2
 GePol: Cavity volume                                =    343.160 Ang**3
 Leave Link  301 at Tue Feb 23 02:35:30 2021, MaxMem=   104857600 cpu:               4.1 elap:               0.2
 (Enter /sw/arch/RedHatEnterpriseServer7/EB_production/2019/software/Gaussian/g16.c01/l302.exe)
 NPDir=0 NMtPBC=     1 NCelOv=     1 NCel=       1 NClECP=     1 NCelD=      1
         NCelK=      1 NCelE2=     1 NClLst=     1 CellRange=     0.0.
 One-electron integrals computed using PRISM.
 One-electron integral symmetry used in STVInt
 PrsmSu:  requested number of processors reduced to:  24 ShMem   1 Linda.
 NBasis=   491 RedAO= T EigKep=  8.11D-06  NBF=   491
 NBsUse=   491 1.00D-06 EigRej= -1.00D+00 NBFU=   491
 Precomputing XC quadrature grid using
 IXCGrd= 4 IRadAn=           5 IRanWt=          -1 IRanGd=           0 AccXCQ= 0.00D+00.
 Generated NRdTot=       0 NPtTot=           0 NUsed=           0 NTot=          32
 NSgBfM=   501   501   501   501   501 MxSgAt=    38 MxSgA2=    38.
 Leave Link  302 at Tue Feb 23 02:35:31 2021, MaxMem=   104857600 cpu:              21.5 elap:               0.8
 (Enter /sw/arch/RedHatEnterpriseServer7/EB_production/2019/software/Gaussian/g16.c01/l303.exe)
 DipDrv:  MaxL=1.
 Leave Link  303 at Tue Feb 23 02:35:31 2021, MaxMem=   104857600 cpu:               2.6 elap:               0.1
 (Enter /sw/arch/RedHatEnterpriseServer7/EB_production/2019/software/Gaussian/g16.c01/l401.exe)
 ExpMin= 9.04D-02 ExpMax= 5.24D+04 ExpMxC= 1.79D+03 IAcc=3 IRadAn=         5 AccDes= 0.00D+00
 Harris functional with IExCor=  404 and IRadAn=       5 diagonalized for initial guess.
 HarFok:  IExCor=  404 AccDes= 0.00D+00 IRadAn=         5 IDoV= 1 UseB2=F ITyADJ=14
 ICtDFT=  3500011 ScaDFX=  1.000000  1.000000  1.000000  1.000000
 FoFCou: FMM=F IPFlag=           0 FMFlag=      100000 FMFlg1=           0
         NFxFlg=           0 DoJE=T BraDBF=F KetDBF=T FulRan=T
         wScrn=  0.000000 ICntrl=       500 IOpCl=  0 I1Cent=   200000004 NGrid=           0
         NMat0=    1 NMatS0=      1 NMatT0=    0 NMatD0=    1 NMtDS0=    0 NMtDT0=    0
 Petite list used in FoFCou.
 Harris En= -1076.61890194641    
 JPrj=0 DoOrth=F DoCkMO=F.
 Leave Link  401 at Tue Feb 23 02:35:32 2021, MaxMem=   104857600 cpu:              35.5 elap:               1.2
 (Enter /sw/arch/RedHatEnterpriseServer7/EB_production/2019/software/Gaussian/g16.c01/l502.exe)
 Integral symmetry usage will be decided dynamically.
 Closed shell SCF:
 Using DIIS extrapolation, IDIIS=  1040.
 NGot=   104857600 LenX=   104312978 LenY=   104051346
 Requested convergence on RMS density matrix=1.00D-08 within 128 cycles.
 Requested convergence on MAX density matrix=1.00D-06.
 Requested convergence on             energy=1.00D-06.
 No special actions if energy rises.
 Fock matrices will be formed incrementally for  20 cycles.

 Cycle   1  Pass 1  IDiag  1:
 FoFJK:  IHMeth= 1 ICntrl=     500 DoSepK=F KAlg= 0 I1Cent=           0 FoldK=F
 IRaf= 820000000 NMat=       1 IRICut=       1 DoRegI=T DoRafI=F ISym2E= 0 IDoP0=0 IntGTp=1.
 FoFCou: FMM=F IPFlag=           0 FMFlag=      100000 FMFlg1=           0
         NFxFlg=           0 DoJE=T BraDBF=F KetDBF=F FulRan=T
         wScrn=  0.000000 ICntrl=       500 IOpCl=  0 I1Cent=           0 NGrid=           0
         NMat0=    1 NMatS0=      1 NMatT0=    0 NMatD0=    1 NMtDS0=    0 NMtDT0=    0
 Symmetry not used in FoFCou.
 Inv3:  Mode=1 IEnd=    18555507.
 Iteration    1 A*A^-1 deviation from unit magnitude is 5.11D-15 for    351.
 Iteration    1 A*A^-1 deviation from orthogonality  is 3.50D-15 for    351    233.
 Iteration    1 A^-1*A deviation from unit magnitude is 8.22D-15 for    351.
 Iteration    1 A^-1*A deviation from orthogonality  is 4.28D-15 for    351    228.
 E= -1075.87861929344    
 DIIS: error= 3.20D-02 at cycle   1 NSaved=   1.
 NSaved= 1 IEnMin= 1 EnMin= -1075.87861929344     IErMin= 1 ErrMin= 3.20D-02
 ErrMax= 3.20D-02  0.00D+00 EMaxC= 1.00D-01 BMatC= 4.40D-01 BMatP= 4.40D-01
 IDIUse=3 WtCom= 6.80D-01 WtEn= 3.20D-01
 Coeff-Com:  0.100D+01
 Coeff-En:   0.100D+01
 Coeff:      0.100D+01
 Gap=     0.160 Goal=   None    Shift=    0.000
 GapD=    0.160 DampG=1.000 DampE=0.500 DampFc=0.5000 IDamp=-1.
 Damping current iteration by 5.00D-01
 RMSDP=8.73D-03 MaxDP=5.46D-01              OVMax= 2.17D-01

 Cycle   2  Pass 1  IDiag  1:
 RMSU=  4.30D-03    CP:  1.07D+00
 E= -1076.00486379359     Delta-E=       -0.126244500145 Rises=F Damp=T
 DIIS: error= 8.89D-03 at cycle   2 NSaved=   2.
 NSaved= 2 IEnMin= 2 EnMin= -1076.00486379359     IErMin= 2 ErrMin= 8.89D-03
 ErrMax= 8.89D-03  0.00D+00 EMaxC= 1.00D-01 BMatC= 4.87D-02 BMatP= 4.40D-01
 IDIUse=3 WtCom= 9.11D-01 WtEn= 8.89D-02
 Coeff-Com:  0.189D+00 0.811D+00
 Coeff-En:   0.344D+00 0.656D+00
 Coeff:      0.203D+00 0.797D+00
 Gap=     0.197 Goal=   None    Shift=    0.000
 RMSDP=4.20D-03 MaxDP=2.90D-01 DE=-1.26D-01 OVMax= 1.87D-01

 Cycle   3  Pass 1  IDiag  1:
 RMSU=  1.39D-03    CP:  9.64D-01  1.15D-01
 E= -1076.28469459458     Delta-E=       -0.279830800987 Rises=F Damp=F
 DIIS: error= 1.05D-02 at cycle   3 NSaved=   3.
 NSaved= 3 IEnMin= 3 EnMin= -1076.28469459458     IErMin= 2 ErrMin= 8.89D-03
 ErrMax= 1.05D-02  0.00D+00 EMaxC= 1.00D-01 BMatC= 3.55D-02 BMatP= 4.87D-02
 IDIUse=3 WtCom= 8.95D-01 WtEn= 1.05D-01
 Coeff-Com:  0.660D-01 0.465D+00 0.469D+00
 Coeff-En:   0.000D+00 0.000D+00 0.100D+01
 Coeff:      0.591D-01 0.416D+00 0.524D+00
 Gap=     0.172 Goal=   None    Shift=    0.000
 RMSDP=1.78D-03 MaxDP=1.13D-01 DE=-2.80D-01 OVMax= 1.03D-01

 Cycle   4  Pass 1  IDiag  1:
 RMSU=  6.68D-04    CP:  1.01D+00  4.54D-01  5.86D-01
 E= -1076.30826727424     Delta-E=       -0.023572679660 Rises=F Damp=F
 DIIS: error= 8.21D-03 at cycle   4 NSaved=   4.
 NSaved= 4 IEnMin= 4 EnMin= -1076.30826727424     IErMin= 4 ErrMin= 8.21D-03
 ErrMax= 8.21D-03  0.00D+00 EMaxC= 1.00D-01 BMatC= 1.73D-02 BMatP= 3.55D-02
 IDIUse=3 WtCom= 9.18D-01 WtEn= 8.21D-02
 Coeff-Com:  0.986D-02 0.161D+00 0.395D+00 0.434D+00
 Coeff-En:   0.000D+00 0.000D+00 0.357D+00 0.643D+00
 Coeff:      0.905D-02 0.148D+00 0.392D+00 0.451D+00
 Gap=     0.165 Goal=   None    Shift=    0.000
 RMSDP=5.19D-04 MaxDP=2.94D-02 DE=-2.36D-02 OVMax= 4.85D-02

 Cycle   5  Pass 1  IDiag  1:
 RMSU=  2.78D-04    CP:  1.00D+00  3.84D-01  6.93D-01  6.27D-01
 E= -1076.32788859851     Delta-E=       -0.019621324279 Rises=F Damp=F
 DIIS: error= 1.08D-03 at cycle   5 NSaved=   5.
 NSaved= 5 IEnMin= 5 EnMin= -1076.32788859851     IErMin= 5 ErrMin= 1.08D-03
 ErrMax= 1.08D-03  0.00D+00 EMaxC= 1.00D-01 BMatC= 6.79D-04 BMatP= 1.73D-02
 IDIUse=3 WtCom= 9.89D-01 WtEn= 1.08D-02
 Coeff-Com: -0.103D-02 0.433D-01 0.169D+00 0.249D+00 0.540D+00
 Coeff-En:   0.000D+00 0.000D+00 0.000D+00 0.000D+00 0.100D+01
 Coeff:     -0.101D-02 0.429D-01 0.167D+00 0.247D+00 0.545D+00
 Gap=     0.166 Goal=   None    Shift=    0.000
 RMSDP=1.27D-04 MaxDP=7.65D-03 DE=-1.96D-02 OVMax= 6.87D-03

 Cycle   6  Pass 1  IDiag  1:
 RMSU=  6.16D-05    CP:  9.97D-01  3.63D-01  7.06D-01  6.29D-01  7.96D-01
 E= -1076.32850221482     Delta-E=       -0.000613616306 Rises=F Damp=F
 DIIS: error= 3.57D-04 at cycle   6 NSaved=   6.
 NSaved= 6 IEnMin= 6 EnMin= -1076.32850221482     IErMin= 6 ErrMin= 3.57D-04
 ErrMax= 3.57D-04  0.00D+00 EMaxC= 1.00D-01 BMatC= 8.79D-05 BMatP= 6.79D-04
 IDIUse=3 WtCom= 9.96D-01 WtEn= 3.57D-03
 Coeff-Com: -0.145D-02 0.132D-01 0.675D-01 0.113D+00 0.336D+00 0.471D+00
 Coeff-En:   0.000D+00 0.000D+00 0.000D+00 0.000D+00 0.876D-01 0.912D+00
 Coeff:     -0.144D-02 0.132D-01 0.672D-01 0.113D+00 0.335D+00 0.473D+00
 Gap=     0.165 Goal=   None    Shift=    0.000
 RMSDP=2.49D-05 MaxDP=9.12D-04 DE=-6.14D-04 OVMax= 2.52D-03

 Cycle   7  Pass 1  IDiag  1:
 RMSU=  1.53D-05    CP:  9.98D-01  3.64D-01  7.08D-01  6.29D-01  7.97D-01
                    CP:  7.16D-01
 E= -1076.32858772482     Delta-E=       -0.000085510004 Rises=F Damp=F
 DIIS: error= 1.01D-04 at cycle   7 NSaved=   7.
 NSaved= 7 IEnMin= 7 EnMin= -1076.32858772482     IErMin= 7 ErrMin= 1.01D-04
 ErrMax= 1.01D-04  0.00D+00 EMaxC= 1.00D-01 BMatC= 4.63D-06 BMatP= 8.79D-05
 IDIUse=3 WtCom= 9.99D-01 WtEn= 1.01D-03
 Coeff-Com: -0.744D-03 0.407D-02 0.237D-01 0.432D-01 0.144D+00 0.264D+00
 Coeff-Com:  0.522D+00
 Coeff-En:   0.000D+00 0.000D+00 0.000D+00 0.000D+00 0.000D+00 0.000D+00
 Coeff-En:   0.100D+01
 Coeff:     -0.744D-03 0.407D-02 0.237D-01 0.431D-01 0.144D+00 0.264D+00
 Coeff:      0.523D+00
 Gap=     0.165 Goal=   None    Shift=    0.000
 RMSDP=8.54D-06 MaxDP=5.95D-04 DE=-8.55D-05 OVMax= 6.89D-04

 Cycle   8  Pass 1  IDiag  1:
 RMSU=  4.68D-06    CP:  9.98D-01  3.66D-01  7.07D-01  6.32D-01  7.88D-01
                    CP:  6.92D-01  8.10D-01
 E= -1076.32859446215     Delta-E=       -0.000006737324 Rises=F Damp=F
 DIIS: error= 2.37D-05 at cycle   8 NSaved=   8.
 NSaved= 8 IEnMin= 8 EnMin= -1076.32859446215     IErMin= 8 ErrMin= 2.37D-05
 ErrMax= 2.37D-05  0.00D+00 EMaxC= 1.00D-01 BMatC= 2.89D-07 BMatP= 4.63D-06
 IDIUse=1 WtCom= 1.00D+00 WtEn= 0.00D+00
 Coeff-Com: -0.182D-03 0.571D-03 0.364D-02 0.741D-02 0.303D-01 0.740D-01
 Coeff-Com:  0.248D+00 0.636D+00
 Coeff:     -0.182D-03 0.571D-03 0.364D-02 0.741D-02 0.303D-01 0.740D-01
 Coeff:      0.248D+00 0.636D+00
 Gap=     0.165 Goal=   None    Shift=    0.000
 RMSDP=2.20D-06 MaxDP=9.19D-05 DE=-6.74D-06 OVMax= 2.09D-04

 Cycle   9  Pass 1  IDiag  1:
 RMSU=  1.60D-06    CP:  9.98D-01  3.66D-01  7.07D-01  6.32D-01  7.91D-01
                    CP:  7.04D-01  8.09D-01  7.88D-01
 E= -1076.32859461094     Delta-E=       -0.000000148788 Rises=F Damp=F
 DIIS: error= 1.05D-05 at cycle   9 NSaved=   9.
 NSaved= 9 IEnMin= 9 EnMin= -1076.32859461094     IErMin= 9 ErrMin= 1.05D-05
 ErrMax= 1.05D-05  0.00D+00 EMaxC= 1.00D-01 BMatC= 8.08D-08 BMatP= 2.89D-07
 IDIUse=1 WtCom= 1.00D+00 WtEn= 0.00D+00
 Coeff-Com: -0.611D-04 0.420D-04 0.480D-03 0.135D-02 0.852D-02 0.277D-01
 Coeff-Com:  0.120D+00 0.416D+00 0.426D+00
 Coeff:     -0.611D-04 0.420D-04 0.480D-03 0.135D-02 0.852D-02 0.277D-01
 Coeff:      0.120D+00 0.416D+00 0.426D+00
 Gap=     0.165 Goal=   None    Shift=    0.000
 RMSDP=8.83D-07 MaxDP=3.78D-05 DE=-1.49D-07 OVMax= 8.62D-05

 Cycle  10  Pass 1  IDiag  1:
 RMSU=  5.26D-07    CP:  9.98D-01  3.66D-01  7.07D-01  6.32D-01  7.92D-01
                    CP:  7.08D-01  8.15D-01  7.99D-01  6.97D-01
 E= -1076.32859456377     Delta-E=        0.000000047170 Rises=F Damp=F
 DIIS: error= 2.09D-06 at cycle  10 NSaved=  10.
 NSaved=10 IEnMin= 9 EnMin= -1076.32859461094     IErMin=10 ErrMin= 2.09D-06
 ErrMax= 2.09D-06  0.00D+00 EMaxC= 1.00D-01 BMatC= 2.44D-09 BMatP= 8.08D-08
 IDIUse=1 WtCom= 1.00D+00 WtEn= 0.00D+00
 Coeff-Com: -0.234D-04-0.492D-05 0.469D-04 0.273D-03 0.272D-02 0.999D-02
 Coeff-Com:  0.467D-01 0.178D+00 0.219D+00 0.543D+00
 Coeff:     -0.234D-04-0.492D-05 0.469D-04 0.273D-03 0.272D-02 0.999D-02
 Coeff:      0.467D-01 0.178D+00 0.219D+00 0.543D+00
 Gap=     0.165 Goal=   None    Shift=    0.000
 RMSDP=2.38D-07 MaxDP=6.74D-06 DE= 4.72D-08 OVMax= 2.24D-05

 Cycle  11  Pass 1  IDiag  1:
 RMSU=  1.87D-07    CP:  9.98D-01  3.66D-01  7.08D-01  6.32D-01  7.92D-01
                    CP:  7.08D-01  8.20D-01  8.00D-01  6.91D-01  8.15D-01
 E= -1076.32859457540     Delta-E=       -0.000000011628 Rises=F Damp=F
 DIIS: error= 1.26D-06 at cycle  11 NSaved=  11.
 NSaved=11 IEnMin= 9 EnMin= -1076.32859461094     IErMin=11 ErrMin= 1.26D-06
 ErrMax= 1.26D-06  0.00D+00 EMaxC= 1.00D-01 BMatC= 8.93D-10 BMatP= 2.44D-09
 IDIUse=1 WtCom= 1.00D+00 WtEn= 0.00D+00
 Coeff-Com: -0.615D-05-0.128D-05-0.342D-04-0.310D-04 0.376D-03 0.185D-02
 Coeff-Com:  0.999D-02 0.453D-01 0.709D-01 0.384D+00 0.487D+00
 Coeff:     -0.615D-05-0.128D-05-0.342D-04-0.310D-04 0.376D-03 0.185D-02
 Coeff:      0.999D-02 0.453D-01 0.709D-01 0.384D+00 0.487D+00
 Gap=     0.165 Goal=   None    Shift=    0.000
 RMSDP=8.69D-08 MaxDP=3.74D-06 DE=-1.16D-08 OVMax= 9.74D-06

 Cycle  12  Pass 1  IDiag  1:
 RMSU=  4.49D-08    CP:  9.98D-01  3.66D-01  7.08D-01  6.32D-01  7.92D-01
                    CP:  7.08D-01  8.20D-01  8.08D-01  6.95D-01  8.54D-01
                    CP:  7.10D-01
 E= -1076.32859458627     Delta-E=       -0.000000010870 Rises=F Damp=F
 DIIS: error= 1.76D-07 at cycle  12 NSaved=  12.
 NSaved=12 IEnMin= 9 EnMin= -1076.32859461094     IErMin=12 ErrMin= 1.76D-07
 ErrMax= 1.76D-07  0.00D+00 EMaxC= 1.00D-01 BMatC= 2.06D-11 BMatP= 8.93D-10
 IDIUse=1 WtCom= 1.00D+00 WtEn= 0.00D+00
 Coeff-Com: -0.241D-05 0.278D-06-0.205D-04-0.277D-04 0.736D-04 0.517D-03
 Coeff-Com:  0.309D-02 0.157D-01 0.272D-01 0.173D+00 0.244D+00 0.536D+00
 Coeff:     -0.241D-05 0.278D-06-0.205D-04-0.277D-04 0.736D-04 0.517D-03
 Coeff:      0.309D-02 0.157D-01 0.272D-01 0.173D+00 0.244D+00 0.536D+00
 Gap=     0.165 Goal=   None    Shift=    0.000
 RMSDP=2.70D-08 MaxDP=1.32D-06 DE=-1.09D-08 OVMax= 1.66D-06

 Cycle  13  Pass 1  IDiag  1:
 RMSU=  1.61D-08    CP:  9.98D-01  3.66D-01  7.07D-01  6.32D-01  7.92D-01
                    CP:  7.08D-01  8.20D-01  8.08D-01  7.03D-01  8.59D-01
                    CP:  6.82D-01  8.13D-01
 E= -1076.32859458706     Delta-E=       -0.000000000799 Rises=F Damp=F
 DIIS: error= 6.84D-08 at cycle  13 NSaved=  13.
 NSaved=13 IEnMin= 9 EnMin= -1076.32859461094     IErMin=13 ErrMin= 6.84D-08
 ErrMax= 6.84D-08  0.00D+00 EMaxC= 1.00D-01 BMatC= 4.38D-12 BMatP= 2.06D-11
 IDIUse=1 WtCom= 1.00D+00 WtEn= 0.00D+00
 Coeff-Com: -0.738D-06 0.954D-08-0.107D-04-0.167D-04-0.158D-04 0.538D-04
 Coeff-Com:  0.538D-03 0.368D-02 0.784D-02 0.604D-01 0.905D-01 0.338D+00
 Coeff-Com:  0.499D+00
 Coeff:     -0.738D-06 0.954D-08-0.107D-04-0.167D-04-0.158D-04 0.538D-04
 Coeff:      0.538D-03 0.368D-02 0.784D-02 0.604D-01 0.905D-01 0.338D+00
 Coeff:      0.499D+00
 Gap=     0.165 Goal=   None    Shift=    0.000
 RMSDP=9.16D-09 MaxDP=4.75D-07 DE=-7.99D-10 OVMax= 5.97D-07

 Error on nuclear    polarization charges =  0.04047
 Error on electronic polarization charges = -0.07721
 SCF Done:  E(RB-P86) =  -1076.32859459     A.U. after   13 cycles
            NFock= 13  Conv=0.92D-08     -V/T= 2.0046
 KE= 1.071362868627D+03 PE=-5.656041425212D+03 EE= 1.927547183866D+03
 --------------------------------------------------------------------
 Variational C-PCM results
 =========================
 <psi(f)|   H    |psi(f)>                     (a.u.) =   -1076.254450
 <psi(f)|H+V(f)/2|psi(f)>                     (a.u.) =   -1076.328595
 Total free energy in solution:
 - with all non electrostatic terms           (a.u.) =   -1076.303060
 --------------------------------------------------------------------
 (Polarized solute)-Solvent               (kcal/mol) =     -46.53
 --------------------------------------------------------------------
 Cavitation energy                        (kcal/mol) =      41.95
 Dispersion energy                        (kcal/mol) =     -28.06
 Repulsion energy                         (kcal/mol) =       2.14
 Total non electrostatic                  (kcal/mol) =      16.02
 --------------------------------------------------------------------
 Partition over spheres:
 Sphere  on Atom  Surface  Charge   GEl     GCav    GDR
    1      C1      15.58  -0.073   -3.74    1.90   -1.00
    2      P2       1.44  -0.035   -2.01    0.02    0.00
    3      C3       3.33  -0.004   -0.27    0.43   -0.07
    4      C4      11.92  -0.008   -0.55    1.42   -0.56
    5      C5      13.99   0.008    0.12    1.64   -1.05
    6      C6      13.98   0.007    0.10    1.64   -1.03
    7      C7      13.99   0.008    0.14    1.64   -1.06
    8      C8      11.87  -0.007   -0.45    1.37   -0.48
    9      C9       3.46  -0.006   -0.36    0.46   -0.08
   10      C10     11.52  -0.010   -0.62    1.38   -0.53
   11      C11     13.99   0.008    0.14    1.64   -1.04
   12      C12     13.99   0.006    0.08    1.64   -1.03
   13      C13     13.99   0.009    0.18    1.64   -1.06
   14      C14     12.10  -0.003   -0.24    1.43   -0.54
   15      C15      3.57  -0.007   -0.38    0.47   -0.07
   16      C16     11.22  -0.008   -0.54    1.34   -0.50
   17      C17     14.00   0.008    0.13    1.64   -1.04
   18      C18     13.99   0.007    0.11    1.64   -1.04
   19      C19     13.98   0.009    0.17    1.64   -1.07
   20      C20     12.04   0.000   -0.10    1.42   -0.57
   21      H21      6.27  -0.061   -3.14    0.89   -0.61
   22      H22      6.37  -0.059   -3.01    0.90   -0.61
   23      H23      6.29  -0.060   -3.06    0.89   -0.61
   24      H24      5.96  -0.055   -2.75    0.84   -0.59
   25      H25      6.43  -0.048   -1.79    0.91   -0.84
   26      H26      6.43  -0.049   -1.67    0.91   -0.82
   27      H27      6.43  -0.048   -1.74    0.91   -0.85
   28      H28      5.07  -0.044   -1.83    0.72   -0.35
   29      H29      5.97  -0.054   -2.70    0.84   -0.58
   30      H30      6.43  -0.049   -1.81    0.91   -0.84
   31      H31      6.43  -0.048   -1.67    0.91   -0.82
   32      H32      6.43  -0.048   -1.75    0.91   -0.85
   33      H33      4.98  -0.041   -1.73    0.70   -0.32
   34      H34      6.25  -0.056   -2.82    0.88   -0.58
   35      H35      6.43  -0.049   -1.79    0.91   -0.84
   36      H36      6.43  -0.049   -1.67    0.91   -0.82
   37      H37      6.43  -0.048   -1.72    0.91   -0.85
   38      H38      4.91  -0.043   -1.78    0.69   -0.31
 --------------------------------------------------------------------
 - cavitation energy not included in the total energy.
 - dispersion energy not included in the total energy.
 - repulsion  energy not included in the total energy.
 After PCM corrections, the energy is  -1076.32859459     a.u.
 --------------------------------------------------------------------
 Writing COSMO formatted file "AZFQCTBZOPUVOW-UHFFFAOYSA-N.cosmo"
 Recomputed dielectric energy= -0.071998 old= -0.074144 diff= 2.15D-03
 Leave Link  502 at Tue Feb 23 02:36:33 2021, MaxMem=   104857600 cpu:            1930.5 elap:              61.2
 (Enter /sw/arch/RedHatEnterpriseServer7/EB_production/2019/software/Gaussian/g16.c01/l601.exe)
 Copying SCF densities to generalized density rwf, IOpCl= 0 IROHF=0.

 **********************************************************************

            Population analysis using the SCF Density.

 **********************************************************************

 Orbital symmetries:
       Occupied  (A) (A) (A) (A) (A) (A) (A) (A) (A) (A) (A) (A)
                 (A) (A) (A) (A) (A) (A) (A) (A) (A) (A) (A) (A)
                 (A) (A) (A) (A) (A) (A) (A) (A) (A) (A) (A) (A)
                 (A) (A) (A) (A) (A) (A) (A) (A) (A) (A) (A) (A)
                 (A) (A) (A) (A) (A) (A) (A) (A) (A) (A) (A) (A)
                 (A) (A) (A) (A) (A) (A) (A) (A) (A) (A) (A) (A)
                 (A)
       Virtual   (A) (A) (A) (A) (A) (A) (A) (A) (A) (A) (A) (A)
                 (A) (A) (A) (A) (A) (A) (A) (A) (A) (A) (A) (A)
                 (A) (A) (A) (A) (A) (A) (A) (A) (A) (A) (A) (A)
                 (A) (A) (A) (A) (A) (A) (A) (A) (A) (A) (A) (A)
                 (A) (A) (A) (A) (A) (A) (A) (A) (A) (A) (A) (A)
                 (A) (A) (A) (A) (A) (A) (A) (A) (A) (A) (A) (A)
                 (A) (A) (A) (A) (A) (A) (A) (A) (A) (A) (A) (A)
                 (A) (A) (A) (A) (A) (A) (A) (A) (A) (A) (A) (A)
                 (A) (A) (A) (A) (A) (A) (A) (A) (A) (A) (A) (A)
                 (A) (A) (A) (A) (A) (A) (A) (A) (A) (A) (A) (A)
                 (A) (A) (A) (A) (A) (A) (A) (A) (A) (A) (A) (A)
                 (A) (A) (A) (A) (A) (A) (A) (A) (A) (A) (A) (A)
                 (A) (A) (A) (A) (A) (A) (A) (A) (A) (A) (A) (A)
                 (A) (A) (A) (A) (A) (A) (A) (A) (A) (A) (A) (A)
                 (A) (A) (A) (A) (A) (A) (A) (A) (A) (A) (A) (A)
                 (A) (A) (A) (A) (A) (A) (A) (A) (A) (A) (A) (A)
                 (A) (A) (A) (A) (A) (A) (A) (A) (A) (A) (A) (A)
                 (A) (A) (A) (A) (A) (A) (A) (A) (A) (A) (A) (A)
                 (A) (A) (A) (A) (A) (A) (A) (A) (A) (A) (A) (A)
                 (A) (A) (A) (A) (A) (A) (A) (A) (A) (A) (A) (A)
                 (A) (A) (A) (A) (A) (A) (A) (A) (A) (A) (A) (A)
                 (A) (A) (A) (A) (A) (A) (A) (A) (A) (A) (A) (A)
                 (A) (A) (A) (A) (A) (A) (A) (A) (A) (A) (A) (A)
                 (A) (A) (A) (A) (A) (A) (A) (A) (A) (A) (A) (A)
                 (A) (A) (A) (A) (A) (A) (A) (A) (A) (A) (A) (A)
                 (A) (A) (A) (A) (A) (A) (A) (A) (A) (A) (A) (A)
                 (A) (A) (A) (A) (A) (A) (A) (A) (A) (A) (A) (A)
                 (A) (A) (A) (A) (A) (A) (A) (A) (A) (A) (A) (A)
                 (A) (A) (A) (A) (A) (A) (A) (A) (A) (A) (A) (A)
                 (A) (A) (A) (A) (A) (A) (A) (A) (A) (A) (A) (A)
                 (A) (A) (A) (A) (A) (A) (A) (A) (A) (A) (A) (A)
                 (A) (A) (A) (A) (A) (A) (A) (A) (A) (A) (A) (A)
                 (A) (A) (A) (A) (A) (A) (A) (A) (A) (A) (A) (A)
                 (A) (A) (A) (A) (A) (A) (A) (A) (A) (A) (A) (A)
                 (A) (A) (A) (A) (A) (A) (A) (A) (A) (A)
 The electronic state is 1-A.
 Alpha  occ. eigenvalues --  -76.47792  -9.94346  -9.94339  -9.94304  -9.92770
 Alpha  occ. eigenvalues --   -9.92759  -9.92736  -9.92706  -9.92698  -9.92681
 Alpha  occ. eigenvalues --   -9.92590  -9.91989  -9.91988  -9.91969  -9.91859
 Alpha  occ. eigenvalues --   -9.91856  -9.91848  -9.91826  -9.91824  -9.91808
 Alpha  occ. eigenvalues --   -6.40840  -4.62546  -4.62544  -4.62504  -0.81492
 Alpha  occ. eigenvalues --   -0.80103  -0.80088  -0.74719  -0.70096  -0.70057
 Alpha  occ. eigenvalues --   -0.69866  -0.69580  -0.69559  -0.67710  -0.60912
 Alpha  occ. eigenvalues --   -0.57127  -0.57034  -0.56452  -0.55969  -0.55949
 Alpha  occ. eigenvalues --   -0.52557  -0.48949  -0.48921  -0.46574  -0.43391
 Alpha  occ. eigenvalues --   -0.43328  -0.43044  -0.42019  -0.41990  -0.40994
 Alpha  occ. eigenvalues --   -0.40569  -0.40505  -0.39514  -0.39345  -0.39302
 Alpha  occ. eigenvalues --   -0.37715  -0.37365  -0.37279  -0.35355  -0.35276
 Alpha  occ. eigenvalues --   -0.34804  -0.33055  -0.32328  -0.32315  -0.31902
 Alpha  occ. eigenvalues --   -0.31210  -0.31195  -0.26020  -0.25878  -0.25668
 Alpha  occ. eigenvalues --   -0.25169  -0.24997  -0.24980
 Alpha virt. eigenvalues --   -0.08443  -0.08315  -0.08157  -0.07000  -0.05848
 Alpha virt. eigenvalues --   -0.05791   0.01037   0.01215   0.01568   0.02395
 Alpha virt. eigenvalues --    0.04643   0.04697   0.04926   0.05726   0.06036
 Alpha virt. eigenvalues --    0.06227   0.06825   0.06903   0.06996   0.07828
 Alpha virt. eigenvalues --    0.08021   0.08379   0.09302   0.09360   0.09973
 Alpha virt. eigenvalues --    0.10505   0.10539   0.10755   0.13104   0.13381
 Alpha virt. eigenvalues --    0.13861   0.14741   0.15384   0.15528   0.16796
 Alpha virt. eigenvalues --    0.16997   0.17152   0.17507   0.17704   0.17785
 Alpha virt. eigenvalues --    0.18618   0.18876   0.18909   0.19152   0.19200
 Alpha virt. eigenvalues --    0.20158   0.20658   0.20870   0.20945   0.21515
 Alpha virt. eigenvalues --    0.22004   0.22227   0.22602   0.22741   0.23135
 Alpha virt. eigenvalues --    0.24371   0.24489   0.24935   0.25392   0.25734
 Alpha virt. eigenvalues --    0.26322   0.27207   0.28510   0.28715   0.28905
 Alpha virt. eigenvalues --    0.29296   0.29992   0.30937   0.31125   0.31261
 Alpha virt. eigenvalues --    0.32041   0.32268   0.32505   0.33064   0.33882
 Alpha virt. eigenvalues --    0.34311   0.34850   0.35269   0.35541   0.36764
 Alpha virt. eigenvalues --    0.36921   0.37962   0.38197   0.38635   0.39018
 Alpha virt. eigenvalues --    0.39333   0.39640   0.39963   0.40117   0.40852
 Alpha virt. eigenvalues --    0.40975   0.41361   0.41577   0.42407   0.42732
 Alpha virt. eigenvalues --    0.42847   0.42994   0.43404   0.43718   0.44121
 Alpha virt. eigenvalues --    0.44788   0.45214   0.45454   0.46321   0.46890
 Alpha virt. eigenvalues --    0.47021   0.47233   0.47802   0.47938   0.48326
 Alpha virt. eigenvalues --    0.48604   0.48930   0.49343   0.51225   0.51353
 Alpha virt. eigenvalues --    0.52784   0.53268   0.53903   0.56306   0.57448
 Alpha virt. eigenvalues --    0.57565   0.58744   0.60215   0.60648   0.60853
 Alpha virt. eigenvalues --    0.61284   0.61492   0.61775   0.62886   0.64631
 Alpha virt. eigenvalues --    0.64953   0.65354   0.66053   0.66292   0.68462
 Alpha virt. eigenvalues --    0.69203   0.71343   0.73162   0.74012   0.74831
 Alpha virt. eigenvalues --    0.75295   0.76268   0.76990   0.77817   0.78449
 Alpha virt. eigenvalues --    0.81818   0.83920   0.84423   0.86914   0.87239
 Alpha virt. eigenvalues --    0.88606   0.91989   1.10506   1.11229   1.12404
 Alpha virt. eigenvalues --    1.12967   1.13590   1.15251   1.15707   1.15746
 Alpha virt. eigenvalues --    1.16528   1.16810   1.16910   1.17977   1.18284
 Alpha virt. eigenvalues --    1.18553   1.19028   1.19726   1.19874   1.20940
 Alpha virt. eigenvalues --    1.21018   1.21850   1.22373   1.22601   1.22727
 Alpha virt. eigenvalues --    1.23253   1.24039   1.24186   1.24373   1.25680
 Alpha virt. eigenvalues --    1.25906   1.26645   1.27045   1.27235   1.28655
 Alpha virt. eigenvalues --    1.30396   1.31212   1.32848   1.34786   1.35005
 Alpha virt. eigenvalues --    1.35783   1.35819   1.36080   1.36611   1.36715
 Alpha virt. eigenvalues --    1.36759   1.36987   1.37901   1.38207   1.38600
 Alpha virt. eigenvalues --    1.39053   1.39224   1.39350   1.39958   1.40526
 Alpha virt. eigenvalues --    1.40828   1.41738   1.41947   1.42148   1.43287
 Alpha virt. eigenvalues --    1.43444   1.43881   1.44043   1.45265   1.45365
 Alpha virt. eigenvalues --    1.45914   1.46145   1.46636   1.46919   1.47383
 Alpha virt. eigenvalues --    1.47918   1.49755   1.50580   1.51152   1.51796
 Alpha virt. eigenvalues --    1.51854   1.52703   1.54204   1.55569   1.58833
 Alpha virt. eigenvalues --    1.58979   1.59417   1.60448   1.60738   1.62223
 Alpha virt. eigenvalues --    1.63046   1.63607   1.68932   1.69041   1.69222
 Alpha virt. eigenvalues --    1.69397   1.69455   1.69598   1.70743   1.71199
 Alpha virt. eigenvalues --    1.71614   1.71799   1.71899   1.73459   1.73918
 Alpha virt. eigenvalues --    1.74139   1.75974   1.76265   1.77806   1.77864
 Alpha virt. eigenvalues --    1.78234   1.78577   1.79081   1.79276   1.79345
 Alpha virt. eigenvalues --    1.79986   1.80272   1.80313   1.82119   1.82577
 Alpha virt. eigenvalues --    1.82635   1.82748   1.83624   1.84346   1.84710
 Alpha virt. eigenvalues --    1.85270   1.85592   1.86383   1.86876   1.88572
 Alpha virt. eigenvalues --    1.89483   1.89536   1.89587   1.92387   1.92880
 Alpha virt. eigenvalues --    1.93150   1.93741   1.94014   1.95741   1.97217
 Alpha virt. eigenvalues --    1.97727   2.00613   2.02177   2.02489   2.02986
 Alpha virt. eigenvalues --    2.05990   2.06153   2.07452   2.13312   2.17119
 Alpha virt. eigenvalues --    2.17276   2.17362   2.18892   2.20212   2.20403
 Alpha virt. eigenvalues --    2.20566   2.21886   2.21961   2.22859   2.22989
 Alpha virt. eigenvalues --    2.23122   2.23388   2.23504   2.23962   2.24214
 Alpha virt. eigenvalues --    2.24332   2.24685   2.26408   2.27037   2.27623
 Alpha virt. eigenvalues --    2.27774   2.27850   2.29297   2.33893   2.36234
 Alpha virt. eigenvalues --    2.36834   2.39135   2.40156   2.40324   2.41497
 Alpha virt. eigenvalues --    2.41827   2.41920   2.43541   2.43659   2.44307
 Alpha virt. eigenvalues --    2.47970   2.48277   2.49288   2.50493   2.50525
 Alpha virt. eigenvalues --    2.52965   2.53201   2.53221   2.54545   2.54630
 Alpha virt. eigenvalues --    2.55532   2.57209   2.57444   2.57729   2.58829
 Alpha virt. eigenvalues --    2.59131   2.59708   2.62835   2.62989   2.63452
 Alpha virt. eigenvalues --    2.65655   2.66017   2.66457   2.72215   2.72746
 Alpha virt. eigenvalues --    2.73238   2.73782   2.76331   2.77723   2.89852
 Alpha virt. eigenvalues --    2.89886   2.91244   2.92446   2.92508   2.93552
 Alpha virt. eigenvalues --    2.95099   2.95178   2.95514   2.99825   3.00169
 Alpha virt. eigenvalues --    3.00454   3.00579   3.03331   3.03445   3.03733
 Alpha virt. eigenvalues --    3.06429   3.06913   3.08702   3.09339   3.09531
 Alpha virt. eigenvalues --    3.11792   3.12895   3.13003   3.14114   3.21289
 Alpha virt. eigenvalues --    3.21472   3.22153   3.23297   3.23415   3.30450
 Alpha virt. eigenvalues --    3.32251   3.32527   3.42462   3.43109   3.44919
 Alpha virt. eigenvalues --    3.62723   3.63487   3.63556  14.27276  21.08153
 Alpha virt. eigenvalues --   21.08929  21.15350  21.55782  21.56191  21.56973
 Alpha virt. eigenvalues --   21.62873  21.64135  21.65136  21.79350  21.80469
 Alpha virt. eigenvalues --   21.81807  21.82739  21.83815  21.84000  21.88598
 Alpha virt. eigenvalues --   21.94027  21.99838  22.00160
          Condensed to atoms (all electrons):
               1          2          3          4          5          6
     1  C    5.228127   0.323512  -0.074438   0.006670   0.001195   0.000258
     2  P    0.323512  13.900935   0.226937  -0.033904   0.008810  -0.000682
     3  C   -0.074438   0.226937   6.127849  -0.050148   0.190827  -0.209953
     4  C    0.006670  -0.033904  -0.050148   5.566430   0.121236   0.132154
     5  C    0.001195   0.008810   0.190827   0.121236   5.322481   0.245901
     6  C    0.000258  -0.000682  -0.209953   0.132154   0.245901   5.229460
     7  C   -0.001354   0.020826   0.144966  -0.230532   0.118238   0.263437
     8  C    0.004760  -0.079444   0.082175   0.126867  -0.201779   0.102934
     9  C   -0.061617   0.232751  -0.040553  -0.012239  -0.000396   0.000170
    10  C   -0.001791  -0.045409   0.026496  -0.002754   0.000338  -0.000213
    11  C    0.002455   0.011488  -0.005323   0.000485  -0.000033   0.000022
    12  C   -0.000145  -0.002007   0.003030   0.000069   0.000033  -0.000018
    13  C   -0.000858   0.024366  -0.009286  -0.003736   0.000131  -0.000040
    14  C    0.003739  -0.081686   0.005422  -0.002031  -0.000786   0.000140
    15  C   -0.059458   0.212674  -0.029159   0.021051  -0.004796   0.002311
    16  C   -0.005152  -0.032192  -0.011785   0.001296   0.000182   0.000373
    17  C    0.002709   0.010115  -0.001257  -0.000066   0.000010  -0.000007
    18  C   -0.000328  -0.002069   0.000550  -0.000085   0.000012  -0.000008
    19  C   -0.000734   0.028077  -0.001864   0.000227  -0.000020   0.000013
    20  C   -0.000288  -0.081876   0.010772  -0.001889   0.000134  -0.000164
    21  H    0.376584  -0.010538   0.007589   0.000800   0.000012   0.000004
    22  H    0.372983  -0.005432  -0.005702  -0.003988  -0.000468   0.000021
    23  H    0.374249  -0.006109  -0.006446  -0.000597   0.000668  -0.000132
    24  H    0.001153  -0.002928  -0.081115   0.440772  -0.054059   0.016069
    25  H    0.000033  -0.000784   0.020640  -0.065634   0.440624  -0.063602
    26  H   -0.000003   0.000021  -0.005617   0.020297  -0.067490   0.439076
    27  H    0.000003  -0.000673   0.019864  -0.002234   0.014033  -0.062124
    28  H    0.000647  -0.013700  -0.079622   0.013954  -0.003937   0.014396
    29  H    0.000264  -0.001772   0.001363  -0.000192   0.000014  -0.000004
    30  H    0.000056  -0.000813  -0.000009   0.000003   0.000000   0.000000
    31  H   -0.000005  -0.000001   0.000006   0.000001  -0.000000  -0.000000
    32  H    0.000005  -0.000691   0.000008  -0.000099   0.000010  -0.000003
    33  H    0.000483  -0.015839   0.017271   0.003647   0.000678  -0.000941
    34  H   -0.002002  -0.000253  -0.002658  -0.000584   0.000094   0.000029
    35  H    0.000041  -0.000798  -0.000053  -0.000006   0.000000  -0.000000
    36  H   -0.000004  -0.000003   0.000012   0.000000  -0.000000  -0.000000
    37  H    0.000005  -0.000663  -0.000028   0.000000  -0.000000   0.000000
    38  H    0.000357  -0.017932  -0.000786  -0.000300   0.000021  -0.000010
               7          8          9         10         11         12
     1  C   -0.001354   0.004760  -0.061617  -0.001791   0.002455  -0.000145
     2  P    0.020826  -0.079444   0.232751  -0.045409   0.011488  -0.002007
     3  C    0.144966   0.082175  -0.040553   0.026496  -0.005323   0.003030
     4  C   -0.230532   0.126867  -0.012239  -0.002754   0.000485   0.000069
     5  C    0.118238  -0.201779  -0.000396   0.000338  -0.000033   0.000033
     6  C    0.263437   0.102934   0.000170  -0.000213   0.000022  -0.000018
     7  C    5.322676   0.183059  -0.000963   0.000489  -0.000041   0.000034
     8  C    0.183059   5.394391   0.009901  -0.001868   0.000150  -0.000253
     9  C   -0.000963   0.009901   6.182014  -0.097412   0.212897  -0.220316
    10  C    0.000489  -0.001868  -0.097412   5.649846   0.082588   0.150289
    11  C   -0.000041   0.000150   0.212897   0.082588   5.348780   0.229843
    12  C    0.000034  -0.000253  -0.220316   0.150289   0.229843   5.240899
    13  C   -0.000194   0.000168   0.162195  -0.245903   0.130965   0.249851
    14  C   -0.000553  -0.004097   0.057253   0.131270  -0.210563   0.112238
    15  C   -0.007573  -0.002169  -0.045341  -0.007295  -0.000746   0.000555
    16  C   -0.005147  -0.003352   0.024260  -0.000955   0.000231  -0.000156
    17  C    0.000430  -0.001290  -0.004883   0.000239  -0.000016   0.000014
    18  C   -0.000079  -0.000019   0.002913   0.000155   0.000010  -0.000010
    19  C   -0.000051   0.000313  -0.008934  -0.004574   0.000179  -0.000122
    20  C   -0.000096  -0.001133   0.001578  -0.003803  -0.001654   0.000084
    21  H    0.000006  -0.000162  -0.005556  -0.001630   0.000522  -0.000115
    22  H    0.000021   0.002074   0.007375   0.000853   0.000024   0.000001
    23  H    0.000118  -0.000526  -0.006643  -0.003653  -0.000563   0.000049
    24  H   -0.005442   0.017412  -0.003282  -0.000923   0.000103  -0.000010
    25  H    0.014628  -0.002351  -0.000047  -0.000001  -0.000000   0.000000
    26  H   -0.062179   0.019029   0.000013  -0.000000   0.000000  -0.000000
    27  H    0.436557  -0.061162  -0.000043   0.000001  -0.000000   0.000000
    28  H   -0.053750   0.441299  -0.001709  -0.000471   0.000036  -0.000023
    29  H    0.000010  -0.000057  -0.084384   0.445433  -0.056466   0.016600
    30  H   -0.000000   0.000000   0.020732  -0.066041   0.440663  -0.063800
    31  H    0.000000   0.000000  -0.005988   0.020729  -0.068424   0.440248
    32  H   -0.000000   0.000069   0.020812  -0.002303   0.014052  -0.062604
    33  H    0.000871  -0.005888  -0.080048   0.015492  -0.004576   0.015180
    34  H   -0.000400   0.002401   0.001050  -0.000102   0.000009  -0.000002
    35  H    0.000008  -0.000008  -0.000007   0.000002   0.000000   0.000000
    36  H   -0.000000  -0.000016   0.000005   0.000002  -0.000000   0.000000
    37  H   -0.000001  -0.000009   0.000041  -0.000107   0.000016  -0.000005
    38  H   -0.000046   0.000580   0.015703   0.002660   0.000435  -0.000752
              13         14         15         16         17         18
     1  C   -0.000858   0.003739  -0.059458  -0.005152   0.002709  -0.000328
     2  P    0.024366  -0.081686   0.212674  -0.032192   0.010115  -0.002069
     3  C   -0.009286   0.005422  -0.029159  -0.011785  -0.001257   0.000550
     4  C   -0.003736  -0.002031   0.021051   0.001296  -0.000066  -0.000085
     5  C    0.000131  -0.000786  -0.004796   0.000182   0.000010   0.000012
     6  C   -0.000040   0.000140   0.002311   0.000373  -0.000007  -0.000008
     7  C   -0.000194  -0.000553  -0.007573  -0.005147   0.000430  -0.000079
     8  C    0.000168  -0.004097  -0.002169  -0.003352  -0.001290  -0.000019
     9  C    0.162195   0.057253  -0.045341   0.024260  -0.004883   0.002913
    10  C   -0.245903   0.131270  -0.007295  -0.000955   0.000239   0.000155
    11  C    0.130965  -0.210563  -0.000746   0.000231  -0.000016   0.000010
    12  C    0.249851   0.112238   0.000555  -0.000156   0.000014  -0.000010
    13  C    5.348855   0.156706  -0.001890   0.000440  -0.000030   0.000024
    14  C    0.156706   5.432027   0.009764  -0.001105   0.000034  -0.000098
    15  C   -0.001890   0.009764   6.074677  -0.016083   0.167032  -0.183684
    16  C    0.000440  -0.001105  -0.016083   5.579695   0.126181   0.119516
    17  C   -0.000030   0.000034   0.167032   0.126181   5.315202   0.257848
    18  C    0.000024  -0.000098  -0.183684   0.119516   0.257848   5.208794
    19  C   -0.000122  -0.000803   0.106017  -0.221935   0.111926   0.280732
    20  C   -0.000414  -0.001333   0.136030   0.096609  -0.188736   0.082761
    21  H    0.000094  -0.000330  -0.006104  -0.003650  -0.000451   0.000060
    22  H    0.000009  -0.000214  -0.006529  -0.000590   0.000337  -0.000104
    23  H    0.000032   0.001909   0.006750   0.001019   0.000024   0.000001
    24  H   -0.000267   0.002138   0.001300  -0.000148   0.000009  -0.000003
    25  H    0.000006   0.000011  -0.000004   0.000002   0.000000   0.000000
    26  H    0.000000  -0.000018   0.000004   0.000002  -0.000000   0.000000
    27  H   -0.000002  -0.000029   0.000116  -0.000139   0.000018  -0.000006
    28  H   -0.000030   0.001138   0.012328   0.004781  -0.000108  -0.000478
    29  H   -0.005788   0.017789  -0.003205  -0.000736   0.000076   0.000003
    30  H    0.014751  -0.002296  -0.000055  -0.000002  -0.000000   0.000000
    31  H   -0.063241   0.019680   0.000014   0.000000  -0.000000  -0.000000
    32  H    0.437866  -0.062763  -0.000042   0.000001  -0.000000   0.000000
    33  H   -0.055935   0.439247  -0.000896  -0.000491   0.000034  -0.000019
    34  H    0.000009  -0.000032  -0.077665   0.438326  -0.052018   0.015119
    35  H    0.000000   0.000000   0.019436  -0.065223   0.439504  -0.062419
    36  H   -0.000000   0.000000  -0.005502   0.020596  -0.068515   0.439383
    37  H    0.000000   0.000033   0.019228  -0.001858   0.013461  -0.061046
    38  H    0.000979  -0.002521  -0.075791   0.012628  -0.003275   0.013196
              19         20         21         22         23         24
     1  C   -0.000734  -0.000288   0.376584   0.372983   0.374249   0.001153
     2  P    0.028077  -0.081876  -0.010538  -0.005432  -0.006109  -0.002928
     3  C   -0.001864   0.010772   0.007589  -0.005702  -0.006446  -0.081115
     4  C    0.000227  -0.001889   0.000800  -0.003988  -0.000597   0.440772
     5  C   -0.000020   0.000134   0.000012  -0.000468   0.000668  -0.054059
     6  C    0.000013  -0.000164   0.000004   0.000021  -0.000132   0.016069
     7  C   -0.000051  -0.000096   0.000006   0.000021   0.000118  -0.005442
     8  C    0.000313  -0.001133  -0.000162   0.002074  -0.000526   0.017412
     9  C   -0.008934   0.001578  -0.005556   0.007375  -0.006643  -0.003282
    10  C   -0.004574  -0.003803  -0.001630   0.000853  -0.003653  -0.000923
    11  C    0.000179  -0.001654   0.000522   0.000024  -0.000563   0.000103
    12  C   -0.000122   0.000084  -0.000115   0.000001   0.000049  -0.000010
    13  C   -0.000122  -0.000414   0.000094   0.000009   0.000032  -0.000267
    14  C   -0.000803  -0.001333  -0.000330  -0.000214   0.001909   0.002138
    15  C    0.106017   0.136030  -0.006104  -0.006529   0.006750   0.001300
    16  C   -0.221935   0.096609  -0.003650  -0.000590   0.001019  -0.000148
    17  C    0.111926  -0.188736  -0.000451   0.000337   0.000024   0.000009
    18  C    0.280732   0.082761   0.000060  -0.000104   0.000001  -0.000003
    19  C    5.321677   0.201301  -0.000032   0.000112   0.000013   0.000008
    20  C    0.201301   5.364880   0.002843  -0.000249  -0.000145  -0.000028
    21  H   -0.000032   0.002843   0.455507  -0.014820  -0.015619   0.000160
    22  H    0.000112  -0.000249  -0.014820   0.455314  -0.014600  -0.000159
    23  H    0.000013  -0.000145  -0.015619  -0.014600   0.456162  -0.000460
    24  H    0.000008  -0.000028   0.000160  -0.000159  -0.000460   0.491159
    25  H    0.000000   0.000000  -0.000000  -0.000007   0.000017  -0.006034
    26  H   -0.000000   0.000000   0.000000   0.000000  -0.000001  -0.000076
    27  H    0.000002   0.000036  -0.000000  -0.000001   0.000000   0.000005
    28  H    0.000499  -0.003351  -0.000009  -0.000010  -0.000004   0.000103
    29  H   -0.000338   0.002612  -0.000222   0.000128  -0.000090  -0.000033
    30  H    0.000006  -0.000014   0.000016  -0.000000  -0.000009   0.000000
    31  H   -0.000000  -0.000019  -0.000001   0.000000   0.000000  -0.000000
    32  H   -0.000001  -0.000013   0.000000  -0.000000  -0.000000  -0.000007
    33  H   -0.000059   0.000940  -0.000004  -0.000009  -0.000019   0.000324
    34  H   -0.005052   0.016885   0.000188  -0.000075   0.000080  -0.000020
    35  H    0.014488  -0.002101  -0.000005   0.000013  -0.000000  -0.000000
    36  H   -0.062245   0.019352  -0.000000  -0.000001   0.000000   0.000000
    37  H    0.433672  -0.058133  -0.000001   0.000000  -0.000000   0.000000
    38  H   -0.051138   0.436200   0.000062  -0.000003  -0.000013  -0.000008
              25         26         27         28         29         30
     1  C    0.000033  -0.000003   0.000003   0.000647   0.000264   0.000056
     2  P   -0.000784   0.000021  -0.000673  -0.013700  -0.001772  -0.000813
     3  C    0.020640  -0.005617   0.019864  -0.079622   0.001363  -0.000009
     4  C   -0.065634   0.020297  -0.002234   0.013954  -0.000192   0.000003
     5  C    0.440624  -0.067490   0.014033  -0.003937   0.000014   0.000000
     6  C   -0.063602   0.439076  -0.062124   0.014396  -0.000004   0.000000
     7  C    0.014628  -0.062179   0.436557  -0.053750   0.000010  -0.000000
     8  C   -0.002351   0.019029  -0.061162   0.441299  -0.000057   0.000000
     9  C   -0.000047   0.000013  -0.000043  -0.001709  -0.084384   0.020732
    10  C   -0.000001  -0.000000   0.000001  -0.000471   0.445433  -0.066041
    11  C   -0.000000   0.000000  -0.000000   0.000036  -0.056466   0.440663
    12  C    0.000000  -0.000000   0.000000  -0.000023   0.016600  -0.063800
    13  C    0.000006   0.000000  -0.000002  -0.000030  -0.005788   0.014751
    14  C    0.000011  -0.000018  -0.000029   0.001138   0.017789  -0.002296
    15  C   -0.000004   0.000004   0.000116   0.012328  -0.003205  -0.000055
    16  C    0.000002   0.000002  -0.000139   0.004781  -0.000736  -0.000002
    17  C    0.000000  -0.000000   0.000018  -0.000108   0.000076  -0.000000
    18  C    0.000000   0.000000  -0.000006  -0.000478   0.000003   0.000000
    19  C    0.000000  -0.000000   0.000002   0.000499  -0.000338   0.000006
    20  C    0.000000   0.000000   0.000036  -0.003351   0.002612  -0.000014
    21  H   -0.000000   0.000000  -0.000000  -0.000009  -0.000222   0.000016
    22  H   -0.000007   0.000000  -0.000001  -0.000010   0.000128  -0.000000
    23  H    0.000017  -0.000001   0.000000  -0.000004  -0.000090  -0.000009
    24  H   -0.006034  -0.000076   0.000005   0.000103  -0.000033   0.000000
    25  H    0.511924  -0.007043  -0.000123   0.000018   0.000000  -0.000000
    26  H   -0.007043   0.509877  -0.006656  -0.000131  -0.000000   0.000000
    27  H   -0.000123  -0.006656   0.511160  -0.006106   0.000000  -0.000000
    28  H    0.000018  -0.000131  -0.006106   0.487473  -0.000012   0.000000
    29  H    0.000000  -0.000000   0.000000  -0.000012   0.490916  -0.006077
    30  H   -0.000000   0.000000  -0.000000   0.000000  -0.006077   0.511983
    31  H   -0.000000   0.000000   0.000000  -0.000000  -0.000067  -0.007050
    32  H    0.000000   0.000000  -0.000000   0.000001   0.000002  -0.000123
    33  H   -0.000010   0.000008   0.000072   0.000024   0.000130   0.000016
    34  H    0.000000  -0.000001  -0.000009   0.000612  -0.000021  -0.000000
    35  H   -0.000000  -0.000000   0.000000  -0.000013   0.000000  -0.000000
    36  H    0.000000   0.000000  -0.000000   0.000007  -0.000000  -0.000000
    37  H   -0.000000  -0.000000  -0.000000   0.000036  -0.000009   0.000000
    38  H    0.000000  -0.000000  -0.000000   0.000085   0.000488   0.000001
              31         32         33         34         35         36
     1  C   -0.000005   0.000005   0.000483  -0.002002   0.000041  -0.000004
     2  P   -0.000001  -0.000691  -0.015839  -0.000253  -0.000798  -0.000003
     3  C    0.000006   0.000008   0.017271  -0.002658  -0.000053   0.000012
     4  C    0.000001  -0.000099   0.003647  -0.000584  -0.000006   0.000000
     5  C   -0.000000   0.000010   0.000678   0.000094   0.000000  -0.000000
     6  C   -0.000000  -0.000003  -0.000941   0.000029  -0.000000  -0.000000
     7  C    0.000000  -0.000000   0.000871  -0.000400   0.000008  -0.000000
     8  C    0.000000   0.000069  -0.005888   0.002401  -0.000008  -0.000016
     9  C   -0.005988   0.020812  -0.080048   0.001050  -0.000007   0.000005
    10  C    0.020729  -0.002303   0.015492  -0.000102   0.000002   0.000002
    11  C   -0.068424   0.014052  -0.004576   0.000009   0.000000  -0.000000
    12  C    0.440248  -0.062604   0.015180  -0.000002   0.000000   0.000000
    13  C   -0.063241   0.437866  -0.055935   0.000009   0.000000  -0.000000
    14  C    0.019680  -0.062763   0.439247  -0.000032   0.000000   0.000000
    15  C    0.000014  -0.000042  -0.000896  -0.077665   0.019436  -0.005502
    16  C    0.000000   0.000001  -0.000491   0.438326  -0.065223   0.020596
    17  C   -0.000000  -0.000000   0.000034  -0.052018   0.439504  -0.068515
    18  C   -0.000000   0.000000  -0.000019   0.015119  -0.062419   0.439383
    19  C   -0.000000  -0.000001  -0.000059  -0.005052   0.014488  -0.062245
    20  C   -0.000019  -0.000013   0.000940   0.016885  -0.002101   0.019352
    21  H   -0.000001   0.000000  -0.000004   0.000188  -0.000005  -0.000000
    22  H    0.000000  -0.000000  -0.000009  -0.000075   0.000013  -0.000001
    23  H    0.000000  -0.000000  -0.000019   0.000080  -0.000000   0.000000
    24  H   -0.000000  -0.000007   0.000324  -0.000020  -0.000000   0.000000
    25  H   -0.000000   0.000000  -0.000010   0.000000  -0.000000   0.000000
    26  H    0.000000   0.000000   0.000008  -0.000001  -0.000000   0.000000
    27  H    0.000000  -0.000000   0.000072  -0.000009   0.000000  -0.000000
    28  H   -0.000000   0.000001   0.000024   0.000612  -0.000013   0.000007
    29  H   -0.000067   0.000002   0.000130  -0.000021   0.000000  -0.000000
    30  H   -0.007050  -0.000123   0.000016  -0.000000  -0.000000  -0.000000
    31  H    0.510506  -0.006689  -0.000122   0.000000   0.000000   0.000000
    32  H   -0.006689   0.511706  -0.006358   0.000000  -0.000000  -0.000000
    33  H   -0.000122  -0.006358   0.487161  -0.000013   0.000000  -0.000000
    34  H    0.000000   0.000000  -0.000013   0.484046  -0.005758  -0.000073
    35  H    0.000000  -0.000000   0.000000  -0.005758   0.511719  -0.007064
    36  H    0.000000  -0.000000  -0.000000  -0.000073  -0.007064   0.510565
    37  H    0.000000  -0.000000  -0.000000   0.000005  -0.000125  -0.006591
    38  H    0.000011   0.000041   0.000019   0.000079   0.000022  -0.000141
              37         38
     1  C    0.000005   0.000357
     2  P   -0.000663  -0.017932
     3  C   -0.000028  -0.000786
     4  C    0.000000  -0.000300
     5  C   -0.000000   0.000021
     6  C    0.000000  -0.000010
     7  C   -0.000001  -0.000046
     8  C   -0.000009   0.000580
     9  C    0.000041   0.015703
    10  C   -0.000107   0.002660
    11  C    0.000016   0.000435
    12  C   -0.000005  -0.000752
    13  C    0.000000   0.000979
    14  C    0.000033  -0.002521
    15  C    0.019228  -0.075791
    16  C   -0.001858   0.012628
    17  C    0.013461  -0.003275
    18  C   -0.061046   0.013196
    19  C    0.433672  -0.051138
    20  C   -0.058133   0.436200
    21  H   -0.000001   0.000062
    22  H    0.000000  -0.000003
    23  H   -0.000000  -0.000013
    24  H    0.000000  -0.000008
    25  H   -0.000000   0.000000
    26  H   -0.000000  -0.000000
    27  H   -0.000000  -0.000000
    28  H    0.000036   0.000085
    29  H   -0.000009   0.000488
    30  H    0.000000   0.000001
    31  H    0.000000   0.000011
    32  H   -0.000000   0.000041
    33  H   -0.000000   0.000019
    34  H    0.000005   0.000079
    35  H   -0.000125   0.000022
    36  H   -0.006591  -0.000141
    37  H    0.510871  -0.005824
    38  H   -0.005824   0.485661
 Mulliken charges:
               1
     1  C   -0.492113
     2  P    0.437685
     3  C   -0.269974
     4  C   -0.044940
     5  C   -0.131915
     6  C   -0.108866
     7  C   -0.137975
     8  C   -0.021999
     9  C   -0.271300
    10  C   -0.039671
    11  C   -0.127545
    12  C   -0.108682
    13  C   -0.139709
    14  C   -0.019283
    15  C   -0.255300
    16  C   -0.055438
    17  C   -0.124550
    18  C   -0.110625
    19  C   -0.141235
    20  C   -0.027579
    21  H    0.214802
    22  H    0.213695
    23  H    0.214538
    24  H    0.184287
    25  H    0.157736
    26  H    0.160887
    27  H    0.157440
    28  H    0.186027
    29  H    0.183645
    30  H    0.158063
    31  H    0.160412
    32  H    0.157125
    33  H    0.189627
    34  H    0.187807
    35  H    0.158345
    36  H    0.160232
    37  H    0.157032
    38  H    0.189311
 Sum of Mulliken charges =   1.00000
 Mulliken charges with hydrogens summed into heavy atoms:
               1
     1  C    0.150922
     2  P    0.437685
     3  C   -0.269974
     4  C    0.139347
     5  C    0.025821
     6  C    0.052021
     7  C    0.019465
     8  C    0.164027
     9  C   -0.271300
    10  C    0.143974
    11  C    0.030518
    12  C    0.051731
    13  C    0.017416
    14  C    0.170345
    15  C   -0.255300
    16  C    0.132370
    17  C    0.033795
    18  C    0.049607
    19  C    0.015797
    20  C    0.161732
 Electronic spatial extent (au):  <R**2>=           5790.4408
 Charge=              1.0000 electrons
 Dipole moment (field-independent basis, Debye):
    X=              0.0052    Y=             -0.0263    Z=              2.6064  Tot=              2.6066
 Quadrupole moment (field-independent basis, Debye-Ang):
   XX=            -92.8331   YY=            -94.6282   ZZ=           -104.0362
   XY=             -0.1209   XZ=             -0.0068   YZ=             -0.3334
 Traceless Quadrupole moment (field-independent basis, Debye-Ang):
   XX=              4.3328   YY=              2.5376   ZZ=             -6.8704
   XY=             -0.1209   XZ=             -0.0068   YZ=             -0.3334
 Octapole moment (field-independent basis, Debye-Ang**2):
  XXX=              4.3911  YYY=             61.2420  ZZZ=             28.4364  XYY=             -2.8571
  XXY=            -58.5899  XXZ=            -17.1166  XZZ=             -1.0804  YZZ=             -4.2271
  YYZ=            -19.5237  XYZ=             -0.2917
 Hexadecapole moment (field-independent basis, Debye-Ang**3):
 XXXX=          -3013.9875 YYYY=          -3009.0219 ZZZZ=           -902.2128 XXXY=              5.2822
 XXXZ=            117.4838 YYYX=             -6.8267 YYYZ=            -31.4264 ZZZX=              6.5115
 ZZZY=              3.1487 XXYY=           -986.3262 XXZZ=           -675.4853 YYZZ=           -686.8685
 XXYZ=             16.9154 YYXZ=           -126.0284 ZZXY=              0.0517
 N-N= 1.580802778132D+03 E-N=-5.656041414926D+03  KE= 1.071362868627D+03
 No NMR shielding tensors so no spin-rotation constants.
 Leave Link  601 at Tue Feb 23 02:36:34 2021, MaxMem=   104857600 cpu:              11.3 elap:               0.5
 (Enter /sw/arch/RedHatEnterpriseServer7/EB_production/2019/software/Gaussian/g16.c01/l9999.exe)
 Unable to Open any file for archive entry.
 1\1\GINC-TCN1649\SP\RBP86\TZVP\C19H18P1(1+)\ELENAA\23-Feb-2021\0\\#P B
 P86/TZVP SCRF=COSMORS\\Particle #AZFQCTBZOPUVOW-UHFFFAOYSA-N\\1,1\C,0,
 1.139587,-0.338069,1.659997\P,0,1.559337,-1.437602,0.267523\C,0,2.3857
 75,-2.935109,0.88788\C,0,3.378168,-2.820015,1.877863\C,0,4.047479,-3.9
 65746,2.313817\C,0,3.73457,-5.215781,1.764203\C,0,2.749703,-5.32551,0.
 776045\C,0,2.070284,-4.186824,0.333183\C,0,2.669622,-0.574838,-0.88695
 7\C,0,2.408707,0.761857,-1.239155\C,0,3.238284,1.401629,-2.162948\C,0,
 4.317229,0.714511,-2.734071\C,0,4.571554,-0.61618,-2.383248\C,0,3.7495
 22,-1.267531,-1.459104\C,0,0.033922,-1.915483,-0.602209\C,0,-1.038875,
 -2.443004,0.139675\C,0,-2.201989,-2.838132,-0.524155\C,0,-2.294561,-2.
 711726,-1.916732\C,0,-1.223214,-2.191178,-2.650879\C,0,-0.05302,-1.791
 263,-1.997833\H,0,0.557262,0.510528,1.280134\H,0,0.541756,-0.900074,2.
 388317\H,0,2.062942,0.023619,2.128672\H,0,3.635909,-1.849799,2.306123\
 H,0,4.815658,-3.88092,3.084244\H,0,4.261469,-6.107609,2.108648\H,0,2.5
 05801,-6.299103,0.347729\H,0,1.300183,-4.274121,-0.435028\H,0,1.567852
 ,1.305301,-0.804857\H,0,3.040652,2.43944,-2.436224\H,0,4.962182,1.2196
 91,-3.455479\H,0,5.413098,-1.150854,-2.826814\H,0,3.950999,-2.304045,-
 1.182918\H,0,-0.970752,-2.555941,1.223526\H,0,-3.036841,-3.246646,0.04
 7643\H,0,-3.206087,-3.022631,-2.430586\H,0,-1.294663,-2.09477,-3.73551
 4\H,0,0.782705,-1.385659,-2.570498\\Version=ES64L-G16RevC.01\State=1-A
 \HF=-1076.3285946\RMSD=9.162e-09\Dipole=-0.2182901,0.6215944,0.7858941
 \Quadrupole=1.4270431,0.2259632,-1.6530063,1.0813233,1.3626867,-3.8271
 645\PG=C01 [X(C19H18P1)]\\@
 The archive entry for this job was punched.


 THE 2ND LAW OF THERMODYNAMICS HAS THE SAME
 DEGREE OF TRUTH AS THE STATEMENT THAT IF YOU THROW
 A TUMBLERFULL OF WATER INTO THE SEA, YOU CANNOT GET
 THE SAME TUMBLERFULL OF WATER OUT AGAIN.
          - J.C. MAXWELL, LETTER TO LORD RAYLEIGH, DECEMBER 6,1870
 Job cpu time:       0 days  0 hours 33 minutes 32.6 seconds.
 Elapsed time:       0 days  0 hours  1 minutes  4.2 seconds.
 File lengths (MBytes):  RWF=    180 Int=      0 D2E=      0 Chk=     16 Scr=      1
 Normal termination of Gaussian 16 at Tue Feb 23 02:36:34 2021.
