 Entering Gaussian System, Link 0=g16
 Input=BGQMOFGZRJUORO-UHFFFAOYSA-M.gjf
 Output=BGQMOFGZRJUORO-UHFFFAOYSA-M.log
 Initial command:
 /sw/arch/RedHatEnterpriseServer7/EB_production/2020/software/Gaussian/g16.c01/l1.exe "/scratch-local/elenaa.10684687/Gau-25053.inp" -scrdir="/scratch-local/elenaa.10684687/"
 Entering Link 1 = /sw/arch/RedHatEnterpriseServer7/EB_production/2020/software/Gaussian/g16.c01/l1.exe PID=     25055.
  
 Copyright (c) 1988-2019, Gaussian, Inc.  All Rights Reserved.
  
 This is part of the Gaussian(R) 16 program.  It is based on
 the Gaussian(R) 09 system (copyright 2009, Gaussian, Inc.),
 the Gaussian(R) 03 system (copyright 2003, Gaussian, Inc.),
 the Gaussian(R) 98 system (copyright 1998, Gaussian, Inc.),
 the Gaussian(R) 94 system (copyright 1995, Gaussian, Inc.),
 the Gaussian 92(TM) system (copyright 1992, Gaussian, Inc.),
 the Gaussian 90(TM) system (copyright 1990, Gaussian, Inc.),
 the Gaussian 88(TM) system (copyright 1988, Gaussian, Inc.),
 the Gaussian 86(TM) system (copyright 1986, Carnegie Mellon
 University), and the Gaussian 82(TM) system (copyright 1983,
 Carnegie Mellon University). Gaussian is a federally registered
 trademark of Gaussian, Inc.
  
 This software contains proprietary and confidential information,
 including trade secrets, belonging to Gaussian, Inc.
  
 This software is provided under written license and may be
 used, copied, transmitted, or stored only in accord with that
 written license.
  
 The following legend is applicable only to US Government
 contracts under FAR:
  
                    RESTRICTED RIGHTS LEGEND
  
 Use, reproduction and disclosure by the US Government is
 subject to restrictions as set forth in subparagraphs (a)
 and (c) of the Commercial Computer Software - Restricted
 Rights clause in FAR 52.227-19.
  
 Gaussian, Inc.
 340 Quinnipiac St., Bldg. 40, Wallingford CT 06492
  
  
 ---------------------------------------------------------------
 Warning -- This program may not be used in any manner that
 competes with the business of Gaussian, Inc. or will provide
 assistance to any competitor of Gaussian, Inc.  The licensee
 of this program is prohibited from giving any competitor of
 Gaussian, Inc. access to this program.  By using this program,
 the user acknowledges that Gaussian, Inc. is engaged in the
 business of creating and licensing software in the field of
 computational chemistry and represents and warrants to the
 licensee that it is not a competitor of Gaussian, Inc. and that
 it will not use this program in any manner prohibited above.
 ---------------------------------------------------------------
  

 Cite this work as:
 Gaussian 16, Revision C.01,
 M. J. Frisch, G. W. Trucks, H. B. Schlegel, G. E. Scuseria, 
 M. A. Robb, J. R. Cheeseman, G. Scalmani, V. Barone, 
 G. A. Petersson, H. Nakatsuji, X. Li, M. Caricato, A. V. Marenich, 
 J. Bloino, B. G. Janesko, R. Gomperts, B. Mennucci, H. P. Hratchian, 
 J. V. Ortiz, A. F. Izmaylov, J. L. Sonnenberg, D. Williams-Young, 
 F. Ding, F. Lipparini, F. Egidi, J. Goings, B. Peng, A. Petrone, 
 T. Henderson, D. Ranasinghe, V. G. Zakrzewski, J. Gao, N. Rega, 
 G. Zheng, W. Liang, M. Hada, M. Ehara, K. Toyota, R. Fukuda, 
 J. Hasegawa, M. Ishida, T. Nakajima, Y. Honda, O. Kitao, H. Nakai, 
 T. Vreven, K. Throssell, J. A. Montgomery, Jr., J. E. Peralta, 
 F. Ogliaro, M. J. Bearpark, J. J. Heyd, E. N. Brothers, K. N. Kudin, 
 V. N. Staroverov, T. A. Keith, R. Kobayashi, J. Normand, 
 K. Raghavachari, A. P. Rendell, J. C. Burant, S. S. Iyengar, 
 J. Tomasi, M. Cossi, J. M. Millam, M. Klene, C. Adamo, R. Cammi, 
 J. W. Ochterski, R. L. Martin, K. Morokuma, O. Farkas, 
 J. B. Foresman, and D. J. Fox, Gaussian, Inc., Wallingford CT, 2019.
 
 ******************************************
 Gaussian 16:  ES64L-G16RevC.01  3-Jul-2019
                21-Aug-2021 
 ******************************************
 %chk=BGQMOFGZRJUORO-UHFFFAOYSA-M.chk
 %NProcShared=24
 Will use up to   24 processors via shared memory.
 -------------------------------------------------------------
 #P BP86/TZVP EmpiricalDispersion=GD3 SCRF=(Solvent=Water) Opt
 -------------------------------------------------------------
 1/18=20,19=15,26=3,38=1/1,3;
 2/9=110,12=2,17=6,18=5,40=1/2;
 3/5=19,7=101,11=2,25=1,30=1,70=2201,71=1,72=1,74=404,124=31/1,2,3;
 4//1;
 5/5=2,38=5,53=1/2;
 6/7=2,8=2,9=2,10=2,28=1/1;
 7//1,2,3,16;
 1/18=20,19=15,26=3/3(2);
 2/9=110/2;
 99//99;
 2/9=110/2;
 3/5=19,7=101,11=2,25=1,30=1,70=2205,71=1,72=1,74=404,124=31/1,2,3;
 4/5=5,16=3,69=1/1;
 5/5=2,38=5,53=1/2;
 7//1,2,3,16;
 1/18=20,19=15,26=3/3(-5);
 2/9=110/2;
 6/7=2,8=2,9=2,10=2,19=2,28=1/1;
 99/9=1/99;
 Leave Link    1 at Sat Aug 21 09:31:10 2021, MaxMem=           0 cpu:               2.4 elap:               0.4
 (Enter /sw/arch/RedHatEnterpriseServer7/EB_production/2020/software/Gaussian/g16.c01/l101.exe)
 -------------------------------------
 Particle #BGQMOFGZRJUORO-UHFFFAOYSA-M
 -------------------------------------
 Symbolic Z-matrix:
 Charge =  0 Multiplicity = 1
 C                     1.23946   2.73129   3.12991 
 C                     0.35744   1.56226   2.69098 
 C                     0.7586    1.03222   1.29883 
 N                    -0.34324   0.46081   0.4333 
 C                    -1.382     1.55245   0.17526 
 C                    -2.80437   1.42301   0.77221 
 C                    -3.74744   0.56146  -0.07217 
 C                     0.34811   0.24333  -0.90136 
 C                    -0.48988  -0.43248  -2.02717 
 C                     0.01244  -0.03757  -3.4142 
 C                    -0.88441  -0.87398   0.89039 
 C                     0.0669   -1.83227   1.6618 
 C                     1.11027  -2.53883   0.79594 
 Br                    1.06495   3.93412  -0.75609 
 H                     2.30962   2.4327    3.11964 
 H                     1.09286   3.60052   2.45372 
 H                     0.96563   3.03809   4.16156 
 H                    -0.69321   1.90806   2.71684 
 H                     0.51322   0.76052   3.43732 
 H                     1.23471   1.88821   0.7625 
 H                     1.598     0.31578   1.42449 
 H                    -1.52795   1.76556  -0.90694 
 H                    -0.99904   2.54143   0.51586 
 H                    -2.8029    1.10877   1.82598 
 H                    -3.24903   2.44266   0.78805 
 H                    -4.7615    0.57768   0.37981 
 H                    -3.41503  -0.49177  -0.12551 
 H                    -3.82022   0.96778  -1.1033 
 H                     0.70896   1.2233   -1.29819 
 H                     1.27615  -0.35205  -0.78924 
 H                    -0.399    -1.53684  -1.94866 
 H                    -1.56657  -0.17799  -1.96063 
 H                    -0.12192   1.05319  -3.57601 
 H                    -0.56548  -0.5832   -4.18978 
 H                     1.08734  -0.29652  -3.52242 
 H                    -1.77468  -0.75342   1.49486 
 H                    -1.31917  -1.45955   0.06131 
 H                    -0.57142  -2.63063   2.10097 
 H                     0.55733  -1.34673   2.52608 
 H                     1.4746   -3.44345   1.32741 
 H                     0.67511  -2.86075  -0.17278 
 H                     1.99116  -1.8895    0.62538 
 
 Add virtual bond connecting atoms H20        and Br14       Dist= 4.83D+00.
 ITRead=  0  0  0  0  0  0  0  0  0  0  0  0  0  0  0  0  0  0  0  0
 ITRead=  0  0  0  0  0  0  0  0  0  0  0  0  0  0  0  0  0  0  0  0
 ITRead=  0  0
 MicOpt= -1 -1 -1 -1 -1 -1 -1 -1 -1 -1 -1 -1 -1 -1 -1 -1 -1 -1 -1 -1
 MicOpt= -1 -1 -1 -1 -1 -1 -1 -1 -1 -1 -1 -1 -1 -1 -1 -1 -1 -1 -1 -1
 MicOpt= -1 -1
 NAtoms=     42 NQM=       42 NQMF=       0 NMMI=      0 NMMIF=      0
                NMic=       0 NMicF=      0.
                    Isotopes and Nuclear Properties:
 (Nuclear quadrupole moments (NQMom) in fm**2, nuclear magnetic moments (NMagM)
  in nuclear magnetons)

  Atom         1           2           3           4           5           6           7           8           9          10
 IAtWgt=          12          12          12          14          12          12          12          12          12          12
 AtmWgt=  12.0000000  12.0000000  12.0000000  14.0030740  12.0000000  12.0000000  12.0000000  12.0000000  12.0000000  12.0000000
 NucSpn=           0           0           0           2           0           0           0           0           0           0
 AtZEff=  -0.0000000  -0.0000000  -0.0000000  -0.0000000  -0.0000000  -0.0000000  -0.0000000  -0.0000000  -0.0000000  -0.0000000
 NQMom=    0.0000000   0.0000000   0.0000000   2.0440000   0.0000000   0.0000000   0.0000000   0.0000000   0.0000000   0.0000000
 NMagM=    0.0000000   0.0000000   0.0000000   0.4037610   0.0000000   0.0000000   0.0000000   0.0000000   0.0000000   0.0000000
 AtZNuc=   6.0000000   6.0000000   6.0000000   7.0000000   6.0000000   6.0000000   6.0000000   6.0000000   6.0000000   6.0000000

  Atom        11          12          13          14          15          16          17          18          19          20
 IAtWgt=          12          12          12          79           1           1           1           1           1           1
 AtmWgt=  12.0000000  12.0000000  12.0000000  78.9183361   1.0078250   1.0078250   1.0078250   1.0078250   1.0078250   1.0078250
 NucSpn=           0           0           0           3           1           1           1           1           1           1
 AtZEff=  -0.0000000  -0.0000000  -0.0000000  -0.0000000  -0.0000000  -0.0000000  -0.0000000  -0.0000000  -0.0000000  -0.0000000
 NQMom=    0.0000000   0.0000000   0.0000000  31.3000000   0.0000000   0.0000000   0.0000000   0.0000000   0.0000000   0.0000000
 NMagM=    0.0000000   0.0000000   0.0000000   2.1063990   2.7928460   2.7928460   2.7928460   2.7928460   2.7928460   2.7928460
 AtZNuc=   6.0000000   6.0000000   6.0000000  35.0000000   1.0000000   1.0000000   1.0000000   1.0000000   1.0000000   1.0000000

  Atom        21          22          23          24          25          26          27          28          29          30
 IAtWgt=           1           1           1           1           1           1           1           1           1           1
 AtmWgt=   1.0078250   1.0078250   1.0078250   1.0078250   1.0078250   1.0078250   1.0078250   1.0078250   1.0078250   1.0078250
 NucSpn=           1           1           1           1           1           1           1           1           1           1
 AtZEff=  -0.0000000  -0.0000000  -0.0000000  -0.0000000  -0.0000000  -0.0000000  -0.0000000  -0.0000000  -0.0000000  -0.0000000
 NQMom=    0.0000000   0.0000000   0.0000000   0.0000000   0.0000000   0.0000000   0.0000000   0.0000000   0.0000000   0.0000000
 NMagM=    2.7928460   2.7928460   2.7928460   2.7928460   2.7928460   2.7928460   2.7928460   2.7928460   2.7928460   2.7928460
 AtZNuc=   1.0000000   1.0000000   1.0000000   1.0000000   1.0000000   1.0000000   1.0000000   1.0000000   1.0000000   1.0000000

  Atom        31          32          33          34          35          36          37          38          39          40
 IAtWgt=           1           1           1           1           1           1           1           1           1           1
 AtmWgt=   1.0078250   1.0078250   1.0078250   1.0078250   1.0078250   1.0078250   1.0078250   1.0078250   1.0078250   1.0078250
 NucSpn=           1           1           1           1           1           1           1           1           1           1
 AtZEff=  -0.0000000  -0.0000000  -0.0000000  -0.0000000  -0.0000000  -0.0000000  -0.0000000  -0.0000000  -0.0000000  -0.0000000
 NQMom=    0.0000000   0.0000000   0.0000000   0.0000000   0.0000000   0.0000000   0.0000000   0.0000000   0.0000000   0.0000000
 NMagM=    2.7928460   2.7928460   2.7928460   2.7928460   2.7928460   2.7928460   2.7928460   2.7928460   2.7928460   2.7928460
 AtZNuc=   1.0000000   1.0000000   1.0000000   1.0000000   1.0000000   1.0000000   1.0000000   1.0000000   1.0000000   1.0000000

  Atom        41          42
 IAtWgt=           1           1
 AtmWgt=   1.0078250   1.0078250
 NucSpn=           1           1
 AtZEff=  -0.0000000  -0.0000000
 NQMom=    0.0000000   0.0000000
 NMagM=    2.7928460   2.7928460
 AtZNuc=   1.0000000   1.0000000
 Leave Link  101 at Sat Aug 21 09:31:11 2021, MaxMem=   104857600 cpu:               2.0 elap:               0.1
 (Enter /sw/arch/RedHatEnterpriseServer7/EB_production/2020/software/Gaussian/g16.c01/l103.exe)

 GradGradGradGradGradGradGradGradGradGradGradGradGradGradGradGradGradGrad
 Berny optimization.
 Initialization pass.
                           ----------------------------
                           !    Initial Parameters    !
                           ! (Angstroms and Degrees)  !
 --------------------------                            --------------------------
 ! Name  Definition              Value          Derivative Info.                !
 --------------------------------------------------------------------------------
 ! R1    R(1,2)                  1.5288         estimate D2E/DX2                !
 ! R2    R(1,15)                 1.1111         estimate D2E/DX2                !
 ! R3    R(1,16)                 1.111          estimate D2E/DX2                !
 ! R4    R(1,17)                 1.1106         estimate D2E/DX2                !
 ! R5    R(2,3)                  1.5427         estimate D2E/DX2                !
 ! R6    R(2,18)                 1.1064         estimate D2E/DX2                !
 ! R7    R(2,19)                 1.1064         estimate D2E/DX2                !
 ! R8    R(3,4)                  1.5132         estimate D2E/DX2                !
 ! R9    R(3,20)                 1.1167         estimate D2E/DX2                !
 ! R10   R(3,21)                 1.1107         estimate D2E/DX2                !
 ! R11   R(4,5)                  1.5288         estimate D2E/DX2                !
 ! R12   R(4,8)                  1.5187         estimate D2E/DX2                !
 ! R13   R(4,11)                 1.5111         estimate D2E/DX2                !
 ! R14   R(5,6)                  1.548          estimate D2E/DX2                !
 ! R15   R(5,22)                 1.1126         estimate D2E/DX2                !
 ! R16   R(5,23)                 1.1139         estimate D2E/DX2                !
 ! R17   R(6,7)                  1.5312         estimate D2E/DX2                !
 ! R18   R(6,24)                 1.0996         estimate D2E/DX2                !
 ! R19   R(6,25)                 1.1125         estimate D2E/DX2                !
 ! R20   R(7,26)                 1.1103         estimate D2E/DX2                !
 ! R21   R(7,27)                 1.1057         estimate D2E/DX2                !
 ! R22   R(7,28)                 1.1107         estimate D2E/DX2                !
 ! R23   R(8,9)                  1.5577         estimate D2E/DX2                !
 ! R24   R(8,29)                 1.1171         estimate D2E/DX2                !
 ! R25   R(8,30)                 1.1083         estimate D2E/DX2                !
 ! R26   R(9,10)                 1.5271         estimate D2E/DX2                !
 ! R27   R(9,31)                 1.1109         estimate D2E/DX2                !
 ! R28   R(9,32)                 1.1084         estimate D2E/DX2                !
 ! R29   R(10,33)                1.1108         estimate D2E/DX2                !
 ! R30   R(10,34)                1.1105         estimate D2E/DX2                !
 ! R31   R(10,35)                1.1109         estimate D2E/DX2                !
 ! R32   R(11,12)                1.5551         estimate D2E/DX2                !
 ! R33   R(11,36)                1.0828         estimate D2E/DX2                !
 ! R34   R(11,37)                1.1042         estimate D2E/DX2                !
 ! R35   R(12,13)                1.5289         estimate D2E/DX2                !
 ! R36   R(12,38)                1.1125         estimate D2E/DX2                !
 ! R37   R(12,39)                1.106          estimate D2E/DX2                !
 ! R38   R(13,40)                1.1106         estimate D2E/DX2                !
 ! R39   R(13,41)                1.1097         estimate D2E/DX2                !
 ! R40   R(13,42)                1.1076         estimate D2E/DX2                !
 ! R41   R(14,20)                2.5536         estimate D2E/DX2                !
 ! A1    A(2,1,15)             110.3366         estimate D2E/DX2                !
 ! A2    A(2,1,16)             110.3285         estimate D2E/DX2                !
 ! A3    A(2,1,17)             109.6144         estimate D2E/DX2                !
 ! A4    A(15,1,16)            109.374          estimate D2E/DX2                !
 ! A5    A(15,1,17)            108.6811         estimate D2E/DX2                !
 ! A6    A(16,1,17)            108.4639         estimate D2E/DX2                !
 ! A7    A(1,2,3)              111.8256         estimate D2E/DX2                !
 ! A8    A(1,2,18)             107.5872         estimate D2E/DX2                !
 ! A9    A(1,2,19)             106.2131         estimate D2E/DX2                !
 ! A10   A(3,2,18)             112.0496         estimate D2E/DX2                !
 ! A11   A(3,2,19)             108.8544         estimate D2E/DX2                !
 ! A12   A(18,2,19)            110.1466         estimate D2E/DX2                !
 ! A13   A(2,3,4)              117.1657         estimate D2E/DX2                !
 ! A14   A(2,3,20)             106.3151         estimate D2E/DX2                !
 ! A15   A(2,3,21)             108.4236         estimate D2E/DX2                !
 ! A16   A(4,3,20)             108.9771         estimate D2E/DX2                !
 ! A17   A(4,3,21)             111.804          estimate D2E/DX2                !
 ! A18   A(20,3,21)            103.0947         estimate D2E/DX2                !
 ! A19   A(3,4,5)              108.7634         estimate D2E/DX2                !
 ! A20   A(3,4,8)              103.0187         estimate D2E/DX2                !
 ! A21   A(3,4,11)             114.9178         estimate D2E/DX2                !
 ! A22   A(5,4,8)              105.2609         estimate D2E/DX2                !
 ! A23   A(5,4,11)             116.005          estimate D2E/DX2                !
 ! A24   A(8,4,11)             107.5991         estimate D2E/DX2                !
 ! A25   A(4,5,6)              119.9686         estimate D2E/DX2                !
 ! A26   A(4,5,22)             112.9598         estimate D2E/DX2                !
 ! A27   A(4,5,23)             110.4115         estimate D2E/DX2                !
 ! A28   A(6,5,22)             105.6983         estimate D2E/DX2                !
 ! A29   A(6,5,23)             105.7969         estimate D2E/DX2                !
 ! A30   A(22,5,23)             99.9305         estimate D2E/DX2                !
 ! A31   A(5,6,7)              113.5977         estimate D2E/DX2                !
 ! A32   A(5,6,24)             113.0923         estimate D2E/DX2                !
 ! A33   A(5,6,25)             107.2244         estimate D2E/DX2                !
 ! A34   A(7,6,24)             111.6217         estimate D2E/DX2                !
 ! A35   A(7,6,25)             106.1038         estimate D2E/DX2                !
 ! A36   A(24,6,25)            104.4074         estimate D2E/DX2                !
 ! A37   A(6,7,26)             109.2565         estimate D2E/DX2                !
 ! A38   A(6,7,27)             112.1729         estimate D2E/DX2                !
 ! A39   A(6,7,28)             110.2714         estimate D2E/DX2                !
 ! A40   A(26,7,27)            107.945          estimate D2E/DX2                !
 ! A41   A(26,7,28)            108.2228         estimate D2E/DX2                !
 ! A42   A(27,7,28)            108.8666         estimate D2E/DX2                !
 ! A43   A(4,8,9)              116.8962         estimate D2E/DX2                !
 ! A44   A(4,8,29)             109.4868         estimate D2E/DX2                !
 ! A45   A(4,8,30)             111.6665         estimate D2E/DX2                !
 ! A46   A(9,8,29)             107.3145         estimate D2E/DX2                !
 ! A47   A(9,8,30)             106.8888         estimate D2E/DX2                !
 ! A48   A(29,8,30)            103.6921         estimate D2E/DX2                !
 ! A49   A(8,9,10)             111.5485         estimate D2E/DX2                !
 ! A50   A(8,9,31)             109.6472         estimate D2E/DX2                !
 ! A51   A(8,9,32)             112.3087         estimate D2E/DX2                !
 ! A52   A(10,9,31)            107.1195         estimate D2E/DX2                !
 ! A53   A(10,9,32)            108.3413         estimate D2E/DX2                !
 ! A54   A(31,9,32)            107.6673         estimate D2E/DX2                !
 ! A55   A(9,10,33)            110.2695         estimate D2E/DX2                !
 ! A56   A(9,10,34)            109.6389         estimate D2E/DX2                !
 ! A57   A(9,10,35)            110.2709         estimate D2E/DX2                !
 ! A58   A(33,10,34)           108.5283         estimate D2E/DX2                !
 ! A59   A(33,10,35)           109.3731         estimate D2E/DX2                !
 ! A60   A(34,10,35)           108.7213         estimate D2E/DX2                !
 ! A61   A(4,11,12)            118.378          estimate D2E/DX2                !
 ! A62   A(4,11,36)            111.4051         estimate D2E/DX2                !
 ! A63   A(4,11,37)            112.4776         estimate D2E/DX2                !
 ! A64   A(12,11,36)           107.1358         estimate D2E/DX2                !
 ! A65   A(12,11,37)           106.6494         estimate D2E/DX2                !
 ! A66   A(36,11,37)            98.8865         estimate D2E/DX2                !
 ! A67   A(11,12,13)           114.9173         estimate D2E/DX2                !
 ! A68   A(11,12,38)           106.6804         estimate D2E/DX2                !
 ! A69   A(11,12,39)           112.8526         estimate D2E/DX2                !
 ! A70   A(13,12,38)           106.4679         estimate D2E/DX2                !
 ! A71   A(13,12,39)           110.0492         estimate D2E/DX2                !
 ! A72   A(38,12,39)           105.1283         estimate D2E/DX2                !
 ! A73   A(12,13,40)           109.2243         estimate D2E/DX2                !
 ! A74   A(12,13,41)           111.1515         estimate D2E/DX2                !
 ! A75   A(12,13,42)           111.0407         estimate D2E/DX2                !
 ! A76   A(40,13,41)           108.0648         estimate D2E/DX2                !
 ! A77   A(40,13,42)           106.8765         estimate D2E/DX2                !
 ! A78   A(41,13,42)           110.3365         estimate D2E/DX2                !
 ! A79   A(3,20,14)            150.6234         estimate D2E/DX2                !
 ! D1    D(15,1,2,3)           -56.5079         estimate D2E/DX2                !
 ! D2    D(15,1,2,18)         -179.9552         estimate D2E/DX2                !
 ! D3    D(15,1,2,19)           62.1115         estimate D2E/DX2                !
 ! D4    D(16,1,2,3)            64.4626         estimate D2E/DX2                !
 ! D5    D(16,1,2,18)          -58.9847         estimate D2E/DX2                !
 ! D6    D(16,1,2,19)         -176.918          estimate D2E/DX2                !
 ! D7    D(17,1,2,3)          -176.1591         estimate D2E/DX2                !
 ! D8    D(17,1,2,18)           60.3935         estimate D2E/DX2                !
 ! D9    D(17,1,2,19)          -57.5397         estimate D2E/DX2                !
 ! D10   D(1,2,3,4)           -148.3844         estimate D2E/DX2                !
 ! D11   D(1,2,3,20)           -26.3077         estimate D2E/DX2                !
 ! D12   D(1,2,3,21)            83.9549         estimate D2E/DX2                !
 ! D13   D(18,2,3,4)           -27.4949         estimate D2E/DX2                !
 ! D14   D(18,2,3,20)           94.5818         estimate D2E/DX2                !
 ! D15   D(18,2,3,21)         -155.1555         estimate D2E/DX2                !
 ! D16   D(19,2,3,4)            94.5772         estimate D2E/DX2                !
 ! D17   D(19,2,3,20)         -143.3461         estimate D2E/DX2                !
 ! D18   D(19,2,3,21)          -33.0834         estimate D2E/DX2                !
 ! D19   D(2,3,4,5)             60.3648         estimate D2E/DX2                !
 ! D20   D(2,3,4,8)            171.7027         estimate D2E/DX2                !
 ! D21   D(2,3,4,11)           -71.5795         estimate D2E/DX2                !
 ! D22   D(20,3,4,5)           -60.3235         estimate D2E/DX2                !
 ! D23   D(20,3,4,8)            51.0144         estimate D2E/DX2                !
 ! D24   D(20,3,4,11)          167.7323         estimate D2E/DX2                !
 ! D25   D(21,3,4,5)          -173.6277         estimate D2E/DX2                !
 ! D26   D(21,3,4,8)           -62.2898         estimate D2E/DX2                !
 ! D27   D(21,3,4,11)           54.4281         estimate D2E/DX2                !
 ! D28   D(2,3,20,14)          -89.9152         estimate D2E/DX2                !
 ! D29   D(4,3,20,14)           37.2215         estimate D2E/DX2                !
 ! D30   D(21,3,20,14)         156.1198         estimate D2E/DX2                !
 ! D31   D(3,4,5,6)           -112.9161         estimate D2E/DX2                !
 ! D32   D(3,4,5,22)           121.3879         estimate D2E/DX2                !
 ! D33   D(3,4,5,23)            10.4419         estimate D2E/DX2                !
 ! D34   D(8,4,5,6)            137.25           estimate D2E/DX2                !
 ! D35   D(8,4,5,22)            11.554          estimate D2E/DX2                !
 ! D36   D(8,4,5,23)           -99.392          estimate D2E/DX2                !
 ! D37   D(11,4,5,6)            18.4461         estimate D2E/DX2                !
 ! D38   D(11,4,5,22)         -107.2499         estimate D2E/DX2                !
 ! D39   D(11,4,5,23)          141.8041         estimate D2E/DX2                !
 ! D40   D(3,4,8,9)            176.2695         estimate D2E/DX2                !
 ! D41   D(3,4,8,29)           -61.4892         estimate D2E/DX2                !
 ! D42   D(3,4,8,30)            52.763          estimate D2E/DX2                !
 ! D43   D(5,4,8,9)            -69.8207         estimate D2E/DX2                !
 ! D44   D(5,4,8,29)            52.4206         estimate D2E/DX2                !
 ! D45   D(5,4,8,30)           166.6727         estimate D2E/DX2                !
 ! D46   D(11,4,8,9)            54.4661         estimate D2E/DX2                !
 ! D47   D(11,4,8,29)          176.7074         estimate D2E/DX2                !
 ! D48   D(11,4,8,30)          -69.0404         estimate D2E/DX2                !
 ! D49   D(3,4,11,12)          -29.1718         estimate D2E/DX2                !
 ! D50   D(3,4,11,36)           95.6795         estimate D2E/DX2                !
 ! D51   D(3,4,11,37)         -154.3367         estimate D2E/DX2                !
 ! D52   D(5,4,11,12)         -157.5802         estimate D2E/DX2                !
 ! D53   D(5,4,11,36)          -32.7289         estimate D2E/DX2                !
 ! D54   D(5,4,11,37)           77.2549         estimate D2E/DX2                !
 ! D55   D(8,4,11,12)           84.9042         estimate D2E/DX2                !
 ! D56   D(8,4,11,36)         -150.2446         estimate D2E/DX2                !
 ! D57   D(8,4,11,37)          -40.2607         estimate D2E/DX2                !
 ! D58   D(4,5,6,7)            -83.4773         estimate D2E/DX2                !
 ! D59   D(4,5,6,24)            45.0865         estimate D2E/DX2                !
 ! D60   D(4,5,6,25)           159.6293         estimate D2E/DX2                !
 ! D61   D(22,5,6,7)            45.5578         estimate D2E/DX2                !
 ! D62   D(22,5,6,24)          174.1216         estimate D2E/DX2                !
 ! D63   D(22,5,6,25)          -71.3356         estimate D2E/DX2                !
 ! D64   D(23,5,6,7)           150.9652         estimate D2E/DX2                !
 ! D65   D(23,5,6,24)          -80.471          estimate D2E/DX2                !
 ! D66   D(23,5,6,25)           34.0718         estimate D2E/DX2                !
 ! D67   D(5,6,7,26)          -175.913          estimate D2E/DX2                !
 ! D68   D(5,6,7,27)            64.4306         estimate D2E/DX2                !
 ! D69   D(5,6,7,28)           -57.0875         estimate D2E/DX2                !
 ! D70   D(24,6,7,26)           54.7746         estimate D2E/DX2                !
 ! D71   D(24,6,7,27)          -64.8818         estimate D2E/DX2                !
 ! D72   D(24,6,7,28)          173.6002         estimate D2E/DX2                !
 ! D73   D(25,6,7,26)          -58.3675         estimate D2E/DX2                !
 ! D74   D(25,6,7,27)         -178.0239         estimate D2E/DX2                !
 ! D75   D(25,6,7,28)           60.4581         estimate D2E/DX2                !
 ! D76   D(4,8,9,10)           153.8703         estimate D2E/DX2                !
 ! D77   D(4,8,9,31)           -87.6381         estimate D2E/DX2                !
 ! D78   D(4,8,9,32)            32.0188         estimate D2E/DX2                !
 ! D79   D(29,8,9,10)           30.5077         estimate D2E/DX2                !
 ! D80   D(29,8,9,31)          148.9992         estimate D2E/DX2                !
 ! D81   D(29,8,9,32)          -91.3438         estimate D2E/DX2                !
 ! D82   D(30,8,9,10)          -80.21           estimate D2E/DX2                !
 ! D83   D(30,8,9,31)           38.2816         estimate D2E/DX2                !
 ! D84   D(30,8,9,32)          157.9385         estimate D2E/DX2                !
 ! D85   D(8,9,10,33)          -63.9692         estimate D2E/DX2                !
 ! D86   D(8,9,10,34)          176.5943         estimate D2E/DX2                !
 ! D87   D(8,9,10,35)           56.9188         estimate D2E/DX2                !
 ! D88   D(31,9,10,33)         176.0386         estimate D2E/DX2                !
 ! D89   D(31,9,10,34)          56.602          estimate D2E/DX2                !
 ! D90   D(31,9,10,35)         -63.0734         estimate D2E/DX2                !
 ! D91   D(32,9,10,33)          60.1472         estimate D2E/DX2                !
 ! D92   D(32,9,10,34)         -59.2893         estimate D2E/DX2                !
 ! D93   D(32,9,10,35)        -178.9648         estimate D2E/DX2                !
 ! D94   D(4,11,12,13)         -74.91           estimate D2E/DX2                !
 ! D95   D(4,11,12,38)         167.3472         estimate D2E/DX2                !
 ! D96   D(4,11,12,39)          52.3904         estimate D2E/DX2                !
 ! D97   D(36,11,12,13)        158.1748         estimate D2E/DX2                !
 ! D98   D(36,11,12,38)         40.432          estimate D2E/DX2                !
 ! D99   D(36,11,12,39)        -74.5247         estimate D2E/DX2                !
 ! D100  D(37,11,12,13)         53.0494         estimate D2E/DX2                !
 ! D101  D(37,11,12,38)        -64.6934         estimate D2E/DX2                !
 ! D102  D(37,11,12,39)       -179.6501         estimate D2E/DX2                !
 ! D103  D(11,12,13,40)       -159.3309         estimate D2E/DX2                !
 ! D104  D(11,12,13,41)        -40.1843         estimate D2E/DX2                !
 ! D105  D(11,12,13,42)         83.0519         estimate D2E/DX2                !
 ! D106  D(38,12,13,40)        -41.4682         estimate D2E/DX2                !
 ! D107  D(38,12,13,41)         77.6785         estimate D2E/DX2                !
 ! D108  D(38,12,13,42)       -159.0853         estimate D2E/DX2                !
 ! D109  D(39,12,13,40)         71.9588         estimate D2E/DX2                !
 ! D110  D(39,12,13,41)       -168.8946         estimate D2E/DX2                !
 ! D111  D(39,12,13,42)        -45.6584         estimate D2E/DX2                !
 --------------------------------------------------------------------------------
 Trust Radius=3.00D-01 FncErr=1.00D-07 GrdErr=1.00D-06 EigMax=2.50D+02 EigMin=1.00D-04
 Number of steps in this run=    241 maximum allowed number of steps=    252.
 GradGradGradGradGradGradGradGradGradGradGradGradGradGradGradGradGradGrad

 Leave Link  103 at Sat Aug 21 09:31:11 2021, MaxMem=   104857600 cpu:               0.3 elap:               0.0
 (Enter /sw/arch/RedHatEnterpriseServer7/EB_production/2020/software/Gaussian/g16.c01/l202.exe)
                          Input orientation:                          
 ---------------------------------------------------------------------
 Center     Atomic      Atomic             Coordinates (Angstroms)
 Number     Number       Type             X           Y           Z
 ---------------------------------------------------------------------
      1          6           0        1.239461    2.731289    3.129908
      2          6           0        0.357441    1.562255    2.690978
      3          6           0        0.758599    1.032224    1.298833
      4          7           0       -0.343243    0.460813    0.433302
      5          6           0       -1.381997    1.552446    0.175257
      6          6           0       -2.804369    1.423012    0.772209
      7          6           0       -3.747437    0.561458   -0.072165
      8          6           0        0.348111    0.243334   -0.901360
      9          6           0       -0.489877   -0.432480   -2.027166
     10          6           0        0.012441   -0.037566   -3.414199
     11          6           0       -0.884412   -0.873976    0.890386
     12          6           0        0.066901   -1.832272    1.661801
     13          6           0        1.110269   -2.538834    0.795937
     14         35           0        1.064955    3.934121   -0.756095
     15          1           0        2.309617    2.432699    3.119641
     16          1           0        1.092858    3.600523    2.453718
     17          1           0        0.965634    3.038087    4.161559
     18          1           0       -0.693208    1.908057    2.716838
     19          1           0        0.513215    0.760517    3.437322
     20          1           0        1.234709    1.888209    0.762497
     21          1           0        1.597998    0.315783    1.424493
     22          1           0       -1.527954    1.765564   -0.906944
     23          1           0       -0.999037    2.541425    0.515857
     24          1           0       -2.802895    1.108768    1.825984
     25          1           0       -3.249030    2.442662    0.788045
     26          1           0       -4.761498    0.577678    0.379813
     27          1           0       -3.415034   -0.491774   -0.125512
     28          1           0       -3.820221    0.967777   -1.103303
     29          1           0        0.708958    1.223301   -1.298194
     30          1           0        1.276147   -0.352050   -0.789243
     31          1           0       -0.399003   -1.536838   -1.948656
     32          1           0       -1.566572   -0.177989   -1.960632
     33          1           0       -0.121920    1.053187   -3.576010
     34          1           0       -0.565480   -0.583203   -4.189782
     35          1           0        1.087338   -0.296517   -3.522421
     36          1           0       -1.774676   -0.753423    1.494860
     37          1           0       -1.319168   -1.459552    0.061307
     38          1           0       -0.571420   -2.630625    2.100969
     39          1           0        0.557328   -1.346730    2.526075
     40          1           0        1.474602   -3.443452    1.327407
     41          1           0        0.675108   -2.860747   -0.172784
     42          1           0        1.991157   -1.889495    0.625380
 ---------------------------------------------------------------------
                    Distance matrix (angstroms):
                    1          2          3          4          5
     1  C    0.000000
     2  C    1.528810   0.000000
     3  C    2.543794   1.542702   0.000000
     4  N    3.864155   2.607917   1.513179   0.000000
     5  C    4.122096   3.058528   2.472894   1.528810   0.000000
     6  C    4.860339   3.701095   3.622815   2.664175   1.547982
     7  C    6.311148   5.048423   4.733457   3.442988   2.576544
     8  C    4.820326   3.826817   2.373120   1.518746   2.422014
     9  C    6.292492   5.192090   3.842697   2.621713   3.096204
    10  C    7.210927   6.320731   4.890181   3.895915   4.166148
    11  C    4.745970   3.274073   2.549493   1.511109   2.578085
    12  C    4.935213   3.558993   2.969096   2.633565   3.970571
    13  C    5.765267   4.580050   3.623401   3.352922   4.830653
    14  Br   4.071643   4.243658   3.568976   3.932118   3.539402
    15  H    1.111078   2.180004   2.771701   4.259392   4.803359
    16  H    1.110987   2.179832   2.835780   4.000281   3.938389
    17  H    1.110590   2.170389   3.501650   4.717563   4.858920
    18  H    2.140922   1.106396   2.210331   2.726083   2.657165
    19  H    2.122706   1.106381   2.169602   3.138069   3.854873
    20  H    2.513054   2.143568   1.116713   2.153082   2.702728
    21  H    2.978533   2.167178   1.110706   2.184470   3.459812
    22  H    4.988726   4.067074   3.260608   2.214086   1.112601
    23  H    3.446764   2.744077   2.445409   2.183078   1.113888
    24  H    4.546805   3.307807   3.601109   2.899879   2.222769
    25  H    5.070915   4.171679   4.279174   3.535133   2.157268
    26  H    6.943527   5.702141   5.614506   4.420124   3.523215
    27  H    6.530713   5.136460   4.665891   3.264291   2.898713
    28  H    6.828648   5.674754   5.171074   3.835042   2.814514
    29  H    4.707818   4.018949   2.604520   2.164854   2.579048
    30  H    4.986790   4.076828   2.558150   2.185815   3.409266
    31  H    6.833248   5.630523   4.299571   3.109251   3.875688
    32  H    6.500101   5.326138   4.182720   2.763245   2.755085
    33  H    7.045475   6.305876   4.953771   4.058876   3.988616
    34  H    8.235383   7.266335   5.872622   4.744709   4.927602
    35  H    7.310556   6.526416   5.011797   4.274091   4.815506
    36  H    4.888928   3.367341   3.105551   2.156450   2.685625
    37  H    5.790168   4.342523   3.472396   2.186004   3.014807
    38  H    5.752228   4.334874   3.978547   3.519967   4.675841
    39  H    4.178535   2.920504   2.684410   2.908254   4.206251
    40  H    6.436748   5.307021   4.532676   4.398553   5.869123
    41  H    6.518983   5.278730   4.162673   3.526633   4.881504
    42  H    5.309365   4.341693   3.241787   3.318172   4.840221
                    6          7          8          9         10
     6  C    0.000000
     7  C    1.531215   0.000000
     8  C    3.759070   4.190737   0.000000
     9  C    4.078753   3.927039   1.557687   0.000000
    10  C    5.252972   5.066034   2.550674   1.527135   0.000000
    11  C    2.996057   3.344232   2.444964   2.977026   4.475866
    12  C    4.430851   4.825532   3.310138   3.984708   5.384209
    13  C    5.569666   5.827754   3.346963   3.868734   5.018647
    14  Br   4.859326   5.916226   3.762562   4.806280   4.893629
    15  H    5.716884   7.097681   4.980891   6.521966   7.353250
    16  H    4.770472   6.248556   4.804364   6.232855   6.988236
    17  H    5.320628   6.802290   5.815937   7.243181   8.231666
    18  H    2.910988   4.349733   4.116674   5.293867   6.470935
    19  H    4.306749   5.523521   4.372516   5.682435   6.916000
    20  H    4.065791   5.222902   2.502017   4.017713   4.758922
    21  H    4.586095   5.556439   2.641412   4.102812   5.104095
    22  H    2.136851   2.659480   2.415954   2.676546   3.451148
    23  H    2.139109   3.437985   3.017372   3.945925   4.808287
    24  H    1.099633   2.189675   4.256315   4.751028   6.058029
    25  H    1.112502   2.127745   4.542087   4.879014   5.869206
    26  H    2.167699   1.110345   5.278380   5.006068   6.128911
    27  H    2.201186   1.105728   3.911980   3.489462   4.771724
    28  H    2.180995   1.110693   4.235633   3.728999   4.586966
    29  H    4.082881   4.669116   1.117150   2.170303   2.559765
    30  H    4.715887   5.156073   1.108288   2.158185   2.930230
    31  H    4.685040   4.374480   2.196365   1.110868   2.136567
    32  H    3.400554   2.978131   2.228358   1.108361   2.150781
    33  H    5.122432   5.065876   2.833821   2.177502   1.110846
    34  H    5.801627   5.328214   3.511628   2.169180   1.110514
    35  H    6.045330   6.001286   2.776303   2.177586   1.110933
    36  H    2.513834   2.841877   3.352852   3.762762   5.273054
    37  H    3.319696   3.162086   2.570286   2.470692   3.984265
    38  H    4.814939   4.999899   4.256660   4.677605   6.122249
    39  H    4.695586   5.378014   3.784096   4.760724   6.107182
    40  H    6.503869   6.728135   4.452951   4.917142   6.018372
    41  H    5.599139   5.592899   3.205163   3.269924   4.349282
    42  H    5.830208   6.278949   3.095076   3.913365   4.864479
                   11         12         13         14         15
    11  C    0.000000
    12  C    1.555123   0.000000
    13  C    2.599889   1.528910   0.000000
    14  Br   5.443227   6.331952   6.656576   0.000000
    15  H    5.109354   5.034387   5.617310   4.338753   0.000000
    16  H    5.135635   5.585247   6.359265   3.227222   1.813221
    17  H    5.424710   5.547694   6.515396   4.999606   1.805098
    18  H    3.333496   3.959915   5.168871   4.388318   3.074810
    19  H    3.333438   3.173992   4.268384   5.287809   2.474707
    20  H    3.483776   4.001812   4.428918   2.553565   2.647267
    21  H    2.804132   2.648530   2.963410   4.258106   2.803794
    22  H    3.257562   4.699621   5.328027   3.383573   5.602268
    23  H    3.437786   4.645281   5.507871   2.795984   4.211734
    24  H    2.913279   4.112469   5.447830   5.441508   5.437290
    25  H    4.074553   5.480320   6.619581   4.818639   6.027852
    26  H    4.171304   5.546602   6.660590   6.819351   7.806947
    27  H    2.753575   4.137063   5.051524   6.329019   7.201055
    28  H    3.998228   5.531346   6.341385   5.725792   7.586446
    29  H    3.424512   4.302364   4.324361   2.787320   4.852012
    30  H    2.785960   3.108207   2.705981   4.291499   4.909405
    31  H    2.955532   3.652362   3.288569   5.787639   6.984374
    32  H    3.012979   4.304289   4.509738   5.028448   6.902877
    33  H    4.923824   5.982992   5.790926   4.202425   7.255837
    34  H    5.098468   6.016735   5.611597   5.903790   8.413650
    35  H    4.867661   5.502362   4.865874   5.054835   7.284200
    36  H    1.082817   2.140839   3.463971   5.924809   5.428880
    37  H    1.104212   2.149811   2.758024   5.953477   6.137679
    38  H    2.156221   1.112515   2.130637   7.344142   5.913993
    39  H    2.231051   1.106001   2.172610   6.238406   4.207959
    40  H    3.515415   2.165489   1.110645   7.677068   6.199879
    41  H    2.740382   2.189379   1.109691   6.830993   6.444552
    42  H    3.061112   2.186368   1.107562   6.056470   5.000412
                   16         17         18         19         20
    16  H    0.000000
    17  H    1.802565   0.000000
    18  H    2.474612   2.473043   0.000000
    19  H    3.060898   2.432391   1.814222   0.000000
    20  H    2.410886   3.598367   2.745306   2.991142   0.000000
    21  H    3.479079   3.911822   3.074917   2.329383   1.744345
    22  H    4.640019   5.790252   3.721411   4.903992   3.230229
    23  H    3.041877   4.171061   2.310628   3.740788   2.340330
    24  H    4.666882   4.835183   2.425544   3.703279   4.247444
    25  H    4.792400   5.431254   3.246270   4.899262   4.517963
    26  H    6.907399   7.290765   4.876738   6.099540   6.149670
    27  H    6.612141   7.073129   4.609390   5.449143   5.298395
    28  H    6.612269   7.410085   5.025516   6.280040   5.466326
    29  H    4.458184   5.759187   4.307603   4.762100   2.228220
    30  H    5.115977   6.008318   4.612922   4.436634   2.725504
    31  H    6.928133   7.754154   5.806952   5.926107   4.663723
    32  H    6.390321   7.364539   5.195486   5.860394   4.419477
    33  H    6.657494   8.061797   6.376293   7.048112   4.621726
    34  H    8.024322   9.230544   7.343302   7.819327   5.820105
    35  H    7.134507   8.377228   6.852652   7.062929   4.811992
    36  H    5.300850   5.384806   3.121903   3.361490   4.070746
    37  H    6.094740   6.500857   4.334104   4.436644   4.268660
    38  H    6.459215   6.224376   4.581895   3.802909   5.047125
    39  H    4.976680   4.697674   3.491972   2.296259   3.746182
    40  H    7.143661   7.092377   5.938734   4.800975   5.366869
    41  H    6.987205   7.325789   5.741402   5.115919   4.872421
    42  H    5.855771   6.151205   5.099158   4.136894   3.855135
                   21         22         23         24         25
    21  H    0.000000
    22  H    4.160413   0.000000
    23  H    3.538883   1.704722   0.000000
    24  H    4.489753   3.086382   2.650065   0.000000
    25  H    5.331263   2.508695   2.268548   1.748035   0.000000
    26  H    6.450049   3.677312   4.246283   2.491905   2.435647
    27  H    5.308969   3.044221   3.930482   2.597072   3.077833
    28  H    6.014312   2.435058   3.613465   3.104119   2.465511
    29  H    3.004498   2.334716   2.818773   4.701778   4.637338
    30  H    2.334570   3.515839   3.905374   5.060829   5.547565
    31  H    4.335707   3.642191   4.802717   5.198638   5.607906
    32  H    4.660192   2.211142   3.721600   4.186012   4.153758
    33  H    5.339187   3.099730   4.441572   6.030941   5.545668
    34  H    6.083494   4.149709   5.665184   6.637638   6.413740
    35  H    5.010753   4.234696   5.358597   6.761226   6.699799
    36  H    3.538797   3.489245   3.523647   2.152820   3.590023
    37  H    3.676948   3.373792   4.039420   3.451347   4.413591
    38  H    3.720929   5.411929   5.426374   4.363274   5.884862
    39  H    2.249539   5.081377   4.645535   4.220272   5.645228
    40  H    3.762512   6.414165   6.526581   6.266440   7.566370
    41  H    3.673331   5.176411   5.697407   5.643459   6.666948
    42  H    2.378320   5.300152   5.346616   5.780481   6.801000
                   26         27         28         29         30
    26  H    0.000000
    27  H    1.792218   0.000000
    28  H    1.799392   1.802926   0.000000
    29  H    5.758335   4.617789   4.540566   0.000000
    30  H    6.219666   4.739962   5.273855   1.749990   0.000000
    31  H    5.378132   3.675929   4.323477   3.044511   2.356711
    32  H    4.031906   2.623535   2.669593   2.753266   3.079529
    33  H    6.115581   5.013725   4.449607   2.430585   3.419847
    34  H    6.311530   4.964535   4.746075   3.639908   3.874105
    35  H    7.085233   5.643445   5.615577   2.720332   2.740255
    36  H    3.454890   2.320526   3.727900   4.228123   3.832199
    37  H    4.012653   2.316063   3.674712   3.627566   2.947144
    38  H    5.550886   4.197385   5.811245   5.295887   4.118098
    39  H    6.049768   4.851961   6.139402   4.610107   3.535169
    40  H    7.480399   5.893379   7.307698   5.409120   3.751847
    41  H    6.456378   4.726894   5.977578   4.236407   2.652325
    42  H    7.193441   5.634214   6.702571   3.877328   2.208197
                   31         32         33         34         35
    31  H    0.000000
    32  H    1.791600   0.000000
    33  H    3.071365   2.492441   0.000000
    34  H    2.441266   2.476993   1.803118   0.000000
    35  H    2.494863   3.081635   1.812975   1.805372   0.000000
    36  H    3.789989   3.509253   5.631089   5.814317   5.794221
    37  H    2.211929   2.406626   4.580102   4.405427   4.470685
    38  H    4.198281   4.847923   6.782375   6.615551   6.310472
    39  H    4.579730   5.099750   6.592148   6.851745   6.161831
    40  H    4.228257   5.542850   6.841940   6.540821   5.794308
    41  H    2.461741   3.926668   5.247483   4.781479   4.238547
    42  H    3.530282   4.719549   5.547626   5.606120   4.534173
                   36         37         38         39         40
    36  H    0.000000
    37  H    1.661680   0.000000
    38  H    2.310645   2.467947   0.000000
    39  H    2.617950   3.099846   1.761583   0.000000
    40  H    4.221623   3.652947   2.333515   2.583494   0.000000
    41  H    3.636385   2.448527   2.603217   3.096766   1.797028
    42  H    4.028418   3.385451   3.048514   2.441946   1.781700
                   41         42
    41  H    0.000000
    42  H    1.819995   0.000000
 Stoichiometry    C12H28BrN
 Framework group  C1[X(C12H28BrN)]
 Deg. of freedom   120
 Full point group                 C1      NOp   1
 Largest Abelian subgroup         C1      NOp   1
 Largest concise Abelian subgroup C1      NOp   1
                         Standard orientation:                         
 ---------------------------------------------------------------------
 Center     Atomic      Atomic             Coordinates (Angstroms)
 Number     Number       Type             X           Y           Z
 ---------------------------------------------------------------------
      1          6           0       -1.552630    3.276601   -0.107231
      2          6           0       -0.215588    2.615880    0.228963
      3          6           0        0.008276    1.326293   -0.587602
      4          7           0        0.808314    0.222680    0.069428
      5          6           0        0.086521   -0.216221    1.343650
      6          6           0        0.727140    0.052781    2.726940
      7          6           0        1.751637   -1.005914    3.144304
      8          6           0        0.650976   -0.936855   -0.898722
      9          6           0        1.437325   -2.240756   -0.570263
     10          6           0        0.758589   -3.470913   -1.168738
     11          6           0        2.286413    0.504213    0.208760
     12          6           0        2.964737    1.429616   -0.840961
     13          6           0        3.204293    0.786647   -2.207260
     14         35           0       -3.037907   -0.509910   -0.293134
     15          1           0       -1.615680    3.488425   -1.196107
     16          1           0       -2.395055    2.615664    0.189040
     17          1           0       -1.645102    4.234323    0.447411
     18          1           0       -0.201595    2.425159    1.318706
     19          1           0        0.567740    3.349615   -0.039568
     20          1           0       -1.006578    0.936509   -0.842920
     21          1           0        0.426852    1.605947   -1.577681
     22          1           0       -0.181190   -1.296130    1.340755
     23          1           0       -0.931391    0.233910    1.388189
     24          1           0        1.133371    1.070042    2.823627
     25          1           0       -0.088515    0.007503    3.482134
     26          1           0        2.108998   -0.784579    4.172006
     27          1           0        2.630942   -1.022778    2.474101
     28          1           0        1.283970   -2.013340    3.148634
     29          1           0       -0.428962   -1.211221   -0.979223
     30          1           0        0.925754   -0.646919   -1.932519
     31          1           0        2.456059   -2.183222   -1.009466
     32          1           0        1.549905   -2.400660    0.520709
     33          1           0       -0.242163   -3.619627   -0.710091
     34          1           0        1.375879   -4.372134   -0.968752
     35          1           0        0.646397   -3.352224   -2.267600
     36          1           0        2.521920    0.904850    1.186778
     37          1           0        2.889777   -0.419516    0.253014
     38          1           0        3.967113    1.691419   -0.435507
     39          1           0        2.441398    2.396252   -0.963315
     40          1           0        3.995002    1.352433   -2.744101
     41          1           0        3.544891   -0.264135   -2.101124
     42          1           0        2.292702    0.834306   -2.834495
 ---------------------------------------------------------------------
 Rotational constants (GHZ):           0.4646298           0.3011938           0.2674717
 Leave Link  202 at Sat Aug 21 09:31:11 2021, MaxMem=   104857600 cpu:               0.5 elap:               0.0
 (Enter /sw/arch/RedHatEnterpriseServer7/EB_production/2020/software/Gaussian/g16.c01/l301.exe)
 Standard basis: TZVP (5D, 7F)
 Ernie: Thresh=  0.10000D-02 Tol=  0.10000D-05 Strict=F.
 There are   467 symmetry adapted cartesian basis functions of A   symmetry.
 There are   451 symmetry adapted basis functions of A   symmetry.
   451 basis functions,   777 primitive gaussians,   467 cartesian basis functions
    71 alpha electrons       71 beta electrons
       nuclear repulsion energy      1364.5578700936 Hartrees.
 IExCor=  404 DFT=T Ex=B Corr=P86 ExCW=0 ScaHFX=  0.000000
 ScaDFX=  1.000000  1.000000  1.000000  1.000000 ScalE2=  1.000000  1.000000
 IRadAn=      5 IRanWt=     -1 IRanGd=            0 ICorTp=0 IEmpDi=131
 NAtoms=   42 NActive=   42 NUniq=   42 SFac= 1.00D+00 NAtFMM=   60 NAOKFM=F Big=F
 Integral buffers will be    131072 words long.
 Raffenetti 2 integral format.
 Two-electron integral symmetry is turned on.
 R6Disp:  Grimme-D3 Dispersion energy=       -0.0597184777 Hartrees.
 Nuclear repulsion after empirical dispersion term =     1364.4981516159 Hartrees.
 ------------------------------------------------------------------------------
 Polarizable Continuum Model (PCM)
 =================================
 Model                : PCM.
 Atomic radii         : UFF (Universal Force Field).
 Polarization charges : Total charges.
 Charge compensation  : None.
 Solution method      : On-the-fly selection.
 Cavity type          : Scaled VdW (van der Waals Surface) (Alpha=1.100).
 Cavity algorithm     : GePol (No added spheres)
                        Default sphere list used, NSphG=   42.
                        Lebedev-Laikov grids with approx.  5.0 points / Ang**2.
                        Smoothing algorithm: York/Karplus (Gamma=1.0000).
                        Polarization charges: spherical gaussians, with
                                              point-specific exponents (IZeta= 3).
                        Self-potential: point-specific (ISelfS= 7).
                        Self-field    : sphere-specific E.n sum rule (ISelfD= 2).
 1st derivatives      : Analytical E(r).r(x)/FMM algorithm (CHGder, D1EAlg=3).
                        Cavity 1st derivative terms included.
 Solvent              : Water, Eps=  78.355300 Eps(inf)=   1.777849
 ------------------------------------------------------------------------------
 GePol: Number of generator spheres                  =      42
 GePol: Total number of spheres                      =      42
 GePol: Number of exposed spheres                    =      42 (100.00%)
 GePol: Number of points                             =    2567
 GePol: Average weight of points                     =       0.13
 GePol: Minimum weight of points                     =   0.11D-09
 GePol: Maximum weight of points                     =    0.20577
 GePol: Number of points with low weight             =     184
 GePol: Fraction of low-weight points (<1% of avg)   =       7.17%
 GePol: Cavity surface area                          =    341.184 Ang**2
 GePol: Cavity volume                                =    386.115 Ang**3
 Leave Link  301 at Sat Aug 21 09:31:12 2021, MaxMem=   104857600 cpu:               1.7 elap:               0.1
 (Enter /sw/arch/RedHatEnterpriseServer7/EB_production/2020/software/Gaussian/g16.c01/l302.exe)
 NPDir=0 NMtPBC=     1 NCelOv=     1 NCel=       1 NClECP=     1 NCelD=      1
         NCelK=      1 NCelE2=     1 NClLst=     1 CellRange=     0.0.
 One-electron integrals computed using PRISM.
 One-electron integral symmetry used in STVInt
 PrsmSu:  requested number of processors reduced to:  13 ShMem   1 Linda.
 NBasis=   451 RedAO= T EigKep=  1.15D-04  NBF=   451
 NBsUse=   451 1.00D-06 EigRej= -1.00D+00 NBFU=   451
 Precomputing XC quadrature grid using
 IXCGrd= 4 IRadAn=           5 IRanWt=          -1 IRanGd=           0 AccXCQ= 0.00D+00.
 Generated NRdTot=       0 NPtTot=           0 NUsed=           0 NTot=          32
 NSgBfM=   460   460   460   460   460 MxSgAt=    42 MxSgA2=    42.
 Leave Link  302 at Sat Aug 21 09:31:13 2021, MaxMem=   104857600 cpu:              14.9 elap:               0.7
 (Enter /sw/arch/RedHatEnterpriseServer7/EB_production/2020/software/Gaussian/g16.c01/l303.exe)
 DipDrv:  MaxL=1.
 Leave Link  303 at Sat Aug 21 09:31:13 2021, MaxMem=   104857600 cpu:               3.3 elap:               0.2
 (Enter /sw/arch/RedHatEnterpriseServer7/EB_production/2020/software/Gaussian/g16.c01/l401.exe)
 ExpMin= 9.52D-02 ExpMax= 5.65D+05 ExpMxC= 5.46D+03 IAcc=3 IRadAn=         5 AccDes= 0.00D+00
 Harris functional with IExCor=  404 and IRadAn=       5 diagonalized for initial guess.
 HarFok:  IExCor=  404 AccDes= 0.00D+00 IRadAn=         5 IDoV= 1 UseB2=F ITyADJ=14
 ICtDFT=  3500011 ScaDFX=  1.000000  1.000000  1.000000  1.000000
 FoFCou: FMM=F IPFlag=           0 FMFlag=      100000 FMFlg1=           0
         NFxFlg=           0 DoJE=T BraDBF=F KetDBF=T FulRan=T
         wScrn=  0.000000 ICntrl=       500 IOpCl=  0 I1Cent=   200000004 NGrid=           0
         NMat0=    1 NMatS0=      1 NMatT0=    0 NMatD0=    1 NMtDS0=    0 NMtDT0=    0
 Petite list used in FoFCou.
 Harris En= -3103.95361871278    
 JPrj=0 DoOrth=F DoCkMO=F.
 Leave Link  401 at Sat Aug 21 09:31:15 2021, MaxMem=   104857600 cpu:              33.9 elap:               1.5
 (Enter /sw/arch/RedHatEnterpriseServer7/EB_production/2020/software/Gaussian/g16.c01/l502.exe)
 Integral symmetry usage will be decided dynamically.
 Closed shell SCF:
 Using DIIS extrapolation, IDIIS=  1040.
 NGot=   104857600 LenX=   104404284 LenY=   104185728
 Requested convergence on RMS density matrix=1.00D-08 within 128 cycles.
 Requested convergence on MAX density matrix=1.00D-06.
 Requested convergence on             energy=1.00D-06.
 No special actions if energy rises.
 Fock matrices will be formed incrementally for  20 cycles.

 Cycle   1  Pass 1  IDiag  1:
 FoFJK:  IHMeth= 1 ICntrl=     500 DoSepK=F KAlg= 0 I1Cent=           0 FoldK=F
 IRaf= 890000000 NMat=       1 IRICut=       1 DoRegI=T DoRafI=F ISym2E= 0 IDoP0=0 IntGTp=1.
 FoFCou: FMM=F IPFlag=           0 FMFlag=      100000 FMFlg1=           0
         NFxFlg=           0 DoJE=T BraDBF=F KetDBF=F FulRan=T
         wScrn=  0.000000 ICntrl=       500 IOpCl=  0 I1Cent=           0 NGrid=           0
         NMat0=    1 NMatS0=      1 NMatT0=    0 NMatD0=    1 NMtDS0=    0 NMtDT0=    0
 Symmetry not used in FoFCou.
 Inv3:  Mode=1 IEnd=    19768467.
 Iteration    1 A*A^-1 deviation from unit magnitude is 3.22D-15 for    806.
 Iteration    1 A*A^-1 deviation from orthogonality  is 2.21D-15 for   2083    706.
 Iteration    1 A^-1*A deviation from unit magnitude is 3.44D-15 for    806.
 Iteration    1 A^-1*A deviation from orthogonality  is 2.15D-15 for   2199   1057.
 E= -3103.04722964563    
 DIIS: error= 2.42D-02 at cycle   1 NSaved=   1.
 NSaved= 1 IEnMin= 1 EnMin= -3103.04722964563     IErMin= 1 ErrMin= 2.42D-02
 ErrMax= 2.42D-02  0.00D+00 EMaxC= 1.00D-01 BMatC= 5.54D-01 BMatP= 5.54D-01
 IDIUse=3 WtCom= 7.58D-01 WtEn= 2.42D-01
 Coeff-Com:  0.100D+01
 Coeff-En:   0.100D+01
 Coeff:      0.100D+01
 Gap=     0.188 Goal=   None    Shift=    0.000
 GapD=    0.188 DampG=1.000 DampE=0.500 DampFc=0.5000 IDamp=-1.
 Damping current iteration by 5.00D-01
 RMSDP=3.52D-03 MaxDP=1.58D-01              OVMax= 1.97D-01

 Cycle   2  Pass 1  IDiag  1:
 RMSU=  1.75D-03    CP:  9.87D-01
 E= -3103.18174301627     Delta-E=       -0.134513370644 Rises=F Damp=T
 DIIS: error= 1.52D-02 at cycle   2 NSaved=   2.
 NSaved= 2 IEnMin= 2 EnMin= -3103.18174301627     IErMin= 2 ErrMin= 1.52D-02
 ErrMax= 1.52D-02  0.00D+00 EMaxC= 1.00D-01 BMatC= 7.63D-02 BMatP= 5.54D-01
 IDIUse=3 WtCom= 8.48D-01 WtEn= 1.52D-01
 Coeff-Com:  0.187D+00 0.813D+00
 Coeff-En:   0.347D+00 0.653D+00
 Coeff:      0.211D+00 0.789D+00
 Gap=     0.204 Goal=   None    Shift=    0.000
 RMSDP=9.70D-04 MaxDP=5.45D-02 DE=-1.35D-01 OVMax= 1.25D-01

 Cycle   3  Pass 1  IDiag  1:
 RMSU=  9.37D-04    CP:  9.88D-01  8.58D-01
 E= -3103.49871289928     Delta-E=       -0.316969883012 Rises=F Damp=F
 DIIS: error= 1.25D-02 at cycle   3 NSaved=   3.
 NSaved= 3 IEnMin= 3 EnMin= -3103.49871289928     IErMin= 3 ErrMin= 1.25D-02
 ErrMax= 1.25D-02  0.00D+00 EMaxC= 1.00D-01 BMatC= 3.25D-02 BMatP= 7.63D-02
 IDIUse=3 WtCom= 8.75D-01 WtEn= 1.25D-01
 Coeff-Com:  0.367D-01 0.381D+00 0.582D+00
 Coeff-En:   0.000D+00 0.000D+00 0.100D+01
 Coeff:      0.321D-01 0.334D+00 0.634D+00
 Gap=     0.202 Goal=   None    Shift=    0.000
 RMSDP=5.68D-04 MaxDP=2.72D-02 DE=-3.17D-01 OVMax= 3.87D-02

 Cycle   4  Pass 1  IDiag  1:
 RMSU=  4.24D-04    CP:  9.93D-01  8.95D-01  6.07D-01
 E= -3103.50886091148     Delta-E=       -0.010148012198 Rises=F Damp=F
 DIIS: error= 9.02D-03 at cycle   4 NSaved=   4.
 NSaved= 4 IEnMin= 4 EnMin= -3103.50886091148     IErMin= 4 ErrMin= 9.02D-03
 ErrMax= 9.02D-03  0.00D+00 EMaxC= 1.00D-01 BMatC= 1.72D-02 BMatP= 3.25D-02
 IDIUse=3 WtCom= 9.10D-01 WtEn= 9.02D-02
 Coeff-Com:  0.846D-02 0.135D+00 0.428D+00 0.428D+00
 Coeff-En:   0.000D+00 0.000D+00 0.396D+00 0.604D+00
 Coeff:      0.770D-02 0.123D+00 0.425D+00 0.444D+00
 Gap=     0.207 Goal=   None    Shift=    0.000
 RMSDP=3.26D-04 MaxDP=1.95D-02 DE=-1.01D-02 OVMax= 1.91D-02

 Cycle   5  Pass 1  IDiag  1:
 RMSU=  1.45D-04    CP:  9.89D-01  8.63D-01  6.85D-01  3.51D-01
 E= -3103.52338307008     Delta-E=       -0.014522158594 Rises=F Damp=F
 DIIS: error= 7.39D-04 at cycle   5 NSaved=   5.
 NSaved= 5 IEnMin= 5 EnMin= -3103.52338307008     IErMin= 5 ErrMin= 7.39D-04
 ErrMax= 7.39D-04  0.00D+00 EMaxC= 1.00D-01 BMatC= 4.31D-04 BMatP= 1.72D-02
 IDIUse=3 WtCom= 9.93D-01 WtEn= 7.39D-03
 Coeff-Com:  0.713D-03 0.960D-02 0.119D+00 0.204D+00 0.667D+00
 Coeff-En:   0.000D+00 0.000D+00 0.000D+00 0.000D+00 0.100D+01
 Coeff:      0.708D-03 0.953D-02 0.118D+00 0.202D+00 0.670D+00
 Gap=     0.200 Goal=   None    Shift=    0.000
 RMSDP=7.74D-05 MaxDP=4.32D-03 DE=-1.45D-02 OVMax= 3.80D-03

 Cycle   6  Pass 1  IDiag  1:
 RMSU=  3.02D-05    CP:  9.90D-01  8.75D-01  7.16D-01  4.42D-01  6.70D-01
 E= -3103.52375471140     Delta-E=       -0.000371641322 Rises=F Damp=F
 DIIS: error= 2.26D-04 at cycle   6 NSaved=   6.
 NSaved= 6 IEnMin= 6 EnMin= -3103.52375471140     IErMin= 6 ErrMin= 2.26D-04
 ErrMax= 2.26D-04  0.00D+00 EMaxC= 1.00D-01 BMatC= 1.59D-05 BMatP= 4.31D-04
 IDIUse=3 WtCom= 9.98D-01 WtEn= 2.26D-03
 Coeff-Com: -0.163D-03 0.313D-02 0.608D-01 0.105D+00 0.349D+00 0.482D+00
 Coeff-En:   0.000D+00 0.000D+00 0.000D+00 0.000D+00 0.000D+00 0.100D+01
 Coeff:     -0.162D-03 0.312D-02 0.607D-01 0.105D+00 0.349D+00 0.483D+00
 Gap=     0.201 Goal=   None    Shift=    0.000
 RMSDP=1.62D-05 MaxDP=1.37D-03 DE=-3.72D-04 OVMax= 1.18D-03

 Cycle   7  Pass 1  IDiag  1:
 RMSU=  6.76D-06    CP:  9.90D-01  8.71D-01  7.08D-01  4.42D-01  7.17D-01
                    CP:  7.19D-01
 E= -3103.52376847612     Delta-E=       -0.000013764723 Rises=F Damp=F
 DIIS: error= 4.87D-05 at cycle   7 NSaved=   7.
 NSaved= 7 IEnMin= 7 EnMin= -3103.52376847612     IErMin= 7 ErrMin= 4.87D-05
 ErrMax= 4.87D-05  0.00D+00 EMaxC= 1.00D-01 BMatC= 6.59D-07 BMatP= 1.59D-05
 IDIUse=1 WtCom= 1.00D+00 WtEn= 0.00D+00
 Coeff-Com:  0.304D-04 0.290D-03 0.120D-01 0.214D-01 0.753D-01 0.197D+00
 Coeff-Com:  0.694D+00
 Coeff:      0.304D-04 0.290D-03 0.120D-01 0.214D-01 0.753D-01 0.197D+00
 Coeff:      0.694D+00
 Gap=     0.201 Goal=   None    Shift=    0.000
 RMSDP=2.31D-06 MaxDP=1.41D-04 DE=-1.38D-05 OVMax= 1.28D-04

 Cycle   8  Pass 1  IDiag  1:
 RMSU=  1.80D-06    CP:  9.90D-01  8.72D-01  7.09D-01  4.44D-01  7.14D-01
                    CP:  7.29D-01  9.07D-01
 E= -3103.52376895746     Delta-E=       -0.000000481343 Rises=F Damp=F
 DIIS: error= 7.10D-06 at cycle   8 NSaved=   8.
 NSaved= 8 IEnMin= 8 EnMin= -3103.52376895746     IErMin= 8 ErrMin= 7.10D-06
 ErrMax= 7.10D-06  0.00D+00 EMaxC= 1.00D-01 BMatC= 5.71D-08 BMatP= 6.59D-07
 IDIUse=1 WtCom= 1.00D+00 WtEn= 0.00D+00
 Coeff-Com:  0.427D-04-0.161D-04 0.255D-02 0.462D-02 0.176D-01 0.664D-01
 Coeff-Com:  0.320D+00 0.589D+00
 Coeff:      0.427D-04-0.161D-04 0.255D-02 0.462D-02 0.176D-01 0.664D-01
 Coeff:      0.320D+00 0.589D+00
 Gap=     0.201 Goal=   None    Shift=    0.000
 RMSDP=7.72D-07 MaxDP=3.35D-05 DE=-4.81D-07 OVMax= 4.28D-05

 Cycle   9  Pass 1  IDiag  1:
 RMSU=  4.46D-07    CP:  9.90D-01  8.72D-01  7.09D-01  4.43D-01  7.14D-01
                    CP:  7.38D-01  9.07D-01  7.60D-01
 E= -3103.52376899622     Delta-E=       -0.000000038754 Rises=F Damp=F
 DIIS: error= 3.77D-06 at cycle   9 NSaved=   9.
 NSaved= 9 IEnMin= 9 EnMin= -3103.52376899622     IErMin= 9 ErrMin= 3.77D-06
 ErrMax= 3.77D-06  0.00D+00 EMaxC= 1.00D-01 BMatC= 8.05D-09 BMatP= 5.71D-08
 IDIUse=1 WtCom= 1.00D+00 WtEn= 0.00D+00
 Coeff-Com:  0.141D-04-0.447D-04 0.243D-03 0.372D-03 0.190D-02 0.176D-01
 Coeff-Com:  0.109D+00 0.322D+00 0.548D+00
 Coeff:      0.141D-04-0.447D-04 0.243D-03 0.372D-03 0.190D-02 0.176D-01
 Coeff:      0.109D+00 0.322D+00 0.548D+00
 Gap=     0.201 Goal=   None    Shift=    0.000
 RMSDP=2.48D-07 MaxDP=1.85D-05 DE=-3.88D-08 OVMax= 1.44D-05

 Cycle  10  Pass 1  IDiag  1:
 RMSU=  1.79D-07    CP:  9.90D-01  8.72D-01  7.09D-01  4.43D-01  7.14D-01
                    CP:  7.40D-01  9.12D-01  7.53D-01  7.27D-01
 E= -3103.52376898009     Delta-E=        0.000000016130 Rises=F Damp=F
 DIIS: error= 4.31D-07 at cycle  10 NSaved=  10.
 NSaved=10 IEnMin= 9 EnMin= -3103.52376899622     IErMin=10 ErrMin= 4.31D-07
 ErrMax= 4.31D-07  0.00D+00 EMaxC= 1.00D-01 BMatC= 2.10D-10 BMatP= 8.05D-09
 IDIUse=1 WtCom= 1.00D+00 WtEn= 0.00D+00
 Coeff-Com:  0.523D-05-0.167D-04 0.295D-04 0.224D-04 0.378D-03 0.505D-02
 Coeff-Com:  0.328D-01 0.112D+00 0.238D+00 0.612D+00
 Coeff:      0.523D-05-0.167D-04 0.295D-04 0.224D-04 0.378D-03 0.505D-02
 Coeff:      0.328D-01 0.112D+00 0.238D+00 0.612D+00
 Gap=     0.201 Goal=   None    Shift=    0.000
 RMSDP=7.35D-08 MaxDP=3.00D-06 DE= 1.61D-08 OVMax= 2.84D-06

 Cycle  11  Pass 1  IDiag  1:
 RMSU=  3.49D-08    CP:  9.90D-01  8.72D-01  7.09D-01  4.43D-01  7.14D-01
                    CP:  7.40D-01  9.12D-01  7.66D-01  7.28D-01  7.00D-01
 E= -3103.52376898029     Delta-E=       -0.000000000199 Rises=F Damp=F
 DIIS: error= 9.59D-08 at cycle  11 NSaved=  11.
 NSaved=11 IEnMin= 9 EnMin= -3103.52376899622     IErMin=11 ErrMin= 9.59D-08
 ErrMax= 9.59D-08  0.00D+00 EMaxC= 1.00D-01 BMatC= 1.93D-11 BMatP= 2.10D-10
 IDIUse=1 WtCom= 1.00D+00 WtEn= 0.00D+00
 Coeff-Com:  0.143D-05-0.505D-05-0.343D-05-0.149D-04 0.663D-04 0.110D-02
 Coeff-Com:  0.794D-02 0.312D-01 0.739D-01 0.302D+00 0.584D+00
 Coeff:      0.143D-05-0.505D-05-0.343D-05-0.149D-04 0.663D-04 0.110D-02
 Coeff:      0.794D-02 0.312D-01 0.739D-01 0.302D+00 0.584D+00
 Gap=     0.201 Goal=   None    Shift=    0.000
 RMSDP=1.46D-08 MaxDP=5.20D-07 DE=-1.99D-10 OVMax= 6.82D-07

 Cycle  12  Pass 1  IDiag  1:
 RMSU=  8.47D-09    CP:  9.90D-01  8.72D-01  7.09D-01  4.43D-01  7.14D-01
                    CP:  7.40D-01  9.12D-01  7.67D-01  7.37D-01  7.40D-01
                    CP:  8.12D-01
 E= -3103.52376898032     Delta-E=       -0.000000000037 Rises=F Damp=F
 DIIS: error= 4.76D-08 at cycle  12 NSaved=  12.
 NSaved=12 IEnMin= 9 EnMin= -3103.52376899622     IErMin=12 ErrMin= 4.76D-08
 ErrMax= 4.76D-08  0.00D+00 EMaxC= 1.00D-01 BMatC= 2.35D-12 BMatP= 1.93D-11
 IDIUse=1 WtCom= 1.00D+00 WtEn= 0.00D+00
 Coeff-Com:  0.882D-07-0.776D-06-0.329D-05-0.800D-05 0.162D-05 0.449D-04
 Coeff-Com:  0.954D-03 0.515D-02 0.138D-01 0.101D+00 0.318D+00 0.561D+00
 Coeff:      0.882D-07-0.776D-06-0.329D-05-0.800D-05 0.162D-05 0.449D-04
 Coeff:      0.954D-03 0.515D-02 0.138D-01 0.101D+00 0.318D+00 0.561D+00
 Gap=     0.201 Goal=   None    Shift=    0.000
 RMSDP=5.66D-09 MaxDP=4.24D-07 DE=-3.73D-11 OVMax= 4.06D-07

 Error on total polarization charges =  0.02304
 SCF Done:  E(RB-P86) =  -3103.52376898     A.U. after   12 cycles
            NFock= 12  Conv=0.57D-08     -V/T= 2.0025
 KE= 3.095737663789D+03 PE=-1.010613584662D+04 EE= 2.542376262238D+03
 Leave Link  502 at Sat Aug 21 09:32:24 2021, MaxMem=   104857600 cpu:            1635.7 elap:              69.0
 (Enter /sw/arch/RedHatEnterpriseServer7/EB_production/2020/software/Gaussian/g16.c01/l601.exe)
 Copying SCF densities to generalized density rwf, IOpCl= 0 IROHF=0.

 **********************************************************************

            Population analysis using the SCF Density.

 **********************************************************************

 Orbital symmetries:
       Occupied  (A) (A) (A) (A) (A) (A) (A) (A) (A) (A) (A) (A)
                 (A) (A) (A) (A) (A) (A) (A) (A) (A) (A) (A) (A)
                 (A) (A) (A) (A) (A) (A) (A) (A) (A) (A) (A) (A)
                 (A) (A) (A) (A) (A) (A) (A) (A) (A) (A) (A) (A)
                 (A) (A) (A) (A) (A) (A) (A) (A) (A) (A) (A) (A)
                 (A) (A) (A) (A) (A) (A) (A) (A) (A) (A) (A)
       Virtual   (A) (A) (A) (A) (A) (A) (A) (A) (A) (A) (A) (A)
                 (A) (A) (A) (A) (A) (A) (A) (A) (A) (A) (A) (A)
                 (A) (A) (A) (A) (A) (A) (A) (A) (A) (A) (A) (A)
                 (A) (A) (A) (A) (A) (A) (A) (A) (A) (A) (A) (A)
                 (A) (A) (A) (A) (A) (A) (A) (A) (A) (A) (A) (A)
                 (A) (A) (A) (A) (A) (A) (A) (A) (A) (A) (A) (A)
                 (A) (A) (A) (A) (A) (A) (A) (A) (A) (A) (A) (A)
                 (A) (A) (A) (A) (A) (A) (A) (A) (A) (A) (A) (A)
                 (A) (A) (A) (A) (A) (A) (A) (A) (A) (A) (A) (A)
                 (A) (A) (A) (A) (A) (A) (A) (A) (A) (A) (A) (A)
                 (A) (A) (A) (A) (A) (A) (A) (A) (A) (A) (A) (A)
                 (A) (A) (A) (A) (A) (A) (A) (A) (A) (A) (A) (A)
                 (A) (A) (A) (A) (A) (A) (A) (A) (A) (A) (A) (A)
                 (A) (A) (A) (A) (A) (A) (A) (A) (A) (A) (A) (A)
                 (A) (A) (A) (A) (A) (A) (A) (A) (A) (A) (A) (A)
                 (A) (A) (A) (A) (A) (A) (A) (A) (A) (A) (A) (A)
                 (A) (A) (A) (A) (A) (A) (A) (A) (A) (A) (A) (A)
                 (A) (A) (A) (A) (A) (A) (A) (A) (A) (A) (A) (A)
                 (A) (A) (A) (A) (A) (A) (A) (A) (A) (A) (A) (A)
                 (A) (A) (A) (A) (A) (A) (A) (A) (A) (A) (A) (A)
                 (A) (A) (A) (A) (A) (A) (A) (A) (A) (A) (A) (A)
                 (A) (A) (A) (A) (A) (A) (A) (A) (A) (A) (A) (A)
                 (A) (A) (A) (A) (A) (A) (A) (A) (A) (A) (A) (A)
                 (A) (A) (A) (A) (A) (A) (A) (A) (A) (A) (A) (A)
                 (A) (A) (A) (A) (A) (A) (A) (A) (A) (A) (A) (A)
                 (A) (A) (A) (A) (A) (A) (A) (A) (A) (A) (A) (A)
                 (A) (A) (A) (A) (A) (A) (A) (A) (A) (A) (A) (A)
                 (A) (A) (A) (A) (A) (A) (A) (A) (A) (A) (A) (A)
                 (A) (A) (A) (A) (A) (A) (A) (A) (A) (A) (A) (A)
                 (A) (A) (A) (A) (A) (A) (A) (A) (A) (A) (A) (A)
                 (A) (A) (A) (A) (A) (A) (A) (A) (A) (A) (A) (A)
                 (A) (A) (A) (A) (A) (A) (A) (A)
 The electronic state is 1-A.
 Alpha  occ. eigenvalues -- -481.05419 -61.74631 -55.65758 -55.65753 -55.65746
 Alpha  occ. eigenvalues --  -14.14498  -9.95960  -9.95552  -9.95418  -9.95098
 Alpha  occ. eigenvalues --   -9.92008  -9.91626  -9.91558  -9.91103  -9.89905
 Alpha  occ. eigenvalues --   -9.89861  -9.89728  -9.89391  -8.31997  -6.19041
 Alpha  occ. eigenvalues --   -6.19028  -6.19008  -2.39514  -2.39513  -2.39499
 Alpha  occ. eigenvalues --   -2.39489  -2.39486  -0.94255  -0.74044  -0.73781
 Alpha  occ. eigenvalues --   -0.73382  -0.71343  -0.66303  -0.64892  -0.64093
 Alpha  occ. eigenvalues --   -0.60953  -0.59384  -0.56367  -0.55800  -0.53489
 Alpha  occ. eigenvalues --   -0.52600  -0.49440  -0.48162  -0.46958  -0.43385
 Alpha  occ. eigenvalues --   -0.42354  -0.41065  -0.40788  -0.40088  -0.39415
 Alpha  occ. eigenvalues --   -0.37910  -0.37561  -0.37240  -0.36474  -0.35962
 Alpha  occ. eigenvalues --   -0.35062  -0.33898  -0.32513  -0.32445  -0.32156
 Alpha  occ. eigenvalues --   -0.31877  -0.31525  -0.31205  -0.30702  -0.30381
 Alpha  occ. eigenvalues --   -0.30263  -0.30015  -0.29825  -0.20326  -0.20216
 Alpha  occ. eigenvalues --   -0.19903
 Alpha virt. eigenvalues --    0.00157   0.01281   0.01802   0.01899   0.02374
 Alpha virt. eigenvalues --    0.03524   0.04103   0.04342   0.04599   0.05358
 Alpha virt. eigenvalues --    0.05805   0.06442   0.07151   0.07863   0.08515
 Alpha virt. eigenvalues --    0.08629   0.09000   0.09185   0.09437   0.09855
 Alpha virt. eigenvalues --    0.10072   0.10227   0.10772   0.11261   0.11621
 Alpha virt. eigenvalues --    0.12132   0.12646   0.13207   0.13502   0.14183
 Alpha virt. eigenvalues --    0.14513   0.15092   0.15723   0.15892   0.16193
 Alpha virt. eigenvalues --    0.16841   0.17199   0.18159   0.18938   0.19649
 Alpha virt. eigenvalues --    0.19970   0.20325   0.21224   0.21828   0.22090
 Alpha virt. eigenvalues --    0.22309   0.22859   0.24114   0.24801   0.25272
 Alpha virt. eigenvalues --    0.25472   0.25592   0.26763   0.27371   0.28521
 Alpha virt. eigenvalues --    0.28848   0.29149   0.29789   0.30946   0.31197
 Alpha virt. eigenvalues --    0.32113   0.32772   0.33659   0.35162   0.35614
 Alpha virt. eigenvalues --    0.36223   0.36757   0.37481   0.37855   0.38329
 Alpha virt. eigenvalues --    0.38750   0.39121   0.39571   0.39707   0.40560
 Alpha virt. eigenvalues --    0.40650   0.40813   0.40917   0.41611   0.41723
 Alpha virt. eigenvalues --    0.42048   0.42285   0.42648   0.42945   0.43304
 Alpha virt. eigenvalues --    0.43763   0.44070   0.44367   0.44836   0.45072
 Alpha virt. eigenvalues --    0.45936   0.46273   0.46647   0.47369   0.47778
 Alpha virt. eigenvalues --    0.47894   0.48616   0.49322   0.49527   0.49688
 Alpha virt. eigenvalues --    0.50167   0.50438   0.51252   0.52345   0.53622
 Alpha virt. eigenvalues --    0.54587   0.55555   0.56500   0.57132   0.58481
 Alpha virt. eigenvalues --    0.58558   0.59126   0.59782   0.60605   0.60880
 Alpha virt. eigenvalues --    0.62594   0.63981   0.64845   0.66604   0.67328
 Alpha virt. eigenvalues --    0.68064   0.70875   0.71877   0.72903   0.74349
 Alpha virt. eigenvalues --    0.77415   0.78240   0.84571   0.89509   1.02679
 Alpha virt. eigenvalues --    1.03791   1.10035   1.12399   1.13063   1.13995
 Alpha virt. eigenvalues --    1.17470   1.17917   1.19422   1.20078   1.20566
 Alpha virt. eigenvalues --    1.21323   1.21769   1.22150   1.22515   1.22981
 Alpha virt. eigenvalues --    1.24296   1.24721   1.25034   1.25466   1.26234
 Alpha virt. eigenvalues --    1.26912   1.27358   1.28320   1.28592   1.29214
 Alpha virt. eigenvalues --    1.29807   1.30552   1.31282   1.31611   1.32576
 Alpha virt. eigenvalues --    1.33104   1.33664   1.34117   1.35067   1.35641
 Alpha virt. eigenvalues --    1.36235   1.36842   1.37541   1.38673   1.38819
 Alpha virt. eigenvalues --    1.39907   1.40620   1.41224   1.42100   1.43479
 Alpha virt. eigenvalues --    1.43985   1.44882   1.46272   1.46609   1.47235
 Alpha virt. eigenvalues --    1.48051   1.49071   1.49720   1.51113   1.51959
 Alpha virt. eigenvalues --    1.52254   1.52740   1.53294   1.54441   1.57156
 Alpha virt. eigenvalues --    1.57530   1.58231   1.59181   1.59750   1.60526
 Alpha virt. eigenvalues --    1.61349   1.62126   1.62734   1.63470   1.64487
 Alpha virt. eigenvalues --    1.64842   1.65363   1.66020   1.66224   1.66912
 Alpha virt. eigenvalues --    1.67632   1.69076   1.69853   1.69985   1.70742
 Alpha virt. eigenvalues --    1.70986   1.71849   1.72019   1.72237   1.72689
 Alpha virt. eigenvalues --    1.72845   1.73310   1.73723   1.74203   1.74459
 Alpha virt. eigenvalues --    1.74781   1.75559   1.76367   1.76465   1.77375
 Alpha virt. eigenvalues --    1.78611   1.78795   1.79554   1.80084   1.80864
 Alpha virt. eigenvalues --    1.81533   1.83254   1.83557   1.84875   1.86286
 Alpha virt. eigenvalues --    1.86735   1.87668   1.88883   1.91022   1.92136
 Alpha virt. eigenvalues --    1.93064   1.94384   1.95428   1.96668   1.97812
 Alpha virt. eigenvalues --    1.98905   2.01130   2.03634   2.04134   2.06417
 Alpha virt. eigenvalues --    2.07841   2.11057   2.12190   2.12349   2.14813
 Alpha virt. eigenvalues --    2.15369   2.16217   2.16536   2.17634   2.18735
 Alpha virt. eigenvalues --    2.19036   2.19774   2.20615   2.21665   2.23845
 Alpha virt. eigenvalues --    2.25799   2.26809   2.27881   2.29070   2.30838
 Alpha virt. eigenvalues --    2.31496   2.32013   2.32988   2.34007   2.35063
 Alpha virt. eigenvalues --    2.35713   2.36927   2.38009   2.38915   2.39543
 Alpha virt. eigenvalues --    2.40175   2.41374   2.42211   2.44085   2.45562
 Alpha virt. eigenvalues --    2.47092   2.48006   2.49611   2.50007   2.50675
 Alpha virt. eigenvalues --    2.51062   2.52271   2.53325   2.53877   2.54370
 Alpha virt. eigenvalues --    2.55404   2.55848   2.56366   2.57508   2.58092
 Alpha virt. eigenvalues --    2.58364   2.59538   2.60889   2.61768   2.62148
 Alpha virt. eigenvalues --    2.64374   2.65085   2.65235   2.66357   2.67999
 Alpha virt. eigenvalues --    2.69917   2.70013   2.70799   2.71121   2.76088
 Alpha virt. eigenvalues --    2.76901   2.77899   2.79887   2.80285   2.80989
 Alpha virt. eigenvalues --    2.82590   2.84073   2.85335   2.88047   2.89746
 Alpha virt. eigenvalues --    2.91604   2.92746   2.95089   2.96509   2.97916
 Alpha virt. eigenvalues --    2.99401   3.02887   3.04157   3.05194   3.07257
 Alpha virt. eigenvalues --    3.10759   3.14037   3.14594   3.16194   3.19945
 Alpha virt. eigenvalues --    3.21072   3.21407   3.22483   3.23011   3.23629
 Alpha virt. eigenvalues --    3.25641   3.26625   3.27084   3.27899   3.28937
 Alpha virt. eigenvalues --    3.29916   3.30848   3.31590   3.32418   3.32990
 Alpha virt. eigenvalues --    3.34143   3.34596   3.36232   3.36861   3.38605
 Alpha virt. eigenvalues --    3.41173   3.41717   3.43836   3.61907   3.65725
 Alpha virt. eigenvalues --    3.67193   7.18552  21.73542  21.74972  21.75423
 Alpha virt. eigenvalues --   21.78559  21.80159  21.82840  21.85273  21.86377
 Alpha virt. eigenvalues --   21.89398  21.90378  21.90954  21.96756  31.80396
          Condensed to atoms (all electrons):
               1          2          3          4          5          6
     1  C    5.100719   0.243414  -0.036005   0.008257  -0.005640   0.001888
     2  C    0.243414   5.236441   0.092267  -0.009091   0.038469  -0.018171
     3  C   -0.036005   0.092267   5.663354   0.163679  -0.086505  -0.005956
     4  N    0.008257  -0.009091   0.163679   6.627703   0.184043  -0.030381
     5  C   -0.005640   0.038469  -0.086505   0.184043   5.718336   0.071153
     6  C    0.001888  -0.018171  -0.005956  -0.030381   0.071153   5.369374
     7  C   -0.000079   0.000550   0.003084  -0.005570  -0.045147   0.185006
     8  C   -0.001707   0.019804  -0.128586   0.234610  -0.094829   0.013898
     9  C    0.000120  -0.001888   0.019822  -0.014756   0.002448  -0.013400
    10  C   -0.000006   0.000104  -0.000840   0.007493  -0.004370   0.000653
    11  C   -0.001095  -0.012022  -0.028707   0.119699  -0.145978   0.033911
    12  C    0.001662  -0.017741   0.016425  -0.025426   0.016739  -0.005071
    13  C   -0.000253   0.004012  -0.022547   0.007449  -0.001844   0.000638
    14  Br  -0.012703   0.003015  -0.055855   0.001847  -0.034504   0.006457
    15  H    0.408100  -0.040353  -0.008046   0.000456   0.000836  -0.000138
    16  H    0.398116  -0.047532  -0.003690  -0.000659  -0.003356   0.000601
    17  H    0.398356  -0.042711   0.013181  -0.000406   0.000145  -0.000055
    18  H   -0.036566   0.431526  -0.068588  -0.003192   0.031453  -0.016144
[...]
    29  H    0.000813   0.016750   0.000010  -0.000029  -0.000000   0.000102
    30  H   -0.009098   0.000213  -0.000035   0.000055   0.000000  -0.000019
    31  H    0.005191  -0.000039   0.000000  -0.000000  -0.000000   0.000006
    32  H   -0.000135   0.000030  -0.000000   0.000000  -0.000000  -0.000012
    33  H    0.000050   0.002133  -0.000000  -0.000000  -0.000000  -0.000000
    34  H    0.000119   0.000032  -0.000000  -0.000000  -0.000000  -0.000000
    35  H   -0.000415   0.000042   0.000000  -0.000000  -0.000000  -0.000000
    36  H    0.007601  -0.000019   0.000127  -0.000058  -0.000005   0.001230
    37  H   -0.006251   0.000004  -0.000014   0.000005   0.000001  -0.000169
    38  H   -0.035428   0.000000  -0.000016   0.000003   0.000001  -0.000002
    39  H   -0.033929   0.000006  -0.000260   0.000083   0.000012  -0.000016
    40  H    0.396721   0.000000  -0.000002   0.000000  -0.000000  -0.000000
    41  H    0.422433  -0.000000  -0.000000   0.000000  -0.000000  -0.000001
    42  H    0.388731  -0.000004   0.000008  -0.000001  -0.000000   0.000002
              19         20         21         22         23         24
     1  C   -0.026522   0.003117  -0.000342   0.000037   0.000139   0.001762
     2  C    0.421528  -0.039630  -0.032654   0.000847  -0.007781   0.007178
     3  C   -0.052170   0.393895   0.414653   0.004591  -0.004079  -0.002011
     4  N   -0.008123  -0.026321  -0.022553  -0.025382  -0.027916   0.002928
     5  C   -0.009915  -0.032340   0.011456   0.392243   0.375863  -0.060108
     6  C   -0.001814   0.002839  -0.000025  -0.032618  -0.015673   0.450150
     7  C    0.000567  -0.000130  -0.000045  -0.010673   0.006958  -0.042859
     8  C   -0.000309  -0.004052  -0.013397   0.022969  -0.017661   0.000745
     9  C   -0.000023   0.001121   0.000395  -0.010238   0.001706  -0.000062
    10  C   -0.000001  -0.000123  -0.000041   0.001113  -0.000178   0.000009
    11  C    0.029260   0.014368  -0.025823  -0.017965   0.012956  -0.018027
    12  C   -0.007606   0.000163  -0.000881  -0.000505  -0.000934   0.000166
    13  C   -0.000142  -0.000237   0.003208   0.000234   0.000039  -0.000029
    14  Br  -0.000010   0.019382   0.000631   0.000604   0.014893  -0.000008
    15  H   -0.007369  -0.000150   0.003991   0.000001  -0.000034  -0.000040
    16  H    0.006724   0.003302  -0.000418  -0.000008   0.000297  -0.000012
    17  H   -0.002137  -0.000364  -0.000012  -0.000000  -0.000019  -0.000044
    18  H   -0.030277  -0.004907   0.004311  -0.000140  -0.001104  -0.005557
    19  H    0.512958   0.005173  -0.001775  -0.000056   0.000827  -0.001434
    20  H    0.005173   0.504109  -0.015186   0.000466   0.002591   0.000211
    21  H   -0.001775  -0.015186   0.459820  -0.000363   0.000807  -0.000064
    22  H   -0.000056   0.000466  -0.000363   0.475272  -0.016965   0.002939
    23  H    0.000827   0.002591   0.000807  -0.016965   0.498738   0.001186
    24  H   -0.001434   0.000211  -0.000064   0.002939   0.001186   0.478375
    25  H    0.000133   0.000017  -0.000013   0.003524  -0.007782  -0.015836
    26  H   -0.000018   0.000002  -0.000001   0.000418  -0.000397  -0.001136
    27  H    0.000090   0.000013  -0.000020   0.000957  -0.000353  -0.001947
    28  H   -0.000018  -0.000002   0.000002   0.001926   0.000446   0.005541
    29  H   -0.000067   0.003851   0.000704  -0.003927   0.005064  -0.000053
    30  H    0.000081  -0.001874   0.002240   0.000590   0.000023  -0.000014
    31  H   -0.000011  -0.000026   0.000123   0.000497  -0.000018  -0.000010
    32  H    0.000010   0.000050  -0.000075   0.006242   0.000227   0.000019
    33  H   -0.000000  -0.000019   0.000014   0.000204  -0.000046  -0.000000
    34  H    0.000000   0.000002  -0.000000   0.000046  -0.000003  -0.000000
    35  H    0.000000   0.000021  -0.000024  -0.000061   0.000006  -0.000000
    36  H   -0.004135  -0.000385   0.001237   0.000864   0.000221   0.002848
    37  H    0.000526  -0.000081  -0.000452   0.002019  -0.000324   0.000417
    38  H   -0.000217  -0.000035   0.000709  -0.000002   0.000019   0.000107
    39  H    0.003522   0.000747  -0.007869  -0.000012  -0.000022  -0.000082
    40  H    0.000009   0.000001  -0.000090  -0.000000  -0.000002  -0.000000
    41  H    0.000019   0.000020  -0.000204  -0.000035   0.000002  -0.000002
    42  H   -0.000055  -0.000090   0.001154  -0.000007   0.000001   0.000006
              25         26         27         28         29         30
     1  C   -0.000146   0.000003  -0.000006   0.000006  -0.000123  -0.000024
     2  C   -0.000730   0.000114  -0.000352   0.000099   0.000854   0.000879
     3  C   -0.000090  -0.000075   0.000303  -0.000039  -0.023202   0.003384
     4  N    0.004165   0.000010  -0.001289   0.000591  -0.024139  -0.029069
     5  C   -0.031417   0.013260  -0.004864  -0.007484  -0.013629   0.011151
     6  C    0.387460  -0.042015  -0.051998  -0.030372   0.001348  -0.000765
     7  C   -0.025568   0.399110   0.416271   0.400406   0.000094   0.000008
     8  C    0.000164   0.000100  -0.000394   0.000039   0.377325   0.415430
     9  C   -0.000079   0.000010  -0.000236   0.000023  -0.024551  -0.044659
    10  C   -0.000001   0.000001  -0.000023   0.000020   0.001572   0.001103
    11  C    0.002973  -0.000573   0.015097  -0.004072   0.014655  -0.023453
    12  C    0.000048  -0.000049   0.001690  -0.000093  -0.001738   0.009468
    13  C    0.000004   0.000002   0.000081   0.000001   0.000813  -0.009098
    14  Br   0.001267   0.000003   0.000002  -0.000005   0.016750   0.000213
    15  H    0.000003  -0.000000   0.000000  -0.000000   0.000010  -0.000035
    16  H   -0.000001  -0.000000   0.000000  -0.000000  -0.000029   0.000055
    17  H    0.000002  -0.000000  -0.000000  -0.000000  -0.000000   0.000000
    18  H    0.000367  -0.000034  -0.000005  -0.000032   0.000102  -0.000019
    19  H    0.000133  -0.000018   0.000090  -0.000018  -0.000067   0.000081
    20  H    0.000017   0.000002   0.000013  -0.000002   0.003851  -0.001874
    21  H   -0.000013  -0.000001  -0.000020   0.000002   0.000704   0.002240
    22  H    0.003524   0.000418   0.000957   0.001926  -0.003927   0.000590
    23  H   -0.007782  -0.000397  -0.000353   0.000446   0.005064   0.000023
    24  H   -0.015836  -0.001136  -0.001947   0.005541  -0.000053  -0.000014
    25  H    0.508281  -0.003422   0.005424  -0.005333  -0.000141   0.000021
    26  H   -0.003422   0.527202  -0.025294  -0.022037  -0.000001  -0.000001
    27  H    0.005424  -0.025294   0.527729  -0.026891  -0.000009   0.000013
    28  H   -0.005333  -0.022037  -0.026891   0.540569   0.000001   0.000000
    29  H   -0.000141  -0.000001  -0.000009   0.000001   0.510734  -0.020539
    30  H    0.000021  -0.000001   0.000013   0.000000  -0.020539   0.462427
    31  H    0.000003  -0.000000   0.000166  -0.000034   0.005893  -0.002754
    32  H    0.000054  -0.000012   0.000070   0.000341  -0.006140   0.004310
    33  H    0.000000   0.000000   0.000001  -0.000002   0.005097  -0.000086
    34  H    0.000000   0.000000   0.000000  -0.000001  -0.000111  -0.000245
    35  H    0.000000  -0.000000  -0.000000   0.000000  -0.000856   0.002760
    36  H    0.000021   0.000332  -0.004547   0.000910  -0.000250  -0.000177
    37  H    0.000009   0.000317  -0.003444   0.000626  -0.000245   0.001723
    38  H   -0.000004  -0.000004  -0.000122  -0.000002   0.000056  -0.000305
    39  H    0.000002   0.000002   0.000007  -0.000001  -0.000127   0.001130
    40  H    0.000000  -0.000000   0.000002  -0.000000  -0.000010   0.000427
    41  H    0.000000   0.000000   0.000026   0.000000  -0.000127   0.001085
    42  H   -0.000000  -0.000000  -0.000009   0.000000   0.001212  -0.001993
              31         32         33         34         35         36
     1  C   -0.000000   0.000001   0.000000   0.000000   0.000000   0.000222
     2  C   -0.000037  -0.000011  -0.000001  -0.000002  -0.000003   0.000028
     3  C   -0.001175   0.000135  -0.000022   0.000036   0.000039  -0.016902
     4  N   -0.009214  -0.001007  -0.000285  -0.000415   0.000288  -0.023764
     5  C   -0.002895   0.005139  -0.000262  -0.000063   0.000192  -0.018408
     6  C    0.000215  -0.001371  -0.000004  -0.000001   0.000003   0.027358
     7  C    0.000121  -0.000113   0.000006   0.000002   0.000001  -0.015374
     8  C   -0.061037  -0.033980  -0.010914   0.012995  -0.008710   0.011105
     9  C    0.431822   0.406022  -0.038878  -0.042707  -0.035371  -0.000145
    10  C   -0.033460  -0.022886   0.410358   0.399763   0.408233   0.000024
    11  C    0.027702  -0.012715   0.000461   0.000094  -0.000867   0.407376
    12  C   -0.011981   0.001693  -0.000108  -0.000051   0.000377  -0.039133
    13  C    0.005191  -0.000135   0.000050   0.000119  -0.000415   0.007601
    14  Br  -0.000039   0.000030   0.002133   0.000032   0.000042  -0.000019
    15  H    0.000000  -0.000000  -0.000000  -0.000000   0.000000   0.000127
    16  H   -0.000000   0.000000  -0.000000  -0.000000  -0.000000  -0.000058
    17  H   -0.000000  -0.000000  -0.000000  -0.000000  -0.000000  -0.000005
    18  H    0.000006  -0.000012  -0.000000  -0.000000  -0.000000   0.001230
    19  H   -0.000011   0.000010  -0.000000   0.000000   0.000000  -0.004135
    20  H   -0.000026   0.000050  -0.000019   0.000002   0.000021  -0.000385
    21  H    0.000123  -0.000075   0.000014  -0.000000  -0.000024   0.001237
    22  H    0.000497   0.006242   0.000204   0.000046  -0.000061   0.000864
    23  H   -0.000018   0.000227  -0.000046  -0.000003   0.000006   0.000221
    24  H   -0.000010   0.000019  -0.000000  -0.000000  -0.000000   0.002848
    25  H    0.000003   0.000054   0.000000   0.000000   0.000000   0.000021
    26  H   -0.000000  -0.000012   0.000000   0.000000  -0.000000   0.000332
    27  H    0.000166   0.000070   0.000001   0.000000  -0.000000  -0.004547
    28  H   -0.000034   0.000341  -0.000002  -0.000001   0.000000   0.000910
    29  H    0.005893  -0.006140   0.005097  -0.000111  -0.000856  -0.000250
    30  H   -0.002754   0.004310  -0.000086  -0.000245   0.002760  -0.000177
    31  H    0.520269  -0.030287   0.006847  -0.002039  -0.006447   0.000299
    32  H   -0.030287   0.523241  -0.006255  -0.002795   0.006589  -0.000243
    33  H    0.006847  -0.006255   0.537816  -0.022086  -0.030957   0.000004
    34  H   -0.002039  -0.002795  -0.022086   0.520801  -0.023297   0.000000
    35  H   -0.006447   0.006589  -0.030957  -0.023297   0.542700  -0.000007
    36  H    0.000299  -0.000243   0.000004   0.000000  -0.000007   0.445493
    37  H   -0.006818   0.003029  -0.000109  -0.000010   0.000105  -0.012865
    38  H    0.000325  -0.000037   0.000000   0.000001  -0.000003  -0.005450
    39  H   -0.000087   0.000012  -0.000000   0.000000   0.000002  -0.001845
    40  H    0.000067   0.000003   0.000001  -0.000000   0.000007  -0.000271
    41  H   -0.001386   0.000324  -0.000013  -0.000016   0.000210  -0.000066
    42  H   -0.000502   0.000098  -0.000029  -0.000008   0.000566  -0.000450
              37         38         39         40         41         42
     1  C    0.000023  -0.000054   0.000295   0.000001   0.000004  -0.000014
     2  C    0.000968   0.000890  -0.007773  -0.000051  -0.000081   0.000301
     3  C    0.010707  -0.001759   0.028995   0.000538   0.001078  -0.003625
     4  N   -0.021951   0.007813  -0.014092  -0.000123  -0.001005   0.003166
     5  C    0.003316  -0.000470  -0.000946   0.000066  -0.000115   0.000087
     6  C   -0.005656  -0.000045   0.000072  -0.000008   0.000026  -0.000043
     7  C   -0.003419   0.000180  -0.000018   0.000003  -0.000013   0.000009
     8  C   -0.019613   0.000629  -0.009132  -0.000368  -0.007710   0.015474
     9  C   -0.002193   0.000158   0.000944   0.000613   0.002127  -0.009103
    10  C    0.000692   0.000006  -0.000059  -0.000051  -0.000522   0.001324
    11  C    0.384231  -0.047819  -0.031115   0.011523   0.007495  -0.021764
    12  C   -0.015999   0.419149   0.406047  -0.036688  -0.058947  -0.016335
    13  C   -0.006251  -0.035428  -0.033929   0.396721   0.422433   0.388731
    14  Br   0.000004   0.000000   0.000006   0.000000  -0.000000  -0.000004
    15  H   -0.000014  -0.000016  -0.000260  -0.000002  -0.000000   0.000008
    16  H    0.000005   0.000003   0.000083   0.000000   0.000000  -0.000001
    17  H    0.000001   0.000001   0.000012  -0.000000  -0.000000  -0.000000
    18  H   -0.000169  -0.000002  -0.000016  -0.000000  -0.000001   0.000002
    19  H    0.000526  -0.000217   0.003522   0.000009   0.000019  -0.000055
    20  H   -0.000081  -0.000035   0.000747   0.000001   0.000020  -0.000090
    21  H   -0.000452   0.000709  -0.007869  -0.000090  -0.000204   0.001154
    22  H    0.002019  -0.000002  -0.000012  -0.000000  -0.000035  -0.000007
    23  H   -0.000324   0.000019  -0.000022  -0.000002   0.000002   0.000001
    24  H    0.000417   0.000107  -0.000082  -0.000000  -0.000002   0.000006
    25  H    0.000009  -0.000004   0.000002   0.000000   0.000000  -0.000000
    26  H    0.000317  -0.000004   0.000002  -0.000000   0.000000  -0.000000
    27  H   -0.003444  -0.000122   0.000007   0.000002   0.000026  -0.000009
    28  H    0.000626  -0.000002  -0.000001  -0.000000   0.000000   0.000000
    29  H   -0.000245   0.000056  -0.000127  -0.000010  -0.000127   0.001212
    30  H    0.001723  -0.000305   0.001130   0.000427   0.001085  -0.001993
    31  H   -0.006818   0.000325  -0.000087   0.000067  -0.001386  -0.000502
    32  H    0.003029  -0.000037   0.000012   0.000003   0.000324   0.000098
    33  H   -0.000109   0.000000  -0.000000   0.000001  -0.000013  -0.000029
    34  H   -0.000010   0.000001   0.000000  -0.000000  -0.000016  -0.000008
    35  H    0.000105  -0.000003   0.000002   0.000007   0.000210   0.000566
    36  H   -0.012865  -0.005450  -0.001845  -0.000271  -0.000066  -0.000450
    37  H    0.443801   0.000866   0.003516  -0.000117   0.001733   0.001249
    38  H    0.000866   0.517931  -0.023741  -0.004611  -0.005129   0.006570
    39  H    0.003516  -0.023741   0.514688  -0.001852   0.006966  -0.006029
    40  H   -0.000117  -0.004611  -0.001852   0.517515  -0.021500  -0.022051
    41  H    0.001733  -0.005129   0.006966  -0.021500   0.533021  -0.032192
    42  H    0.001249   0.006570  -0.006029  -0.022051  -0.032192   0.546109
 Mulliken charges:
               1
     1  C   -0.459981
     2  C   -0.229884
     3  C   -0.260799
     4  N   -0.133192
     5  C   -0.189409
     6  C   -0.295120
     7  C   -0.425336
     8  C   -0.265546
     9  C   -0.214025
    10  C   -0.445367
    11  C   -0.332807
    12  C   -0.225727
    13  C   -0.442071
    14  Br  -0.924542
    15  H    0.147937
    16  H    0.142859
    17  H    0.159706
    18  H    0.176843
    19  H    0.172780
    20  H    0.170493
    21  H    0.216870
    22  H    0.200354
    23  H    0.178283
    24  H    0.194748
    25  H    0.176621
    26  H    0.154182
    27  H    0.153859
    28  H    0.144869
    29  H    0.173882
    30  H    0.216589
    31  H    0.170710
    32  H    0.160431
    33  H    0.147082
    34  H    0.159960
    35  H    0.144877
    36  H    0.237199
    37  H    0.239843
    38  H    0.169841
    39  H    0.171960
    40  H    0.160298
    41  H    0.152497
    42  H    0.148237
 Sum of Mulliken charges =  -0.00000
 Mulliken charges with hydrogens summed into heavy atoms:
               1
     1  C   -0.009480
     2  C    0.119738
     3  C    0.126564
     4  N   -0.133192
     5  C    0.189227
     6  C    0.076249
     7  C    0.027573
     8  C    0.124925
     9  C    0.117115
    10  C    0.006551
    11  C    0.144235
    12  C    0.116074
    13  C    0.018961
    14  Br  -0.924542
 Electronic spatial extent (au):  <R**2>=           5199.9319
 Charge=             -0.0000 electrons
 Dipole moment (field-independent basis, Debye):
    X=             19.3066    Y=              2.5968    Z=              0.8130  Tot=             19.4974
 Quadrupole moment (field-independent basis, Debye-Ang):
   XX=           -147.8138   YY=            -98.2398   ZZ=            -99.8852
   XY=             -6.1140   XZ=             -2.8211   YZ=             -0.3240
 Traceless Quadrupole moment (field-independent basis, Debye-Ang):
   XX=            -32.5009   YY=             17.0732   ZZ=             15.4277
   XY=             -6.1140   XZ=             -2.8211   YZ=             -0.3240
 Octapole moment (field-independent basis, Debye-Ang**2):
  XXX=            150.1453  YYY=             -2.7640  ZZZ=              4.3550  XYY=             -7.2697
  XXY=             21.6457  XXZ=              0.5288  XZZ=            -11.4128  YZZ=              3.2739
  YYZ=              1.8466  XYZ=              0.1176
 Hexadecapole moment (field-independent basis, Debye-Ang**3):
 XXXX=          -3547.7272 YYYY=          -2066.1115 ZZZZ=          -1455.0699 XXXY=            -33.0404
 XXXZ=            -33.6776 YYYX=             14.2649 YYYZ=            -10.7353 ZZZX=            -10.7100
 ZZZY=             14.6607 XXYY=           -865.7133 XXZZ=           -749.1526 YYZZ=           -590.6449
 XXYZ=             -3.9959 YYXZ=              7.3192 ZZXY=             13.7931
 N-N= 1.336869242706D+03 E-N=-1.005055877931D+04  KE= 3.096023451291D+03
 Unable to Open any file for archive entry.
 1\1\GINC-TCN1387\SP\RBP86\TZVP\C12H28Br1N1\ELENAA\21-Aug-2021\0\\# BP8
 6/TZVP SCRF=COSMORS geom=CHECKPOINT guess=CHECKPOINT\\COSMO-file for #
 BGQMOFGZRJUORO-UHFFFAOYSA-M\\0,1\C,0,1.2215433201,2.2823527486,3.42915
 72102\C,0,0.0621019719,1.7128325797,2.5973624405\C,0,0.5839007477,1.30
 99400238,1.2229672174\N,0,-0.3943377538,0.5907261501,0.2871065501\C,0,
 -1.5922688214,1.5172939244,-0.0312547009\C,0,-2.793979142,1.5317879984
 ,0.9259806687\C,0,-3.9328174762,0.5756535682,0.5438884823\C,0,0.380167
 4291,0.4147288021,-1.0308810686\C,0,-0.2686411952,-0.4563534142,-2.101
 5116216\C,0,0.6052361575,-0.4364334611,-3.3652373616\C,0,-0.8695685926
 ,-0.7353401051,0.8766444852\C,0,0.1861142833,-1.703231281,1.4226647802
 \C,0,1.011213954,-2.5185987546,0.419413099\Br,0,0.8046995115,4.3053850
 082,-1.1337298563\H,0,2.0062251161,1.5267488011,3.5879374599\H,0,1.679
 5914439,3.148777079,2.927820867\H,0,0.8629750661,2.6116546513,4.414439
 6724\H,0,-0.721424874,2.4775436361,2.4972509743\H,0,-0.3789850078,0.85
 28071411,3.1249511955\H,0,0.9079961243,2.2019099415,0.6636273926\H,0,1
 .4494643461,0.6419291423,1.3245300557\H,0,-1.9399982066,1.2195008356,-
 1.0272817239\H,0,-1.1329011007,2.5111959203,-0.1298920856\H,0,-2.49015
 80509,1.370790442,1.9690913043\H,0,-3.1756172762,2.5650551845,0.898041
 1086\H,0,-4.7955336143,0.7216579464,1.2101993429\H,0,-3.6379985925,-0.
 4809927919,0.6109545297\H,0,-4.2682953681,0.763575579,-0.48769596\H,0,
 0.5361686908,1.4413799334,-1.3997299775\H,0,1.3614767273,0.0095898104,
 -0.7561861015\H,0,-0.375673019,-1.4925405064,-1.7527734923\H,0,-1.2782
 470385,-0.0951883973,-2.3497345494\H,0,0.7079779382,0.5847183871,-3.76
 25630943\H,0,0.1595790872,-1.0641853293,-4.1494272031\H,0,1.6144248333
 ,-0.8228977811,-3.1552589873\H,0,-1.5364186403,-0.4601232021,1.6997722
 21\H,0,-1.4835344154,-1.2119243301,0.1026062522\H,0,-0.3981134031,-2.4
 068352756,2.0385487926\H,0,0.8457522619,-1.1855693205,2.1354899958\H,0
 ,1.6204486697,-3.2585041748,0.9584922644\H,0,0.3606761052,-3.069599750
 9,-0.2759040975\H,0,1.7011733425,-1.9035514172,-0.1739660735\\Version=
 ES64L-G16RevC.01\State=1-A\HF=-3103.5058342\RMSD=9.526e-10\Dipole=-2.2
 361019,-6.8245375,2.6959023\Quadrupole=8.2437136,-17.0835225,8.8398089
 ,-10.006841,3.4957502,11.4923193\PG=C01 [X(C12H28Br1N1)]\\@
 The archive entry for this job was punched.


 PATIENCE IS THE ABILITY TO IDLE YOUR MOTOR WHEN
 YOU FEEL LIKE STRIPPING YOUR GEARS.
 Job cpu time:       0 days  0 hours 24 minutes 35.0 seconds.
 Elapsed time:       0 days  0 hours  1 minutes  2.4 seconds.
 File lengths (MBytes):  RWF=    155 Int=      0 D2E=      0 Chk=     21 Scr=      1
 Normal termination of Gaussian 16 at Sat Aug 21 09:59:36 2021.
