 Entering Gaussian System, Link 0=g16
 Input=BJEPYKJPYRNKOW-UHFFFAOYSA-N.gjf
 Output=BJEPYKJPYRNKOW-UHFFFAOYSA-N.log
 Initial command:
 /sw/arch/RedHatEnterpriseServer7/EB_production/2019/software/Gaussian/g16.c01/l1.exe "/scratch-local/elenaa.9715184/Gau-4200.inp" -scrdir="/scratch-local/elenaa.9715184/"
 Entering Link 1 = /sw/arch/RedHatEnterpriseServer7/EB_production/2019/software/Gaussian/g16.c01/l1.exe PID=      4202.
  
 Copyright (c) 1988-2019, Gaussian, Inc.  All Rights Reserved.
  
 This is part of the Gaussian(R) 16 program.  It is based on
 the Gaussian(R) 09 system (copyright 2009, Gaussian, Inc.),
 the Gaussian(R) 03 system (copyright 2003, Gaussian, Inc.),
 the Gaussian(R) 98 system (copyright 1998, Gaussian, Inc.),
 the Gaussian(R) 94 system (copyright 1995, Gaussian, Inc.),
 the Gaussian 92(TM) system (copyright 1992, Gaussian, Inc.),
 the Gaussian 90(TM) system (copyright 1990, Gaussian, Inc.),
 the Gaussian 88(TM) system (copyright 1988, Gaussian, Inc.),
 the Gaussian 86(TM) system (copyright 1986, Carnegie Mellon
 University), and the Gaussian 82(TM) system (copyright 1983,
 Carnegie Mellon University). Gaussian is a federally registered
 trademark of Gaussian, Inc.
  
 This software contains proprietary and confidential information,
 including trade secrets, belonging to Gaussian, Inc.
  
 This software is provided under written license and may be
 used, copied, transmitted, or stored only in accord with that
 written license.
  
 The following legend is applicable only to US Government
 contracts under FAR:
  
                    RESTRICTED RIGHTS LEGEND
  
 Use, reproduction and disclosure by the US Government is
 subject to restrictions as set forth in subparagraphs (a)
 and (c) of the Commercial Computer Software - Restricted
 Rights clause in FAR 52.227-19.
  
 Gaussian, Inc.
 340 Quinnipiac St., Bldg. 40, Wallingford CT 06492
  
  
 ---------------------------------------------------------------
 Warning -- This program may not be used in any manner that
 competes with the business of Gaussian, Inc. or will provide
 assistance to any competitor of Gaussian, Inc.  The licensee
 of this program is prohibited from giving any competitor of
 Gaussian, Inc. access to this program.  By using this program,
 the user acknowledges that Gaussian, Inc. is engaged in the
 business of creating and licensing software in the field of
 computational chemistry and represents and warrants to the
 licensee that it is not a competitor of Gaussian, Inc. and that
 it will not use this program in any manner prohibited above.
 ---------------------------------------------------------------
  

 Cite this work as:
 Gaussian 16, Revision C.01,
 M. J. Frisch, G. W. Trucks, H. B. Schlegel, G. E. Scuseria, 
 M. A. Robb, J. R. Cheeseman, G. Scalmani, V. Barone, 
 G. A. Petersson, H. Nakatsuji, X. Li, M. Caricato, A. V. Marenich, 
 J. Bloino, B. G. Janesko, R. Gomperts, B. Mennucci, H. P. Hratchian, 
 J. V. Ortiz, A. F. Izmaylov, J. L. Sonnenberg, D. Williams-Young, 
 F. Ding, F. Lipparini, F. Egidi, J. Goings, B. Peng, A. Petrone, 
 T. Henderson, D. Ranasinghe, V. G. Zakrzewski, J. Gao, N. Rega, 
 G. Zheng, W. Liang, M. Hada, M. Ehara, K. Toyota, R. Fukuda, 
 J. Hasegawa, M. Ishida, T. Nakajima, Y. Honda, O. Kitao, H. Nakai, 
 T. Vreven, K. Throssell, J. A. Montgomery, Jr., J. E. Peralta, 
 F. Ogliaro, M. J. Bearpark, J. J. Heyd, E. N. Brothers, K. N. Kudin, 
 V. N. Staroverov, T. A. Keith, R. Kobayashi, J. Normand, 
 K. Raghavachari, A. P. Rendell, J. C. Burant, S. S. Iyengar, 
 J. Tomasi, M. Cossi, J. M. Millam, M. Klene, C. Adamo, R. Cammi, 
 J. W. Ochterski, R. L. Martin, K. Morokuma, O. Farkas, 
 J. B. Foresman, and D. J. Fox, Gaussian, Inc., Wallingford CT, 2019.
 
 ******************************************
 Gaussian 16:  ES64L-G16RevC.01  3-Jul-2019
                22-Feb-2021 
 ******************************************
 %chk=BJEPYKJPYRNKOW-UHFFFAOYSA-N.chk
 %NProcShared=32
 Will use up to   32 processors via shared memory.
 -------------------------------------------------------------
 #P BP86/TZVP EmpiricalDispersion=GD3 SCRF=(Solvent=Water) Opt
 -------------------------------------------------------------
 1/18=20,19=15,26=3,38=1/1,3;
 2/9=110,12=2,17=6,18=5,40=1/2;
 3/5=19,7=101,11=2,25=1,30=1,70=2201,71=1,72=1,74=404,124=31/1,2,3;
 4//1;
 5/5=2,38=5,53=1/2;
 6/7=2,8=2,9=2,10=2,28=1/1;
 7//1,2,3,16;
 1/18=20,19=15,26=3/3(2);
 2/9=110/2;
 99//99;
 2/9=110/2;
 3/5=19,7=101,11=2,25=1,30=1,70=2205,71=1,72=1,74=404,124=31/1,2,3;
 4/5=5,16=3,69=1/1;
 5/5=2,38=5,53=1/2;
 7//1,2,3,16;
 1/18=20,19=15,26=3/3(-5);
 2/9=110/2;
 6/7=2,8=2,9=2,10=2,19=2,28=1/1;
 99/9=1/99;
 Leave Link    1 at Mon Feb 22 20:57:19 2021, MaxMem=           0 cpu:               2.7 elap:               0.1
 (Enter /sw/arch/RedHatEnterpriseServer7/EB_production/2019/software/Gaussian/g16.c01/l101.exe)
 -------------------------------------
 Particle #BJEPYKJPYRNKOW-UHFFFAOYSA-N
 -------------------------------------
 Symbolic Z-matrix:
 Charge =  0 Multiplicity = 1
 O                     0.9962    2.09718   0.60821 
 C                     1.81597   2.6814   -0.13391 
 O                     2.0043    4.0132    0.01923 
 C                     2.5545    1.93135  -1.16875 
 C                     1.63075   1.36908  -2.28436 
 O                     2.38997   0.6006   -3.21536 
 C                     0.92682   2.43171  -3.03272 
 O                     1.56156   3.28333  -3.69517 
 O                    -0.42306   2.5126   -2.99718 
 H                     1.49148   4.51267   0.68944 
 H                     3.31186   2.57902  -1.61722 
 H                     3.08121   1.10439  -0.68621 
 H                     0.89667   0.69515  -1.83237 
 H                     2.72705  -0.16102  -2.70133 
 H                    -0.88762   3.22521  -3.48532 
 
 ITRead=  0  0  0  0  0  0  0  0  0  0  0  0  0  0  0
 MicOpt= -1 -1 -1 -1 -1 -1 -1 -1 -1 -1 -1 -1 -1 -1 -1
 NAtoms=     15 NQM=       15 NQMF=       0 NMMI=      0 NMMIF=      0
                NMic=       0 NMicF=      0.
                    Isotopes and Nuclear Properties:
 (Nuclear quadrupole moments (NQMom) in fm**2, nuclear magnetic moments (NMagM)
  in nuclear magnetons)

  Atom         1           2           3           4           5           6           7           8           9          10
 IAtWgt=          16          12          16          12          12          16          12          16          16           1
 AtmWgt=  15.9949146  12.0000000  15.9949146  12.0000000  12.0000000  15.9949146  12.0000000  15.9949146  15.9949146   1.0078250
 NucSpn=           0           0           0           0           0           0           0           0           0           1
 AtZEff=  -0.0000000  -0.0000000  -0.0000000  -0.0000000  -0.0000000  -0.0000000  -0.0000000  -0.0000000  -0.0000000  -0.0000000
 NQMom=    0.0000000   0.0000000   0.0000000   0.0000000   0.0000000   0.0000000   0.0000000   0.0000000   0.0000000   0.0000000
 NMagM=    0.0000000   0.0000000   0.0000000   0.0000000   0.0000000   0.0000000   0.0000000   0.0000000   0.0000000   2.7928460
 AtZNuc=   8.0000000   6.0000000   8.0000000   6.0000000   6.0000000   8.0000000   6.0000000   8.0000000   8.0000000   1.0000000

  Atom        11          12          13          14          15
 IAtWgt=           1           1           1           1           1
 AtmWgt=   1.0078250   1.0078250   1.0078250   1.0078250   1.0078250
 NucSpn=           1           1           1           1           1
 AtZEff=  -0.0000000  -0.0000000  -0.0000000  -0.0000000  -0.0000000
 NQMom=    0.0000000   0.0000000   0.0000000   0.0000000   0.0000000
 NMagM=    2.7928460   2.7928460   2.7928460   2.7928460   2.7928460
 AtZNuc=   1.0000000   1.0000000   1.0000000   1.0000000   1.0000000
 Leave Link  101 at Mon Feb 22 20:57:19 2021, MaxMem=   104857600 cpu:               2.8 elap:               0.1
 (Enter /sw/arch/RedHatEnterpriseServer7/EB_production/2019/software/Gaussian/g16.c01/l103.exe)

 GradGradGradGradGradGradGradGradGradGradGradGradGradGradGradGradGradGrad
 Berny optimization.
 Initialization pass.
                           ----------------------------
                           !    Initial Parameters    !
                           ! (Angstroms and Degrees)  !
 --------------------------                            --------------------------
 ! Name  Definition              Value          Derivative Info.                !
 --------------------------------------------------------------------------------
 ! R1    R(1,2)                  1.2506         estimate D2E/DX2                !
 ! R2    R(2,3)                  1.3537         estimate D2E/DX2                !
 ! R3    R(2,4)                  1.4761         estimate D2E/DX2                !
 ! R4    R(3,10)                 0.9806         estimate D2E/DX2                !
 ! R5    R(4,5)                  1.5537         estimate D2E/DX2                !
 ! R6    R(4,11)                 1.0928         estimate D2E/DX2                !
 ! R7    R(4,12)                 1.0928         estimate D2E/DX2                !
 ! R8    R(5,6)                  1.4261         estimate D2E/DX2                !
 ! R9    R(5,7)                  1.4781         estimate D2E/DX2                !
 ! R10   R(5,13)                 1.0942         estimate D2E/DX2                !
 ! R11   R(6,14)                 0.9787         estimate D2E/DX2                !
 ! R12   R(7,8)                  1.2518         estimate D2E/DX2                !
 ! R13   R(7,9)                  1.3528         estimate D2E/DX2                !
 ! R14   R(9,15)                 0.9808         estimate D2E/DX2                !
 ! A1    A(1,2,3)              118.9229         estimate D2E/DX2                !
 ! A2    A(1,2,4)              120.4372         estimate D2E/DX2                !
 ! A3    A(3,2,4)              120.6368         estimate D2E/DX2                !
 ! A4    A(2,3,10)             120.3741         estimate D2E/DX2                !
 ! A5    A(2,4,5)              112.9421         estimate D2E/DX2                !
 ! A6    A(2,4,11)             109.4693         estimate D2E/DX2                !
 ! A7    A(2,4,12)             108.428          estimate D2E/DX2                !
 ! A8    A(5,4,11)             109.3816         estimate D2E/DX2                !
 ! A9    A(5,4,12)             109.2548         estimate D2E/DX2                !
 ! A10   A(11,4,12)            107.1984         estimate D2E/DX2                !
 ! A11   A(4,5,6)              110.3186         estimate D2E/DX2                !
 ! A12   A(4,5,7)              112.7379         estimate D2E/DX2                !
 ! A13   A(4,5,13)             108.9744         estimate D2E/DX2                !
 ! A14   A(6,5,7)              108.0844         estimate D2E/DX2                !
 ! A15   A(6,5,13)             107.1532         estimate D2E/DX2                !
 ! A16   A(7,5,13)             109.4158         estimate D2E/DX2                !
 ! A17   A(5,6,14)             105.0593         estimate D2E/DX2                !
 ! A18   A(5,7,8)              121.034          estimate D2E/DX2                !
 ! A19   A(5,7,9)              120.3256         estimate D2E/DX2                !
 ! A20   A(8,7,9)              118.6334         estimate D2E/DX2                !
 ! A21   A(7,9,15)             120.2005         estimate D2E/DX2                !
 ! D1    D(1,2,3,10)            -1.2462         estimate D2E/DX2                !
 ! D2    D(4,2,3,10)           178.116          estimate D2E/DX2                !
 ! D3    D(1,2,4,5)             65.4285         estimate D2E/DX2                !
 ! D4    D(1,2,4,11)          -172.4406         estimate D2E/DX2                !
 ! D5    D(1,2,4,12)           -55.8023         estimate D2E/DX2                !
 ! D6    D(3,2,4,5)           -113.9239         estimate D2E/DX2                !
 ! D7    D(3,2,4,11)             8.207          estimate D2E/DX2                !
 ! D8    D(3,2,4,12)           124.8452         estimate D2E/DX2                !
 ! D9    D(2,4,5,6)           -177.1062         estimate D2E/DX2                !
 ! D10   D(2,4,5,7)             61.9573         estimate D2E/DX2                !
 ! D11   D(2,4,5,13)           -59.7268         estimate D2E/DX2                !
 ! D12   D(11,4,5,6)            60.7137         estimate D2E/DX2                !
 ! D13   D(11,4,5,7)           -60.2228         estimate D2E/DX2                !
 ! D14   D(11,4,5,13)          178.0931         estimate D2E/DX2                !
 ! D15   D(12,4,5,6)           -56.345          estimate D2E/DX2                !
 ! D16   D(12,4,5,7)          -177.2815         estimate D2E/DX2                !
 ! D17   D(12,4,5,13)           61.0344         estimate D2E/DX2                !
 ! D18   D(4,5,6,14)            64.4564         estimate D2E/DX2                !
 ! D19   D(7,5,6,14)          -171.8676         estimate D2E/DX2                !
 ! D20   D(13,5,6,14)          -54.0431         estimate D2E/DX2                !
 ! D21   D(4,5,7,8)             62.3323         estimate D2E/DX2                !
 ! D22   D(4,5,7,9)           -116.693          estimate D2E/DX2                !
 ! D23   D(6,5,7,8)            -59.8706         estimate D2E/DX2                !
 ! D24   D(6,5,7,9)            121.1041         estimate D2E/DX2                !
 ! D25   D(13,5,7,8)          -176.2337         estimate D2E/DX2                !
 ! D26   D(13,5,7,9)             4.7409         estimate D2E/DX2                !
 ! D27   D(5,7,9,15)           179.2311         estimate D2E/DX2                !
 ! D28   D(8,7,9,15)             0.1826         estimate D2E/DX2                !
 --------------------------------------------------------------------------------
 Trust Radius=3.00D-01 FncErr=1.00D-07 GrdErr=1.00D-06 EigMax=2.50D+02 EigMin=1.00D-04
 Number of steps in this run=     73 maximum allowed number of steps=    100.
 GradGradGradGradGradGradGradGradGradGradGradGradGradGradGradGradGradGrad

 Leave Link  103 at Mon Feb 22 20:57:19 2021, MaxMem=   104857600 cpu:               0.8 elap:               0.1
 (Enter /sw/arch/RedHatEnterpriseServer7/EB_production/2019/software/Gaussian/g16.c01/l202.exe)
                          Input orientation:                          
 ---------------------------------------------------------------------
 Center     Atomic      Atomic             Coordinates (Angstroms)
 Number     Number       Type             X           Y           Z
 ---------------------------------------------------------------------
      1          8           0        0.996200    2.097180    0.608210
      2          6           0        1.815970    2.681400   -0.133910
      3          8           0        2.004300    4.013200    0.019230
      4          6           0        2.554500    1.931350   -1.168750
      5          6           0        1.630750    1.369080   -2.284360
      6          8           0        2.389970    0.600600   -3.215360
      7          6           0        0.926820    2.431710   -3.032720
      8          8           0        1.561560    3.283330   -3.695170
      9          8           0       -0.423060    2.512600   -2.997180
     10          1           0        1.491480    4.512670    0.689440
     11          1           0        3.311860    2.579020   -1.617220
     12          1           0        3.081210    1.104390   -0.686210
     13          1           0        0.896670    0.695150   -1.832370
     14          1           0        2.727050   -0.161020   -2.701330
     15          1           0       -0.887620    3.225210   -3.485320
 ---------------------------------------------------------------------
                    Distance matrix (angstroms):
                    1          2          3          4          5
     1  O    0.000000
     2  C    1.250631   0.000000
     3  O    2.243724   1.353740   0.000000
     4  C    2.369258   1.476108   2.459292   0.000000
     5  C    3.049548   2.526049   3.526675   1.553720   0.000000
     6  O    4.336131   3.762252   4.717749   2.446748   1.426092
     7  C    3.656924   3.042373   3.602287   2.524695   1.478087
     8  O    4.499518   3.620721   3.811233   3.032586   2.378976
     9  O    3.896885   3.638690   4.152422   3.542156   2.456397
    10  H    2.467082   2.033900   0.980630   3.353520   4.329554
    11  H    3.247613   2.109118   2.538613   1.092793   2.176043
    12  H    2.647342   2.095907   3.180968   1.092763   2.174392
    13  H    2.816385   2.770391   3.957868   2.171861   1.094235
    14  H    4.364443   3.937139   5.034672   2.599344   1.927938
    15  H    4.645236   4.340170   4.611507   4.346120   3.351076
                    6          7          8          9         10
     6  O    0.000000
     7  C    2.350985   0.000000
     8  O    2.848424   1.251795   0.000000
     9  O    3.408296   1.352768   2.240520   0.000000
    10  H    5.599914   4.301594   4.554228   4.610522   0.000000
    11  H    2.705195   2.777365   2.806685   3.982252   3.517594
    12  H    2.669872   3.450983   4.013846   4.427589   4.004501
    13  H    2.037534   2.111253   3.257419   2.530137   4.613760
    14  H    0.978731   3.173783   3.769567   4.142338   5.904857
    15  H    4.207618   2.031424   2.458841   0.980770   4.974564
                   11         12         13         14         15
    11  H    0.000000
    12  H    1.759123   0.000000
    13  H    3.070570   2.500675   0.000000
    14  H    3.004183   2.405702   2.199638   0.000000
    15  H    4.641443   5.299482   3.509578   5.014682   0.000000
 Stoichiometry    C4H6O5
 Framework group  C1[X(C4H6O5)]
 Deg. of freedom    39
 Full point group                 C1      NOp   1
 Largest Abelian subgroup         C1      NOp   1
 Largest concise Abelian subgroup C1      NOp   1
                         Standard orientation:                         
 ---------------------------------------------------------------------
 Center     Atomic      Atomic             Coordinates (Angstroms)
 Number     Number       Type             X           Y           Z
 ---------------------------------------------------------------------
      1          8           0       -2.132645    0.162649    1.164575
      2          6           0       -1.695673    0.148079   -0.007142
      3          8           0       -2.233904   -0.719712   -0.895882
      4          6           0       -0.601054    1.053481   -0.408332
      5          6           0        0.738284    0.742180    0.315072
      6          8           0        1.736396    1.688344   -0.062133
      7          6           0        1.250500   -0.610699    0.011597
      8          8           0        1.562275   -0.935748   -1.156363
      9          8           0        1.372708   -1.531319    0.995216
     10          1           0       -2.942051   -1.338558   -0.618044
     11          1           0       -0.452912    0.989287   -1.489132
     12          1           0       -0.901823    2.079767   -0.183817
     13          1           0        0.590963    0.841616    1.394775
     14          1           0        1.412672    2.547897    0.275931
     15          1           0        1.702155   -2.431978    0.789820
 ---------------------------------------------------------------------
 Rotational constants (GHZ):           2.1875861           1.1767209           1.0106407
 Leave Link  202 at Mon Feb 22 20:57:19 2021, MaxMem=   104857600 cpu:               0.7 elap:               0.1
 (Enter /sw/arch/RedHatEnterpriseServer7/EB_production/2019/software/Gaussian/g16.c01/l301.exe)
 Standard basis: TZVP (5D, 7F)
 Ernie: Thresh=  0.10000D-02 Tol=  0.10000D-05 Strict=F.
 There are   216 symmetry adapted cartesian basis functions of A   symmetry.
 There are   207 symmetry adapted basis functions of A   symmetry.
   207 basis functions,   363 primitive gaussians,   216 cartesian basis functions
    35 alpha electrons       35 beta electrons
       nuclear repulsion energy       467.6063250353 Hartrees.
 IExCor=  404 DFT=T Ex=B Corr=P86 ExCW=0 ScaHFX=  0.000000
 ScaDFX=  1.000000  1.000000  1.000000  1.000000 ScalE2=  1.000000  1.000000
 IRadAn=      5 IRanWt=     -1 IRanGd=            0 ICorTp=0 IEmpDi=131
 NAtoms=   15 NActive=   15 NUniq=   15 SFac= 1.00D+00 NAtFMM=   60 NAOKFM=F Big=F
 Integral buffers will be    131072 words long.
 Raffenetti 2 integral format.
 Two-electron integral symmetry is turned on.
 R6Disp:  Grimme-D3 Dispersion energy=       -0.0138398894 Hartrees.
 Nuclear repulsion after empirical dispersion term =      467.5924851459 Hartrees.
 ------------------------------------------------------------------------------
 Polarizable Continuum Model (PCM)
 =================================
 Model                : PCM.
 Atomic radii         : UFF (Universal Force Field).
 Polarization charges : Total charges.
 Charge compensation  : None.
 Solution method      : On-the-fly selection.
 Cavity type          : Scaled VdW (van der Waals Surface) (Alpha=1.100).
 Cavity algorithm     : GePol (No added spheres)
                        Default sphere list used, NSphG=   15.
                        Lebedev-Laikov grids with approx.  5.0 points / Ang**2.
                        Smoothing algorithm: York/Karplus (Gamma=1.0000).
                        Polarization charges: spherical gaussians, with
                                              point-specific exponents (IZeta= 3).
                        Self-potential: point-specific (ISelfS= 7).
                        Self-field    : sphere-specific E.n sum rule (ISelfD= 2).
 1st derivatives      : Analytical E(r).r(x)/FMM algorithm (CHGder, D1EAlg=3).
                        Cavity 1st derivative terms included.
 Solvent              : Water, Eps=  78.355300 Eps(inf)=   1.777849
 ------------------------------------------------------------------------------
 Spheres list:
 ISph  on   Nord     Re0    Alpha      Xe            Ye            Ze
    1   O      1    1.7500  1.100     -2.132645      0.162649      1.164575
    2   C      2    1.9255  1.100     -1.695673      0.148079     -0.007142
    3   O      3    1.7500  1.100     -2.233904     -0.719712     -0.895882
    4   C      4    1.9255  1.100     -0.601054      1.053481     -0.408332
    5   C      5    1.9255  1.100      0.738284      0.742180      0.315072
    6   O      6    1.7500  1.100      1.736396      1.688344     -0.062133
    7   C      7    1.9255  1.100      1.250500     -0.610699      0.011597
    8   O      8    1.7500  1.100      1.562275     -0.935748     -1.156363
    9   O      9    1.7500  1.100      1.372708     -1.531319      0.995216
   10   H     10    1.4430  1.100     -2.942051     -1.338558     -0.618044
   11   H     11    1.4430  1.100     -0.452912      0.989287     -1.489132
   12   H     12    1.4430  1.100     -0.901823      2.079767     -0.183817
   13   H     13    1.4430  1.100      0.590963      0.841616      1.394775
   14   H     14    1.4430  1.100      1.412672      2.547897      0.275931
   15   H     15    1.4430  1.100      1.702155     -2.431978      0.789820
 ------------------------------------------------------------------------------
 GePol: Number of generator spheres                  =      15
 GePol: Total number of spheres                      =      15
 GePol: Number of exposed spheres                    =      15 (100.00%)
 GePol: Number of points                             =    1387
 GePol: Average weight of points                     =       0.13
 GePol: Minimum weight of points                     =   0.24D-07
 GePol: Maximum weight of points                     =    0.20577
 GePol: Number of points with low weight             =      75
 GePol: Fraction of low-weight points (<1% of avg)   =       5.41%
 GePol: Cavity surface area                          =    187.065 Ang**2
 GePol: Cavity volume                                =    176.489 Ang**3
 Leave Link  301 at Mon Feb 22 20:57:20 2021, MaxMem=   104857600 cpu:               2.1 elap:               0.1
 (Enter /sw/arch/RedHatEnterpriseServer7/EB_production/2019/software/Gaussian/g16.c01/l302.exe)
 NPDir=0 NMtPBC=     1 NCelOv=     1 NCel=       1 NClECP=     1 NCelD=      1
         NCelK=      1 NCelE2=     1 NClLst=     1 CellRange=     0.0.
 One-electron integrals computed using PRISM.
 One-electron integral symmetry used in STVInt
 PrsmSu:  requested number of processors reduced to:  29 ShMem   1 Linda.
 NBasis=   207 RedAO= T EigKep=  2.33D-04  NBF=   207
 NBsUse=   207 1.00D-06 EigRej= -1.00D+00 NBFU=   207
 Precomputing XC quadrature grid using
 IXCGrd= 4 IRadAn=           5 IRanWt=          -1 IRanGd=           0 AccXCQ= 0.00D+00.
 Generated NRdTot=       0 NPtTot=           0 NUsed=           0 NTot=          32
 NSgBfM=   214   214   214   214   214 MxSgAt=    15 MxSgA2=    15.
 Leave Link  302 at Mon Feb 22 20:57:20 2021, MaxMem=   104857600 cpu:               6.8 elap:               0.2
 (Enter /sw/arch/RedHatEnterpriseServer7/EB_production/2019/software/Gaussian/g16.c01/l303.exe)
 DipDrv:  MaxL=1.
 Leave Link  303 at Mon Feb 22 20:57:20 2021, MaxMem=   104857600 cpu:               2.8 elap:               0.1
 (Enter /sw/arch/RedHatEnterpriseServer7/EB_production/2019/software/Gaussian/g16.c01/l401.exe)
 ExpMin= 9.52D-02 ExpMax= 2.70D+04 ExpMxC= 9.22D+02 IAcc=3 IRadAn=         5 AccDes= 0.00D+00
 Harris functional with IExCor=  404 and IRadAn=       5 diagonalized for initial guess.
 HarFok:  IExCor=  404 AccDes= 0.00D+00 IRadAn=         5 IDoV= 1 UseB2=F ITyADJ=14
 ICtDFT=  3500011 ScaDFX=  1.000000  1.000000  1.000000  1.000000
 FoFCou: FMM=F IPFlag=           0 FMFlag=      100000 FMFlg1=           0
         NFxFlg=           0 DoJE=T BraDBF=F KetDBF=T FulRan=T
         wScrn=  0.000000 ICntrl=       500 IOpCl=  0 I1Cent=   200000004 NGrid=           0
         NMat0=    1 NMatS0=      1 NMatT0=    0 NMatD0=    1 NMtDS0=    0 NMtDT0=    0
 Petite list used in FoFCou.
 Harris En= -532.509479400201    
 JPrj=0 DoOrth=F DoCkMO=F.
 Leave Link  401 at Mon Feb 22 20:57:21 2021, MaxMem=   104857600 cpu:              10.8 elap:               0.4
 (Enter /sw/arch/RedHatEnterpriseServer7/EB_production/2019/software/Gaussian/g16.c01/l502.exe)
 Integral symmetry usage will be decided dynamically.
 Closed shell SCF:
 Using DIIS extrapolation, IDIIS=  1040.
 NGot=   104857600 LenX=   104754792 LenY=   104707695
 Requested convergence on RMS density matrix=1.00D-08 within 128 cycles.
 Requested convergence on MAX density matrix=1.00D-06.
 Requested convergence on             energy=1.00D-06.
 No special actions if energy rises.
 Fock matrices will be formed incrementally for  20 cycles.

 Cycle   1  Pass 1  IDiag  1:
 FoFJK:  IHMeth= 1 ICntrl=     500 DoSepK=F KAlg= 0 I1Cent=           0 FoldK=F
 IRaf= 930000000 NMat=       1 IRICut=       1 DoRegI=T DoRafI=F ISym2E= 0 IDoP0=0 IntGTp=1.
 FoFCou: FMM=F IPFlag=           0 FMFlag=      100000 FMFlg1=           0
         NFxFlg=           0 DoJE=T BraDBF=F KetDBF=F FulRan=T
         wScrn=  0.000000 ICntrl=       500 IOpCl=  0 I1Cent=           0 NGrid=           0
         NMat0=    1 NMatS0=      1 NMatT0=    0 NMatD0=    1 NMtDS0=    0 NMtDT0=    0
 Symmetry not used in FoFCou.
 Inv3:  Mode=1 IEnd=     5771307.
 Iteration    1 A*A^-1 deviation from unit magnitude is 3.11D-15 for    227.
 Iteration    1 A*A^-1 deviation from orthogonality  is 2.11D-15 for   1373   1062.
 Iteration    1 A^-1*A deviation from unit magnitude is 3.11D-15 for    823.
 Iteration    1 A^-1*A deviation from orthogonality  is 2.43D-15 for    565    445.
 E= -532.135741009973    
 DIIS: error= 2.57D-02 at cycle   1 NSaved=   1.
 NSaved= 1 IEnMin= 1 EnMin= -532.135741009973     IErMin= 1 ErrMin= 2.57D-02
 ErrMax= 2.57D-02  0.00D+00 EMaxC= 1.00D-01 BMatC= 3.60D-01 BMatP= 3.60D-01
 IDIUse=3 WtCom= 7.43D-01 WtEn= 2.57D-01
 Coeff-Com:  0.100D+01
 Coeff-En:   0.100D+01
 Coeff:      0.100D+01
 Gap=     0.048 Goal=   None    Shift=    0.000
 GapD=    0.048 DampG=0.250 DampE=0.500 DampFc=0.2500 IDamp=-1.
 Damping current iteration by 2.50D-01
 RMSDP=1.11D-02 MaxDP=5.94D-01              OVMax= 3.33D-01

 Cycle   2  Pass 1  IDiag  1:
 RMSU=  2.76D-03    CP:  1.01D+00
 E= -532.217730458019     Delta-E=       -0.081989448045 Rises=F Damp=T
 DIIS: error= 8.50D-03 at cycle   2 NSaved=   2.
 NSaved= 2 IEnMin= 2 EnMin= -532.217730458019     IErMin= 2 ErrMin= 8.50D-03
 ErrMax= 8.50D-03  0.00D+00 EMaxC= 1.00D-01 BMatC= 3.56D-02 BMatP= 3.60D-01
 IDIUse=3 WtCom= 9.15D-01 WtEn= 8.50D-02
 Coeff-Com: -0.190D+00 0.119D+01
 Coeff-En:   0.165D+00 0.835D+00
 Coeff:     -0.160D+00 0.116D+01
 Gap=     0.140 Goal=   None    Shift=    0.000
 RMSDP=1.99D-03 MaxDP=3.49D-02 DE=-8.20D-02 OVMax= 2.92D-01

 Cycle   3  Pass 1  IDiag  1:
 RMSU=  1.99D-03    CP:  1.01D+00  1.03D+00
 E= -532.311785673565     Delta-E=       -0.094055215547 Rises=F Damp=F
 DIIS: error= 1.99D-02 at cycle   3 NSaved=   3.
 NSaved= 3 IEnMin= 3 EnMin= -532.311785673565     IErMin= 2 ErrMin= 8.50D-03
 ErrMax= 1.99D-02  0.00D+00 EMaxC= 1.00D-01 BMatC= 1.13D-01 BMatP= 3.56D-02
 IDIUse=2 WtCom= 0.00D+00 WtEn= 1.00D+00
 EnCoef did     5 forward-backward iterations
 Coeff-En:   0.634D-01 0.539D-01 0.883D+00
 Coeff:      0.634D-01 0.539D-01 0.883D+00
 Gap=     0.170 Goal=   None    Shift=    0.000
 RMSDP=4.50D-03 MaxDP=9.69D-02 DE=-9.41D-02 OVMax= 3.24D-01

 Cycle   4  Pass 1  IDiag  1:
 RMSU=  2.26D-03    CP:  1.01D+00  1.58D+00 -7.99D-01
 E= -531.678066952436     Delta-E=        0.633718721130 Rises=F Damp=F
 DIIS: error= 5.22D-02 at cycle   4 NSaved=   4.
 NSaved= 4 IEnMin= 3 EnMin= -532.311785673565     IErMin= 2 ErrMin= 8.50D-03
 ErrMax= 5.22D-02  0.00D+00 EMaxC= 1.00D-01 BMatC= 9.31D-01 BMatP= 3.56D-02
 IDIUse=2 WtCom= 0.00D+00 WtEn= 1.00D+00
 EnCoef did     1 forward-backward iterations
 Coeff-En:   0.358D-02 0.000D+00 0.821D+00 0.175D+00
 Coeff:      0.358D-02 0.000D+00 0.821D+00 0.175D+00
 Gap=     0.141 Goal=   None    Shift=    0.000
 RMSDP=2.73D-03 MaxDP=5.87D-02 DE= 6.34D-01 OVMax= 2.17D-01

 Cycle   5  Pass 1  IDiag  1:
 RMSU=  5.45D-04    CP:  1.01D+00  9.18D-01 -2.81D-02  4.62D-01
 E= -532.332409315541     Delta-E=       -0.654342363106 Rises=F Damp=F
 DIIS: error= 1.81D-02 at cycle   5 NSaved=   5.
 NSaved= 5 IEnMin= 5 EnMin= -532.332409315541     IErMin= 2 ErrMin= 8.50D-03
 ErrMax= 1.81D-02  0.00D+00 EMaxC= 1.00D-01 BMatC= 9.36D-02 BMatP= 3.56D-02
 IDIUse=2 WtCom= 0.00D+00 WtEn= 1.00D+00
 Coeff-En:   0.000D+00 0.000D+00 0.454D+00 0.000D+00 0.546D+00
 Coeff:      0.000D+00 0.000D+00 0.454D+00 0.000D+00 0.546D+00
 Gap=     0.157 Goal=   None    Shift=    0.000
 RMSDP=1.16D-03 MaxDP=3.23D-02 DE=-6.54D-01 OVMax= 8.22D-02

 Cycle   6  Pass 1  IDiag  1:
 RMSU=  3.01D-04    CP:  1.01D+00  1.01D+00  4.39D-01  2.16D-01  8.45D-01
 E= -532.398136685842     Delta-E=       -0.065727370301 Rises=F Damp=F
 DIIS: error= 2.99D-03 at cycle   6 NSaved=   6.
 NSaved= 6 IEnMin= 6 EnMin= -532.398136685842     IErMin= 6 ErrMin= 2.99D-03
 ErrMax= 2.99D-03  0.00D+00 EMaxC= 1.00D-01 BMatC= 4.97D-03 BMatP= 3.56D-02
 IDIUse=3 WtCom= 9.70D-01 WtEn= 2.99D-02
 Coeff-Com: -0.382D-01 0.725D-01 0.264D+00-0.410D-01 0.411D+00 0.332D+00
 Coeff-En:   0.000D+00 0.000D+00 0.000D+00 0.000D+00 0.000D+00 0.100D+01
 Coeff:     -0.371D-01 0.703D-01 0.256D+00-0.398D-01 0.399D+00 0.352D+00
 Gap=     0.160 Goal=   None    Shift=    0.000
 RMSDP=3.08D-04 MaxDP=1.29D-02 DE=-6.57D-02 OVMax= 1.75D-02

 Cycle   7  Pass 1  IDiag  1:
 RMSU=  1.11D-04    CP:  1.01D+00  9.51D-01  4.09D-01  2.61D-01  7.39D-01
                    CP:  3.90D-01
 E= -532.401490136639     Delta-E=       -0.003353450797 Rises=F Damp=F
 DIIS: error= 7.44D-04 at cycle   7 NSaved=   7.
 NSaved= 7 IEnMin= 7 EnMin= -532.401490136639     IErMin= 7 ErrMin= 7.44D-04
 ErrMax= 7.44D-04  0.00D+00 EMaxC= 1.00D-01 BMatC= 2.01D-04 BMatP= 4.97D-03
 IDIUse=3 WtCom= 9.93D-01 WtEn= 7.44D-03
 Coeff-Com: -0.173D-01 0.319D-01 0.102D+00-0.265D-01 0.183D+00 0.223D+00
 Coeff-Com:  0.504D+00
 Coeff-En:   0.000D+00 0.000D+00 0.000D+00 0.000D+00 0.000D+00 0.000D+00
 Coeff-En:   0.100D+01
 Coeff:     -0.172D-01 0.316D-01 0.101D+00-0.264D-01 0.182D+00 0.221D+00
 Coeff:      0.508D+00
 Gap=     0.160 Goal=   None    Shift=    0.000
 RMSDP=7.46D-05 MaxDP=2.40D-03 DE=-3.35D-03 OVMax= 2.67D-03

 Cycle   8  Pass 1  IDiag  1:
 RMSU=  2.92D-05    CP:  1.01D+00  9.61D-01  4.16D-01  2.47D-01  7.78D-01
                    CP:  4.49D-01  5.88D-01
 E= -532.401634557293     Delta-E=       -0.000144420653 Rises=F Damp=F
 DIIS: error= 2.19D-04 at cycle   8 NSaved=   8.
 NSaved= 8 IEnMin= 8 EnMin= -532.401634557293     IErMin= 8 ErrMin= 2.19D-04
 ErrMax= 2.19D-04  0.00D+00 EMaxC= 1.00D-01 BMatC= 1.77D-05 BMatP= 2.01D-04
 IDIUse=3 WtCom= 9.98D-01 WtEn= 2.19D-03
 Coeff-Com:  0.667D-02-0.106D-01 0.122D-01-0.279D-02 0.211D-01 0.863D-01
 Coeff-Com:  0.272D+00 0.615D+00
 Coeff-En:   0.000D+00 0.000D+00 0.000D+00 0.000D+00 0.000D+00 0.000D+00
 Coeff-En:   0.000D+00 0.100D+01
 Coeff:      0.666D-02-0.106D-01 0.122D-01-0.279D-02 0.210D-01 0.861D-01
 Coeff:      0.272D+00 0.616D+00
 Gap=     0.160 Goal=   None    Shift=    0.000
 RMSDP=2.13D-05 MaxDP=4.54D-04 DE=-1.44D-04 OVMax= 1.00D-03

 Cycle   9  Pass 1  IDiag  1:
 RMSU=  8.40D-06    CP:  1.01D+00  9.56D-01  4.17D-01  2.48D-01  7.68D-01
                    CP:  4.68D-01  6.40D-01  6.60D-01
 E= -532.401647169230     Delta-E=       -0.000012611938 Rises=F Damp=F
 DIIS: error= 6.34D-05 at cycle   9 NSaved=   9.
 NSaved= 9 IEnMin= 9 EnMin= -532.401647169230     IErMin= 9 ErrMin= 6.34D-05
 ErrMax= 6.34D-05  0.00D+00 EMaxC= 1.00D-01 BMatC= 1.32D-06 BMatP= 1.77D-05
 IDIUse=1 WtCom= 1.00D+00 WtEn= 0.00D+00
 Coeff-Com:  0.431D-02-0.642D-02 0.554D-02-0.126D-02 0.854D-02 0.462D-01
 Coeff-Com:  0.156D+00 0.395D+00 0.392D+00
 Coeff:      0.431D-02-0.642D-02 0.554D-02-0.126D-02 0.854D-02 0.462D-01
 Coeff:      0.156D+00 0.395D+00 0.392D+00
 Gap=     0.160 Goal=   None    Shift=    0.000
 RMSDP=5.37D-06 MaxDP=1.53D-04 DE=-1.26D-05 OVMax= 4.83D-04

 Cycle  10  Pass 1  IDiag  1:
 RMSU=  4.04D-06    CP:  1.01D+00  9.56D-01  4.17D-01  2.47D-01  7.69D-01
                    CP:  4.68D-01  6.39D-01  6.90D-01  6.40D-01
 E= -532.401647945493     Delta-E=       -0.000000776262 Rises=F Damp=F
 DIIS: error= 3.89D-05 at cycle  10 NSaved=  10.
 NSaved=10 IEnMin=10 EnMin= -532.401647945493     IErMin=10 ErrMin= 3.89D-05
 ErrMax= 3.89D-05  0.00D+00 EMaxC= 1.00D-01 BMatC= 3.02D-07 BMatP= 1.32D-06
 IDIUse=1 WtCom= 1.00D+00 WtEn= 0.00D+00
 Coeff-Com:  0.156D-02-0.198D-02 0.166D-02-0.376D-03 0.180D-02 0.132D-01
 Coeff-Com:  0.487D-01 0.143D+00 0.315D+00 0.478D+00
 Coeff:      0.156D-02-0.198D-02 0.166D-02-0.376D-03 0.180D-02 0.132D-01
 Coeff:      0.487D-01 0.143D+00 0.315D+00 0.478D+00
 Gap=     0.160 Goal=   None    Shift=    0.000
 RMSDP=2.43D-06 MaxDP=5.42D-05 DE=-7.76D-07 OVMax= 2.05D-04

 Cycle  11  Pass 1  IDiag  1:
 RMSU=  1.50D-06    CP:  1.01D+00  9.56D-01  4.18D-01  2.47D-01  7.69D-01
                    CP:  4.68D-01  6.39D-01  6.94D-01  6.94D-01  5.72D-01
 E= -532.401648160266     Delta-E=       -0.000000214774 Rises=F Damp=F
 DIIS: error= 8.01D-06 at cycle  11 NSaved=  11.
 NSaved=11 IEnMin=11 EnMin= -532.401648160266     IErMin=11 ErrMin= 8.01D-06
 ErrMax= 8.01D-06  0.00D+00 EMaxC= 1.00D-01 BMatC= 2.73D-08 BMatP= 3.02D-07
 IDIUse=1 WtCom= 1.00D+00 WtEn= 0.00D+00
 Coeff-Com:  0.541D-03-0.609D-03 0.660D-03-0.160D-03 0.630D-03 0.375D-02
 Coeff-Com:  0.147D-01 0.457D-01 0.149D+00 0.304D+00 0.482D+00
 Coeff:      0.541D-03-0.609D-03 0.660D-03-0.160D-03 0.630D-03 0.375D-02
 Coeff:      0.147D-01 0.457D-01 0.149D+00 0.304D+00 0.482D+00
 Gap=     0.160 Goal=   None    Shift=    0.000
 RMSDP=8.43D-07 MaxDP=2.51D-05 DE=-2.15D-07 OVMax= 3.10D-05

 Cycle  12  Pass 1  IDiag  1:
 RMSU=  3.60D-07    CP:  1.01D+00  9.56D-01  4.18D-01  2.47D-01  7.68D-01
                    CP:  4.67D-01  6.41D-01  6.91D-01  6.97D-01  6.02D-01
                    CP:  5.47D-01
 E= -532.401648171520     Delta-E=       -0.000000011254 Rises=F Damp=F
 DIIS: error= 1.97D-06 at cycle  12 NSaved=  12.
 NSaved=12 IEnMin=12 EnMin= -532.401648171520     IErMin=12 ErrMin= 1.97D-06
 ErrMax= 1.97D-06  0.00D+00 EMaxC= 1.00D-01 BMatC= 1.27D-09 BMatP= 2.73D-08
 IDIUse=1 WtCom= 1.00D+00 WtEn= 0.00D+00
 Coeff-Com:  0.834D-04-0.741D-04 0.116D-03-0.228D-04 0.657D-04 0.578D-04
 Coeff-Com:  0.834D-03 0.341D-02 0.271D-01 0.784D-01 0.203D+00 0.687D+00
 Coeff:      0.834D-04-0.741D-04 0.116D-03-0.228D-04 0.657D-04 0.578D-04
 Coeff:      0.834D-03 0.341D-02 0.271D-01 0.784D-01 0.203D+00 0.687D+00
 Gap=     0.160 Goal=   None    Shift=    0.000
 RMSDP=1.86D-07 MaxDP=3.89D-06 DE=-1.13D-08 OVMax= 7.71D-06

 Cycle  13  Pass 1  IDiag  1:
 RMSU=  9.75D-08    CP:  1.01D+00  9.56D-01  4.18D-01  2.47D-01  7.69D-01
                    CP:  4.67D-01  6.40D-01  6.91D-01  6.99D-01  6.10D-01
                    CP:  5.83D-01  7.40D-01
 E= -532.401648172388     Delta-E=       -0.000000000868 Rises=F Damp=F
 DIIS: error= 6.67D-07 at cycle  13 NSaved=  13.
 NSaved=13 IEnMin=13 EnMin= -532.401648172388     IErMin=13 ErrMin= 6.67D-07
 ErrMax= 6.67D-07  0.00D+00 EMaxC= 1.00D-01 BMatC= 1.39D-10 BMatP= 1.27D-09
 IDIUse=1 WtCom= 1.00D+00 WtEn= 0.00D+00
 Coeff-Com:  0.263D-04-0.183D-04 0.411D-04-0.634D-05 0.101D-04-0.150D-03
 Coeff-Com: -0.202D-03-0.174D-03 0.906D-02 0.325D-01 0.976D-01 0.414D+00
 Coeff-Com:  0.447D+00
 Coeff:      0.263D-04-0.183D-04 0.411D-04-0.634D-05 0.101D-04-0.150D-03
 Coeff:     -0.202D-03-0.174D-03 0.906D-02 0.325D-01 0.976D-01 0.414D+00
 Coeff:      0.447D+00
 Gap=     0.160 Goal=   None    Shift=    0.000
 RMSDP=4.71D-08 MaxDP=1.07D-06 DE=-8.68D-10 OVMax= 2.67D-06

 Cycle  14  Pass 1  IDiag  1:
 RMSU=  3.81D-08    CP:  1.01D+00  9.56D-01  4.18D-01  2.47D-01  7.69D-01
                    CP:  4.67D-01  6.40D-01  6.91D-01  6.99D-01  6.11D-01
                    CP:  5.83D-01  7.46D-01  7.53D-01
 E= -532.401648172479     Delta-E=       -0.000000000091 Rises=F Damp=F
 DIIS: error= 2.04D-07 at cycle  14 NSaved=  14.
 NSaved=14 IEnMin=14 EnMin= -532.401648172479     IErMin=14 ErrMin= 2.04D-07
 ErrMax= 2.04D-07  0.00D+00 EMaxC= 1.00D-01 BMatC= 1.53D-11 BMatP= 1.39D-10
 IDIUse=1 WtCom= 1.00D+00 WtEn= 0.00D+00
 Coeff-Com:  0.306D-05-0.776D-06 0.879D-05-0.978D-06 0.524D-06-0.744D-04
 Coeff-Com: -0.187D-03-0.523D-03 0.761D-03 0.530D-02 0.199D-01 0.119D+00
 Coeff-Com:  0.269D+00 0.587D+00
 Coeff:      0.306D-05-0.776D-06 0.879D-05-0.978D-06 0.524D-06-0.744D-04
 Coeff:     -0.187D-03-0.523D-03 0.761D-03 0.530D-02 0.199D-01 0.119D+00
 Coeff:      0.269D+00 0.587D+00
 Gap=     0.160 Goal=   None    Shift=    0.000
 RMSDP=2.06D-08 MaxDP=4.26D-07 DE=-9.08D-11 OVMax= 7.08D-07

 Cycle  15  Pass 1  IDiag  1:
 RMSU=  1.04D-08    CP:  1.01D+00  9.56D-01  4.18D-01  2.47D-01  7.69D-01
                    CP:  4.67D-01  6.40D-01  6.91D-01  6.98D-01  6.11D-01
                    CP:  5.83D-01  7.70D-01  7.54D-01  6.93D-01
 E= -532.401648172492     Delta-E=       -0.000000000013 Rises=F Damp=F
 DIIS: error= 2.60D-08 at cycle  15 NSaved=  15.
 NSaved=15 IEnMin=15 EnMin= -532.401648172492     IErMin=15 ErrMin= 2.60D-08
 ErrMax= 2.60D-08  0.00D+00 EMaxC= 1.00D-01 BMatC= 3.73D-13 BMatP= 1.53D-11
 IDIUse=1 WtCom= 1.00D+00 WtEn= 0.00D+00
 Coeff-Com:  0.359D-06 0.838D-07 0.188D-05-0.170D-06-0.192D-06-0.163D-04
 Coeff-Com: -0.487D-04-0.142D-03-0.109D-03 0.427D-03 0.255D-02 0.231D-01
 Coeff-Com:  0.771D-01 0.213D+00 0.684D+00
 Coeff:      0.359D-06 0.838D-07 0.188D-05-0.170D-06-0.192D-06-0.163D-04
 Coeff:     -0.487D-04-0.142D-03-0.109D-03 0.427D-03 0.255D-02 0.231D-01
 Coeff:      0.771D-01 0.213D+00 0.684D+00
 Gap=     0.160 Goal=   None    Shift=    0.000
 RMSDP=4.45D-09 MaxDP=1.69D-07 DE=-1.31D-11 OVMax= 1.26D-07

 Error on total polarization charges =  0.00832
 SCF Done:  E(RB-P86) =  -532.401648172     A.U. after   15 cycles
            NFock= 15  Conv=0.45D-08     -V/T= 2.0042
 KE= 5.301908595378D+02 PE=-2.186915162989D+03 EE= 6.567301701330D+02
 Leave Link  502 at Mon Feb 22 20:57:31 2021, MaxMem=   104857600 cpu:             327.8 elap:              10.5
 (Enter /sw/arch/RedHatEnterpriseServer7/EB_production/2019/software/Gaussian/g16.c01/l601.exe)
 Copying SCF densities to generalized density rwf, IOpCl= 0 IROHF=0.

 **********************************************************************

            Population analysis using the SCF Density.

 **********************************************************************

 Orbital symmetries:
       Occupied  (A) (A) (A) (A) (A) (A) (A) (A) (A) (A) (A) (A)
                 (A) (A) (A) (A) (A) (A) (A) (A) (A) (A) (A) (A)
                 (A) (A) (A) (A) (A) (A) (A) (A) (A) (A) (A)
       Virtual   (A) (A) (A) (A) (A) (A) (A) (A) (A) (A) (A) (A)
                 (A) (A) (A) (A) (A) (A) (A) (A) (A) (A) (A) (A)
                 (A) (A) (A) (A) (A) (A) (A) (A) (A) (A) (A) (A)
                 (A) (A) (A) (A) (A) (A) (A) (A) (A) (A) (A) (A)
                 (A) (A) (A) (A) (A) (A) (A) (A) (A) (A) (A) (A)
                 (A) (A) (A) (A) (A) (A) (A) (A) (A) (A) (A) (A)
                 (A) (A) (A) (A) (A) (A) (A) (A) (A) (A) (A) (A)
                 (A) (A) (A) (A) (A) (A) (A) (A) (A) (A) (A) (A)
                 (A) (A) (A) (A) (A) (A) (A) (A) (A) (A) (A) (A)
                 (A) (A) (A) (A) (A) (A) (A) (A) (A) (A) (A) (A)
                 (A) (A) (A) (A) (A) (A) (A) (A) (A) (A) (A) (A)
                 (A) (A) (A) (A) (A) (A) (A) (A) (A) (A) (A) (A)
                 (A) (A) (A) (A) (A) (A) (A) (A) (A) (A) (A) (A)
                 (A) (A) (A) (A) (A) (A) (A) (A) (A) (A) (A) (A)
                 (A) (A) (A) (A)
 The electronic state is 1-A.
 Alpha  occ. eigenvalues --  -18.83488 -18.82956 -18.79958 -18.77506 -18.76770
 Alpha  occ. eigenvalues --  -10.05022 -10.04665  -9.99347  -9.93644  -1.03109
 Alpha  occ. eigenvalues --   -1.02437  -0.97202  -0.93491  -0.93219  -0.74871
 Alpha  occ. eigenvalues --   -0.67549  -0.60385  -0.57369  -0.49968  -0.48355
 Alpha  occ. eigenvalues --   -0.47337  -0.44068  -0.43340  -0.43042  -0.40172
 Alpha  occ. eigenvalues --   -0.37843  -0.37336  -0.36050  -0.34686  -0.32903
 Alpha  occ. eigenvalues --   -0.29785  -0.29057  -0.26293  -0.25119  -0.24285
 Alpha virt. eigenvalues --   -0.08245  -0.06975   0.00426   0.01275   0.02595
 Alpha virt. eigenvalues --    0.06046   0.07350   0.09036   0.11331   0.12130
 Alpha virt. eigenvalues --    0.12670   0.14692   0.16010   0.16258   0.18789
 Alpha virt. eigenvalues --    0.19274   0.21402   0.24278   0.25340   0.27850
 Alpha virt. eigenvalues --    0.28429   0.28573   0.30142   0.31850   0.32686
 Alpha virt. eigenvalues --    0.33824   0.34463   0.36391   0.36832   0.37247
 Alpha virt. eigenvalues --    0.39029   0.40037   0.41059   0.41691   0.42940
 Alpha virt. eigenvalues --    0.43951   0.44097   0.45387   0.46501   0.47960
 Alpha virt. eigenvalues --    0.50707   0.51250   0.52042   0.53450   0.53921
 Alpha virt. eigenvalues --    0.56253   0.57243   0.61831   0.62582   0.64482
 Alpha virt. eigenvalues --    0.66203   0.67859   0.73675   0.77401   0.79966
 Alpha virt. eigenvalues --    0.84259   0.86388   0.92803   1.10413   1.12701
 Alpha virt. eigenvalues --    1.18646   1.21788   1.22814   1.25322   1.27934
 Alpha virt. eigenvalues --    1.28502   1.29803   1.30800   1.32044   1.33820
 Alpha virt. eigenvalues --    1.36111   1.36381   1.38145   1.41903   1.44039
 Alpha virt. eigenvalues --    1.45705   1.47270   1.49877   1.51192   1.53211
 Alpha virt. eigenvalues --    1.54907   1.55810   1.56576   1.56912   1.59585
 Alpha virt. eigenvalues --    1.70815   1.74492   1.78855   1.82947   1.86426
 Alpha virt. eigenvalues --    1.88172   1.90124   1.90482   1.91745   1.98785
 Alpha virt. eigenvalues --    2.00732   2.03965   2.06361   2.11132   2.12101
 Alpha virt. eigenvalues --    2.14364   2.18518   2.19679   2.22972   2.26293
 Alpha virt. eigenvalues --    2.31057   2.36770   2.40446   2.41654   2.44576
 Alpha virt. eigenvalues --    2.47631   2.48427   2.51049   2.52511   2.53203
 Alpha virt. eigenvalues --    2.54173   2.54586   2.55571   2.56529   2.57974
 Alpha virt. eigenvalues --    2.58522   2.60036   2.60725   2.62176   2.63202
 Alpha virt. eigenvalues --    2.63988   2.68837   2.70469   2.73218   2.75020
 Alpha virt. eigenvalues --    2.76591   2.79422   2.80639   2.83002   2.84280
 Alpha virt. eigenvalues --    2.86850   2.87618   2.89514   2.92068   2.95498
 Alpha virt. eigenvalues --    2.99040   3.02604   3.04876   3.06481   3.07121
 Alpha virt. eigenvalues --    3.08937   3.09840   3.14363   3.18421   3.22850
 Alpha virt. eigenvalues --    3.29701   3.30538   3.34245   3.43672   3.43957
 Alpha virt. eigenvalues --    3.80692   3.81850   3.91555   3.99158   3.99755
 Alpha virt. eigenvalues --    4.14406   4.17519   4.18011  21.60967  21.71322
 Alpha virt. eigenvalues --   21.74928  21.81558  43.04366  43.10037  43.11471
 Alpha virt. eigenvalues --   43.14259  43.20268
          Condensed to atoms (all electrons):
               1          2          3          4          5          6
     1  O    7.988231   0.584514  -0.123512  -0.112379   0.003450  -0.000116
     2  C    0.584514   5.008628   0.347393  -0.061783   0.052201   0.016317
     3  O   -0.123512   0.347393   7.845757  -0.088014  -0.019462  -0.000090
     4  C   -0.112379  -0.061783  -0.088014   5.805787   0.089511  -0.050726
     5  C    0.003450   0.052201  -0.019462   0.089511   5.618363   0.275680
     6  O   -0.000116   0.016317  -0.000090  -0.050726   0.275680   7.925471
     7  C   -0.013784  -0.065822   0.006428   0.071849  -0.107622  -0.066554
     8  O    0.000241  -0.009668   0.000562  -0.017181  -0.066418  -0.008361
     9  O    0.000360   0.003858   0.000160  -0.016601  -0.088660  -0.001008
    10  H    0.002436  -0.022089   0.291597   0.012617   0.000020   0.000017
    11  H    0.007989  -0.005984   0.011620   0.297430   0.004847   0.006922
    12  H   -0.004441  -0.031902   0.000335   0.422544  -0.039559  -0.004875
    13  H    0.013503   0.000184   0.001992  -0.064415   0.399577  -0.050112
    14  H    0.000073   0.001255  -0.000012  -0.004811  -0.027359   0.305441
    15  H    0.000015   0.000802   0.000051  -0.000850   0.014067  -0.000320
               7          8          9         10         11         12
     1  O   -0.013784   0.000241   0.000360   0.002436   0.007989  -0.004441
     2  C   -0.065822  -0.009668   0.003858  -0.022089  -0.005984  -0.031902
     3  O    0.006428   0.000562   0.000160   0.291597   0.011620   0.000335
     4  C    0.071849  -0.017181  -0.016601   0.012617   0.297430   0.422544
     5  C   -0.107622  -0.066418  -0.088660   0.000020   0.004847  -0.039559
     6  O   -0.066554  -0.008361  -0.001008   0.000017   0.006922  -0.004875
     7  C    5.121728   0.578559   0.362212   0.000449  -0.031956   0.014458
     8  O    0.578559   7.951488  -0.125293   0.000000   0.012767   0.000400
     9  O    0.362212  -0.125293   7.824532   0.000035   0.001695  -0.000145
    10  H    0.000449   0.000000   0.000035   0.377550  -0.000393  -0.000357
    11  H   -0.031956   0.012767   0.001695  -0.000393   0.538431  -0.022541
    12  H    0.014458   0.000400  -0.000145  -0.000357  -0.022541   0.459116
    13  H   -0.067091   0.006876   0.013650   0.000038   0.011536  -0.007728
    14  H    0.009963  -0.000501  -0.000368  -0.000001  -0.002326   0.005640
    15  H   -0.023812   0.002965   0.293322  -0.000003  -0.000004   0.000015
              13         14         15
     1  O    0.013503   0.000073   0.000015
     2  C    0.000184   0.001255   0.000802
     3  O    0.001992  -0.000012   0.000051
     4  C   -0.064415  -0.004811  -0.000850
     5  C    0.399577  -0.027359   0.014067
     6  O   -0.050112   0.305441  -0.000320
     7  C   -0.067091   0.009963  -0.023812
     8  O    0.006876  -0.000501   0.002965
     9  O    0.013650  -0.000368   0.293322
    10  H    0.000038  -0.000001  -0.000003
    11  H    0.011536  -0.002326  -0.000004
    12  H   -0.007728   0.005640   0.000015
    13  H    0.559174  -0.010575  -0.000458
    14  H   -0.010575   0.415569   0.000044
    15  H   -0.000458   0.000044   0.371306
 Mulliken charges:
               1
     1  O   -0.346582
     2  C    0.182097
     3  O   -0.274805
     4  C   -0.282977
     5  C   -0.108635
     6  O   -0.347685
     7  C    0.210996
     8  O   -0.326436
     9  O   -0.267748
    10  H    0.338085
    11  H    0.169965
    12  H    0.209040
    13  H    0.193851
    14  H    0.307970
    15  H    0.342862
 Sum of Mulliken charges =  -0.00000
 Mulliken charges with hydrogens summed into heavy atoms:
               1
     1  O   -0.346582
     2  C    0.182097
     3  O    0.063280
     4  C    0.096029
     5  C    0.085216
     6  O   -0.039716
     7  C    0.210996
     8  O   -0.326436
     9  O    0.075114
 Electronic spatial extent (au):  <R**2>=           1219.6179
 Charge=             -0.0000 electrons
 Dipole moment (field-independent basis, Debye):
    X=             -1.4964    Y=              0.2713    Z=              0.9800  Tot=              1.8092
 Quadrupole moment (field-independent basis, Debye-Ang):
   XX=            -53.9566   YY=            -35.0990   ZZ=            -61.0168
   XY=              1.0533   XZ=             11.3780   YZ=             -1.5247
 Traceless Quadrupole moment (field-independent basis, Debye-Ang):
   XX=             -3.9324   YY=             14.9251   ZZ=            -10.9927
   XY=              1.0533   XZ=             11.3780   YZ=             -1.5247
 Octapole moment (field-independent basis, Debye-Ang**2):
  XXX=            -24.8286  YYY=             -6.2105  ZZZ=              0.3965  XYY=              6.0558
  XXY=            -28.0780  XXZ=             -4.9193  XZZ=              3.9535  YZZ=              3.6297
  YYZ=             10.9338  XYZ=             -3.4313
 Hexadecapole moment (field-independent basis, Debye-Ang**3):
 XXXX=           -771.8653 YYYY=           -244.6753 ZZZZ=           -246.6665 XXXY=             36.6503
 XXXZ=             60.7275 YYYX=             -2.7428 YYYZ=             -7.2576 ZZZX=             15.1593
 ZZZY=             -3.1229 XXYY=           -146.9594 XXZZ=           -209.4579 YYZZ=           -105.5241
 XXYZ=             -2.2523 YYXZ=             29.5136 ZZXY=              7.0845
 N-N= 4.675924851459D+02 E-N=-2.186915160286D+03  KE= 5.301908595378D+02
 No NMR shielding tensors so no spin-rotation constants.
 Leave Link  601 at Mon Feb 22 20:57:31 2021, MaxMem=   104857600 cpu:               5.5 elap:               0.2
 (Enter /sw/arch/RedHatEnterpriseServer7/EB_production/2019/software/Gaussian/g16.c01/l701.exe)
 ... and contract with generalized density number  0.
 Compute integral first derivatives.
 R6Disp: Adding Grimme-D3 dispersion energy 1st derivatives to the gradient.
 PrsmSu:  requested number of processors reduced to:  29 ShMem   1 Linda.
 D1PCM: PCM CHGder 1st derivatives, ID1Alg=3 FixD1E=F DoIter=F DoCFld=F I1PDM=0.
 GePol: Maximum number of non-zero 1st derivatives   =     213
 CoulSu:  requested number of processors reduced to:  29 ShMem   1 Linda.
 CoulSu:  requested number of processors reduced to:  30 ShMem   1 Linda.
 Leave Link  701 at Mon Feb 22 20:57:32 2021, MaxMem=   104857600 cpu:              17.4 elap:               0.6
 (Enter /sw/arch/RedHatEnterpriseServer7/EB_production/2019/software/Gaussian/g16.c01/l702.exe)
 L702 exits ... SP integral derivatives will be done elsewhere.
 Leave Link  702 at Mon Feb 22 20:57:32 2021, MaxMem=   104857600 cpu:               0.8 elap:               0.1
 (Enter /sw/arch/RedHatEnterpriseServer7/EB_production/2019/software/Gaussian/g16.c01/l703.exe)
 Integral derivatives from FoFJK, PRISM(SPDF).
 Compute integral first derivatives, UseDBF=F ICtDFT=           0.
 Calling FoFJK, ICntrl=      2527 FMM=F ISym2X=0 I1Cent= 0 IOpClX= 0 NMat=1 NMatS=1 NMatT=0.
 FoFJK:  IHMeth= 1 ICntrl=    2527 DoSepK=F KAlg= 0 I1Cent=           0 FoldK=F
 IRaf=         0 NMat=       1 IRICut=       1 DoRegI=T DoRafI=F ISym2E= 0 IDoP0=0 IntGTp=1.
 FoFCou: FMM=F IPFlag=           0 FMFlag=      100000 FMFlg1=         800
         NFxFlg=           0 DoJE=F BraDBF=F KetDBF=F FulRan=T
         wScrn=  0.000000 ICntrl=      2527 IOpCl=  0 I1Cent=           0 NGrid=           0
         NMat0=    1 NMatS0=      1 NMatT0=    0 NMatD0=    1 NMtDS0=    0 NMtDT0=    0
 Symmetry not used in FoFCou.
 Leave Link  703 at Mon Feb 22 20:57:33 2021, MaxMem=   104857600 cpu:              33.7 elap:               1.1
 (Enter /sw/arch/RedHatEnterpriseServer7/EB_production/2019/software/Gaussian/g16.c01/l716.exe)
 Dipole        =-5.88737615D-01 1.06744960D-01 3.85547682D-01
 ***** Axes restored to original set *****
 -------------------------------------------------------------------
 Center     Atomic                   Forces (Hartrees/Bohr)
 Number     Number              X              Y              Z
 -------------------------------------------------------------------
      1        8           0.016036038    0.006341719   -0.017655369
      2        6          -0.055394220   -0.004173562    0.061584056
      3        8           0.028472045    0.006589517   -0.030492832
      4        6           0.013185379    0.017324618   -0.016106935
      5        6          -0.003801630   -0.029411113    0.020981152
      6        8           0.006223407    0.000486613   -0.003841009
      7        6           0.002295635    0.078601504   -0.055868866
      8        8          -0.006843967   -0.025028756    0.017945228
      9        8          -0.006046049   -0.035488879    0.026084843
     10        1          -0.006313567   -0.017916913    0.002444876
     11        1           0.002513165    0.001075223   -0.006266669
     12        1          -0.001984548   -0.004345254    0.002451382
     13        1          -0.006338464    0.001216109    0.007189387
     14        1          -0.000226567    0.000866622   -0.004807754
     15        1           0.018223341    0.003862551   -0.003641489
 -------------------------------------------------------------------
 Cartesian Forces:  Max     0.078601504 RMS     0.023368940
 Leave Link  716 at Mon Feb 22 20:57:33 2021, MaxMem=   104857600 cpu:               0.7 elap:               0.0
 (Enter /sw/arch/RedHatEnterpriseServer7/EB_production/2019/software/Gaussian/g16.c01/l103.exe)

 GradGradGradGradGradGradGradGradGradGradGradGradGradGradGradGradGradGrad
 Berny optimization.
 FormGI is forming the generalized inverse of G from B-inverse, IUseBI=4.
 Internal  Forces:  Max     0.034755976 RMS     0.012056832
 Search for a local minimum.
 Step number   1 out of a maximum of   73
 All quantities printed in internal units (Hartrees-Bohrs-Radians)
 RMS Force = .12057D-01 SwitMx=.10000D-02 MixMth= 1
 Mixed Optimization -- RFO/linear search
 Second derivative matrix not updated -- first step.
 ITU=  0
     Eigenvalues ---    0.00230   0.01056   0.01082   0.01347   0.01361
     Eigenvalues ---    0.01381   0.02304   0.02317   0.04146   0.04858
     Eigenvalues ---    0.05346   0.05431   0.08305   0.09549   0.12917
     Eigenvalues ---    0.16000   0.16000   0.16000   0.17951   0.19892
     Eigenvalues ---    0.21972   0.24998   0.24999   0.25000   0.25000
     Eigenvalues ---    0.27337   0.34328   0.34492   0.34495   0.34789
     Eigenvalues ---    0.35019   0.41556   0.51236   0.51263   0.51632
     Eigenvalues ---    0.54233   0.54437   0.82577   0.83004
 RFO step:  Lambda=-3.30463924D-02 EMin= 2.30000000D-03
 Linear search not attempted -- first point.
 Maximum step size (   0.300) exceeded in Quadratic search.
    -- Step size scaled by   0.833
 Iteration  1 RMS(Cart)=  0.05700979 RMS(Int)=  0.00187848
 Iteration  2 RMS(Cart)=  0.00247743 RMS(Int)=  0.00018529
 Iteration  3 RMS(Cart)=  0.00000103 RMS(Int)=  0.00018529
 Iteration  4 RMS(Cart)=  0.00000000 RMS(Int)=  0.00018529
 ITry= 1 IFail=0 DXMaxC= 1.72D-01 DCOld= 1.00D+10 DXMaxT= 3.00D-01 DXLimC= 3.00D+00 Rises=F
 Variable       Old X    -DE/DX   Delta X   Delta X   Delta X     New X
                                 (Linear)    (Quad)   (Total)
    R1        2.36335  -0.02395   0.00000  -0.02312  -0.02312   2.34023
    R2        2.55820  -0.01123   0.00000  -0.01626  -0.01626   2.54194
    R3        2.78944   0.01507   0.00000   0.03275   0.03275   2.82219
    R4        1.85312  -0.00416   0.00000  -0.00635  -0.00635   1.84677
    R5        2.93611  -0.00319   0.00000  -0.00868  -0.00868   2.92743
    R6        2.06508   0.00495   0.00000   0.01091   0.01091   2.07599
    R7        2.06502   0.00342   0.00000   0.00753   0.00753   2.07255
    R8        2.69492   0.00810   0.00000   0.01505   0.01505   2.70997
    R9        2.79318   0.01999   0.00000   0.04371   0.04371   2.83689
   R10        2.06780   0.00648   0.00000   0.01434   0.01434   2.08214
   R11        1.84953  -0.00328   0.00000  -0.00497  -0.00497   1.84456
   R12        2.36555  -0.03000   0.00000  -0.02910  -0.02910   2.33646
   R13        2.55636  -0.01345   0.00000  -0.01940  -0.01940   2.53696
   R14        1.85339  -0.00401   0.00000  -0.00612  -0.00612   1.84726
    A1        2.07560   0.02358   0.00000   0.06937   0.06934   2.14493
    A2        2.10203   0.00977   0.00000   0.02872   0.02869   2.13071
    A3        2.10551  -0.03336   0.00000  -0.09823  -0.09826   2.00725
    A4        2.10092  -0.03463   0.00000  -0.14942  -0.14942   1.95150
    A5        1.97121  -0.00309   0.00000  -0.01286  -0.01297   1.95825
    A6        1.91060   0.00488   0.00000   0.03042   0.03043   1.94103
    A7        1.89243  -0.00032   0.00000  -0.00870  -0.00899   1.88343
    A8        1.90907  -0.00224   0.00000  -0.01065  -0.01056   1.89851
    A9        1.90686  -0.00041   0.00000  -0.01155  -0.01177   1.89509
   A10        1.87097   0.00143   0.00000   0.01475   0.01467   1.88564
   A11        1.92542   0.00466   0.00000   0.01237   0.01152   1.93694
   A12        1.96765  -0.00554   0.00000  -0.03278  -0.03305   1.93460
   A13        1.90196  -0.00110   0.00000  -0.00249  -0.00291   1.89905
   A14        1.88643  -0.00405   0.00000  -0.02586  -0.02595   1.86048
   A15        1.87018   0.00394   0.00000   0.04568   0.04562   1.91580
   A16        1.90967   0.00257   0.00000   0.00716   0.00718   1.91685
   A17        1.83363   0.00651   0.00000   0.02810   0.02810   1.86173
   A18        2.11244   0.00584   0.00000   0.01719   0.01719   2.12963
   A19        2.10008  -0.03476   0.00000  -0.10228  -0.10228   1.99780
   A20        2.07054   0.02892   0.00000   0.08511   0.08511   2.15566
   A21        2.09790  -0.03438   0.00000  -0.14835  -0.14835   1.94955
    D1       -0.02175   0.00072   0.00000   0.01143   0.01156  -0.01019
    D2        3.10871  -0.00012   0.00000  -0.00260  -0.00274   3.10597
    D3        1.14194  -0.00101   0.00000  -0.02031  -0.02018   1.12177
    D4       -3.00966  -0.00248   0.00000  -0.02080  -0.02083  -3.03048
    D5       -0.97393   0.00173   0.00000   0.00867   0.00870  -0.96523
    D6       -1.98835  -0.00024   0.00000  -0.00631  -0.00627  -1.99462
    D7        0.14324  -0.00171   0.00000  -0.00681  -0.00693   0.13631
    D8        2.17896   0.00250   0.00000   0.02266   0.02260   2.20156
    D9       -3.09109  -0.00243   0.00000  -0.01982  -0.01990  -3.11099
   D10        1.08136   0.00322   0.00000   0.02691   0.02696   1.10832
   D11       -1.04243   0.00440   0.00000   0.04129   0.04118  -1.00125
   D12        1.05965  -0.00496   0.00000  -0.04237  -0.04241   1.01724
   D13       -1.05109   0.00069   0.00000   0.00436   0.00445  -1.04664
   D14        3.10831   0.00187   0.00000   0.01874   0.01867   3.12698
   D15       -0.98341  -0.00517   0.00000  -0.04742  -0.04740  -1.03081
   D16       -3.09415   0.00048   0.00000  -0.00070  -0.00054  -3.09469
   D17        1.06525   0.00166   0.00000   0.01369   0.01368   1.07893
   D18        1.12498   0.00391   0.00000   0.03633   0.03673   1.16170
   D19       -2.99966  -0.00267   0.00000  -0.01365  -0.01358  -3.01324
   D20       -0.94323   0.00033   0.00000   0.00558   0.00511  -0.93812
   D21        1.08790   0.00118   0.00000   0.00334   0.00370   1.09160
   D22       -2.03668   0.00102   0.00000   0.00123   0.00158  -2.03510
   D23       -1.04494   0.00172   0.00000   0.02713   0.02679  -1.01815
   D24        2.11367   0.00156   0.00000   0.02502   0.02467   2.13834
   D25       -3.07586  -0.00211   0.00000  -0.01671  -0.01672  -3.09258
   D26        0.08275  -0.00227   0.00000  -0.01882  -0.01884   0.06391
   D27        3.12817  -0.00033   0.00000  -0.00376  -0.00376   3.12441
   D28        0.00319  -0.00028   0.00000  -0.00522  -0.00522  -0.00203
         Item               Value     Threshold  Converged?
 Maximum Force            0.034756     0.000450     NO 
 RMS     Force            0.012057     0.000300     NO 
 Maximum Displacement     0.172058     0.001800     NO 
 RMS     Displacement     0.057997     0.001200     NO 
 Predicted change in Energy=-1.775544D-02
 Lowest energy point so far.  Saving SCF results.
 GradGradGradGradGradGradGradGradGradGradGradGradGradGradGradGradGradGrad

 Leave Link  103 at Mon Feb 22 20:57:34 2021, MaxMem=   104857600 cpu:               5.4 elap:               0.2
 (Enter /sw/arch/RedHatEnterpriseServer7/EB_production/2019/software/Gaussian/g16.c01/l202.exe)
                          Input orientation:                          
 ---------------------------------------------------------------------
 Center     Atomic      Atomic             Coordinates (Angstroms)
 Number     Number       Type             X           Y           Z
 ---------------------------------------------------------------------
      1          8           0        0.946028    2.124174    0.609659
      2          6           0        1.772241    2.684640   -0.123058
      3          8           0        2.021035    4.005380   -0.067009
      4          6           0        2.544068    1.940384   -1.162639
      5          6           0        1.627935    1.363552   -2.270683
      6          8           0        2.390050    0.620789   -3.231931
      7          6           0        0.943456    2.466005   -3.025497
      8          8           0        1.575723    3.303783   -3.678987
      9          8           0       -0.394306    2.469641   -2.912857
     10          1           0        1.469268    4.450615    0.605578
     11          1           0        3.302938    2.582635   -1.630054
     12          1           0        3.060704    1.108779   -0.668298
     13          1           0        0.875925    0.707333   -1.803918
     14          1           0        2.739165   -0.163265   -2.767010
     15          1           0       -0.796571    3.211426   -3.406315
 ---------------------------------------------------------------------
                    Distance matrix (angstroms):
                    1          2          3          4          5
     1  O    0.000000
     2  C    1.238396   0.000000
     3  O    2.269902   1.345137   0.000000
     4  C    2.393439   1.493440   2.395449   0.000000
     5  C    3.056127   2.525548   3.462652   1.549127   0.000000
     6  O    4.370719   3.782362   4.648480   2.459070   1.434056
     7  C    3.651194   3.026358   3.504783   2.511668   1.501220
     8  O    4.492269   3.614773   3.706335   3.021349   2.398029
     9  O    3.784701   3.538803   4.036237   3.460840   2.392756
    10  H    2.384560   1.934263   0.977269   3.253160   4.222324
    11  H    3.283524   2.150460   2.471960   1.098566   2.168457
    12  H    2.671340   2.107312   3.135723   1.096747   2.164572
    13  H    2.799591   2.745618   3.899390   2.171256   1.101821
    14  H    4.455291   4.004496   5.018298   2.652811   1.952522
    15  H    4.510745   4.201913   4.440746   4.220130   3.253080
                    6          7          8          9         10
     6  O    0.000000
     7  C    2.353736   0.000000
     8  O    2.839268   1.236399   0.000000
     9  O    3.357484   1.342501   2.272391   0.000000
    10  H    5.499263   4.171315   4.436672   4.447084   0.000000
    11  H    2.692252   2.743724   2.775148   3.915094   3.442347
    12  H    2.694462   3.446910   4.010917   4.339019   3.914499
    13  H    2.083095   2.142369   3.278285   2.439049   4.491090
    14  H    0.976101   3.194440   3.769047   4.095376   5.854476
    15  H    4.110519   1.930898   2.389698   0.977529   4.771258
                   11         12         13         14         15
    11  H    0.000000
    12  H    1.776487   0.000000
    13  H    3.072032   2.494805   0.000000
    14  H    3.024976   2.475091   2.270936   0.000000
    15  H    4.511813   5.176527   3.411070   4.929369   0.000000
 Stoichiometry    C4H6O5
 Framework group  C1[X(C4H6O5)]
 Deg. of freedom    39
 Full point group                 C1      NOp   1
 RotChk:  IX=0 Diff= 4.14D-02
 Largest Abelian subgroup         C1      NOp   1
 Largest concise Abelian subgroup C1      NOp   1
                         Standard orientation:                         
 ---------------------------------------------------------------------
 Center     Atomic      Atomic             Coordinates (Angstroms)
 Number     Number       Type             X           Y           Z
 ---------------------------------------------------------------------
      1          8           0       -2.144655    0.173640    1.155952
      2          6           0       -1.694209    0.165892    0.002408
      3          8           0       -2.151871   -0.660677   -0.955047
      4          6           0       -0.572269    1.057912   -0.417012
      5          6           0        0.744480    0.733857    0.331958
      6          8           0        1.792414    1.630740   -0.060407
      7          6           0        1.219701   -0.651404    0.001989
      8          8           0        1.535702   -0.979621   -1.147402
      9          8           0        1.252093   -1.492030    1.048223
     10          1           0       -2.861843   -1.243993   -0.622274
     11          1           0       -0.390815    0.986837   -1.498155
     12          1           0       -0.859314    2.091365   -0.188029
     13          1           0        0.566922    0.819734    1.415983
     14          1           0        1.537393    2.516689    0.260266
     15          1           0        1.551983   -2.384586    0.785593
 ---------------------------------------------------------------------
 Rotational constants (GHZ):           2.2040029           1.1963222           1.0419114
 Leave Link  202 at Mon Feb 22 20:57:34 2021, MaxMem=   104857600 cpu:               0.9 elap:               0.1
 (Enter /sw/arch/RedHatEnterpriseServer7/EB_production/2019/software/Gaussian/g16.c01/l301.exe)
 Standard basis: TZVP (5D, 7F)
 Ernie: Thresh=  0.10000D-02 Tol=  0.10000D-05 Strict=F.
 There are   216 symmetry adapted cartesian basis functions of A   symmetry.
 There are   207 symmetry adapted basis functions of A   symmetry.
   207 basis functions,   363 primitive gaussians,   216 cartesian basis functions
    35 alpha electrons       35 beta electrons
       nuclear repulsion energy       470.1821119306 Hartrees.
 IExCor=  404 DFT=T Ex=B Corr=P86 ExCW=0 ScaHFX=  0.000000
 ScaDFX=  1.000000  1.000000  1.000000  1.000000 ScalE2=  1.000000  1.000000
 IRadAn=      5 IRanWt=     -1 IRanGd=            0 ICorTp=0 IEmpDi=131
 NAtoms=   15 NActive=   15 NUniq=   15 SFac= 1.00D+00 NAtFMM=   60 NAOKFM=F Big=F
 Integral buffers will be    131072 words long.
 Raffenetti 2 integral format.
 Two-electron integral symmetry is turned on.
 R6Disp:  Grimme-D3 Dispersion energy=       -0.0141787288 Hartrees.
 Nuclear repulsion after empirical dispersion term =      470.1679332018 Hartrees.
 ------------------------------------------------------------------------------
 Polarizable Continuum Model (PCM)
 =================================
 Model                : PCM.
 Atomic radii         : UFF (Universal Force Field).
 Polarization charges : Total charges.
 Charge compensation  : None.
 Solution method      : On-the-fly selection.
 Cavity type          : Scaled VdW (van der Waals Surface) (Alpha=1.100).
 Cavity algorithm     : GePol (No added spheres)
                        Default sphere list used, NSphG=   15.
                        Lebedev-Laikov grids with approx.  5.0 points / Ang**2.
                        Smoothing algorithm: York/Karplus (Gamma=1.0000).
                        Polarization charges: spherical gaussians, with
                                              point-specific exponents (IZeta= 3).
                        Self-potential: point-specific (ISelfS= 7).
                        Self-field    : sphere-specific E.n sum rule (ISelfD= 2).
 1st derivatives      : Analytical E(r).r(x)/FMM algorithm (CHGder, D1EAlg=3).
                        Cavity 1st derivative terms included.
 Solvent              : Water, Eps=  78.355300 Eps(inf)=   1.777849
 ------------------------------------------------------------------------------
 Spheres list:
 ISph  on   Nord     Re0    Alpha      Xe            Ye            Ze
    1   O      1    1.7500  1.100     -2.144655      0.173640      1.155952
    2   C      2    1.9255  1.100     -1.694209      0.165892      0.002408
    3   O      3    1.7500  1.100     -2.151871     -0.660677     -0.955047
    4   C      4    1.9255  1.100     -0.572269      1.057912     -0.417012
    5   C      5    1.9255  1.100      0.744480      0.733857      0.331958
    6   O      6    1.7500  1.100      1.792414      1.630740     -0.060407
    7   C      7    1.9255  1.100      1.219701     -0.651404      0.001989
    8   O      8    1.7500  1.100      1.535702     -0.979621     -1.147402
    9   O      9    1.7500  1.100      1.252093     -1.492030      1.048223
   10   H     10    1.4430  1.100     -2.861843     -1.243993     -0.622274
   11   H     11    1.4430  1.100     -0.390815      0.986837     -1.498155
   12   H     12    1.4430  1.100     -0.859314      2.091365     -0.188029
   13   H     13    1.4430  1.100      0.566922      0.819734      1.415983
   14   H     14    1.4430  1.100      1.537393      2.516689      0.260266
   15   H     15    1.4430  1.100      1.551983     -2.384586      0.785593
 ------------------------------------------------------------------------------
 GePol: Number of generator spheres                  =      15
 GePol: Total number of spheres                      =      15
 GePol: Number of exposed spheres                    =      15 (100.00%)
 GePol: Number of points                             =    1374
 GePol: Average weight of points                     =       0.13
 GePol: Minimum weight of points                     =   0.70D-10
 GePol: Maximum weight of points                     =    0.20577
 GePol: Number of points with low weight             =      68
 GePol: Fraction of low-weight points (<1% of avg)   =       4.95%
 GePol: Cavity surface area                          =    185.467 Ang**2
 GePol: Cavity volume                                =    175.907 Ang**3
 Leave Link  301 at Mon Feb 22 20:57:34 2021, MaxMem=   104857600 cpu:               1.8 elap:               0.1
 (Enter /sw/arch/RedHatEnterpriseServer7/EB_production/2019/software/Gaussian/g16.c01/l302.exe)
 NPDir=0 NMtPBC=     1 NCelOv=     1 NCel=       1 NClECP=     1 NCelD=      1
         NCelK=      1 NCelE2=     1 NClLst=     1 CellRange=     0.0.
 One-electron integrals computed using PRISM.
 One-electron integral symmetry used in STVInt
 PrsmSu:  requested number of processors reduced to:  29 ShMem   1 Linda.
 NBasis=   207 RedAO= T EigKep=  2.42D-04  NBF=   207
 NBsUse=   207 1.00D-06 EigRej= -1.00D+00 NBFU=   207
 Precomputing XC quadrature grid using
 IXCGrd= 4 IRadAn=           5 IRanWt=          -1 IRanGd=           0 AccXCQ= 0.00D+00.
 Generated NRdTot=       0 NPtTot=           0 NUsed=           0 NTot=          32
 NSgBfM=   214   214   214   214   214 MxSgAt=    15 MxSgA2=    15.
 Leave Link  302 at Mon Feb 22 20:57:34 2021, MaxMem=   104857600 cpu:               5.6 elap:               0.2
 (Enter /sw/arch/RedHatEnterpriseServer7/EB_production/2019/software/Gaussian/g16.c01/l303.exe)
 DipDrv:  MaxL=1.
 Leave Link  303 at Mon Feb 22 20:57:34 2021, MaxMem=   104857600 cpu:               1.0 elap:               0.1
 (Enter /sw/arch/RedHatEnterpriseServer7/EB_production/2019/software/Gaussian/g16.c01/l401.exe)
 Initial guess from the checkpoint file:  "BJEPYKJPYRNKOW-UHFFFAOYSA-N.chk"
 B after Tr=    -0.000000   -0.000000   -0.000000
         Rot=    0.999900    0.002594    0.008155    0.011276 Ang=   1.62 deg.
 Guess basis will be translated and rotated to current coordinates.
 JPrj=2 DoOrth=T DoCkMO=T.
 Generating alternative initial guess.
 ExpMin= 9.52D-02 ExpMax= 2.70D+04 ExpMxC= 9.22D+02 IAcc=3 IRadAn=         5 AccDes= 0.00D+00
 Harris functional with IExCor=  404 and IRadAn=       5 diagonalized for initial guess.
 HarFok:  IExCor=  404 AccDes= 0.00D+00 IRadAn=         5 IDoV= 1 UseB2=F ITyADJ=14
 ICtDFT=  3500011 ScaDFX=  1.000000  1.000000  1.000000  1.000000
 FoFCou: FMM=F IPFlag=           0 FMFlag=      100000 FMFlg1=           0
         NFxFlg=           0 DoJE=T BraDBF=F KetDBF=T FulRan=T
         wScrn=  0.000000 ICntrl=       500 IOpCl=  0 I1Cent=   200000004 NGrid=           0
         NMat0=    1 NMatS0=      1 NMatT0=    0 NMatD0=    1 NMtDS0=    0 NMtDT0=    0
 Petite list used in FoFCou.
 Harris En= -532.522738002284    
 Leave Link  401 at Mon Feb 22 20:57:35 2021, MaxMem=   104857600 cpu:              11.1 elap:               0.4
 (Enter /sw/arch/RedHatEnterpriseServer7/EB_production/2019/software/Gaussian/g16.c01/l502.exe)
 Integral symmetry usage will be decided dynamically.
 Closed shell SCF:
 Using DIIS extrapolation, IDIIS=  1040.
 NGot=   104857600 LenX=   104754792 LenY=   104707695
 Requested convergence on RMS density matrix=1.00D-08 within 128 cycles.
 Requested convergence on MAX density matrix=1.00D-06.
 Requested convergence on             energy=1.00D-06.
 No special actions if energy rises.
 Fock matrices will be formed incrementally for  20 cycles.

 Cycle   1  Pass 1  IDiag  1:
 FoFJK:  IHMeth= 1 ICntrl=     500 DoSepK=F KAlg= 0 I1Cent=           0 FoldK=F
 IRaf= 930000000 NMat=       1 IRICut=       1 DoRegI=T DoRafI=F ISym2E= 0 IDoP0=0 IntGTp=1.
 FoFCou: FMM=F IPFlag=           0 FMFlag=      100000 FMFlg1=           0
         NFxFlg=           0 DoJE=T BraDBF=F KetDBF=F FulRan=T
         wScrn=  0.000000 ICntrl=       500 IOpCl=  0 I1Cent=           0 NGrid=           0
         NMat0=    1 NMatS0=      1 NMatT0=    0 NMatD0=    1 NMtDS0=    0 NMtDT0=    0
 Symmetry not used in FoFCou.
 Inv3:  Mode=1 IEnd=     5663628.
 Iteration    1 A*A^-1 deviation from unit magnitude is 2.89D-15 for    380.
 Iteration    1 A*A^-1 deviation from orthogonality  is 3.39D-15 for    453      8.
 Iteration    1 A^-1*A deviation from unit magnitude is 2.55D-15 for    208.
 Iteration    1 A^-1*A deviation from orthogonality  is 1.54D-15 for    734    246.
 E= -532.412925099512    
 DIIS: error= 2.99D-03 at cycle   1 NSaved=   1.
 NSaved= 1 IEnMin= 1 EnMin= -532.412925099512     IErMin= 1 ErrMin= 2.99D-03
 ErrMax= 2.99D-03  0.00D+00 EMaxC= 1.00D-01 BMatC= 5.58D-03 BMatP= 5.58D-03
 IDIUse=3 WtCom= 9.70D-01 WtEn= 2.99D-02
 Coeff-Com:  0.100D+01
 Coeff-En:   0.100D+01
 Coeff:      0.100D+01
 Gap=     0.625 Goal=   None    Shift=    0.000
 GapD=    0.625 DampG=2.000 DampE=1.000 DampFc=2.0000 IDamp=-1.
 RMSDP=9.96D-04 MaxDP=3.45D-02              OVMax= 2.03D-02

 Cycle   2  Pass 1  IDiag  1:
 RMSU=  9.83D-04    CP:  9.90D-01
 E= -532.418398747950     Delta-E=       -0.005473648438 Rises=F Damp=F
 DIIS: error= 2.51D-03 at cycle   2 NSaved=   2.
 NSaved= 2 IEnMin= 2 EnMin= -532.418398747950     IErMin= 2 ErrMin= 2.51D-03
 ErrMax= 2.51D-03  0.00D+00 EMaxC= 1.00D-01 BMatC= 2.07D-03 BMatP= 5.58D-03
 IDIUse=3 WtCom= 9.75D-01 WtEn= 2.51D-02
 Coeff-Com:  0.308D+00 0.692D+00
 Coeff-En:   0.000D+00 0.100D+01
 Coeff:      0.301D+00 0.699D+00
 Gap=     0.171 Goal=   None    Shift=    0.000
 RMSDP=4.33D-04 MaxDP=1.14D-02 DE=-5.47D-03 OVMax= 3.47D-02

 Cycle   3  Pass 1  IDiag  1:
 RMSU=  4.10D-04    CP:  9.93D-01  8.67D-01
 E= -532.415084196487     Delta-E=        0.003314551463 Rises=F Damp=F
 DIIS: error= 4.68D-03 at cycle   3 NSaved=   3.
 NSaved= 3 IEnMin= 2 EnMin= -532.418398747950     IErMin= 2 ErrMin= 2.51D-03
 ErrMax= 4.68D-03  0.00D+00 EMaxC= 1.00D-01 BMatC= 6.47D-03 BMatP= 2.07D-03
 IDIUse=3 WtCom= 1.28D-01 WtEn= 8.72D-01
 Coeff-Com:  0.251D-01 0.628D+00 0.347D+00
 Coeff-En:   0.000D+00 0.693D+00 0.307D+00
 Coeff:      0.321D-02 0.685D+00 0.312D+00
 Gap=     0.173 Goal=   None    Shift=    0.000
 RMSDP=2.34D-04 MaxDP=6.01D-03 DE= 3.31D-03 OVMax= 1.93D-02

 Cycle   4  Pass 1  IDiag  1:
 RMSU=  5.13D-05    CP:  9.91D-01  9.32D-01  4.72D-01
 E= -532.419713769003     Delta-E=       -0.004629572516 Rises=F Damp=F
 DIIS: error= 7.15D-04 at cycle   4 NSaved=   4.
 NSaved= 4 IEnMin= 4 EnMin= -532.419713769003     IErMin= 4 ErrMin= 7.15D-04
 ErrMax= 7.15D-04  0.00D+00 EMaxC= 1.00D-01 BMatC= 2.28D-04 BMatP= 2.07D-03
 IDIUse=3 WtCom= 9.93D-01 WtEn= 7.15D-03
 Coeff-Com:  0.150D-02 0.365D+00 0.117D+00 0.517D+00
 Coeff-En:   0.000D+00 0.148D+00 0.000D+00 0.852D+00
 Coeff:      0.149D-02 0.363D+00 0.116D+00 0.519D+00
 Gap=     0.174 Goal=   None    Shift=    0.000
 RMSDP=6.37D-05 MaxDP=1.29D-03 DE=-4.63D-03 OVMax= 3.80D-03

 Cycle   5  Pass 1  IDiag  1:
 RMSU=  1.94D-05    CP:  9.91D-01  9.57D-01  3.49D-01  5.52D-01
 E= -532.419879391007     Delta-E=       -0.000165622004 Rises=F Damp=F
 DIIS: error= 9.04D-05 at cycle   5 NSaved=   5.
 NSaved= 5 IEnMin= 5 EnMin= -532.419879391007     IErMin= 5 ErrMin= 9.04D-05
 ErrMax= 9.04D-05  0.00D+00 EMaxC= 1.00D-01 BMatC= 3.86D-06 BMatP= 2.28D-04
 IDIUse=1 WtCom= 1.00D+00 WtEn= 0.00D+00
 Coeff-Com: -0.175D-04 0.155D+00 0.415D-01 0.288D+00 0.515D+00
 Coeff:     -0.175D-04 0.155D+00 0.415D-01 0.288D+00 0.515D+00
 Gap=     0.174 Goal=   None    Shift=    0.000
 RMSDP=1.09D-05 MaxDP=3.11D-04 DE=-1.66D-04 OVMax= 5.10D-04

 Cycle   6  Pass 1  IDiag  1:
 RMSU=  7.32D-06    CP:  9.91D-01  9.54D-01  3.54D-01  5.49D-01  6.38D-01
 E= -532.419881535856     Delta-E=       -0.000002144849 Rises=F Damp=F
 DIIS: error= 4.42D-05 at cycle   6 NSaved=   6.
 NSaved= 6 IEnMin= 6 EnMin= -532.419881535856     IErMin= 6 ErrMin= 4.42D-05
 ErrMax= 4.42D-05  0.00D+00 EMaxC= 1.00D-01 BMatC= 1.03D-06 BMatP= 3.86D-06
 IDIUse=1 WtCom= 1.00D+00 WtEn= 0.00D+00
 Coeff-Com: -0.101D-03 0.665D-01 0.153D-01 0.147D+00 0.376D+00 0.396D+00
 Coeff:     -0.101D-03 0.665D-01 0.153D-01 0.147D+00 0.376D+00 0.396D+00
 Gap=     0.174 Goal=   None    Shift=    0.000
 RMSDP=4.83D-06 MaxDP=1.07D-04 DE=-2.14D-06 OVMax= 3.51D-04

 Cycle   7  Pass 1  IDiag  1:
 RMSU=  2.52D-06    CP:  9.91D-01  9.54D-01  3.56D-01  5.68D-01  6.50D-01
                    CP:  4.81D-01
 E= -532.419882341593     Delta-E=       -0.000000805736 Rises=F Damp=F
 DIIS: error= 1.60D-05 at cycle   7 NSaved=   7.
 NSaved= 7 IEnMin= 7 EnMin= -532.419882341593     IErMin= 7 ErrMin= 1.60D-05
 ErrMax= 1.60D-05  0.00D+00 EMaxC= 1.00D-01 BMatC= 9.83D-08 BMatP= 1.03D-06
 IDIUse=1 WtCom= 1.00D+00 WtEn= 0.00D+00
 Coeff-Com: -0.709D-04 0.281D-01 0.559D-02 0.681D-01 0.199D+00 0.274D+00
 Coeff-Com:  0.425D+00
 Coeff:     -0.709D-04 0.281D-01 0.559D-02 0.681D-01 0.199D+00 0.274D+00
 Coeff:      0.425D+00
 Gap=     0.174 Goal=   None    Shift=    0.000
 RMSDP=1.50D-06 MaxDP=3.12D-05 DE=-8.06D-07 OVMax= 1.14D-04

 Cycle   8  Pass 1  IDiag  1:
 RMSU=  1.14D-06    CP:  9.91D-01  9.54D-01  3.57D-01  5.73D-01  6.55D-01
                    CP:  5.15D-01  6.56D-01
 E= -532.419882417540     Delta-E=       -0.000000075947 Rises=F Damp=F
 DIIS: error= 6.78D-06 at cycle   8 NSaved=   8.
 NSaved= 8 IEnMin= 8 EnMin= -532.419882417540     IErMin= 8 ErrMin= 6.78D-06
 ErrMax= 6.78D-06  0.00D+00 EMaxC= 1.00D-01 BMatC= 1.73D-08 BMatP= 9.83D-08
 IDIUse=1 WtCom= 1.00D+00 WtEn= 0.00D+00
 Coeff-Com: -0.359D-04 0.776D-02 0.104D-02 0.217D-01 0.703D-01 0.124D+00
 Coeff-Com:  0.314D+00 0.461D+00
 Coeff:     -0.359D-04 0.776D-02 0.104D-02 0.217D-01 0.703D-01 0.124D+00
[...]
 Full point group                 C1      NOp   1
 Largest Abelian subgroup         C1      NOp   1
 Largest concise Abelian subgroup C1      NOp   1
                         Standard orientation:                         
 ---------------------------------------------------------------------
 Center     Atomic      Atomic             Coordinates (Angstroms)
 Number     Number       Type             X           Y           Z
 ---------------------------------------------------------------------
      1          8           0       -2.066297    0.268647    1.168122
      2          6           0       -1.713186    0.206570    0.001552
      3          8           0       -2.392955   -0.484681   -0.949299
      4          6           0       -0.498493    0.912347   -0.566713
      5          6           0        0.775614    0.707211    0.294521
      6          8           0        1.795672    1.639646   -0.044790
      7          6           0        1.353600   -0.693142    0.074373
      8          8           0        2.453187   -0.950125   -0.374426
      9          8           0        0.445565   -1.634616    0.443489
     10          1           0       -3.177540   -0.889488   -0.518522
     11          1           0       -0.317963    0.618543   -1.608529
     12          1           0       -0.733189    1.988749   -0.553228
     13          1           0        0.490865    0.780415    1.360425
     14          1           0        1.518802    2.510518    0.292998
     15          1           0        0.832442   -2.517624    0.259690
 ---------------------------------------------------------------------
 Rotational constants (GHZ):           2.5579368           1.1376406           0.9389253
 Standard basis: TZVP (5D, 7F)
 There are   216 symmetry adapted cartesian basis functions of A   symmetry.
 There are   207 symmetry adapted basis functions of A   symmetry.
   207 basis functions,   363 primitive gaussians,   216 cartesian basis functions
    35 alpha electrons       35 beta electrons
       nuclear repulsion energy       469.7251388487 Hartrees.
 NAtoms=   15 NActive=   15 NUniq=   15 SFac= 1.00D+00 NAtFMM=   60 NAOKFM=F Big=F
 Integral buffers will be    131072 words long.
 Raffenetti 2 integral format.
 Two-electron integral symmetry is turned on.
 Warning! Using old PCM defaults because the COSMOthermo output has been requested.
 These settings can be overridden by following keywords.
 ------------------------------------------------------------------------------
 Polarizable Continuum Model (PCM)
 =================================
 Model                : C-PCM.
 Atomic radii         : Klamt.
 XCosmo               : -1.000 (infinite dielectric limit)
 Polarization charges : Electronic and nuclear charges.
 Charge compensation  : Type 3 (Electronic density weighted correction).
 Solution method      : On-the-fly selection.
 Cavity type          : VdW (van der Waals Surface) (Alpha=1.000).
 Cavity algorithm     : GePol (No added spheres)
                        Default sphere list used, NSphG=   15.
                        Tesserae with average area of 0.200 Ang**2.
                        Smoothing algorithm: None.
                        Polarization charges: point-like.
                        Self-potential: constant (ISelfS= 1).
                        Self-field    : global E.n sum rule (ISelfD= 3).
 Solvent              : Water, Eps=  78.355300 Eps(inf)=   1.777849
 ------------------------------------------------------------------------------
 Spheres list:
 ISph  on   Nord     Re0    Alpha      Xe            Ye            Ze
    1   O      1    1.7200  1.000     -2.066297      0.268647      1.168122
    2   C      2    2.0000  1.000     -1.713186      0.206570      0.001552
    3   O      3    1.7200  1.000     -2.392955     -0.484681     -0.949299
    4   C      4    2.0000  1.000     -0.498493      0.912347     -0.566713
    5   C      5    2.0000  1.000      0.775614      0.707211      0.294521
    6   O      6    1.7200  1.000      1.795672      1.639646     -0.044790
    7   C      7    2.0000  1.000      1.353600     -0.693142      0.074373
    8   O      8    1.7200  1.000      2.453187     -0.950125     -0.374426
    9   O      9    1.7200  1.000      0.445565     -1.634616      0.443489
   10   H     10    1.3000  1.000     -3.177540     -0.889488     -0.518522
   11   H     11    1.3000  1.000     -0.317963      0.618543     -1.608529
   12   H     12    1.3000  1.000     -0.733189      1.988749     -0.553228
   13   H     13    1.3000  1.000      0.490865      0.780415      1.360425
   14   H     14    1.3000  1.000      1.518802      2.510518      0.292998
   15   H     15    1.3000  1.000      0.832442     -2.517624      0.259690
 ------------------------------------------------------------------------------
 One-electron integrals computed using PRISM.
 PrsmSu:  requested number of processors reduced to:  29 ShMem   1 Linda.
 NBasis=   207 RedAO= T EigKep=  2.29D-04  NBF=   207
 NBsUse=   207 1.00D-06 EigRej= -1.00D+00 NBFU=   207
 Initial guess from the checkpoint file:  "BJEPYKJPYRNKOW-UHFFFAOYSA-N.chk"
 B after Tr=    -0.000000    0.000000    0.000000
         Rot=    1.000000    0.000000    0.000000   -0.000000 Ang=   0.00 deg.
 Requested convergence on RMS density matrix=1.00D-08 within 128 cycles.
 Requested convergence on MAX density matrix=1.00D-06.
 Requested convergence on             energy=1.00D-06.
 No special actions if energy rises.
 Inv3:  Mode=1 IEnd=     3479787.
 Iteration    1 A*A^-1 deviation from unit magnitude is 7.52D-14 for    424.
 Iteration    1 A*A^-1 deviation from orthogonality  is 1.22D-13 for    625    424.
 Iteration    1 A^-1*A deviation from unit magnitude is 6.08D-14 for    424.
 Iteration    1 A^-1*A deviation from orthogonality  is 4.51D-14 for    625    424.
 Error on nuclear    polarization charges =  0.01189
 Error on electronic polarization charges = -0.03433
 SCF Done:  E(RB-P86) =  -532.423936234     A.U. after   11 cycles
            NFock= 11  Conv=0.74D-08     -V/T= 2.0041
 --------------------------------------------------------------------
 Variational C-PCM results
 =========================
 <psi(f)|   H    |psi(f)>                     (a.u.) =    -532.385735
 <psi(f)|H+V(f)/2|psi(f)>                     (a.u.) =    -532.423936
 Total free energy in solution:
 - with all non electrostatic terms           (a.u.) =    -532.412698
 --------------------------------------------------------------------
 (Polarized solute)-Solvent               (kcal/mol) =     -23.97
 --------------------------------------------------------------------
 Cavitation energy                        (kcal/mol) =      20.33
 Dispersion energy                        (kcal/mol) =     -14.52
 Repulsion energy                         (kcal/mol) =       1.25
 Total non electrostatic                  (kcal/mol) =       7.05
 --------------------------------------------------------------------
 Partition over spheres:
 Sphere  on Atom  Surface  Charge   GEl     GCav    GDR
    1      O1      19.76   0.230   -2.76    2.46   -1.62
    2      C2       7.57  -0.023   -0.25    0.89   -0.36
    3      O3      15.90   0.082   -0.56    1.98   -1.33
    4      C4       8.65  -0.039   -0.45    1.02   -0.42
    5      C5       4.82  -0.037   -0.49    0.57   -0.15
    6      O6      15.15   0.229   -5.31    1.88   -1.30
    7      C7       9.98  -0.043   -0.24    1.17   -0.57
    8      O8      19.78   0.162   -2.31    2.46   -1.73
    9      O9      12.99   0.048   -0.58    1.61   -0.90
   10      H10      8.48  -0.153   -3.12    1.20   -0.92
   11      H11      6.46  -0.050   -0.41    0.91   -0.70
   12      H12      6.56  -0.058   -1.01    0.93   -0.75
   13      H13      6.10  -0.050   -0.37    0.86   -0.64
   14      H14      8.49  -0.138   -2.97    1.20   -0.92
   15      H15      8.52  -0.160   -3.14    1.20   -0.96
 --------------------------------------------------------------------
 - cavitation energy not included in the total energy.
 - dispersion energy not included in the total energy.
 - repulsion  energy not included in the total energy.
 After PCM corrections, the energy is  -532.423936234     a.u.
 --------------------------------------------------------------------
 Writing COSMO formatted file "BJEPYKJPYRNKOW-UHFFFAOYSA-N.cosmo"
 Recomputed dielectric energy= -0.038282 old= -0.038202 diff=-8.05D-05

 **********************************************************************

            Population analysis using the SCF Density.

 **********************************************************************

 Orbital symmetries:
       Occupied  (A) (A) (A) (A) (A) (A) (A) (A) (A) (A) (A) (A)
                 (A) (A) (A) (A) (A) (A) (A) (A) (A) (A) (A) (A)
                 (A) (A) (A) (A) (A) (A) (A) (A) (A) (A) (A)
       Virtual   (A) (A) (A) (A) (A) (A) (A) (A) (A) (A) (A) (A)
                 (A) (A) (A) (A) (A) (A) (A) (A) (A) (A) (A) (A)
                 (A) (A) (A) (A) (A) (A) (A) (A) (A) (A) (A) (A)
                 (A) (A) (A) (A) (A) (A) (A) (A) (A) (A) (A) (A)
                 (A) (A) (A) (A) (A) (A) (A) (A) (A) (A) (A) (A)
                 (A) (A) (A) (A) (A) (A) (A) (A) (A) (A) (A) (A)
                 (A) (A) (A) (A) (A) (A) (A) (A) (A) (A) (A) (A)
                 (A) (A) (A) (A) (A) (A) (A) (A) (A) (A) (A) (A)
                 (A) (A) (A) (A) (A) (A) (A) (A) (A) (A) (A) (A)
                 (A) (A) (A) (A) (A) (A) (A) (A) (A) (A) (A) (A)
                 (A) (A) (A) (A) (A) (A) (A) (A) (A) (A) (A) (A)
                 (A) (A) (A) (A) (A) (A) (A) (A) (A) (A) (A) (A)
                 (A) (A) (A) (A) (A) (A) (A) (A) (A) (A) (A) (A)
                 (A) (A) (A) (A) (A) (A) (A) (A) (A) (A) (A) (A)
                 (A) (A) (A) (A)
 The electronic state is 1-A.
 Alpha  occ. eigenvalues --  -18.82912 -18.82601 -18.78878 -18.78048 -18.77357
 Alpha  occ. eigenvalues --  -10.04141 -10.04042  -9.98251  -9.92555  -1.03353
 Alpha  occ. eigenvalues --   -1.02722  -0.96227  -0.94811  -0.94512  -0.73412
 Alpha  occ. eigenvalues --   -0.65408  -0.57701  -0.54832  -0.49276  -0.45855
 Alpha  occ. eigenvalues --   -0.45629  -0.44744  -0.44332  -0.42612  -0.40566
 Alpha  occ. eigenvalues --   -0.38091  -0.36957  -0.36283  -0.34726  -0.32185
 Alpha  occ. eigenvalues --   -0.30258  -0.29539  -0.26079  -0.25818  -0.24824
 Alpha virt. eigenvalues --   -0.06438  -0.04445   0.01784   0.02554   0.04007
 Alpha virt. eigenvalues --    0.06880   0.07423   0.08209   0.12134   0.12693
 Alpha virt. eigenvalues --    0.14974   0.15690   0.16327   0.17292   0.18704
 Alpha virt. eigenvalues --    0.20324   0.22880   0.24721   0.26202   0.26857
 Alpha virt. eigenvalues --    0.28138   0.29099   0.30902   0.31775   0.32471
 Alpha virt. eigenvalues --    0.34275   0.34373   0.36208   0.36892   0.38211
 Alpha virt. eigenvalues --    0.38820   0.40280   0.40598   0.41257   0.43273
 Alpha virt. eigenvalues --    0.44353   0.45110   0.46799   0.47593   0.48269
 Alpha virt. eigenvalues --    0.49628   0.51170   0.54019   0.54949   0.55730
 Alpha virt. eigenvalues --    0.57315   0.57527   0.59933   0.62459   0.64971
 Alpha virt. eigenvalues --    0.67087   0.69696   0.74308   0.76469   0.80986
 Alpha virt. eigenvalues --    0.87441   0.90816   0.93017   1.11888   1.15228
 Alpha virt. eigenvalues --    1.20122   1.21602   1.23811   1.24240   1.26578
 Alpha virt. eigenvalues --    1.27832   1.28157   1.30542   1.32207   1.33252
 Alpha virt. eigenvalues --    1.34401   1.36520   1.39335   1.42092   1.44126
 Alpha virt. eigenvalues --    1.45000   1.48799   1.50751   1.53746   1.54148
 Alpha virt. eigenvalues --    1.55414   1.57322   1.60911   1.64290   1.65518
 Alpha virt. eigenvalues --    1.72187   1.74359   1.78580   1.80094   1.82916
 Alpha virt. eigenvalues --    1.86834   1.90079   1.91011   1.94450   1.96929
 Alpha virt. eigenvalues --    1.99776   2.01016   2.04348   2.06877   2.09781
 Alpha virt. eigenvalues --    2.14284   2.18529   2.22024   2.24384   2.31465
 Alpha virt. eigenvalues --    2.32048   2.35801   2.39673   2.42579   2.44870
 Alpha virt. eigenvalues --    2.47104   2.49074   2.50507   2.51608   2.52847
 Alpha virt. eigenvalues --    2.53205   2.55646   2.56139   2.57709   2.58220
 Alpha virt. eigenvalues --    2.59104   2.60070   2.61140   2.62958   2.63650
 Alpha virt. eigenvalues --    2.67169   2.69388   2.70634   2.75658   2.78237
 Alpha virt. eigenvalues --    2.78953   2.80577   2.83578   2.84701   2.85333
 Alpha virt. eigenvalues --    2.86307   2.90265   2.92553   2.96434   2.96619
 Alpha virt. eigenvalues --    3.00716   3.04057   3.07430   3.09635   3.10748
 Alpha virt. eigenvalues --    3.12032   3.12812   3.15774   3.16775   3.22128
 Alpha virt. eigenvalues --    3.28179   3.29700   3.33028   3.40032   3.41543
 Alpha virt. eigenvalues --    3.78861   3.80456   3.90623   4.08364   4.10783
 Alpha virt. eigenvalues --    4.16885   4.18441   4.19152  21.67003  21.72100
 Alpha virt. eigenvalues --   21.74809  21.82584  43.04254  43.07097  43.11381
 Alpha virt. eigenvalues --   43.16440  43.22270
          Condensed to atoms (all electrons):
               1          2          3          4          5          6
     1  O    7.967179   0.588652  -0.104590  -0.124369   0.009622  -0.000206
     2  C    0.588652   4.925131   0.331018  -0.036466  -0.006253   0.015736
     3  O   -0.104590   0.331018   7.873545  -0.122446  -0.011244  -0.000091
     4  C   -0.124369  -0.036466  -0.122446   5.960941   0.101889  -0.062966
     5  C    0.009622  -0.006253  -0.011244   0.101889   5.690558   0.272840
     6  O   -0.000206   0.015736  -0.000091  -0.062966   0.272840   7.972609
     7  C   -0.002646   0.026549   0.007692  -0.090666  -0.050178  -0.080122
     8  O   -0.000046   0.001547   0.000000  -0.009945  -0.101717   0.010047
     9  O   -0.004651   0.007253  -0.002005   0.021386  -0.141178   0.004206
    10  H    0.002371  -0.018114   0.285039   0.012964  -0.000060   0.000021
    11  H    0.005826  -0.007904   0.012340   0.311437  -0.021639   0.008621
    12  H   -0.001504  -0.019859   0.000718   0.417044  -0.046553  -0.002886
    13  H    0.014022   0.003547   0.001999  -0.076856   0.405753  -0.038705
    14  H    0.000107  -0.000103  -0.000000  -0.004467  -0.033511   0.311364
    15  H    0.000047  -0.000804   0.000153   0.000265   0.011370  -0.000306
               7          8          9         10         11         12
     1  O   -0.002646  -0.000046  -0.004651   0.002371   0.005826  -0.001504
     2  C    0.026549   0.001547   0.007253  -0.018114  -0.007904  -0.019859
     3  O    0.007692   0.000000  -0.002005   0.285039   0.012340   0.000718
     4  C   -0.090666  -0.009945   0.021386   0.012964   0.311437   0.417044
     5  C   -0.050178  -0.101717  -0.141178  -0.000060  -0.021639  -0.046553
     6  O   -0.080122   0.010047   0.004206   0.000021   0.008621  -0.002886
     7  C    5.059765   0.610621   0.306936  -0.000009   0.005824   0.009807
     8  O    0.610621   7.927593  -0.102019   0.000004   0.002601  -0.000383
     9  O    0.306936  -0.102019   7.899026   0.000120  -0.002654  -0.000133
    10  H   -0.000009   0.000004   0.000120   0.383655   0.000043  -0.000502
    11  H    0.005824   0.002601  -0.002654   0.000043   0.510604  -0.012077
    12  H    0.009807  -0.000383  -0.000133  -0.000502  -0.012077   0.429396
    13  H   -0.024401   0.000386   0.001894   0.000059   0.009181  -0.003712
    14  H    0.015710  -0.000010  -0.000240  -0.000001  -0.000902   0.003973
    15  H   -0.009884   0.002142   0.286090   0.000007  -0.000197   0.000035
              13         14         15
     1  O    0.014022   0.000107   0.000047
     2  C    0.003547  -0.000103  -0.000804
     3  O    0.001999  -0.000000   0.000153
     4  C   -0.076856  -0.004467   0.000265
     5  C    0.405753  -0.033511   0.011370
     6  O   -0.038705   0.311364  -0.000306
     7  C   -0.024401   0.015710  -0.009884
     8  O    0.000386  -0.000010   0.002142
     9  O    0.001894  -0.000240   0.286090
    10  H    0.000059  -0.000001   0.000007
    11  H    0.009181  -0.000902  -0.000197
    12  H   -0.003712   0.003973   0.000035
    13  H    0.503036  -0.006051  -0.000308
    14  H   -0.006051   0.385511   0.000030
    15  H   -0.000308   0.000030   0.370710
 Mulliken charges:
               1
     1  O   -0.349813
     2  C    0.190069
     3  O   -0.272128
     4  C   -0.297746
     5  C   -0.079700
     6  O   -0.410161
     7  C    0.215003
     8  O   -0.340820
     9  O   -0.274031
    10  H    0.334403
    11  H    0.178897
    12  H    0.226635
    13  H    0.210154
    14  H    0.328590
    15  H    0.340649
 Sum of Mulliken charges =  -0.00000
 Mulliken charges with hydrogens summed into heavy atoms:
               1
     1  O   -0.349813
     2  C    0.190069
     3  O    0.062275
     4  C    0.107785
     5  C    0.130454
     6  O   -0.081570
     7  C    0.215003
     8  O   -0.340820
     9  O    0.066617
 Electronic spatial extent (au):  <R**2>=           1235.8824
 Charge=             -0.0000 electrons
 Dipole moment (field-independent basis, Debye):
    X=             -3.5388    Y=              0.3680    Z=             -0.3178  Tot=              3.5721
 Quadrupole moment (field-independent basis, Debye-Ang):
   XX=            -62.4035   YY=            -36.6963   ZZ=            -56.2780
   XY=              3.0531   XZ=              8.7010   YZ=              0.2702
 Traceless Quadrupole moment (field-independent basis, Debye-Ang):
   XX=            -10.6109   YY=             15.0963   ZZ=             -4.4854
   XY=              3.0531   XZ=              8.7010   YZ=              0.2702
 Octapole moment (field-independent basis, Debye-Ang**2):
  XXX=            -70.3177  YYY=             -3.7931  ZZZ=             -2.1298  XYY=              4.0852
  XXY=            -11.5331  XXZ=             -1.6603  XZZ=             11.1182  YZZ=              0.0187
  YYZ=              5.6840  XYZ=              2.1951
 Hexadecapole moment (field-independent basis, Debye-Ang**3):
 XXXX=           -918.0135 YYYY=           -231.6759 ZZZZ=           -175.5213 XXXY=             69.0781
 XXXZ=             53.4897 YYYX=             14.4482 YYYZ=              6.0798 ZZZX=              7.7879
 ZZZY=              0.7871 XXYY=           -201.6119 XXZZ=           -209.9851 YYZZ=            -93.5045
 XXYZ=             -1.1013 YYXZ=             15.6378 ZZXY=              2.9765
 N-N= 4.697251388487D+02 E-N=-2.191194376858D+03  KE= 5.302637540838D+02
 Unable to Open any file for archive entry.
 1\1\GINC-TCN1721\SP\RBP86\TZVP\C4H6O5\ELENAA\22-Feb-2021\0\\# BP86/TZV
 P SCRF=COSMORS geom=CHECKPOINT guess=CHECKPOINT\\COSMO-file for #BJEPY
 KJPYRNKOW-UHFFFAOYSA-N\\0,1\O,0,0.7592035304,1.9785801104,0.4577117098
 \C,0,1.610982011,2.6264540253,-0.1289389141\O,0,1.9044090904,3.9183953
 579,0.1690901767\C,0,2.4871183813,2.0854368676,-1.2407887851\C,0,1.681
 6854675,1.324388028,-2.3267158147\O,0,2.5294363196,0.5371072855,-3.155
 3249177\C,0,0.9469067011,2.3091041549,-3.2399287899\O,0,1.1152976836,2
 .4361628739,-4.4366127095\O,0,0.0693438737,3.0508124317,-2.5140497108\
 H,0,1.3223378672,4.1916408694,0.9117476987\H,0,3.0963637782,2.87975892
 69,-1.6904151012\H,0,3.1692786825,1.35953795,-0.7700092178\H,0,0.91358
 93999,0.7088146398,-1.823039455\H,0,2.8313968486,-0.2226088779,-2.6253
 944392\H,0,-0.3596896349,3.6922853565,-3.1203517301\\Version=ES64L-G16
 RevC.01\State=1-A\HF=-532.4239362\RMSD=7.420e-09\Dipole=0.2029955,0.39
 33136,1.3338379\Quadrupole=2.5229937,7.6522416,-10.1752353,-5.6974569,
 5.3904247,0.9784226\PG=C01 [X(C4H6O5)]\\@
 The archive entry for this job was punched.


 WHEN YOU'VE SEEN ONE NUCLEAR WAR YOU'VE SEEN THEM ALL.
 Job cpu time:       0 days  0 hours  4 minutes 12.3 seconds.
 Elapsed time:       0 days  0 hours  0 minutes  8.3 seconds.
 File lengths (MBytes):  RWF=     38 Int=      0 D2E=      0 Chk=      6 Scr=      1
 Normal termination of Gaussian 16 at Mon Feb 22 21:01:03 2021.
