 Entering Gaussian System, Link 0=g16
 Input=BOOXKGZZTBKJFE-UHFFFAOYSA-M.gjf
 Output=BOOXKGZZTBKJFE-UHFFFAOYSA-M.log
 Initial command:
 /sw/arch/RedHatEnterpriseServer7/EB_production/2020/software/Gaussian/g16.c01/l1.exe "/scratch-local/elenaa.10684689/Gau-24131.inp" -scrdir="/scratch-local/elenaa.10684689/"
 Entering Link 1 = /sw/arch/RedHatEnterpriseServer7/EB_production/2020/software/Gaussian/g16.c01/l1.exe PID=     24133.
  
 Copyright (c) 1988-2019, Gaussian, Inc.  All Rights Reserved.
  
 This is part of the Gaussian(R) 16 program.  It is based on
 the Gaussian(R) 09 system (copyright 2009, Gaussian, Inc.),
 the Gaussian(R) 03 system (copyright 2003, Gaussian, Inc.),
 the Gaussian(R) 98 system (copyright 1998, Gaussian, Inc.),
 the Gaussian(R) 94 system (copyright 1995, Gaussian, Inc.),
 the Gaussian 92(TM) system (copyright 1992, Gaussian, Inc.),
 the Gaussian 90(TM) system (copyright 1990, Gaussian, Inc.),
 the Gaussian 88(TM) system (copyright 1988, Gaussian, Inc.),
 the Gaussian 86(TM) system (copyright 1986, Carnegie Mellon
 University), and the Gaussian 82(TM) system (copyright 1983,
 Carnegie Mellon University). Gaussian is a federally registered
 trademark of Gaussian, Inc.
  
 This software contains proprietary and confidential information,
 including trade secrets, belonging to Gaussian, Inc.
  
 This software is provided under written license and may be
 used, copied, transmitted, or stored only in accord with that
 written license.
  
 The following legend is applicable only to US Government
 contracts under FAR:
  
                    RESTRICTED RIGHTS LEGEND
  
 Use, reproduction and disclosure by the US Government is
 subject to restrictions as set forth in subparagraphs (a)
 and (c) of the Commercial Computer Software - Restricted
 Rights clause in FAR 52.227-19.
  
 Gaussian, Inc.
 340 Quinnipiac St., Bldg. 40, Wallingford CT 06492
  
  
 ---------------------------------------------------------------
 Warning -- This program may not be used in any manner that
 competes with the business of Gaussian, Inc. or will provide
 assistance to any competitor of Gaussian, Inc.  The licensee
 of this program is prohibited from giving any competitor of
 Gaussian, Inc. access to this program.  By using this program,
 the user acknowledges that Gaussian, Inc. is engaged in the
 business of creating and licensing software in the field of
 computational chemistry and represents and warrants to the
 licensee that it is not a competitor of Gaussian, Inc. and that
 it will not use this program in any manner prohibited above.
 ---------------------------------------------------------------
  

 Cite this work as:
 Gaussian 16, Revision C.01,
 M. J. Frisch, G. W. Trucks, H. B. Schlegel, G. E. Scuseria, 
 M. A. Robb, J. R. Cheeseman, G. Scalmani, V. Barone, 
 G. A. Petersson, H. Nakatsuji, X. Li, M. Caricato, A. V. Marenich, 
 J. Bloino, B. G. Janesko, R. Gomperts, B. Mennucci, H. P. Hratchian, 
 J. V. Ortiz, A. F. Izmaylov, J. L. Sonnenberg, D. Williams-Young, 
 F. Ding, F. Lipparini, F. Egidi, J. Goings, B. Peng, A. Petrone, 
 T. Henderson, D. Ranasinghe, V. G. Zakrzewski, J. Gao, N. Rega, 
 G. Zheng, W. Liang, M. Hada, M. Ehara, K. Toyota, R. Fukuda, 
 J. Hasegawa, M. Ishida, T. Nakajima, Y. Honda, O. Kitao, H. Nakai, 
 T. Vreven, K. Throssell, J. A. Montgomery, Jr., J. E. Peralta, 
 F. Ogliaro, M. J. Bearpark, J. J. Heyd, E. N. Brothers, K. N. Kudin, 
 V. N. Staroverov, T. A. Keith, R. Kobayashi, J. Normand, 
 K. Raghavachari, A. P. Rendell, J. C. Burant, S. S. Iyengar, 
 J. Tomasi, M. Cossi, J. M. Millam, M. Klene, C. Adamo, R. Cammi, 
 J. W. Ochterski, R. L. Martin, K. Morokuma, O. Farkas, 
 J. B. Foresman, and D. J. Fox, Gaussian, Inc., Wallingford CT, 2019.
 
 ******************************************
 Gaussian 16:  ES64L-G16RevC.01  3-Jul-2019
                21-Aug-2021 
 ******************************************
 %chk=BOOXKGZZTBKJFE-UHFFFAOYSA-M.chk
 %NProcShared=24
 Will use up to   24 processors via shared memory.
 -------------------------------------------------------------
 #P BP86/TZVP EmpiricalDispersion=GD3 SCRF=(Solvent=Water) Opt
 -------------------------------------------------------------
 1/18=20,19=15,26=3,38=1/1,3;
 2/9=110,12=2,17=6,18=5,40=1/2;
 3/5=19,7=101,11=2,25=1,30=1,70=2201,71=1,72=1,74=404,124=31/1,2,3;
 4//1;
 5/5=2,38=5,53=1/2;
 6/7=2,8=2,9=2,10=2,28=1/1;
 7//1,2,3,16;
 1/18=20,19=15,26=3/3(2);
 2/9=110/2;
 99//99;
 2/9=110/2;
 3/5=19,7=101,11=2,25=1,30=1,70=2205,71=1,72=1,74=404,124=31/1,2,3;
 4/5=5,16=3,69=1/1;
 5/5=2,38=5,53=1/2;
 7//1,2,3,16;
 1/18=20,19=15,26=3/3(-5);
 2/9=110/2;
 6/7=2,8=2,9=2,10=2,19=2,28=1/1;
 99/9=1/99;
 Leave Link    1 at Sat Aug 21 09:31:10 2021, MaxMem=           0 cpu:               2.2 elap:               0.1
 (Enter /sw/arch/RedHatEnterpriseServer7/EB_production/2020/software/Gaussian/g16.c01/l101.exe)
 -------------------------------------
 Particle #BOOXKGZZTBKJFE-UHFFFAOYSA-M
 -------------------------------------
 Symbolic Z-matrix:
 Charge =  0 Multiplicity = 1
 C                     0.74636  -1.44155   2.4229 
 C                     0.48149  -1.64791   0.93146 
 C                    -0.51436  -0.62877   0.35363 
 C                     0.08894   0.79632   0.25907 
 N                    -0.7742    1.82385  -0.41542 
 C                    -0.02443   3.10614  -0.37098 
 C                    -2.08193   1.96437   0.2715 
 C                    -3.12529   1.19429  -0.53067 
 C                    -2.49383   0.89788  -1.8798 
 C                    -1.06999   1.44461  -1.82019 
 Cl                   -2.92443   4.2816   -2.06745 
 H                     1.3078   -0.50073   2.59731 
 H                    -0.20917  -1.41427   2.98855 
 H                     1.35963  -2.28342   2.80773 
 H                     1.44175  -1.60633   0.37293 
 H                     0.05914  -2.66705   0.79334 
 H                    -0.79255  -0.99068  -0.65543 
 H                    -1.42812  -0.6302    0.98243 
 H                     1.06432   0.71894  -0.27507 
 H                     0.3235    1.13484   1.29318 
 H                     0.17484   3.41418   0.68008 
 H                     0.9507    3.01467  -0.90017 
 H                    -0.58038   3.93283  -0.85258 
 H                    -2.05261   1.60355   1.32432 
 H                    -2.40408   3.02725   0.33673 
 H                    -3.38985   0.24612  -0.01498 
 H                    -4.05345   1.79483  -0.65086 
 H                    -3.06775   1.385    -2.69804 
 H                    -2.48657  -0.19691  -2.07104 
 H                    -0.34885   0.69685  -2.22086 
 H                    -0.99927   2.31512  -2.51002 
 
 Add virtual bond connecting atoms H23        and Cl11       Dist= 5.03D+00.
 Add virtual bond connecting atoms H25        and Cl11       Dist= 5.22D+00.
 Add virtual bond connecting atoms H31        and Cl11       Dist= 5.27D+00.
 ITRead=  0  0  0  0  0  0  0  0  0  0  0  0  0  0  0  0  0  0  0  0
 ITRead=  0  0  0  0  0  0  0  0  0  0  0
 MicOpt= -1 -1 -1 -1 -1 -1 -1 -1 -1 -1 -1 -1 -1 -1 -1 -1 -1 -1 -1 -1
 MicOpt= -1 -1 -1 -1 -1 -1 -1 -1 -1 -1 -1
 NAtoms=     31 NQM=       31 NQMF=       0 NMMI=      0 NMMIF=      0
                NMic=       0 NMicF=      0.
                    Isotopes and Nuclear Properties:
 (Nuclear quadrupole moments (NQMom) in fm**2, nuclear magnetic moments (NMagM)
  in nuclear magnetons)

  Atom         1           2           3           4           5           6           7           8           9          10
 IAtWgt=          12          12          12          12          14          12          12          12          12          12
 AtmWgt=  12.0000000  12.0000000  12.0000000  12.0000000  14.0030740  12.0000000  12.0000000  12.0000000  12.0000000  12.0000000
 NucSpn=           0           0           0           0           2           0           0           0           0           0
 AtZEff=  -0.0000000  -0.0000000  -0.0000000  -0.0000000  -0.0000000  -0.0000000  -0.0000000  -0.0000000  -0.0000000  -0.0000000
 NQMom=    0.0000000   0.0000000   0.0000000   0.0000000   2.0440000   0.0000000   0.0000000   0.0000000   0.0000000   0.0000000
 NMagM=    0.0000000   0.0000000   0.0000000   0.0000000   0.4037610   0.0000000   0.0000000   0.0000000   0.0000000   0.0000000
 AtZNuc=   6.0000000   6.0000000   6.0000000   6.0000000   7.0000000   6.0000000   6.0000000   6.0000000   6.0000000   6.0000000

  Atom        11          12          13          14          15          16          17          18          19          20
 IAtWgt=          35           1           1           1           1           1           1           1           1           1
 AtmWgt=  34.9688527   1.0078250   1.0078250   1.0078250   1.0078250   1.0078250   1.0078250   1.0078250   1.0078250   1.0078250
 NucSpn=           3           1           1           1           1           1           1           1           1           1
 AtZEff=  -0.0000000  -0.0000000  -0.0000000  -0.0000000  -0.0000000  -0.0000000  -0.0000000  -0.0000000  -0.0000000  -0.0000000
 NQMom=   -8.1650000   0.0000000   0.0000000   0.0000000   0.0000000   0.0000000   0.0000000   0.0000000   0.0000000   0.0000000
 NMagM=    0.8218740   2.7928460   2.7928460   2.7928460   2.7928460   2.7928460   2.7928460   2.7928460   2.7928460   2.7928460
 AtZNuc=  17.0000000   1.0000000   1.0000000   1.0000000   1.0000000   1.0000000   1.0000000   1.0000000   1.0000000   1.0000000

  Atom        21          22          23          24          25          26          27          28          29          30
 IAtWgt=           1           1           1           1           1           1           1           1           1           1
 AtmWgt=   1.0078250   1.0078250   1.0078250   1.0078250   1.0078250   1.0078250   1.0078250   1.0078250   1.0078250   1.0078250
 NucSpn=           1           1           1           1           1           1           1           1           1           1
 AtZEff=  -0.0000000  -0.0000000  -0.0000000  -0.0000000  -0.0000000  -0.0000000  -0.0000000  -0.0000000  -0.0000000  -0.0000000
 NQMom=    0.0000000   0.0000000   0.0000000   0.0000000   0.0000000   0.0000000   0.0000000   0.0000000   0.0000000   0.0000000
 NMagM=    2.7928460   2.7928460   2.7928460   2.7928460   2.7928460   2.7928460   2.7928460   2.7928460   2.7928460   2.7928460
 AtZNuc=   1.0000000   1.0000000   1.0000000   1.0000000   1.0000000   1.0000000   1.0000000   1.0000000   1.0000000   1.0000000

  Atom        31
 IAtWgt=           1
 AtmWgt=   1.0078250
 NucSpn=           1
 AtZEff=  -0.0000000
 NQMom=    0.0000000
 NMagM=    2.7928460
 AtZNuc=   1.0000000
 Leave Link  101 at Sat Aug 21 09:31:10 2021, MaxMem=   104857600 cpu:               2.0 elap:               0.1
 (Enter /sw/arch/RedHatEnterpriseServer7/EB_production/2020/software/Gaussian/g16.c01/l103.exe)

 GradGradGradGradGradGradGradGradGradGradGradGradGradGradGradGradGradGrad
 Berny optimization.
 Initialization pass.
                           ----------------------------
                           !    Initial Parameters    !
                           ! (Angstroms and Degrees)  !
 --------------------------                            --------------------------
 ! Name  Definition              Value          Derivative Info.                !
 --------------------------------------------------------------------------------
 ! R1    R(1,2)                  1.5288         estimate D2E/DX2                !
 ! R2    R(1,12)                 1.1094         estimate D2E/DX2                !
 ! R3    R(1,13)                 1.1107         estimate D2E/DX2                !
 ! R4    R(1,14)                 1.1104         estimate D2E/DX2                !
 ! R5    R(2,3)                  1.5376         estimate D2E/DX2                !
 ! R6    R(2,15)                 1.1117         estimate D2E/DX2                !
 ! R7    R(2,16)                 1.1118         estimate D2E/DX2                !
 ! R8    R(3,4)                  1.5504         estimate D2E/DX2                !
 ! R9    R(3,17)                 1.1075         estimate D2E/DX2                !
 ! R10   R(3,18)                 1.1092         estimate D2E/DX2                !
 ! R11   R(4,5)                  1.5019         estimate D2E/DX2                !
 ! R12   R(4,19)                 1.1147         estimate D2E/DX2                !
 ! R13   R(4,20)                 1.1131         estimate D2E/DX2                !
 ! R14   R(5,6)                  1.4861         estimate D2E/DX2                !
 ! R15   R(5,7)                  1.4838         estimate D2E/DX2                !
 ! R16   R(5,10)                 1.4848         estimate D2E/DX2                !
 ! R17   R(6,21)                 1.1132         estimate D2E/DX2                !
 ! R18   R(6,22)                 1.1132         estimate D2E/DX2                !
 ! R19   R(6,23)                 1.1065         estimate D2E/DX2                !
 ! R20   R(7,8)                  1.5248         estimate D2E/DX2                !
 ! R21   R(7,24)                 1.1133         estimate D2E/DX2                !
 ! R22   R(7,25)                 1.1125         estimate D2E/DX2                !
 ! R23   R(8,9)                  1.5188         estimate D2E/DX2                !
 ! R24   R(8,26)                 1.1113         estimate D2E/DX2                !
 ! R25   R(8,27)                 1.112          estimate D2E/DX2                !
 ! R26   R(9,10)                 1.5264         estimate D2E/DX2                !
 ! R27   R(9,28)                 1.1118         estimate D2E/DX2                !
 ! R28   R(9,29)                 1.1114         estimate D2E/DX2                !
 ! R29   R(10,30)                1.1134         estimate D2E/DX2                !
 ! R30   R(10,31)                1.1129         estimate D2E/DX2                !
 ! R31   R(11,23)                2.6631         estimate D2E/DX2                !
 ! R32   R(11,25)                2.7612         estimate D2E/DX2                !
 ! R33   R(11,31)                2.7873         estimate D2E/DX2                !
 ! A1    A(2,1,12)             110.8256         estimate D2E/DX2                !
 ! A2    A(2,1,13)             110.5538         estimate D2E/DX2                !
 ! A3    A(2,1,14)             109.3574         estimate D2E/DX2                !
 ! A4    A(12,1,13)            109.5405         estimate D2E/DX2                !
 ! A5    A(12,1,14)            107.9976         estimate D2E/DX2                !
 ! A6    A(13,1,14)            108.497          estimate D2E/DX2                !
 ! A7    A(1,2,3)              112.9149         estimate D2E/DX2                !
 ! A8    A(1,2,15)             109.6005         estimate D2E/DX2                !
 ! A9    A(1,2,16)             108.1044         estimate D2E/DX2                !
 ! A10   A(3,2,15)             110.2335         estimate D2E/DX2                !
 ! A11   A(3,2,16)             108.3515         estimate D2E/DX2                !
 ! A12   A(15,2,16)            107.4582         estimate D2E/DX2                !
 ! A13   A(2,3,4)              112.3418         estimate D2E/DX2                !
 ! A14   A(2,3,17)             106.767          estimate D2E/DX2                !
 ! A15   A(2,3,18)             108.6416         estimate D2E/DX2                !
 ! A16   A(4,3,17)             110.0315         estimate D2E/DX2                !
 ! A17   A(4,3,18)             110.8741         estimate D2E/DX2                !
 ! A18   A(17,3,18)            108.0083         estimate D2E/DX2                !
 ! A19   A(3,4,5)              115.6333         estimate D2E/DX2                !
 ! A20   A(3,4,19)             107.8115         estimate D2E/DX2                !
 ! A21   A(3,4,20)             107.7505         estimate D2E/DX2                !
 ! A22   A(5,4,19)             109.5817         estimate D2E/DX2                !
 ! A23   A(5,4,20)             109.2843         estimate D2E/DX2                !
 ! A24   A(19,4,20)            106.3728         estimate D2E/DX2                !
 ! A25   A(4,5,6)              106.6757         estimate D2E/DX2                !
 ! A26   A(4,5,7)              111.3077         estimate D2E/DX2                !
 ! A27   A(4,5,10)             111.3843         estimate D2E/DX2                !
 ! A28   A(6,5,7)              110.4321         estimate D2E/DX2                !
 ! A29   A(6,5,10)             110.4378         estimate D2E/DX2                !
 ! A30   A(7,5,10)             106.6538         estimate D2E/DX2                !
 ! A31   A(5,6,21)             110.935          estimate D2E/DX2                !
 ! A32   A(5,6,22)             110.9055         estimate D2E/DX2                !
 ! A33   A(5,6,23)             112.2189         estimate D2E/DX2                !
 ! A34   A(21,6,22)            108.3458         estimate D2E/DX2                !
 ! A35   A(21,6,23)            107.1049         estimate D2E/DX2                !
 ! A36   A(22,6,23)            107.1326         estimate D2E/DX2                !
 ! A37   A(5,7,8)              108.1609         estimate D2E/DX2                !
 ! A38   A(5,7,24)             112.5735         estimate D2E/DX2                !
 ! A39   A(5,7,25)             111.8889         estimate D2E/DX2                !
 ! A40   A(8,7,24)             110.5996         estimate D2E/DX2                !
 ! A41   A(8,7,25)             108.373          estimate D2E/DX2                !
 ! A42   A(24,7,25)            105.1768         estimate D2E/DX2                !
 ! A43   A(7,8,9)              106.3423         estimate D2E/DX2                !
 ! A44   A(7,8,26)             110.4669         estimate D2E/DX2                !
 ! A45   A(7,8,27)             110.808          estimate D2E/DX2                !
 ! A46   A(9,8,26)             110.1616         estimate D2E/DX2                !
 ! A47   A(9,8,27)             110.88           estimate D2E/DX2                !
 ! A48   A(26,8,27)            108.1944         estimate D2E/DX2                !
 ! A49   A(8,9,10)             106.454          estimate D2E/DX2                !
 ! A50   A(8,9,28)             110.7074         estimate D2E/DX2                !
 ! A51   A(8,9,29)             110.3538         estimate D2E/DX2                !
 ! A52   A(10,9,28)            110.6909         estimate D2E/DX2                !
 ! A53   A(10,9,29)            110.7            estimate D2E/DX2                !
 ! A54   A(28,9,29)            107.9573         estimate D2E/DX2                !
 ! A55   A(5,10,9)             108.3164         estimate D2E/DX2                !
 ! A56   A(5,10,30)            112.5167         estimate D2E/DX2                !
 ! A57   A(5,10,31)            111.9607         estimate D2E/DX2                !
 ! A58   A(9,10,30)            110.4604         estimate D2E/DX2                !
 ! A59   A(9,10,31)            108.3755         estimate D2E/DX2                !
 ! A60   A(30,10,31)           105.1348         estimate D2E/DX2                !
 ! A61   A(23,11,25)            51.496          estimate D2E/DX2                !
 ! A62   A(23,11,31)            51.1046         estimate D2E/DX2                !
 ! A63   A(25,11,31)            71.7955         estimate D2E/DX2                !
 ! A64   A(6,23,11)            137.6137         estimate D2E/DX2                !
 ! A65   A(7,25,11)            115.9451         estimate D2E/DX2                !
 ! A66   A(10,31,11)           114.1748         estimate D2E/DX2                !
 ! D1    D(12,1,2,3)           -68.6324         estimate D2E/DX2                !
 ! D2    D(12,1,2,15)           54.673          estimate D2E/DX2                !
 ! D3    D(12,1,2,16)          171.5111         estimate D2E/DX2                !
 ! D4    D(13,1,2,3)            53.0228         estimate D2E/DX2                !
 ! D5    D(13,1,2,15)          176.3282         estimate D2E/DX2                !
 ! D6    D(13,1,2,16)          -66.8336         estimate D2E/DX2                !
 ! D7    D(14,1,2,3)           172.4196         estimate D2E/DX2                !
 ! D8    D(14,1,2,15)          -64.275          estimate D2E/DX2                !
 ! D9    D(14,1,2,16)           52.5632         estimate D2E/DX2                !
 ! D10   D(1,2,3,4)             70.8127         estimate D2E/DX2                !
 ! D11   D(1,2,3,17)          -168.4831         estimate D2E/DX2                !
 ! D12   D(1,2,3,18)           -52.2261         estimate D2E/DX2                !
 ! D13   D(15,2,3,4)           -52.1413         estimate D2E/DX2                !
 ! D14   D(15,2,3,17)           68.5628         estimate D2E/DX2                !
 ! D15   D(15,2,3,18)         -175.1801         estimate D2E/DX2                !
 ! D16   D(16,2,3,4)          -169.473          estimate D2E/DX2                !
 ! D17   D(16,2,3,17)          -48.7689         estimate D2E/DX2                !
 ! D18   D(16,2,3,18)           67.4881         estimate D2E/DX2                !
 ! D19   D(2,3,4,5)            174.4381         estimate D2E/DX2                !
 ! D20   D(2,3,4,19)            51.4396         estimate D2E/DX2                !
 ! D21   D(2,3,4,20)           -62.9995         estimate D2E/DX2                !
 ! D22   D(17,3,4,5)            55.6339         estimate D2E/DX2                !
 ! D23   D(17,3,4,19)          -67.3646         estimate D2E/DX2                !
 ! D24   D(17,3,4,20)          178.1963         estimate D2E/DX2                !
 ! D25   D(18,3,4,5)           -63.7865         estimate D2E/DX2                !
 ! D26   D(18,3,4,19)          173.2151         estimate D2E/DX2                !
 ! D27   D(18,3,4,20)           58.776          estimate D2E/DX2                !
 ! D28   D(3,4,5,6)            178.8336         estimate D2E/DX2                !
 ! D29   D(3,4,5,7)             58.303          estimate D2E/DX2                !
 ! D30   D(3,4,5,10)           -60.5845         estimate D2E/DX2                !
 ! D31   D(19,4,5,6)           -59.1073         estimate D2E/DX2                !
 ! D32   D(19,4,5,7)          -179.6379         estimate D2E/DX2                !
 ! D33   D(19,4,5,10)           61.4746         estimate D2E/DX2                !
 ! D34   D(20,4,5,6)            57.0884         estimate D2E/DX2                !
 ! D35   D(20,4,5,7)           -63.4422         estimate D2E/DX2                !
 ! D36   D(20,4,5,10)          177.6703         estimate D2E/DX2                !
 ! D37   D(4,5,6,21)           -60.5358         estimate D2E/DX2                !
 ! D38   D(4,5,6,22)            59.9201         estimate D2E/DX2                !
 ! D39   D(4,5,6,23)           179.6996         estimate D2E/DX2                !
 ! D40   D(7,5,6,21)            60.5546         estimate D2E/DX2                !
 ! D41   D(7,5,6,22)          -178.9895         estimate D2E/DX2                !
 ! D42   D(7,5,6,23)           -59.21           estimate D2E/DX2                !
 ! D43   D(10,5,6,21)          178.2776         estimate D2E/DX2                !
 ! D44   D(10,5,6,22)          -61.2665         estimate D2E/DX2                !
 ! D45   D(10,5,6,23)           58.513          estimate D2E/DX2                !
 ! D46   D(4,5,7,8)           -101.1188         estimate D2E/DX2                !
 ! D47   D(4,5,7,24)            21.3859         estimate D2E/DX2                !
 ! D48   D(4,5,7,25)           139.5872         estimate D2E/DX2                !
 ! D49   D(6,5,7,8)            140.5876         estimate D2E/DX2                !
 ! D50   D(6,5,7,24)           -96.9078         estimate D2E/DX2                !
 ! D51   D(6,5,7,25)            21.2936         estimate D2E/DX2                !
 ! D52   D(10,5,7,8)            20.562          estimate D2E/DX2                !
 ! D53   D(10,5,7,24)          143.0666         estimate D2E/DX2                !
 ! D54   D(10,5,7,25)          -98.732          estimate D2E/DX2                !
 ! D55   D(4,5,10,9)           102.6761         estimate D2E/DX2                !
 ! D56   D(4,5,10,30)          -19.7245         estimate D2E/DX2                !
 ! D57   D(4,5,10,31)         -137.8828         estimate D2E/DX2                !
 ! D58   D(6,5,10,9)          -138.978          estimate D2E/DX2                !
 ! D59   D(6,5,10,30)           98.6214         estimate D2E/DX2                !
 ! D60   D(6,5,10,31)          -19.5369         estimate D2E/DX2                !
 ! D61   D(7,5,10,9)           -18.9561         estimate D2E/DX2                !
 ! D62   D(7,5,10,30)         -141.3567         estimate D2E/DX2                !
 ! D63   D(7,5,10,31)          100.485          estimate D2E/DX2                !
 ! D64   D(5,6,23,11)            0.6695         estimate D2E/DX2                !
 ! D65   D(21,6,23,11)        -121.3044         estimate D2E/DX2                !
 ! D66   D(22,6,23,11)         122.6254         estimate D2E/DX2                !
 ! D67   D(5,7,8,9)            -14.2298         estimate D2E/DX2                !
 ! D68   D(5,7,8,26)           105.2964         estimate D2E/DX2                !
 ! D69   D(5,7,8,27)          -134.8114         estimate D2E/DX2                !
 ! D70   D(24,7,8,9)          -137.9324         estimate D2E/DX2                !
 ! D71   D(24,7,8,26)          -18.4062         estimate D2E/DX2                !
 ! D72   D(24,7,8,27)          101.486          estimate D2E/DX2                !
 ! D73   D(25,7,8,9)           107.262          estimate D2E/DX2                !
 ! D74   D(25,7,8,26)         -133.2118         estimate D2E/DX2                !
 ! D75   D(25,7,8,27)          -13.3196         estimate D2E/DX2                !
 ! D76   D(5,7,25,11)           64.6624         estimate D2E/DX2                !
 ! D77   D(8,7,25,11)          -54.5065         estimate D2E/DX2                !
 ! D78   D(24,7,25,11)        -172.8154         estimate D2E/DX2                !
 ! D79   D(7,8,9,10)             2.4946         estimate D2E/DX2                !
 ! D80   D(7,8,9,28)          -117.87           estimate D2E/DX2                !
 ! D81   D(7,8,9,29)           122.6719         estimate D2E/DX2                !
 ! D82   D(26,8,9,10)         -117.2303         estimate D2E/DX2                !
 ! D83   D(26,8,9,28)          122.4051         estimate D2E/DX2                !
 ! D84   D(26,8,9,29)            2.947          estimate D2E/DX2                !
 ! D85   D(27,8,9,10)          123.0298         estimate D2E/DX2                !
 ! D86   D(27,8,9,28)            2.6651         estimate D2E/DX2                !
 ! D87   D(27,8,9,29)         -116.7929         estimate D2E/DX2                !
 ! D88   D(8,9,10,5)            10.0715         estimate D2E/DX2                !
 ! D89   D(8,9,10,30)          133.7176         estimate D2E/DX2                !
 ! D90   D(8,9,10,31)         -111.6006         estimate D2E/DX2                !
 ! D91   D(28,9,10,5)          130.4467         estimate D2E/DX2                !
 ! D92   D(28,9,10,30)        -105.9072         estimate D2E/DX2                !
 ! D93   D(28,9,10,31)           8.7747         estimate D2E/DX2                !
 ! D94   D(29,9,10,5)         -109.8819         estimate D2E/DX2                !
 ! D95   D(29,9,10,30)          13.7641         estimate D2E/DX2                !
 ! D96   D(29,9,10,31)         128.446          estimate D2E/DX2                !
 ! D97   D(5,10,31,11)         -65.8647         estimate D2E/DX2                !
 ! D98   D(9,10,31,11)          53.5417         estimate D2E/DX2                !
 ! D99   D(30,10,31,11)        171.6684         estimate D2E/DX2                !
 ! D100  D(25,11,23,6)          47.9728         estimate D2E/DX2                !
 ! D101  D(31,11,23,6)         -49.4327         estimate D2E/DX2                !
 ! D102  D(23,11,25,7)         -83.4022         estimate D2E/DX2                !
 ! D103  D(31,11,25,7)         -29.0645         estimate D2E/DX2                !
 ! D104  D(23,11,31,10)         84.1706         estimate D2E/DX2                !
 ! D105  D(25,11,31,10)         29.3923         estimate D2E/DX2                !
 --------------------------------------------------------------------------------
 Trust Radius=3.00D-01 FncErr=1.00D-07 GrdErr=1.00D-06 EigMax=2.50D+02 EigMin=1.00D-04
 Number of steps in this run=    186 maximum allowed number of steps=    186.
 GradGradGradGradGradGradGradGradGradGradGradGradGradGradGradGradGradGrad

 Leave Link  103 at Sat Aug 21 09:31:10 2021, MaxMem=   104857600 cpu:               0.4 elap:               0.0
 (Enter /sw/arch/RedHatEnterpriseServer7/EB_production/2020/software/Gaussian/g16.c01/l202.exe)
                          Input orientation:                          
 ---------------------------------------------------------------------
 Center     Atomic      Atomic             Coordinates (Angstroms)
 Number     Number       Type             X           Y           Z
 ---------------------------------------------------------------------
      1          6           0        0.746359   -1.441547    2.422902
      2          6           0        0.481493   -1.647907    0.931463
      3          6           0       -0.514360   -0.628767    0.353631
      4          6           0        0.088939    0.796323    0.259068
      5          7           0       -0.774195    1.823851   -0.415420
      6          6           0       -0.024431    3.106141   -0.370977
      7          6           0       -2.081934    1.964366    0.271495
      8          6           0       -3.125295    1.194291   -0.530669
      9          6           0       -2.493829    0.897877   -1.879798
     10          6           0       -1.069992    1.444612   -1.820193
     11         17           0       -2.924430    4.281604   -2.067455
     12          1           0        1.307798   -0.500729    2.597313
     13          1           0       -0.209170   -1.414272    2.988547
     14          1           0        1.359634   -2.283424    2.807734
     15          1           0        1.441747   -1.606325    0.372928
     16          1           0        0.059143   -2.667046    0.793341
     17          1           0       -0.792546   -0.990680   -0.655429
     18          1           0       -1.428116   -0.630198    0.982429
     19          1           0        1.064316    0.718935   -0.275073
     20          1           0        0.323500    1.134840    1.293177
     21          1           0        0.174835    3.414184    0.680076
     22          1           0        0.950703    3.014675   -0.900168
     23          1           0       -0.580383    3.932834   -0.852580
     24          1           0       -2.052606    1.603549    1.324321
     25          1           0       -2.404079    3.027249    0.336733
     26          1           0       -3.389846    0.246123   -0.014977
     27          1           0       -4.053446    1.794834   -0.650860
     28          1           0       -3.067753    1.384997   -2.698035
     29          1           0       -2.486574   -0.196910   -2.071044
     30          1           0       -0.348848    0.696847   -2.220863
     31          1           0       -0.999267    2.315123   -2.510019
 ---------------------------------------------------------------------
                    Distance matrix (angstroms):
                    1          2          3          4          5
     1  C    0.000000
     2  C    1.528767   0.000000
     3  C    2.555759   1.537615   0.000000
     4  C    3.181578   2.565243   1.550417   0.000000
     5  N    4.585955   3.929879   2.583464   1.501915   0.000000
     6  C    5.392712   4.955127   3.835965   2.396887   1.486065
     7  C    4.922198   4.478307   3.031233   2.465191   1.483839
     8  C    5.537231   4.819216   3.304922   3.333671   2.436657
     9  C    5.872389   4.820451   3.352185   3.354959   2.441101
    10  C    5.443611   4.420678   3.055019   2.467129   1.484825
    11  Cl   8.148157   7.466788   5.981792   5.161423   3.659683
    12  H    1.109401   2.184915   2.893227   2.938597   4.337618
    13  H    1.110736   2.182475   2.766395   3.525004   4.731985
    14  H    1.110387   2.166889   3.503194   4.194664   5.640182
    15  H    2.170970   1.111656   2.186858   2.759669   4.159086
    16  H    2.151647   1.111801   2.162598   3.504463   4.724797
    17  H    3.470970   2.138539   1.107506   2.192419   2.824805
    18  H    2.731591   2.164471   1.109206   2.204466   2.898957
    19  H    3.471001   2.719807   2.168822   1.114745   2.149572
    20  H    2.844795   2.810601   2.166810   1.113101   2.144522
    21  H    5.190588   5.077598   4.114245   2.652889   2.151727
    22  H    5.562595   5.031372   4.122268   2.647178   2.151352
    23  H    6.432185   5.954415   4.718846   3.394327   2.162517
    24  H    4.279450   4.141010   2.879527   2.524399   2.170154
    25  H    5.852136   5.526058   4.115553   3.346371   2.161116
    26  H    5.089172   4.412524   3.028155   3.532671   3.080781
    27  H    6.554411   5.909474   4.405448   4.357103   3.287820
    28  H    6.982893   5.913452   4.459566   4.365283   3.265476
    29  H    5.674198   4.464287   3.155183   3.612368   3.123589
    30  H    5.228457   4.015532   2.900460   2.520240   2.170411
    31  H    6.441544   5.453628   4.135470   3.340477   2.163181
                    6          7          8          9         10
     6  C    0.000000
     7  C    2.439209   0.000000
     8  C    3.646372   1.524823   0.000000
     9  C    3.640178   2.436210   1.518802   0.000000
    10  C    2.440103   2.381035   2.439222   1.526363   0.000000
    11  Cl   3.559459   3.398541   3.454498   3.416173   3.398323
    12  H    4.857478   4.793371   5.684160   6.037631   5.380762
    13  H    5.635128   4.722797   5.262439   5.853758   5.660231
    14  H    6.408373   6.026659   6.584377   6.851482   6.420206
    15  H    4.991033   5.017614   5.433030   5.180209   4.519605
    16  H    5.890018   5.128987   5.177217   5.135369   5.001124
    17  H    4.177901   3.354699   3.198653   2.821363   2.713724
    18  H    4.214531   2.768514   2.915243   3.415128   3.505393
    19  H    2.625513   3.427641   4.224232   3.907372   2.732997
    20  H    2.603170   2.741908   3.901812   4.249855   3.425033
    21  H    1.113243   2.713285   4.157486   4.472865   3.417624
    22  H    1.113236   3.416552   4.479295   4.159965   2.719329
    23  H    1.106547   2.719019   3.752309   3.731945   2.714266
    24  H    3.040610   1.113325   2.181546   3.310442   3.298296
    25  H    2.483909   1.112544   2.152272   3.074946   2.989458
    26  H    4.430853   2.178316   1.111282   2.169144   3.174414
    27  H    4.246272   2.183195   1.112008   2.178813   3.223506
    28  H    4.199922   3.182077   2.176501   1.111839   2.182936
    29  H    4.456739   3.212839   2.171672   1.111389   2.182711
    30  H    3.054836   3.289687   3.288292   2.181211   1.113435
    31  H    2.480225   3.005332   3.113533   2.153945   1.112947
                   11         12         13         14         15
    11  Cl   0.000000
    12  H    7.908383   0.000000
    13  H    8.085716   1.813510   0.000000
    14  H    9.231482   1.795819   1.802572   0.000000
    15  H    7.725715   2.487604   3.099012   2.528534   0.000000
    16  H    8.085147   3.083242   2.541725   2.428214   1.792615
    17  H    5.859669   3.902797   3.714609   4.277448   2.535469
    18  H    5.972148   3.179597   2.474896   3.719737   3.091994
    19  H    5.640509   3.130090   4.101653   4.313360   2.443193
    20  H    5.634272   2.311861   3.107409   3.879689   3.100213
    21  H    4.231641   4.503992   5.365677   6.196242   5.186995
    22  H    4.240793   4.971716   6.006911   6.479631   4.818251
    23  H    2.663103   5.926506   6.594209   7.470169   6.022720
    24  H    4.408651   4.164230   3.908343   5.380749   4.839312
    25  H    2.761212   5.597757   5.619328   6.962372   6.021768
    26  H    4.551306   5.426758   4.679185   6.076501   5.189058
    27  H    3.076596   6.675565   6.190485   7.608909   6.543177
    28  H    2.967913   7.123350   6.953029   7.960688   6.222091
    29  H    4.499869   6.023547   5.680493   6.553574   4.836440
    30  H    4.416745   5.233879   5.622658   6.089968   3.903663
    31  H    2.787322   6.271875   6.690805   7.415494   5.444969
                   16         17         18         19         20
    16  H    0.000000
    17  H    2.373713   0.000000
    18  H    2.529119   1.793453   0.000000
    19  H    3.690088   2.552526   3.100595   0.000000
    20  H    3.843704   3.091999   2.506009   1.783590   0.000000
    21  H    6.083385   4.703427   4.360951   2.994637   2.365038
    22  H    5.995399   4.375121   4.742157   2.382031   2.955998
    23  H    6.832018   4.932025   4.990708   3.656186   3.640062
    24  H    4.793684   3.498169   2.344462   3.613282   2.422094
    25  H    6.221009   4.441304   3.840097   4.210984   3.454806
    26  H    4.586443   2.947173   2.368785   4.486732   4.036090
    27  H    6.237586   4.288657   3.929475   5.243116   4.834514
    28  H    6.195663   3.872034   4.505023   4.836153   5.243372
    29  H    4.559271   2.346011   3.260639   4.083271   4.581272
    30  H    4.535158   2.344184   3.631384   2.404916   3.604493
    31  H    6.070785   3.796126   4.588684   3.435284   4.196079
                   21         22         23         24         25
    21  H    0.000000
    22  H    1.805201   0.000000
    23  H    1.785605   1.785919   0.000000
    24  H    2.941929   3.994933   3.511682   0.000000
    25  H    2.630285   3.575562   2.358054   1.767989   0.000000
    26  H    4.819405   5.223869   4.710255   2.329063   2.971548
    27  H    4.719327   5.156712   4.083369   2.818030   2.283549
    28  H    5.103294   4.694269   4.010510   4.154231   3.513868
    29  H    5.262296   4.847690   4.708822   3.867620   4.024847
    30  H    4.009191   2.967389   3.520997   4.036487   4.024431
    31  H    3.572556   2.623619   2.353626   4.039557   3.253401
                   26         27         28         29         30
    26  H    0.000000
    27  H    1.800894   0.000000
    28  H    2.932504   2.308784   0.000000
    29  H    2.289015   2.905005   1.798143   0.000000
    30  H    3.783749   4.170675   2.844941   2.321878   0.000000
    31  H    4.027513   3.613196   2.275768   2.952133   1.767901
                   31
    31  H    0.000000
 Stoichiometry    C9H20ClN
 Framework group  C1[X(C9H20ClN)]
 Deg. of freedom    87
 Full point group                 C1      NOp   1
 Largest Abelian subgroup         C1      NOp   1
 Largest concise Abelian subgroup C1      NOp   1
                         Standard orientation:                         
 ---------------------------------------------------------------------
 Center     Atomic      Atomic             Coordinates (Angstroms)
 Number     Number       Type             X           Y           Z
 ---------------------------------------------------------------------
      1          6           0       -4.356115    0.358636   -0.688424
      2          6           0       -3.644591   -0.365099    0.454848
      3          6           0       -2.145457   -0.578167    0.187531
      4          6           0       -1.341355    0.745881    0.251630
      5          7           0        0.149250    0.607315    0.130615
      6          6           0        0.711329    1.981793    0.187767
      7          6           0        0.527658   -0.054555   -1.142379
      8          6           0        0.852777   -1.513541   -0.841145
      9          6           0        1.006265   -1.614696    0.666492
     10          6           0        0.706150   -0.226539    1.225720
     11         17           0        3.774124    0.204057   -0.170962
     12          1           0       -4.019186    1.413354   -0.757850
     13          1           0       -4.166235   -0.156357   -1.654065
     14          1           0       -5.450216    0.359746   -0.498948
     15          1           0       -3.789900    0.199508    1.401358
     16          1           0       -4.122156   -1.360801    0.583733
     17          1           0       -1.779901   -1.281822    0.960713
     18          1           0       -2.027446   -1.064718   -0.802257
     19          1           0       -1.592774    1.251317    1.212869
     20          1           0       -1.715863    1.409956   -0.559383
     21          1           0        0.322786    2.605521   -0.648478
     22          1           0        0.447290    2.479325    1.147997
     23          1           0        1.815219    1.985957    0.111240
     24          1           0       -0.270499    0.017402   -1.915206
     25          1           0        1.423623    0.416232   -1.604287
     26          1           0        0.029433   -2.174647   -1.187542
     27          1           0        1.787848   -1.824421   -1.356469
     28          1           0        2.036992   -1.932499    0.936287
     29          1           0        0.297510   -2.365541    1.077692
     30          1           0        0.018546   -0.298831    2.098481
     31          1           0        1.650099    0.198867    1.633935
 ---------------------------------------------------------------------
 Rotational constants (GHZ):           1.9393019           0.4182752           0.3910946
 Leave Link  202 at Sat Aug 21 09:31:11 2021, MaxMem=   104857600 cpu:               0.5 elap:               0.0
 (Enter /sw/arch/RedHatEnterpriseServer7/EB_production/2020/software/Gaussian/g16.c01/l301.exe)
 Standard basis: TZVP (5D, 7F)
 Ernie: Thresh=  0.10000D-02 Tol=  0.10000D-05 Strict=F.
 There are   343 symmetry adapted cartesian basis functions of A   symmetry.
 There are   332 symmetry adapted basis functions of A   symmetry.
   332 basis functions,   557 primitive gaussians,   343 cartesian basis functions
    49 alpha electrons       49 beta electrons
       nuclear repulsion energy       774.1409091676 Hartrees.
 IExCor=  404 DFT=T Ex=B Corr=P86 ExCW=0 ScaHFX=  0.000000
 ScaDFX=  1.000000  1.000000  1.000000  1.000000 ScalE2=  1.000000  1.000000
 IRadAn=      5 IRanWt=     -1 IRanGd=            0 ICorTp=0 IEmpDi=131
 NAtoms=   31 NActive=   31 NUniq=   31 SFac= 1.00D+00 NAtFMM=   60 NAOKFM=F Big=F
 Integral buffers will be    131072 words long.
 Raffenetti 2 integral format.
 Two-electron integral symmetry is turned on.
 R6Disp:  Grimme-D3 Dispersion energy=       -0.0410989622 Hartrees.
 Nuclear repulsion after empirical dispersion term =      774.0998102054 Hartrees.
 ------------------------------------------------------------------------------
 Polarizable Continuum Model (PCM)
 =================================
 Model                : PCM.
 Atomic radii         : UFF (Universal Force Field).
 Polarization charges : Total charges.
 Charge compensation  : None.
 Solution method      : On-the-fly selection.
 Cavity type          : Scaled VdW (van der Waals Surface) (Alpha=1.100).
 Cavity algorithm     : GePol (No added spheres)
                        Default sphere list used, NSphG=   31.
                        Lebedev-Laikov grids with approx.  5.0 points / Ang**2.
                        Smoothing algorithm: York/Karplus (Gamma=1.0000).
                        Polarization charges: spherical gaussians, with
                                              point-specific exponents (IZeta= 3).
                        Self-potential: point-specific (ISelfS= 7).
                        Self-field    : sphere-specific E.n sum rule (ISelfD= 2).
 1st derivatives      : Analytical E(r).r(x)/FMM algorithm (CHGder, D1EAlg=3).
                        Cavity 1st derivative terms included.
 Solvent              : Water, Eps=  78.355300 Eps(inf)=   1.777849
 ------------------------------------------------------------------------------
 GePol: Number of generator spheres                  =      31
 GePol: Total number of spheres                      =      31
 GePol: Number of exposed spheres                    =      30 ( 96.77%)
 GePol: Number of points                             =    1932
 GePol: Average weight of points                     =       0.14
 GePol: Minimum weight of points                     =   0.62D-10
 GePol: Maximum weight of points                     =    0.21616
 GePol: Number of points with low weight             =     143
 GePol: Fraction of low-weight points (<1% of avg)   =       7.40%
 GePol: Cavity surface area                          =    268.068 Ang**2
 GePol: Cavity volume                                =    290.763 Ang**3
 Leave Link  301 at Sat Aug 21 09:31:11 2021, MaxMem=   104857600 cpu:               1.5 elap:               0.1
 (Enter /sw/arch/RedHatEnterpriseServer7/EB_production/2020/software/Gaussian/g16.c01/l302.exe)
 NPDir=0 NMtPBC=     1 NCelOv=     1 NCel=       1 NClECP=     1 NCelD=      1
         NCelK=      1 NCelE2=     1 NClLst=     1 CellRange=     0.0.
 One-electron integrals computed using PRISM.
 One-electron integral symmetry used in STVInt
 NBasis=   332 RedAO= T EigKep=  7.82D-05  NBF=   332
 NBsUse=   332 1.00D-06 EigRej= -1.00D+00 NBFU=   332
 Precomputing XC quadrature grid using
 IXCGrd= 4 IRadAn=           5 IRanWt=          -1 IRanGd=           0 AccXCQ= 0.00D+00.
 Generated NRdTot=       0 NPtTot=           0 NUsed=           0 NTot=          32
 NSgBfM=   338   337   338   338   338 MxSgAt=    31 MxSgA2=    31.
 Leave Link  302 at Sat Aug 21 09:31:12 2021, MaxMem=   104857600 cpu:               8.6 elap:               0.4
 (Enter /sw/arch/RedHatEnterpriseServer7/EB_production/2020/software/Gaussian/g16.c01/l303.exe)
 DipDrv:  MaxL=1.
 Leave Link  303 at Sat Aug 21 09:31:12 2021, MaxMem=   104857600 cpu:               1.3 elap:               0.1
 (Enter /sw/arch/RedHatEnterpriseServer7/EB_production/2020/software/Gaussian/g16.c01/l401.exe)
 ExpMin= 9.52D-02 ExpMax= 6.95D+04 ExpMxC= 2.37D+03 IAcc=3 IRadAn=         5 AccDes= 0.00D+00
 Harris functional with IExCor=  404 and IRadAn=       5 diagonalized for initial guess.
 HarFok:  IExCor=  404 AccDes= 0.00D+00 IRadAn=         5 IDoV= 1 UseB2=F ITyADJ=14
 ICtDFT=  3500011 ScaDFX=  1.000000  1.000000  1.000000  1.000000
 FoFCou: FMM=F IPFlag=           0 FMFlag=      100000 FMFlg1=           0
         NFxFlg=           0 DoJE=T BraDBF=F KetDBF=T FulRan=T
         wScrn=  0.000000 ICntrl=       500 IOpCl=  0 I1Cent=   200000004 NGrid=           0
         NMat0=    1 NMatS0=      1 NMatT0=    0 NMatD0=    1 NMtDS0=    0 NMtDT0=    0
 Petite list used in FoFCou.
 Harris En= -870.331594026319    
 JPrj=0 DoOrth=F DoCkMO=F.
 Leave Link  401 at Sat Aug 21 09:31:13 2021, MaxMem=   104857600 cpu:              20.8 elap:               0.9
 (Enter /sw/arch/RedHatEnterpriseServer7/EB_production/2020/software/Gaussian/g16.c01/l502.exe)
 Integral symmetry usage will be decided dynamically.
 Closed shell SCF:
 Using DIIS extrapolation, IDIIS=  1040.
 NGot=   104857600 LenX=   104609660 LenY=   104491570
 Requested convergence on RMS density matrix=1.00D-08 within 128 cycles.
 Requested convergence on MAX density matrix=1.00D-06.
 Requested convergence on             energy=1.00D-06.
 No special actions if energy rises.
 Fock matrices will be formed incrementally for  20 cycles.

 Cycle   1  Pass 1  IDiag  1:
 FoFJK:  IHMeth= 1 ICntrl=     500 DoSepK=F KAlg= 0 I1Cent=           0 FoldK=F
 IRaf= 910000000 NMat=       1 IRICut=       1 DoRegI=T DoRafI=F ISym2E= 0 IDoP0=0 IntGTp=1.
 FoFCou: FMM=F IPFlag=           0 FMFlag=      100000 FMFlg1=           0
         NFxFlg=           0 DoJE=T BraDBF=F KetDBF=F FulRan=T
         wScrn=  0.000000 ICntrl=       500 IOpCl=  0 I1Cent=           0 NGrid=           0
         NMat0=    1 NMatS0=      1 NMatT0=    0 NMatD0=    1 NMtDS0=    0 NMtDT0=    0
 Symmetry not used in FoFCou.
 Inv3:  Mode=1 IEnd=    11197872.
 Iteration    1 A*A^-1 deviation from unit magnitude is 3.22D-15 for    369.
 Iteration    1 A*A^-1 deviation from orthogonality  is 1.89D-15 for   1606   1344.
 Iteration    1 A^-1*A deviation from unit magnitude is 3.11D-15 for   1263.
 Iteration    1 A^-1*A deviation from orthogonality  is 1.77D-15 for   1574    238.
 E= -869.864779180662    
 DIIS: error= 2.90D-02 at cycle   1 NSaved=   1.
 NSaved= 1 IEnMin= 1 EnMin= -869.864779180662     IErMin= 1 ErrMin= 2.90D-02
 ErrMax= 2.90D-02  0.00D+00 EMaxC= 1.00D-01 BMatC= 3.10D-01 BMatP= 3.10D-01
 IDIUse=3 WtCom= 7.10D-01 WtEn= 2.90D-01
 Coeff-Com:  0.100D+01
 Coeff-En:   0.100D+01
 Coeff:      0.100D+01
 Gap=     0.190 Goal=   None    Shift=    0.000
 GapD=    0.190 DampG=1.000 DampE=0.500 DampFc=0.5000 IDamp=-1.
 Damping current iteration by 5.00D-01
 RMSDP=4.83D-03 MaxDP=2.50D-01              OVMax= 1.99D-01

 Cycle   2  Pass 1  IDiag  1:
 RMSU=  2.41D-03    CP:  9.90D-01
 E= -869.949725250476     Delta-E=       -0.084946069814 Rises=F Damp=T
 DIIS: error= 9.43D-03 at cycle   2 NSaved=   2.
 NSaved= 2 IEnMin= 2 EnMin= -869.949725250476     IErMin= 2 ErrMin= 9.43D-03
 ErrMax= 9.43D-03  0.00D+00 EMaxC= 1.00D-01 BMatC= 4.43D-02 BMatP= 3.10D-01
 IDIUse=3 WtCom= 9.06D-01 WtEn= 9.43D-02
 Coeff-Com:  0.221D+00 0.779D+00
 Coeff-En:   0.354D+00 0.646D+00
 Coeff:      0.234D+00 0.766D+00
 Gap=     0.201 Goal=   None    Shift=    0.000
 RMSDP=9.98D-04 MaxDP=3.66D-02 DE=-8.49D-02 OVMax= 1.26D-01

 Cycle   3  Pass 1  IDiag  1:
 RMSU=  8.87D-04    CP:  9.95D-01  8.12D-01
 E= -870.165793772961     Delta-E=       -0.216068522485 Rises=F Damp=F
 DIIS: error= 4.33D-03 at cycle   3 NSaved=   3.
 NSaved= 3 IEnMin= 3 EnMin= -870.165793772961     IErMin= 3 ErrMin= 4.33D-03
 ErrMax= 4.33D-03  0.00D+00 EMaxC= 1.00D-01 BMatC= 8.21D-03 BMatP= 4.43D-02
 IDIUse=3 WtCom= 9.57D-01 WtEn= 4.33D-02
 Coeff-Com:  0.541D-01 0.293D+00 0.652D+00
 Coeff-En:   0.000D+00 0.000D+00 0.100D+01
 Coeff:      0.518D-01 0.281D+00 0.667D+00
 Gap=     0.207 Goal=   None    Shift=    0.000
 RMSDP=4.23D-04 MaxDP=1.52D-02 DE=-2.16D-01 OVMax= 1.86D-02

 Cycle   4  Pass 1  IDiag  1:
 RMSU=  3.49D-04    CP:  9.98D-01  7.82D-01  7.44D-01
 E= -870.169176990581     Delta-E=       -0.003383217620 Rises=F Damp=F
 DIIS: error= 3.15D-03 at cycle   4 NSaved=   4.
 NSaved= 4 IEnMin= 4 EnMin= -870.169176990581     IErMin= 4 ErrMin= 3.15D-03
 ErrMax= 3.15D-03  0.00D+00 EMaxC= 1.00D-01 BMatC= 4.04D-03 BMatP= 8.21D-03
 IDIUse=3 WtCom= 9.68D-01 WtEn= 3.15D-02
 Coeff-Com:  0.136D-01 0.968D-01 0.420D+00 0.470D+00
 Coeff-En:   0.000D+00 0.000D+00 0.352D+00 0.648D+00
 Coeff:      0.132D-01 0.937D-01 0.417D+00 0.476D+00
 Gap=     0.204 Goal=   None    Shift=    0.000
 RMSDP=2.48D-04 MaxDP=8.88D-03 DE=-3.38D-03 OVMax= 1.03D-02

 Cycle   5  Pass 1  IDiag  1:
 RMSU=  1.61D-04    CP:  9.95D-01  7.89D-01  7.52D-01  4.75D-01
 E= -870.172522477939     Delta-E=       -0.003345487358 Rises=F Damp=F
 DIIS: error= 6.04D-04 at cycle   5 NSaved=   5.
 NSaved= 5 IEnMin= 5 EnMin= -870.172522477939     IErMin= 5 ErrMin= 6.04D-04
 ErrMax= 6.04D-04  0.00D+00 EMaxC= 1.00D-01 BMatC= 2.11D-04 BMatP= 4.04D-03
 IDIUse=3 WtCom= 9.94D-01 WtEn= 6.04D-03
 Coeff-Com:  0.336D-02 0.287D-01 0.163D+00 0.258D+00 0.547D+00
 Coeff-En:   0.000D+00 0.000D+00 0.000D+00 0.000D+00 0.100D+01
 Coeff:      0.334D-02 0.285D-01 0.162D+00 0.256D+00 0.549D+00
 Gap=     0.203 Goal=   None    Shift=    0.000
 RMSDP=7.32D-05 MaxDP=2.36D-03 DE=-3.35D-03 OVMax= 2.48D-03

 Cycle   6  Pass 1  IDiag  1:
 RMSU=  3.17D-05    CP:  9.95D-01  7.92D-01  7.86D-01  5.10D-01  6.50D-01
 E= -870.172700577710     Delta-E=       -0.000178099771 Rises=F Damp=F
 DIIS: error= 2.88D-04 at cycle   6 NSaved=   6.
 NSaved= 6 IEnMin= 6 EnMin= -870.172700577710     IErMin= 6 ErrMin= 2.88D-04
 ErrMax= 2.88D-04  0.00D+00 EMaxC= 1.00D-01 BMatC= 1.92D-05 BMatP= 2.11D-04
 IDIUse=3 WtCom= 9.97D-01 WtEn= 2.88D-03
 Coeff-Com:  0.627D-03 0.873D-02 0.648D-01 0.118D+00 0.317D+00 0.491D+00
 Coeff-En:   0.000D+00 0.000D+00 0.000D+00 0.000D+00 0.000D+00 0.100D+01
 Coeff:      0.625D-03 0.870D-02 0.646D-01 0.117D+00 0.316D+00 0.493D+00
 Gap=     0.203 Goal=   None    Shift=    0.000
 RMSDP=1.76D-05 MaxDP=8.34D-04 DE=-1.78D-04 OVMax= 8.31D-04

 Cycle   7  Pass 1  IDiag  1:
 RMSU=  1.02D-05    CP:  9.95D-01  7.90D-01  7.80D-01  5.31D-01  6.64D-01
                    CP:  6.68D-01
 E= -870.172717864504     Delta-E=       -0.000017286794 Rises=F Damp=F
 DIIS: error= 3.02D-05 at cycle   7 NSaved=   7.
 NSaved= 7 IEnMin= 7 EnMin= -870.172717864504     IErMin= 7 ErrMin= 3.02D-05
 ErrMax= 3.02D-05  0.00D+00 EMaxC= 1.00D-01 BMatC= 5.82D-07 BMatP= 1.92D-05
 IDIUse=1 WtCom= 1.00D+00 WtEn= 0.00D+00
 Coeff-Com:  0.288D-04 0.176D-02 0.160D-01 0.312D-01 0.932D-01 0.221D+00
 Coeff-Com:  0.636D+00
 Coeff:      0.288D-04 0.176D-02 0.160D-01 0.312D-01 0.932D-01 0.221D+00
 Coeff:      0.636D+00
 Gap=     0.203 Goal=   None    Shift=    0.000
 RMSDP=3.00D-06 MaxDP=6.47D-05 DE=-1.73D-05 OVMax= 1.31D-04

 Cycle   8  Pass 1  IDiag  1:
 RMSU=  2.46D-06    CP:  9.95D-01  7.90D-01  7.80D-01  5.32D-01  6.66D-01
                    CP:  6.79D-01  8.48D-01
 E= -870.172718381905     Delta-E=       -0.000000517401 Rises=F Damp=F
 DIIS: error= 1.98D-05 at cycle   8 NSaved=   8.
 NSaved= 8 IEnMin= 8 EnMin= -870.172718381905     IErMin= 8 ErrMin= 1.98D-05
 ErrMax= 1.98D-05  0.00D+00 EMaxC= 1.00D-01 BMatC= 5.49D-08 BMatP= 5.82D-07
 IDIUse=1 WtCom= 1.00D+00 WtEn= 0.00D+00
 Coeff-Com: -0.552D-05 0.316D-03 0.336D-02 0.709D-02 0.240D-01 0.798D-01
 Coeff-Com:  0.334D+00 0.552D+00
 Coeff:     -0.552D-05 0.316D-03 0.336D-02 0.709D-02 0.240D-01 0.798D-01
 Coeff:      0.334D+00 0.552D+00
 Gap=     0.203 Goal=   None    Shift=    0.000
 RMSDP=1.40D-06 MaxDP=7.30D-05 DE=-5.17D-07 OVMax= 6.92D-05

 Cycle   9  Pass 1  IDiag  1:
 RMSU=  7.77D-07    CP:  9.95D-01  7.91D-01  7.81D-01  5.30D-01  6.68D-01
                    CP:  6.90D-01  8.30D-01  7.15D-01
 E= -870.172718439505     Delta-E=       -0.000000057600 Rises=F Damp=F
 DIIS: error= 4.67D-06 at cycle   9 NSaved=   9.
 NSaved= 9 IEnMin= 9 EnMin= -870.172718439505     IErMin= 9 ErrMin= 4.67D-06
 ErrMax= 4.67D-06  0.00D+00 EMaxC= 1.00D-01 BMatC= 3.46D-09 BMatP= 5.49D-08
 IDIUse=1 WtCom= 1.00D+00 WtEn= 0.00D+00
 Coeff-Com: -0.607D-05-0.234D-05 0.308D-03 0.830D-03 0.347D-02 0.162D-01
 Coeff-Com:  0.926D-01 0.260D+00 0.627D+00
 Coeff:     -0.607D-05-0.234D-05 0.308D-03 0.830D-03 0.347D-02 0.162D-01
 Coeff:      0.926D-01 0.260D+00 0.627D+00
 Gap=     0.203 Goal=   None    Shift=    0.000
 RMSDP=4.10D-07 MaxDP=1.95D-05 DE=-5.76D-08 OVMax= 1.09D-05

 Cycle  10  Pass 1  IDiag  1:
 RMSU=  1.46D-07    CP:  9.95D-01  7.91D-01  7.81D-01  5.30D-01  6.67D-01
                    CP:  6.93D-01  8.45D-01  7.15D-01  7.01D-01
 E= -870.172718440330     Delta-E=       -0.000000000825 Rises=F Damp=F
 DIIS: error= 8.56D-07 at cycle  10 NSaved=  10.
 NSaved=10 IEnMin=10 EnMin= -870.172718440330     IErMin=10 ErrMin= 8.56D-07
 ErrMax= 8.56D-07  0.00D+00 EMaxC= 1.00D-01 BMatC= 1.32D-10 BMatP= 3.46D-09
 IDIUse=1 WtCom= 1.00D+00 WtEn= 0.00D+00
 Coeff-Com: -0.179D-05-0.105D-04 0.389D-05 0.773D-04 0.422D-03 0.235D-02
 Coeff-Com:  0.198D-01 0.790D-01 0.236D+00 0.662D+00
 Coeff:     -0.179D-05-0.105D-04 0.389D-05 0.773D-04 0.422D-03 0.235D-02
 Coeff:      0.198D-01 0.790D-01 0.236D+00 0.662D+00
 Gap=     0.203 Goal=   None    Shift=    0.000
 RMSDP=8.15D-08 MaxDP=3.37D-06 DE=-8.25D-10 OVMax= 3.87D-06

 Cycle  11  Pass 1  IDiag  1:
 RMSU=  3.91D-08    CP:  9.95D-01  7.91D-01  7.81D-01  5.31D-01  6.67D-01
                    CP:  6.92D-01  8.47D-01  7.32D-01  7.22D-01  8.46D-01
 E= -870.172718441468     Delta-E=       -0.000000001138 Rises=F Damp=F
 DIIS: error= 3.39D-07 at cycle  11 NSaved=  11.
 NSaved=11 IEnMin=11 EnMin= -870.172718441468     IErMin=11 ErrMin= 3.39D-07
 ErrMax= 3.39D-07  0.00D+00 EMaxC= 1.00D-01 BMatC= 3.71D-11 BMatP= 1.32D-10
 IDIUse=1 WtCom= 1.00D+00 WtEn= 0.00D+00
 Coeff-Com: -0.429D-06-0.765D-05-0.459D-04-0.655D-04-0.161D-03-0.213D-03
 Coeff-Com:  0.362D-02 0.253D-01 0.838D-01 0.387D+00 0.501D+00
 Coeff:     -0.429D-06-0.765D-05-0.459D-04-0.655D-04-0.161D-03-0.213D-03
 Coeff:      0.362D-02 0.253D-01 0.838D-01 0.387D+00 0.501D+00
 Gap=     0.203 Goal=   None    Shift=    0.000
 RMSDP=2.33D-08 MaxDP=1.01D-06 DE=-1.14D-09 OVMax= 1.07D-06

 Cycle  12  Pass 1  IDiag  1:
 RMSU=  1.06D-08    CP:  9.95D-01  7.91D-01  7.81D-01  5.31D-01  6.67D-01
                    CP:  6.92D-01  8.46D-01  7.33D-01  7.31D-01  8.56D-01
                    CP:  6.79D-01
 E= -870.172718440467     Delta-E=        0.000000001001 Rises=F Damp=F
 DIIS: error= 5.87D-08 at cycle  12 NSaved=  12.
 NSaved=12 IEnMin=11 EnMin= -870.172718441468     IErMin=12 ErrMin= 5.87D-08
 ErrMax= 5.87D-08  0.00D+00 EMaxC= 1.00D-01 BMatC= 4.56D-13 BMatP= 3.71D-11
 IDIUse=1 WtCom= 1.00D+00 WtEn= 0.00D+00
 Coeff-Com: -0.187D-06-0.208D-05-0.146D-04-0.232D-04-0.614D-04-0.155D-03
 Coeff-Com:  0.615D-03 0.629D-02 0.215D-01 0.118D+00 0.186D+00 0.667D+00
 Coeff:     -0.187D-06-0.208D-05-0.146D-04-0.232D-04-0.614D-04-0.155D-03
 Coeff:      0.615D-03 0.629D-02 0.215D-01 0.118D+00 0.186D+00 0.667D+00
 Gap=     0.203 Goal=   None    Shift=    0.000
 RMSDP=6.12D-09 MaxDP=3.06D-07 DE= 1.00D-09 OVMax= 1.59D-07

 Cycle  13  Pass 1  IDiag  1:
 RMSU=  2.70D-09    CP:  9.95D-01  7.91D-01  7.81D-01  5.31D-01  6.67D-01
                    CP:  6.92D-01  8.46D-01  7.33D-01  7.30D-01  8.69D-01
                    CP:  6.62D-01  7.22D-01
 E= -870.172718440464     Delta-E=        0.000000000003 Rises=F Damp=F
 DIIS: error= 1.10D-08 at cycle  13 NSaved=  13.
 NSaved=13 IEnMin=11 EnMin= -870.172718441468     IErMin=13 ErrMin= 1.10D-08
 ErrMax= 1.10D-08  0.00D+00 EMaxC= 1.00D-01 BMatC= 5.34D-14 BMatP= 4.56D-13
 IDIUse=1 WtCom= 1.00D+00 WtEn= 0.00D+00
 Coeff-Com: -0.980D-07-0.496D-06-0.407D-05-0.717D-05-0.190D-04-0.584D-04
 Coeff-Com:  0.469D-04 0.118D-02 0.440D-02 0.289D-01 0.506D-01 0.307D+00
 Coeff-Com:  0.608D+00
 Coeff:     -0.980D-07-0.496D-06-0.407D-05-0.717D-05-0.190D-04-0.584D-04
 Coeff:      0.469D-04 0.118D-02 0.440D-02 0.289D-01 0.506D-01 0.307D+00
 Coeff:      0.608D+00
 Gap=     0.203 Goal=   None    Shift=    0.000
 RMSDP=1.12D-09 MaxDP=3.26D-08 DE= 2.84D-12 OVMax= 5.02D-08

 Error on total polarization charges =  0.01830
 SCF Done:  E(RB-P86) =  -870.172718440     A.U. after   13 cycles
            NFock= 13  Conv=0.11D-08     -V/T= 2.0043
 KE= 8.664651046092D+02 PE=-3.590464774428D+03 EE= 1.079727141173D+03
 Leave Link  502 at Sat Aug 21 09:31:47 2021, MaxMem=   104857600 cpu:             789.9 elap:              33.4
 (Enter /sw/arch/RedHatEnterpriseServer7/EB_production/2020/software/Gaussian/g16.c01/l601.exe)
 Copying SCF densities to generalized density rwf, IOpCl= 0 IROHF=0.

 **********************************************************************

            Population analysis using the SCF Density.

 **********************************************************************

 Orbital symmetries:
       Occupied  (A) (A) (A) (A) (A) (A) (A) (A) (A) (A) (A) (A)
                 (A) (A) (A) (A) (A) (A) (A) (A) (A) (A) (A) (A)
                 (A) (A) (A) (A) (A) (A) (A) (A) (A) (A) (A) (A)
                 (A) (A) (A) (A) (A) (A) (A) (A) (A) (A) (A) (A)
                 (A)
       Virtual   (A) (A) (A) (A) (A) (A) (A) (A) (A) (A) (A) (A)
                 (A) (A) (A) (A) (A) (A) (A) (A) (A) (A) (A) (A)
                 (A) (A) (A) (A) (A) (A) (A) (A) (A) (A) (A) (A)
                 (A) (A) (A) (A) (A) (A) (A) (A) (A) (A) (A) (A)
                 (A) (A) (A) (A) (A) (A) (A) (A) (A) (A) (A) (A)
                 (A) (A) (A) (A) (A) (A) (A) (A) (A) (A) (A) (A)
                 (A) (A) (A) (A) (A) (A) (A) (A) (A) (A) (A) (A)
                 (A) (A) (A) (A) (A) (A) (A) (A) (A) (A) (A) (A)
                 (A) (A) (A) (A) (A) (A) (A) (A) (A) (A) (A) (A)
                 (A) (A) (A) (A) (A) (A) (A) (A) (A) (A) (A) (A)
                 (A) (A) (A) (A) (A) (A) (A) (A) (A) (A) (A) (A)
                 (A) (A) (A) (A) (A) (A) (A) (A) (A) (A) (A) (A)
                 (A) (A) (A) (A) (A) (A) (A) (A) (A) (A) (A) (A)
                 (A) (A) (A) (A) (A) (A) (A) (A) (A) (A) (A) (A)
                 (A) (A) (A) (A) (A) (A) (A) (A) (A) (A) (A) (A)
                 (A) (A) (A) (A) (A) (A) (A) (A) (A) (A) (A) (A)
                 (A) (A) (A) (A) (A) (A) (A) (A) (A) (A) (A) (A)
                 (A) (A) (A) (A) (A) (A) (A) (A) (A) (A) (A) (A)
                 (A) (A) (A) (A) (A) (A) (A) (A) (A) (A) (A) (A)
                 (A) (A) (A) (A) (A) (A) (A) (A) (A) (A) (A) (A)
                 (A) (A) (A) (A) (A) (A) (A) (A) (A) (A) (A) (A)
                 (A) (A) (A) (A) (A) (A) (A) (A) (A) (A) (A) (A)
                 (A) (A) (A) (A) (A) (A) (A) (A) (A) (A) (A) (A)
                 (A) (A) (A) (A) (A) (A) (A)
 The electronic state is 1-A.
 Alpha  occ. eigenvalues -- -100.63393 -14.14048  -9.96330  -9.94961  -9.94934
 Alpha  occ. eigenvalues --   -9.94814  -9.91587  -9.90717  -9.90648  -9.90624
 Alpha  occ. eigenvalues --   -9.89246  -9.07261  -6.89085  -6.89084  -6.89055
 Alpha  occ. eigenvalues --   -0.95995  -0.75606  -0.74135  -0.69931  -0.68204
 Alpha  occ. eigenvalues --   -0.64739  -0.62280  -0.60919  -0.55763  -0.55338
 Alpha  occ. eigenvalues --   -0.52701  -0.49521  -0.48449  -0.45070  -0.42596
 Alpha  occ. eigenvalues --   -0.42089  -0.40783  -0.39597  -0.39509  -0.37616
 Alpha  occ. eigenvalues --   -0.36275  -0.35629  -0.35236  -0.33811  -0.32863
 Alpha  occ. eigenvalues --   -0.32398  -0.31874  -0.30570  -0.30434  -0.29558
 Alpha  occ. eigenvalues --   -0.28200  -0.20312  -0.20238  -0.20050
 Alpha virt. eigenvalues --    0.00294   0.01195   0.01916   0.02759   0.03146
 Alpha virt. eigenvalues --    0.04859   0.04953   0.05469   0.06724   0.07055
 Alpha virt. eigenvalues --    0.07502   0.08256   0.08670   0.09047   0.09296
 Alpha virt. eigenvalues --    0.09690   0.09835   0.10538   0.11559   0.12128
 Alpha virt. eigenvalues --    0.12506   0.13187   0.15170   0.15460   0.16625
 Alpha virt. eigenvalues --    0.16745   0.17359   0.18129   0.19183   0.20245
 Alpha virt. eigenvalues --    0.20355   0.21695   0.21826   0.21893   0.23114
 Alpha virt. eigenvalues --    0.24461   0.25164   0.26524   0.26785   0.27345
 Alpha virt. eigenvalues --    0.28672   0.28918   0.31225   0.31618   0.32106
 Alpha virt. eigenvalues --    0.33761   0.33850   0.35023   0.35578   0.36643
 Alpha virt. eigenvalues --    0.36773   0.37682   0.38176   0.38572   0.38920
 Alpha virt. eigenvalues --    0.39202   0.39493   0.40138   0.40546   0.40738
 Alpha virt. eigenvalues --    0.41038   0.41353   0.42074   0.42634   0.42806
 Alpha virt. eigenvalues --    0.43557   0.44069   0.44600   0.44830   0.45251
 Alpha virt. eigenvalues --    0.46171   0.46467   0.46792   0.47373   0.48492
 Alpha virt. eigenvalues --    0.48854   0.49044   0.51124   0.51317   0.52401
 Alpha virt. eigenvalues --    0.54487   0.57343   0.58294   0.59840   0.60596
 Alpha virt. eigenvalues --    0.61560   0.63568   0.66125   0.66568   0.69635
 Alpha virt. eigenvalues --    0.74720   0.76921   0.77225   0.81078   0.85121
 Alpha virt. eigenvalues --    0.85588   0.88578   0.89024   0.93212   0.99408
 Alpha virt. eigenvalues --    1.07744   1.10016   1.16167   1.17727   1.18158
 Alpha virt. eigenvalues --    1.19766   1.20243   1.21266   1.22225   1.22804
 Alpha virt. eigenvalues --    1.23645   1.24693   1.25252   1.26044   1.26333
 Alpha virt. eigenvalues --    1.27099   1.27358   1.27991   1.29186   1.30148
 Alpha virt. eigenvalues --    1.30839   1.31275   1.31951   1.32777   1.34701
 Alpha virt. eigenvalues --    1.35276   1.35720   1.35940   1.37089   1.38181
 Alpha virt. eigenvalues --    1.39378   1.41601   1.41836   1.42589   1.44258
 Alpha virt. eigenvalues --    1.45596   1.46132   1.47137   1.48743   1.49638
 Alpha virt. eigenvalues --    1.52115   1.53589   1.54185   1.56078   1.58408
 Alpha virt. eigenvalues --    1.59253   1.61117   1.62197   1.62346   1.63588
 Alpha virt. eigenvalues --    1.63992   1.65359   1.65860   1.67201   1.67334
 Alpha virt. eigenvalues --    1.68404   1.68990   1.69280   1.70189   1.70999
 Alpha virt. eigenvalues --    1.71316   1.72408   1.72620   1.73246   1.73930
 Alpha virt. eigenvalues --    1.75467   1.76562   1.77060   1.77966   1.78512
 Alpha virt. eigenvalues --    1.79216   1.81789   1.82732   1.84049   1.85253
 Alpha virt. eigenvalues --    1.87845   1.89125   1.90938   1.91125   1.92388
 Alpha virt. eigenvalues --    1.93025   1.96855   1.99144   2.02616   2.03228
 Alpha virt. eigenvalues --    2.03676   2.05466   2.05846   2.09403   2.11864
 Alpha virt. eigenvalues --    2.13438   2.17260   2.20211   2.21195   2.22094
 Alpha virt. eigenvalues --    2.22762   2.23636   2.26235   2.26497   2.27185
 Alpha virt. eigenvalues --    2.27555   2.29487   2.31329   2.32271   2.32753
 Alpha virt. eigenvalues --    2.33349   2.35021   2.35374   2.36443   2.38932
 Alpha virt. eigenvalues --    2.38968   2.40642   2.42483   2.43870   2.44555
 Alpha virt. eigenvalues --    2.46752   2.47406   2.49376   2.50527   2.51671
 Alpha virt. eigenvalues --    2.53288   2.55220   2.55985   2.56600   2.57797
 Alpha virt. eigenvalues --    2.58734   2.60451   2.61188   2.62938   2.63057
 Alpha virt. eigenvalues --    2.64044   2.65738   2.66335   2.70083   2.71477
 Alpha virt. eigenvalues --    2.75615   2.76043   2.77499   2.79638   2.80451
 Alpha virt. eigenvalues --    2.82453   2.87625   2.89878   2.91058   2.97737
 Alpha virt. eigenvalues --    2.98459   2.99993   3.01562   3.05951   3.08096
 Alpha virt. eigenvalues --    3.11118   3.12582   3.16965   3.18979   3.20626
 Alpha virt. eigenvalues --    3.23139   3.23612   3.24985   3.27970   3.28768
 Alpha virt. eigenvalues --    3.29304   3.29440   3.32425   3.34320   3.36002
 Alpha virt. eigenvalues --    3.36570   3.37890   3.39412   3.54146   3.62800
 Alpha virt. eigenvalues --    3.66388   3.67657  21.68265  21.72882  21.77686
 Alpha virt. eigenvalues --   21.82714  21.83923  21.85000  21.88736  21.90209
 Alpha virt. eigenvalues --   21.91840  24.18410  31.73325
          Condensed to atoms (all electrons):
               1          2          3          4          5          6
     1  C    5.109408   0.270802  -0.083825   0.012529  -0.001028   0.000202
     2  C    0.270802   5.125808   0.217454  -0.036952   0.010007  -0.001476
     3  C   -0.083825   0.217454   5.428978   0.066375  -0.032309   0.016227
     4  C    0.012529  -0.036952   0.066375   5.559296   0.201751  -0.102578
     5  N   -0.001028   0.010007  -0.032309   0.201751   6.506907   0.259220
     6  C    0.000202  -0.001476   0.016227  -0.102578   0.259220   5.175606
     7  C   -0.002676  -0.000889   0.019291  -0.073234   0.184811  -0.063840
     8  C    0.000891   0.000298  -0.013211  -0.006212  -0.013853   0.006692
     9  C   -0.000723   0.001223   0.003185  -0.011837  -0.017605   0.001404
    10  C    0.001891  -0.004481  -0.002521  -0.057706   0.189304  -0.053995
    11  Cl  -0.000000   0.000004  -0.000277   0.001732   0.005152  -0.043937
    12  H    0.414511  -0.047110  -0.019600   0.016326  -0.000279   0.000236
    13  H    0.392930  -0.041404   0.005289  -0.008896  -0.000045  -0.000040
    14  H    0.395285  -0.041546   0.014218  -0.000000   0.000006  -0.000006
    15  H   -0.055113   0.429820  -0.040877  -0.016023  -0.000146  -0.000110
    16  H   -0.034877   0.410444  -0.051221   0.015432  -0.000331   0.000060
    17  H    0.012663  -0.030866   0.400207  -0.040122  -0.007138  -0.000553
    18  H   -0.014207  -0.019874   0.417740  -0.058602  -0.007174  -0.000780
    19  H   -0.002732   0.002728  -0.029724   0.406894  -0.021933  -0.008119
    20  H    0.004680  -0.001581  -0.038750   0.414474  -0.018013  -0.006833
    21  H   -0.000020  -0.000042   0.000422  -0.010540  -0.016018   0.389110
    22  H    0.000018  -0.000076   0.000884  -0.009213  -0.015912   0.387729
    23  H   -0.000001   0.000063  -0.000696   0.008733  -0.010485   0.344887
    24  H    0.000510   0.000187  -0.013487   0.008314  -0.030520  -0.000334
    25  H   -0.000022   0.000029   0.001093   0.004813  -0.027825  -0.006729
    26  H   -0.000057   0.000497   0.001267   0.000445  -0.000728   0.000183
    27  H    0.000000   0.000004  -0.000097   0.000603   0.001775   0.000854
    28  H    0.000002  -0.000004  -0.000102   0.000739   0.000794   0.001240
    29  H    0.000035   0.000282   0.000896   0.000592  -0.000260   0.000128
    30  H   -0.000087   0.000820  -0.012504   0.006102  -0.030346  -0.000159
    31  H    0.000013   0.000030   0.001036   0.004985  -0.027943  -0.008438
               7          8          9         10         11         12
     1  C   -0.002676   0.000891  -0.000723   0.001891  -0.000000   0.414511
     2  C   -0.000889   0.000298   0.001223  -0.004481   0.000004  -0.047110
     3  C    0.019291  -0.013211   0.003185  -0.002521  -0.000277  -0.019600
     4  C   -0.073234  -0.006212  -0.011837  -0.057706   0.001732   0.016326
     5  N    0.184811  -0.013853  -0.017605   0.189304   0.005152  -0.000279
     6  C   -0.063840   0.006692   0.001404  -0.053995  -0.043937   0.000236
     7  C    5.753850   0.006578   0.050867  -0.284245  -0.041918   0.000212
     8  C    0.006578   5.530116   0.073659   0.057109  -0.020524  -0.000027
     9  C    0.050867   0.073659   5.584620  -0.005361  -0.039615  -0.000005
    10  C   -0.284245   0.057109  -0.005361   5.743255  -0.032609  -0.000025
    11  Cl  -0.041918  -0.020524  -0.039615  -0.032609  17.832478   0.000000
    12  H    0.000212  -0.000027  -0.000005  -0.000025   0.000000   0.550223
    13  H    0.000479  -0.000289   0.000091  -0.000135   0.000000  -0.028256
    14  H    0.000033  -0.000007   0.000005  -0.000015   0.000000  -0.022930
    15  H    0.000698  -0.000356   0.000490  -0.001615  -0.000000  -0.006283
    16  H    0.000220  -0.000075  -0.000028   0.000041   0.000000   0.007004
    17  H   -0.016388   0.014320  -0.026327   0.041632   0.000011  -0.000269
    18  H    0.036822  -0.025193   0.010737  -0.013722   0.000005   0.000162
    19  H    0.015506  -0.003827   0.006126  -0.029189  -0.000001   0.000425
    20  H   -0.027249   0.005989  -0.003247   0.014729  -0.000013  -0.003258
    21  H   -0.016462   0.003271  -0.002149   0.013143   0.001039   0.000005
    22  H    0.013530  -0.002335   0.003444  -0.017143   0.001027   0.000009
    23  H   -0.016120   0.001939   0.003037  -0.016105   0.052994   0.000000
    24  H    0.385127  -0.040823   0.004847   0.013652   0.001662   0.000012
    25  H    0.371803  -0.050416   0.009842   0.002203   0.044522  -0.000002
    26  H   -0.020835   0.390430  -0.038404   0.000573   0.001581  -0.000005
    27  H   -0.035329   0.382388  -0.043097   0.016077   0.025607   0.000001
    28  H    0.014816  -0.040383   0.371011  -0.030640   0.032350  -0.000000
    29  H    0.002451  -0.039059   0.389756  -0.022802   0.001683   0.000001
    30  H    0.014680   0.002672  -0.038737   0.384083   0.001706   0.000000
    31  H    0.003249   0.009516  -0.049507   0.374622   0.041595   0.000001
              13         14         15         16         17         18
     1  C    0.392930   0.395285  -0.055113  -0.034877   0.012663  -0.014207
     2  C   -0.041404  -0.041546   0.429820   0.410444  -0.030866  -0.019874
     3  C    0.005289   0.014218  -0.040877  -0.051221   0.400207   0.417740
     4  C   -0.008896  -0.000000  -0.016023   0.015432  -0.040122  -0.058602
     5  N   -0.000045   0.000006  -0.000146  -0.000331  -0.007138  -0.007174
     6  C   -0.000040  -0.000006  -0.000110   0.000060  -0.000553  -0.000780
     7  C    0.000479   0.000033   0.000698   0.000220  -0.016388   0.036822
     8  C   -0.000289  -0.000007  -0.000356  -0.000075   0.014320  -0.025193
     9  C    0.000091   0.000005   0.000490  -0.000028  -0.026327   0.010737
    10  C   -0.000135  -0.000015  -0.001615   0.000041   0.041632  -0.013722
    11  Cl   0.000000   0.000000  -0.000000   0.000000   0.000011   0.000005
    12  H   -0.028256  -0.022930  -0.006283   0.007004  -0.000269   0.000162
    13  H    0.560010  -0.022704   0.008200  -0.004474  -0.000096   0.005383
    14  H   -0.022704   0.537437  -0.001306  -0.004423  -0.000463   0.000231
    15  H    0.008200  -0.001306   0.556054  -0.023182  -0.003694   0.007039
    16  H   -0.004474  -0.004423  -0.023182   0.538258  -0.006158  -0.001410
    17  H   -0.000096  -0.000463  -0.003694  -0.006158   0.504689  -0.018402
    18  H    0.005383   0.000231   0.007039  -0.001410  -0.018402   0.510206
    19  H    0.000134   0.000054   0.004182   0.000088  -0.001540   0.003998
    20  H    0.000913  -0.000027   0.000948  -0.000592   0.002839  -0.000978
    21  H    0.000004  -0.000001   0.000004   0.000000   0.000033   0.000021
    22  H   -0.000000  -0.000000   0.000003  -0.000000  -0.000031   0.000013
    23  H   -0.000000   0.000000   0.000000  -0.000001   0.000009  -0.000001
    24  H    0.000043  -0.000006  -0.000040  -0.000020   0.001012  -0.003133
    25  H    0.000010   0.000000   0.000007  -0.000001  -0.000038   0.000215
    26  H    0.000078   0.000000   0.000027  -0.000026  -0.001703   0.003260
    27  H   -0.000001  -0.000000  -0.000000   0.000000   0.000023   0.000132
    28  H    0.000000  -0.000000   0.000001  -0.000002   0.000324  -0.000018
    29  H   -0.000004  -0.000000  -0.000044   0.000005   0.003504  -0.000989
    30  H    0.000007   0.000002   0.000487  -0.000035  -0.003534   0.000922
    31  H   -0.000001  -0.000000  -0.000018   0.000000   0.000266  -0.000040
              19         20         21         22         23         24
     1  C   -0.002732   0.004680  -0.000020   0.000018  -0.000001   0.000510
     2  C    0.002728  -0.001581  -0.000042  -0.000076   0.000063   0.000187
     3  C   -0.029724  -0.038750   0.000422   0.000884  -0.000696  -0.013487
     4  C    0.406894   0.414474  -0.010540  -0.009213   0.008733   0.008314
     5  N   -0.021933  -0.018013  -0.016018  -0.015912  -0.010485  -0.030520
     6  C   -0.008119  -0.006833   0.389110   0.387729   0.344887  -0.000334
     7  C    0.015506  -0.027249  -0.016462   0.013530  -0.016120   0.385127
     8  C   -0.003827   0.005989   0.003271  -0.002335   0.001939  -0.040823
     9  C    0.006126  -0.003247  -0.002149   0.003444   0.003037   0.004847
    10  C   -0.029189   0.014729   0.013143  -0.017143  -0.016105   0.013652
    11  Cl  -0.000001  -0.000013   0.001039   0.001027   0.052994   0.001662
    12  H    0.000425  -0.003258   0.000005   0.000009   0.000000   0.000012
    13  H    0.000134   0.000913   0.000004  -0.000000  -0.000000   0.000043
    14  H    0.000054  -0.000027  -0.000001  -0.000000   0.000000  -0.000006
    15  H    0.004182   0.000948   0.000004   0.000003   0.000000  -0.000040
    16  H    0.000088  -0.000592   0.000000  -0.000000  -0.000001  -0.000020
    17  H   -0.001540   0.002839   0.000033  -0.000031   0.000009   0.001012
    18  H    0.003998  -0.000978   0.000021   0.000013  -0.000001  -0.003133
    19  H    0.470523  -0.017352  -0.000267   0.003470  -0.000044   0.000334
    20  H   -0.017352   0.456079   0.003710  -0.000821   0.000140   0.000526
    21  H   -0.000267   0.003710   0.494083  -0.023930  -0.017500   0.002048
    22  H    0.003470  -0.000821  -0.023930   0.495360  -0.017589  -0.000243
    23  H   -0.000044   0.000140  -0.017500  -0.017589   0.496234   0.000514
    24  H    0.000334   0.000526   0.002048  -0.000243   0.000514   0.466263
    25  H   -0.000235   0.000248  -0.001817   0.001109   0.002197  -0.007481
    26  H    0.000000   0.000016  -0.000094   0.000045  -0.000117  -0.003213
    27  H    0.000028  -0.000039  -0.000021  -0.000005  -0.000862   0.002791
    28  H   -0.000059   0.000033  -0.000014  -0.000033  -0.001015  -0.000266
    29  H   -0.000036   0.000017   0.000041  -0.000077  -0.000114  -0.000255
    30  H    0.000965   0.000393  -0.000266   0.001929   0.000593  -0.000149
    31  H    0.000192  -0.000238   0.001140  -0.001543   0.002196  -0.000332
              25         26         27         28         29         30
     1  C   -0.000022  -0.000057   0.000000   0.000002   0.000035  -0.000087
     2  C    0.000029   0.000497   0.000004  -0.000004   0.000282   0.000820
     3  C    0.001093   0.001267  -0.000097  -0.000102   0.000896  -0.012504
     4  C    0.004813   0.000445   0.000603   0.000739   0.000592   0.006102
     5  N   -0.027825  -0.000728   0.001775   0.000794  -0.000260  -0.030346
     6  C   -0.006729   0.000183   0.000854   0.001240   0.000128  -0.000159
     7  C    0.371803  -0.020835  -0.035329   0.014816   0.002451   0.014680
     8  C   -0.050416   0.390430   0.382388  -0.040383  -0.039059   0.002672
     9  C    0.009842  -0.038404  -0.043097   0.371011   0.389756  -0.038737
    10  C    0.002203   0.000573   0.016077  -0.030640  -0.022802   0.384083
    11  Cl   0.044522   0.001581   0.025607   0.032350   0.001683   0.001706
    12  H   -0.000002  -0.000005   0.000001  -0.000000   0.000001   0.000000
    13  H    0.000010   0.000078  -0.000001   0.000000  -0.000004   0.000007
    14  H    0.000000   0.000000  -0.000000  -0.000000  -0.000000   0.000002
    15  H    0.000007   0.000027  -0.000000   0.000001  -0.000044   0.000487
    16  H   -0.000001  -0.000026   0.000000  -0.000002   0.000005  -0.000035
    17  H   -0.000038  -0.001703   0.000023   0.000324   0.003504  -0.003534
    18  H    0.000215   0.003260   0.000132  -0.000018  -0.000989   0.000922
    19  H   -0.000235   0.000000   0.000028  -0.000059  -0.000036   0.000965
    20  H    0.000248   0.000016  -0.000039   0.000033   0.000017   0.000393
    21  H   -0.001817  -0.000094  -0.000021  -0.000014   0.000041  -0.000266
    22  H    0.001109   0.000045  -0.000005  -0.000033  -0.000077   0.001929
    23  H    0.002197  -0.000117  -0.000862  -0.001015  -0.000114   0.000593
    24  H   -0.007481  -0.003213   0.002791  -0.000266  -0.000255  -0.000149
    25  H    0.464422   0.005147   0.000065  -0.001770  -0.000401  -0.000324
    26  H    0.005147   0.497878  -0.003204   0.003432  -0.003841  -0.000156
    27  H    0.000065  -0.003204   0.486221  -0.001103   0.002838  -0.000282
    28  H   -0.001770   0.003432  -0.001103   0.491744  -0.002605   0.002872
    29  H   -0.000401  -0.003841   0.002838  -0.002605   0.494933  -0.002850
    30  H   -0.000324  -0.000156  -0.000282   0.002872  -0.002850   0.467246
    31  H   -0.002715  -0.000490  -0.001616  -0.000549   0.004847  -0.007708
              31
     1  C    0.000013
     2  C    0.000030
     3  C    0.001036
     4  C    0.004985
     5  N   -0.027943
     6  C   -0.008438
     7  C    0.003249
     8  C    0.009516
     9  C   -0.049507
    10  C    0.374622
    11  Cl   0.041595
    12  H    0.000001
    13  H   -0.000001
    14  H   -0.000000
    15  H   -0.000018
    16  H    0.000000
    17  H    0.000266
    18  H   -0.000040
    19  H    0.000192
    20  H   -0.000238
    21  H    0.001140
    22  H   -0.001543
    23  H    0.002196
    24  H   -0.000332
    25  H   -0.002715
    26  H   -0.000490
    27  H   -0.001616
    28  H   -0.000549
    29  H    0.004847
    30  H   -0.007708
    31  H    0.463533
 Mulliken charges:
               1
     1  C   -0.421001
     2  C   -0.244199
     3  C   -0.255359
     4  C   -0.298222
     5  N   -0.079835
     6  C   -0.285850
     7  C   -0.275838
     8  C   -0.229278
     9  C   -0.237704
    10  C   -0.280005
    11  Cl  -0.866254
    12  H    0.138921
    13  H    0.132773
    14  H    0.146161
    15  H    0.140845
    16  H    0.155301
    17  H    0.175790
    18  H    0.167640
    19  H    0.199412
    20  H    0.213256
    21  H    0.181065
    22  H    0.180382
    23  H    0.167115
    24  H    0.212460
    25  H    0.192051
    26  H    0.168013
    27  H    0.166251
    28  H    0.159207
    29  H    0.171327
    30  H    0.211661
    31  H    0.193913
 Sum of Mulliken charges =  -0.00000
 Mulliken charges with hydrogens summed into heavy atoms:
               1
     1  C   -0.003145
     2  C    0.051947
     3  C    0.088070
     4  C    0.114447
     5  N   -0.079835
     6  C    0.242712
     7  C    0.128673
     8  C    0.104986
     9  C    0.092830
    10  C    0.125569
    11  Cl  -0.866254
[...]
 Alpha virt. eigenvalues --    1.65128   1.66379   1.66901   1.68045   1.68432
 Alpha virt. eigenvalues --    1.69859   1.71033   1.71304   1.71437   1.72467
 Alpha virt. eigenvalues --    1.72893   1.74207   1.74239   1.74600   1.76061
 Alpha virt. eigenvalues --    1.76492   1.76811   1.78158   1.79588   1.80405
 Alpha virt. eigenvalues --    1.81424   1.82687   1.83859   1.84728   1.85012
 Alpha virt. eigenvalues --    1.87344   1.88943   1.89679   1.92515   1.93059
 Alpha virt. eigenvalues --    1.93647   1.96647   1.98570   2.01415   2.03406
 Alpha virt. eigenvalues --    2.05331   2.06585   2.07725   2.11582   2.13649
 Alpha virt. eigenvalues --    2.16555   2.17772   2.19800   2.20621   2.22705
 Alpha virt. eigenvalues --    2.24185   2.25161   2.25193   2.26304   2.27304
 Alpha virt. eigenvalues --    2.27614   2.28041   2.30950   2.31212   2.33045
 Alpha virt. eigenvalues --    2.33164   2.33977   2.37348   2.37871   2.39513
 Alpha virt. eigenvalues --    2.40478   2.43047   2.43557   2.45052   2.46090
 Alpha virt. eigenvalues --    2.47830   2.48623   2.49856   2.51489   2.53012
 Alpha virt. eigenvalues --    2.55494   2.56474   2.57396   2.58035   2.58827
 Alpha virt. eigenvalues --    2.60883   2.62041   2.62664   2.64024   2.64460
 Alpha virt. eigenvalues --    2.66012   2.67432   2.68476   2.69679   2.71206
 Alpha virt. eigenvalues --    2.73537   2.75674   2.76007   2.76586   2.79492
 Alpha virt. eigenvalues --    2.83185   2.88289   2.92609   2.95768   2.99721
 Alpha virt. eigenvalues --    3.00398   3.04440   3.06352   3.10365   3.11637
 Alpha virt. eigenvalues --    3.13387   3.14746   3.19623   3.22344   3.22929
 Alpha virt. eigenvalues --    3.24172   3.25089   3.26321   3.27985   3.29662
 Alpha virt. eigenvalues --    3.30011   3.31636   3.33530   3.35825   3.36737
 Alpha virt. eigenvalues --    3.37468   3.38776   3.42415   3.58671   3.60853
 Alpha virt. eigenvalues --    3.62028   3.65594  21.72149  21.76136  21.79734
 Alpha virt. eigenvalues --   21.84468  21.85965  21.87700  21.89610  21.91793
 Alpha virt. eigenvalues --   21.92936  24.07963  31.76371
          Condensed to atoms (all electrons):
               1          2          3          4          5          6
     1  C    5.145855   0.255932  -0.073990   0.014245  -0.000876   0.000167
     2  C    0.255932   5.129359   0.216314  -0.040276   0.010074  -0.001515
     3  C   -0.073990   0.216314   5.383055   0.090567  -0.039812   0.014334
     4  C    0.014245  -0.040276   0.090567   5.519427   0.184098  -0.093331
     5  N   -0.000876   0.010074  -0.039812   0.184098   6.660259   0.248999
     6  C    0.000167  -0.001515   0.014334  -0.093331   0.248999   5.127576
     7  C   -0.001883   0.000299   0.023301  -0.083524   0.182780  -0.074238
     8  C    0.000537   0.000675  -0.016344   0.000106  -0.033604   0.014034
     9  C   -0.000385   0.000784   0.002772  -0.012253  -0.037015   0.003379
    10  C    0.001289  -0.004869  -0.001052  -0.055166   0.188237  -0.054636
    11  Cl  -0.000000   0.000000  -0.000105   0.000690   0.008112  -0.033929
    12  H    0.413479  -0.042387  -0.020290   0.016744  -0.000264   0.000222
    13  H    0.393703  -0.041217   0.007184  -0.010220  -0.000084  -0.000046
    14  H    0.393124  -0.036776   0.012867   0.000108   0.000002  -0.000006
    15  H   -0.055350   0.437932  -0.041534  -0.018728  -0.000240  -0.000105
    16  H   -0.034658   0.415087  -0.054443   0.015677  -0.000359   0.000056
    17  H    0.012345  -0.030420   0.403546  -0.035946  -0.005260  -0.000593
    18  H   -0.014092  -0.015208   0.424133  -0.058834  -0.006157  -0.000753
    19  H   -0.004639   0.005911  -0.027075   0.397969  -0.023962  -0.006736
    20  H    0.006372  -0.006243  -0.037759   0.417639  -0.019869  -0.006249
    21  H   -0.000008  -0.000088   0.000161  -0.008590  -0.019626   0.394172
    22  H    0.000023  -0.000059   0.001103  -0.009500  -0.018907   0.394298
    23  H   -0.000000   0.000071  -0.000844   0.009864  -0.012460   0.359119
    24  H    0.000271  -0.000095  -0.005011  -0.000434  -0.023136  -0.001378
    25  H    0.000001   0.000031  -0.000057   0.008252  -0.031664  -0.005444
    26  H    0.000025   0.001085  -0.001341   0.002157  -0.000722   0.000079
    27  H   -0.000003   0.000008   0.000762   0.000046   0.004123  -0.000066
    28  H    0.000005  -0.000006   0.000225   0.000766   0.002148   0.000654
    29  H    0.000004   0.000326  -0.000249   0.001192   0.000984  -0.000039
    30  H   -0.000058   0.000532  -0.004648  -0.000017  -0.024715  -0.000483
    31  H    0.000006   0.000039   0.000418   0.006836  -0.031804  -0.009939
               7          8          9         10         11         12
     1  C   -0.001883   0.000537  -0.000385   0.001289  -0.000000   0.413479
     2  C    0.000299   0.000675   0.000784  -0.004869   0.000000  -0.042387
     3  C    0.023301  -0.016344   0.002772  -0.001052  -0.000105  -0.020290
     4  C   -0.083524   0.000106  -0.012253  -0.055166   0.000690   0.016744
     5  N    0.182780  -0.033604  -0.037015   0.188237   0.008112  -0.000264
     6  C   -0.074238   0.014034   0.003379  -0.054636  -0.033929   0.000222
     7  C    5.723265   0.041476   0.079058  -0.308620  -0.060849   0.000155
     8  C    0.041476   5.391436   0.106532   0.070950   0.015929  -0.000018
     9  C    0.079058   0.106532   5.465763   0.054810  -0.019028  -0.000006
    10  C   -0.308620   0.070950   0.054810   5.670751  -0.042057  -0.000035
    11  Cl  -0.060849   0.015929  -0.019028  -0.042057  17.847948   0.000000
    12  H    0.000155  -0.000018  -0.000006  -0.000035   0.000000   0.537470
    13  H    0.000445  -0.000285   0.000054  -0.000092   0.000000  -0.029166
    14  H    0.000007   0.000003   0.000001  -0.000005   0.000000  -0.023955
    15  H    0.000412  -0.000285   0.000282  -0.001023  -0.000000  -0.004729
    16  H    0.000150  -0.000073  -0.000002   0.000055   0.000000   0.006231
    17  H   -0.012786   0.008356  -0.013454   0.027927   0.000000  -0.000290
    18  H    0.022950  -0.015692   0.004100  -0.009163  -0.000001   0.000541
    19  H    0.015264  -0.003940   0.005473  -0.027954   0.000004   0.000531
    20  H   -0.023709   0.005571  -0.002504   0.013525  -0.000009  -0.004363
    21  H   -0.012175   0.002017  -0.001544   0.011264   0.000753   0.000018
    22  H    0.012071  -0.001925   0.002269  -0.013237   0.000721   0.000008
    23  H   -0.016174   0.000006   0.002759  -0.016918   0.043033  -0.000000
    24  H    0.376399  -0.022582   0.005169   0.012450   0.000481   0.000002
    25  H    0.358789  -0.043066  -0.000530   0.009083   0.050448  -0.000002
    26  H   -0.025960   0.408604  -0.037418  -0.002473   0.000532  -0.000010
    27  H   -0.034843   0.396804  -0.032691   0.008124   0.005949   0.000001
    28  H    0.004368  -0.027435   0.376601  -0.032140   0.020208  -0.000000
    29  H    0.001127  -0.028495   0.391919  -0.023386   0.000683   0.000002
    30  H    0.012662   0.001888  -0.024911   0.379925   0.000682  -0.000005
    31  H    0.010928   0.002432  -0.049412   0.375054   0.044504   0.000002
              13         14         15         16         17         18
     1  C    0.393703   0.393124  -0.055350  -0.034658   0.012345  -0.014092
     2  C   -0.041217  -0.036776   0.437932   0.415087  -0.030420  -0.015208
     3  C    0.007184   0.012867  -0.041534  -0.054443   0.403546   0.424133
     4  C   -0.010220   0.000108  -0.018728   0.015677  -0.035946  -0.058834
     5  N   -0.000084   0.000002  -0.000240  -0.000359  -0.005260  -0.006157
     6  C   -0.000046  -0.000006  -0.000105   0.000056  -0.000593  -0.000753
     7  C    0.000445   0.000007   0.000412   0.000150  -0.012786   0.022950
     8  C   -0.000285   0.000003  -0.000285  -0.000073   0.008356  -0.015692
     9  C    0.000054   0.000001   0.000282  -0.000002  -0.013454   0.004100
    10  C   -0.000092  -0.000005  -0.001023   0.000055   0.027927  -0.009163
    11  Cl   0.000000   0.000000  -0.000000   0.000000   0.000000  -0.000001
    12  H   -0.029166  -0.023955  -0.004729   0.006231  -0.000290   0.000541
    13  H    0.555638  -0.022850   0.007865  -0.004108  -0.000211   0.004405
    14  H   -0.022850   0.531472  -0.001471  -0.003972  -0.000358   0.000163
    15  H    0.007865  -0.001471   0.550901  -0.025421  -0.004874   0.007161
    16  H   -0.004108  -0.003972  -0.025421   0.536562  -0.004760  -0.001788
    17  H   -0.000211  -0.000358  -0.004874  -0.004760   0.501900  -0.022976
    18  H    0.004405   0.000163   0.007161  -0.001788  -0.022976   0.514051
    19  H    0.000281   0.000066   0.004886   0.000121  -0.003427   0.005082
    20  H    0.000705   0.000062   0.000624  -0.000565   0.003291  -0.002759
    21  H    0.000005  -0.000001   0.000006   0.000001   0.000047   0.000033
    22  H   -0.000000  -0.000000   0.000003  -0.000000  -0.000050   0.000013
    23  H   -0.000000   0.000000  -0.000000  -0.000001   0.000019   0.000005
    24  H    0.000010  -0.000004  -0.000018  -0.000013   0.000656  -0.001747
    25  H    0.000005   0.000000   0.000003  -0.000002   0.000031  -0.000191
    26  H    0.000084  -0.000000   0.000014  -0.000065  -0.001842   0.001728
    27  H   -0.000000   0.000000   0.000001  -0.000000  -0.000075   0.000458
    28  H    0.000000  -0.000000  -0.000001  -0.000002   0.000564  -0.000131
    29  H   -0.000002   0.000000  -0.000008   0.000005   0.001323  -0.000221
    30  H    0.000007   0.000001   0.000417  -0.000044  -0.002609   0.000488
    31  H   -0.000001  -0.000000  -0.000010   0.000001  -0.000147   0.000047
              19         20         21         22         23         24
     1  C   -0.004639   0.006372  -0.000008   0.000023  -0.000000   0.000271
     2  C    0.005911  -0.006243  -0.000088  -0.000059   0.000071  -0.000095
     3  C   -0.027075  -0.037759   0.000161   0.001103  -0.000844  -0.005011
     4  C    0.397969   0.417639  -0.008590  -0.009500   0.009864  -0.000434
     5  N   -0.023962  -0.019869  -0.019626  -0.018907  -0.012460  -0.023136
     6  C   -0.006736  -0.006249   0.394172   0.394298   0.359119  -0.001378
     7  C    0.015264  -0.023709  -0.012175   0.012071  -0.016174   0.376399
     8  C   -0.003940   0.005571   0.002017  -0.001925   0.000006  -0.022582
     9  C    0.005473  -0.002504  -0.001544   0.002269   0.002759   0.005169
    10  C   -0.027954   0.013525   0.011264  -0.013237  -0.016918   0.012450
    11  Cl   0.000004  -0.000009   0.000753   0.000721   0.043033   0.000481
    12  H    0.000531  -0.004363   0.000018   0.000008  -0.000000   0.000002
    13  H    0.000281   0.000705   0.000005  -0.000000  -0.000000   0.000010
    14  H    0.000066   0.000062  -0.000001  -0.000000   0.000000  -0.000004
    15  H    0.004886   0.000624   0.000006   0.000003  -0.000000  -0.000018
    16  H    0.000121  -0.000565   0.000001  -0.000000  -0.000001  -0.000013
    17  H   -0.003427   0.003291   0.000047  -0.000050   0.000019   0.000656
    18  H    0.005082  -0.002759   0.000033   0.000013   0.000005  -0.001747
    19  H    0.481744  -0.020668  -0.000627   0.004813  -0.000108   0.000084
    20  H   -0.020668   0.453717   0.004693  -0.001062   0.000134   0.002688
    21  H   -0.000627   0.004693   0.480454  -0.023250  -0.018337   0.002637
    22  H    0.004813  -0.001062  -0.023250   0.479871  -0.018375  -0.000280
    23  H   -0.000108   0.000134  -0.018337  -0.018375   0.515184   0.000386
    24  H    0.000084   0.002688   0.002637  -0.000280   0.000386   0.451639
    25  H   -0.000494   0.000280  -0.001639   0.000972   0.002165  -0.007152
    26  H   -0.000049   0.000010  -0.000087   0.000041  -0.000086  -0.002877
    27  H    0.000033  -0.000036   0.000013   0.000009  -0.000293   0.001866
    28  H   -0.000093   0.000038  -0.000009   0.000001  -0.000638  -0.000220
    29  H   -0.000005  -0.000011   0.000033  -0.000051  -0.000091  -0.000237
    30  H    0.001843   0.000248  -0.000364   0.002236   0.000594  -0.000296
    31  H    0.000498  -0.000419   0.001143  -0.001248   0.001751  -0.000273
              25         26         27         28         29         30
     1  C    0.000001   0.000025  -0.000003   0.000005   0.000004  -0.000058
     2  C    0.000031   0.001085   0.000008  -0.000006   0.000326   0.000532
     3  C   -0.000057  -0.001341   0.000762   0.000225  -0.000249  -0.004648
     4  C    0.008252   0.002157   0.000046   0.000766   0.001192  -0.000017
     5  N   -0.031664  -0.000722   0.004123   0.002148   0.000984  -0.024715
     6  C   -0.005444   0.000079  -0.000066   0.000654  -0.000039  -0.000483
     7  C    0.358789  -0.025960  -0.034843   0.004368   0.001127   0.012662
     8  C   -0.043066   0.408604   0.396804  -0.027435  -0.028495   0.001888
     9  C   -0.000530  -0.037418  -0.032691   0.376601   0.391919  -0.024911
    10  C    0.009083  -0.002473   0.008124  -0.032140  -0.023386   0.379925
    11  Cl   0.050448   0.000532   0.005949   0.020208   0.000683   0.000682
    12  H   -0.000002  -0.000010   0.000001  -0.000000   0.000002  -0.000005
    13  H    0.000005   0.000084  -0.000000   0.000000  -0.000002   0.000007
    14  H    0.000000  -0.000000   0.000000  -0.000000   0.000000   0.000001
    15  H    0.000003   0.000014   0.000001  -0.000001  -0.000008   0.000417
    16  H   -0.000002  -0.000065  -0.000000  -0.000002   0.000005  -0.000044
    17  H    0.000031  -0.001842  -0.000075   0.000564   0.001323  -0.002609
    18  H   -0.000191   0.001728   0.000458  -0.000131  -0.000221   0.000488
    19  H   -0.000494  -0.000049   0.000033  -0.000093  -0.000005   0.001843
    20  H    0.000280   0.000010  -0.000036   0.000038  -0.000011   0.000248
    21  H   -0.001639  -0.000087   0.000013  -0.000009   0.000033  -0.000364
    22  H    0.000972   0.000041   0.000009   0.000001  -0.000051   0.002236
    23  H    0.002165  -0.000086  -0.000293  -0.000638  -0.000091   0.000594
    24  H   -0.007152  -0.002877   0.001866  -0.000220  -0.000237  -0.000296
    25  H    0.485554   0.005029  -0.000554  -0.000131  -0.000132  -0.000128
    26  H    0.005029   0.477363  -0.008030   0.003845  -0.002760   0.000073
    27  H   -0.000554  -0.008030   0.474908  -0.003412   0.002079  -0.000225
    28  H   -0.000131   0.003845  -0.003412   0.499208  -0.006040   0.003194
    29  H   -0.000132  -0.002760   0.002079  -0.006040   0.476186  -0.002174
    30  H   -0.000128   0.000073  -0.000225   0.003194  -0.002174   0.452701
    31  H   -0.003550  -0.000397  -0.000667  -0.002090   0.003987  -0.006170
              31
     1  C    0.000006
     2  C    0.000039
     3  C    0.000418
     4  C    0.006836
     5  N   -0.031804
     6  C   -0.009939
     7  C    0.010928
     8  C    0.002432
     9  C   -0.049412
    10  C    0.375054
    11  Cl   0.044504
    12  H    0.000002
    13  H   -0.000001
    14  H   -0.000000
    15  H   -0.000010
    16  H    0.000001
    17  H   -0.000147
    18  H    0.000047
    19  H    0.000498
    20  H   -0.000419
    21  H    0.001143
    22  H   -0.001248
    23  H    0.001751
    24  H   -0.000273
    25  H   -0.003550
    26  H   -0.000397
    27  H   -0.000667
    28  H   -0.002090
    29  H    0.003987
    30  H   -0.006170
    31  H    0.469657
 Mulliken charges:
               1
     1  C   -0.451438
     2  C   -0.255300
     3  C   -0.256190
     4  C   -0.259564
     5  N   -0.159279
     6  C   -0.267603
     7  C   -0.211145
     8  C   -0.273613
     9  C   -0.270569
    10  C   -0.230619
    11  Cl  -0.884698
    12  H    0.150113
    13  H    0.137890
    14  H    0.151522
    15  H    0.143291
    16  H    0.156330
    17  H    0.180071
    18  H    0.164358
    19  H    0.195176
    20  H    0.216627
    21  H    0.188896
    22  H    0.189493
    23  H    0.149235
    24  H    0.211013
    25  H    0.174093
    26  H    0.183446
    27  H    0.185712
    28  H    0.160525
    29  H    0.184049
    30  H    0.209355
    31  H    0.188822
 Sum of Mulliken charges =  -0.00000
 Mulliken charges with hydrogens summed into heavy atoms:
               1
     1  C   -0.011913
     2  C    0.044322
     3  C    0.088239
     4  C    0.152239
     5  N   -0.159279
     6  C    0.260021
     7  C    0.173962
     8  C    0.095544
     9  C    0.074004
    10  C    0.167559
    11  Cl  -0.884698
 Electronic spatial extent (au):  <R**2>=           3120.3540
 Charge=             -0.0000 electrons
 Dipole moment (field-independent basis, Debye):
    X=            -17.5628    Y=              0.3586    Z=              0.9794  Tot=             17.5938
 Quadrupole moment (field-independent basis, Debye-Ang):
   XX=           -140.9443   YY=            -72.4533   ZZ=            -74.6469
   XY=             -4.8405   XZ=              1.5368   YZ=              0.6648
 Traceless Quadrupole moment (field-independent basis, Debye-Ang):
   XX=            -44.9295   YY=             23.5615   ZZ=             21.3679
   XY=             -4.8405   XZ=              1.5368   YZ=              0.6648
 Octapole moment (field-independent basis, Debye-Ang**2):
  XXX=           -306.2094  YYY=              7.7550  ZZZ=              2.8346  XYY=             -6.4784
  XXY=            -22.2359  XXZ=             10.7636  XZZ=             -6.5447  YZZ=              0.8463
  YYZ=              1.5311  XYZ=              0.4375
 Hexadecapole moment (field-independent basis, Debye-Ang**3):
 XXXX=          -4449.8666 YYYY=           -600.7695 ZZZZ=           -340.4941 XXXY=            -78.4595
 XXXZ=             21.0891 YYYX=             -0.9236 YYYZ=              1.2494 ZZZX=             -1.0087
 ZZZY=              4.4658 XXYY=           -672.3106 XXZZ=           -629.5772 YYZZ=           -156.7738
 XXYZ=              7.2358 YYXZ=             -0.8550 ZZXY=             -3.2038
 N-N= 7.635569669438D+02 E-N=-3.569155357176D+03  KE= 8.665230691760D+02
 Unable to Open any file for archive entry.
 1\1\GINC-TCN1210\SP\RBP86\TZVP\C9H20Cl1N1\ELENAA\21-Aug-2021\0\\# BP86
 /TZVP SCRF=COSMORS geom=CHECKPOINT guess=CHECKPOINT\\COSMO-file for #B
 OOXKGZZTBKJFE-UHFFFAOYSA-M\\0,1\C,0,0.8219560212,-1.4213720995,2.39360
 60137\C,0,0.4324197841,-1.681306797,0.9319550986\C,0,-0.5682308549,-0.
 660849013,0.3531875211\C,0,0.0406468633,0.7363481048,0.303359695\N,0,-
 0.7800331604,1.820478309,-0.3932096784\C,0,0.0105048845,3.1036224595,-
 0.3179133426\C,0,-2.1584430569,2.0199123105,0.2397593014\C,0,-3.113718
 342,1.0762639566,-0.4923883845\C,0,-2.4813824601,0.836107789,-1.890132
 58\C,0,-1.0856539192,1.477787215,-1.8556511666\Cl,0,-2.7646309792,4.58
 74548689,-2.1730316596\H,0,1.4004649889,-0.4923973947,2.5106465701\H,0
 ,-0.0734727496,-1.3419853557,3.0308359472\H,0,1.441546587,-2.242036760
 3,2.7845179413\H,0,1.3363187769,-1.704034871,0.2993175076\H,0,-0.02666
 45709,-2.6792147521,0.8490362255\H,0,-0.8582296768,-0.9857485098,-0.65
 68899354\H,0,-1.475376127,-0.6601502279,0.9762059831\H,0,1.0021576551,
 0.7110023217,-0.2304014414\H,0,0.2239762338,1.1197006408,1.3158900397\
 H,0,0.167109676,3.3583834326,0.736783069\H,0,0.9756730461,2.9513288514
 ,-0.8149849132\H,0,-0.5712785141,3.8846627164,-0.826162349\H,0,-2.0719
 292226,1.8569933456,1.3208024309\H,0,-2.4264229975,3.0633366445,0.0283
 112998\H,0,-3.241437429,0.1300888754,0.0469751697\H,0,-4.1015197829,1.
 548076703,-0.5708589367\H,0,-3.0711150638,1.324231103,-2.6760520622\H,
 0,-2.4306941126,-0.2359551366,-2.1196760581\H,0,-0.2739708287,0.847075
 179,-2.2366790542\H,0,-1.1012036686,2.4376460906,-2.3855602515\\Versio
 n=ES64L-G16RevC.01\State=1-A\HF=-870.1586877\RMSD=3.118e-09\Dipole=3.3
 304215,-5.2024651,3.1233961\Quadrupole=9.4242505,-15.3354332,5.9111827
 ,16.6473158,-8.5642522,17.9467977\PG=C01 [X(C9H20Cl1N1)]\\@
 The archive entry for this job was punched.


 ALL THINGS ARE POSSIBLE EXCEPT SKIING THROUGH A REVOLVING DOOR.
 Job cpu time:       0 days  0 hours 10 minutes 20.3 seconds.
 Elapsed time:       0 days  0 hours  0 minutes 26.5 seconds.
 File lengths (MBytes):  RWF=     90 Int=      0 D2E=      0 Chk=     14 Scr=      1
 Normal termination of Gaussian 16 at Sat Aug 21 09:43:04 2021.
