 Entering Gaussian System, Link 0=g16
 Input=DBQUKJMNGUJRFI-UHFFFAOYSA-N.gjf
 Output=DBQUKJMNGUJRFI-UHFFFAOYSA-N.log
 Initial command:
 /sw/arch/RedHatEnterpriseServer7/EB_production/2020/software/Gaussian/g16.c01/l1.exe "/scratch-local/elenaa.10684690/Gau-32557.inp" -scrdir="/scratch-local/elenaa.10684690/"
 Entering Link 1 = /sw/arch/RedHatEnterpriseServer7/EB_production/2020/software/Gaussian/g16.c01/l1.exe PID=     32559.
  
 Copyright (c) 1988-2019, Gaussian, Inc.  All Rights Reserved.
  
 This is part of the Gaussian(R) 16 program.  It is based on
 the Gaussian(R) 09 system (copyright 2009, Gaussian, Inc.),
 the Gaussian(R) 03 system (copyright 2003, Gaussian, Inc.),
 the Gaussian(R) 98 system (copyright 1998, Gaussian, Inc.),
 the Gaussian(R) 94 system (copyright 1995, Gaussian, Inc.),
 the Gaussian 92(TM) system (copyright 1992, Gaussian, Inc.),
 the Gaussian 90(TM) system (copyright 1990, Gaussian, Inc.),
 the Gaussian 88(TM) system (copyright 1988, Gaussian, Inc.),
 the Gaussian 86(TM) system (copyright 1986, Carnegie Mellon
 University), and the Gaussian 82(TM) system (copyright 1983,
 Carnegie Mellon University). Gaussian is a federally registered
 trademark of Gaussian, Inc.
  
 This software contains proprietary and confidential information,
 including trade secrets, belonging to Gaussian, Inc.
  
 This software is provided under written license and may be
 used, copied, transmitted, or stored only in accord with that
 written license.
  
 The following legend is applicable only to US Government
 contracts under FAR:
  
                    RESTRICTED RIGHTS LEGEND
  
 Use, reproduction and disclosure by the US Government is
 subject to restrictions as set forth in subparagraphs (a)
 and (c) of the Commercial Computer Software - Restricted
 Rights clause in FAR 52.227-19.
  
 Gaussian, Inc.
 340 Quinnipiac St., Bldg. 40, Wallingford CT 06492
  
  
 ---------------------------------------------------------------
 Warning -- This program may not be used in any manner that
 competes with the business of Gaussian, Inc. or will provide
 assistance to any competitor of Gaussian, Inc.  The licensee
 of this program is prohibited from giving any competitor of
 Gaussian, Inc. access to this program.  By using this program,
 the user acknowledges that Gaussian, Inc. is engaged in the
 business of creating and licensing software in the field of
 computational chemistry and represents and warrants to the
 licensee that it is not a competitor of Gaussian, Inc. and that
 it will not use this program in any manner prohibited above.
 ---------------------------------------------------------------
  

 Cite this work as:
 Gaussian 16, Revision C.01,
 M. J. Frisch, G. W. Trucks, H. B. Schlegel, G. E. Scuseria, 
 M. A. Robb, J. R. Cheeseman, G. Scalmani, V. Barone, 
 G. A. Petersson, H. Nakatsuji, X. Li, M. Caricato, A. V. Marenich, 
 J. Bloino, B. G. Janesko, R. Gomperts, B. Mennucci, H. P. Hratchian, 
 J. V. Ortiz, A. F. Izmaylov, J. L. Sonnenberg, D. Williams-Young, 
 F. Ding, F. Lipparini, F. Egidi, J. Goings, B. Peng, A. Petrone, 
 T. Henderson, D. Ranasinghe, V. G. Zakrzewski, J. Gao, N. Rega, 
 G. Zheng, W. Liang, M. Hada, M. Ehara, K. Toyota, R. Fukuda, 
 J. Hasegawa, M. Ishida, T. Nakajima, Y. Honda, O. Kitao, H. Nakai, 
 T. Vreven, K. Throssell, J. A. Montgomery, Jr., J. E. Peralta, 
 F. Ogliaro, M. J. Bearpark, J. J. Heyd, E. N. Brothers, K. N. Kudin, 
 V. N. Staroverov, T. A. Keith, R. Kobayashi, J. Normand, 
 K. Raghavachari, A. P. Rendell, J. C. Burant, S. S. Iyengar, 
 J. Tomasi, M. Cossi, J. M. Millam, M. Klene, C. Adamo, R. Cammi, 
 J. W. Ochterski, R. L. Martin, K. Morokuma, O. Farkas, 
 J. B. Foresman, and D. J. Fox, Gaussian, Inc., Wallingford CT, 2019.
 
 ******************************************
 Gaussian 16:  ES64L-G16RevC.01  3-Jul-2019
                21-Aug-2021 
 ******************************************
 %chk=DBQUKJMNGUJRFI-UHFFFAOYSA-N.chk
 %NProcShared=24
 Will use up to   24 processors via shared memory.
 -------------------------------------------------------------
 #P BP86/TZVP EmpiricalDispersion=GD3 SCRF=(Solvent=Water) Opt
 -------------------------------------------------------------
 1/18=20,19=15,26=3,38=1/1,3;
 2/9=110,12=2,17=6,18=5,40=1/2;
 3/5=19,7=101,11=2,25=1,30=1,70=2201,71=1,72=1,74=404,124=31/1,2,3;
 4//1;
 5/5=2,38=5,53=1/2;
 6/7=2,8=2,9=2,10=2,28=1/1;
 7//1,2,3,16;
 1/18=20,19=15,26=3/3(2);
 2/9=110/2;
 99//99;
 2/9=110/2;
 3/5=19,7=101,11=2,25=1,30=1,70=2205,71=1,72=1,74=404,124=31/1,2,3;
 4/5=5,16=3,69=1/1;
 5/5=2,38=5,53=1/2;
 7//1,2,3,16;
 1/18=20,19=15,26=3/3(-5);
 2/9=110/2;
 6/7=2,8=2,9=2,10=2,19=2,28=1/1;
 99/9=1/99;
 Leave Link    1 at Sat Aug 21 09:31:10 2021, MaxMem=           0 cpu:               2.4 elap:               0.1
 (Enter /sw/arch/RedHatEnterpriseServer7/EB_production/2020/software/Gaussian/g16.c01/l101.exe)
 -------------------------------------
 Particle #DBQUKJMNGUJRFI-UHFFFAOYSA-N
 -------------------------------------
 Symbolic Z-matrix:
 Charge =  0 Multiplicity = 1
 C                     0.81005  -0.73835  -1.64577 
 C                     1.13068   0.383    -0.64871 
 N                     0.00532   0.64338   0.28651 
 C                    -0.11224  -0.45128   1.30033 
 C                    -1.51217  -1.07084   1.3119 
 C                     0.20901   1.96322   0.94367 
 C                    -1.02897   2.45718   1.73882 
 O                    -2.18469   2.63174   0.9519 
 Cl                   -2.02845   1.69896  -1.71872 
 H                     0.63961  -1.70428  -1.12863 
 H                    -0.09313  -0.48047  -2.23818 
 H                     1.66331  -0.86546  -2.34486 
 H                     1.3544    1.28857  -1.25635 
 H                     2.05984   0.13151  -0.08859 
 H                    -0.8653    0.69582  -0.29062 
 H                     0.6141   -1.27459   1.12127 
 H                     0.12021  -0.09842   2.32978 
 H                    -2.276    -0.29877   1.54091 
 H                    -1.56434  -1.86424   2.08706 
 H                    -1.73622  -1.52446   0.32315 
 H                     0.44066   2.74567   0.18601 
 H                     1.08576   1.92145   1.62925 
 H                    -0.77642   3.43321   2.20487 
 H                    -1.26292   1.75967   2.56825 
 H                    -1.91594   2.61388   0.00073 
 
 Add virtual bond connecting atoms H15        and Cl9        Dist= 3.96D+00.
 Add virtual bond connecting atoms H25        and Cl9        Dist= 3.69D+00.
 ITRead=  0  0  0  0  0  0  0  0  0  0  0  0  0  0  0  0  0  0  0  0
 ITRead=  0  0  0  0  0
 MicOpt= -1 -1 -1 -1 -1 -1 -1 -1 -1 -1 -1 -1 -1 -1 -1 -1 -1 -1 -1 -1
 MicOpt= -1 -1 -1 -1 -1
 NAtoms=     25 NQM=       25 NQMF=       0 NMMI=      0 NMMIF=      0
                NMic=       0 NMicF=      0.
                    Isotopes and Nuclear Properties:
 (Nuclear quadrupole moments (NQMom) in fm**2, nuclear magnetic moments (NMagM)
  in nuclear magnetons)

  Atom         1           2           3           4           5           6           7           8           9          10
 IAtWgt=          12          12          14          12          12          12          12          16          35           1
 AtmWgt=  12.0000000  12.0000000  14.0030740  12.0000000  12.0000000  12.0000000  12.0000000  15.9949146  34.9688527   1.0078250
 NucSpn=           0           0           2           0           0           0           0           0           3           1
 AtZEff=  -0.0000000  -0.0000000  -0.0000000  -0.0000000  -0.0000000  -0.0000000  -0.0000000  -0.0000000  -0.0000000  -0.0000000
 NQMom=    0.0000000   0.0000000   2.0440000   0.0000000   0.0000000   0.0000000   0.0000000   0.0000000  -8.1650000   0.0000000
 NMagM=    0.0000000   0.0000000   0.4037610   0.0000000   0.0000000   0.0000000   0.0000000   0.0000000   0.8218740   2.7928460
 AtZNuc=   6.0000000   6.0000000   7.0000000   6.0000000   6.0000000   6.0000000   6.0000000   8.0000000  17.0000000   1.0000000

  Atom        11          12          13          14          15          16          17          18          19          20
 IAtWgt=           1           1           1           1           1           1           1           1           1           1
 AtmWgt=   1.0078250   1.0078250   1.0078250   1.0078250   1.0078250   1.0078250   1.0078250   1.0078250   1.0078250   1.0078250
 NucSpn=           1           1           1           1           1           1           1           1           1           1
 AtZEff=  -0.0000000  -0.0000000  -0.0000000  -0.0000000  -0.0000000  -0.0000000  -0.0000000  -0.0000000  -0.0000000  -0.0000000
 NQMom=    0.0000000   0.0000000   0.0000000   0.0000000   0.0000000   0.0000000   0.0000000   0.0000000   0.0000000   0.0000000
 NMagM=    2.7928460   2.7928460   2.7928460   2.7928460   2.7928460   2.7928460   2.7928460   2.7928460   2.7928460   2.7928460
 AtZNuc=   1.0000000   1.0000000   1.0000000   1.0000000   1.0000000   1.0000000   1.0000000   1.0000000   1.0000000   1.0000000

  Atom        21          22          23          24          25
 IAtWgt=           1           1           1           1           1
 AtmWgt=   1.0078250   1.0078250   1.0078250   1.0078250   1.0078250
 NucSpn=           1           1           1           1           1
 AtZEff=  -0.0000000  -0.0000000  -0.0000000  -0.0000000  -0.0000000
 NQMom=    0.0000000   0.0000000   0.0000000   0.0000000   0.0000000
 NMagM=    2.7928460   2.7928460   2.7928460   2.7928460   2.7928460
 AtZNuc=   1.0000000   1.0000000   1.0000000   1.0000000   1.0000000
 Leave Link  101 at Sat Aug 21 09:31:10 2021, MaxMem=   104857600 cpu:               2.1 elap:               0.1
 (Enter /sw/arch/RedHatEnterpriseServer7/EB_production/2020/software/Gaussian/g16.c01/l103.exe)

 GradGradGradGradGradGradGradGradGradGradGradGradGradGradGradGradGradGrad
 Berny optimization.
 Initialization pass.
                           ----------------------------
                           !    Initial Parameters    !
                           ! (Angstroms and Degrees)  !
 --------------------------                            --------------------------
 ! Name  Definition              Value          Derivative Info.                !
 --------------------------------------------------------------------------------
 ! R1    R(1,2)                  1.5344         estimate D2E/DX2                !
 ! R2    R(1,10)                 1.1088         estimate D2E/DX2                !
 ! R3    R(1,11)                 1.1105         estimate D2E/DX2                !
 ! R4    R(1,12)                 1.1104         estimate D2E/DX2                !
 ! R5    R(2,3)                  1.4862         estimate D2E/DX2                !
 ! R6    R(2,13)                 1.1132         estimate D2E/DX2                !
 ! R7    R(2,14)                 1.1137         estimate D2E/DX2                !
 ! R8    R(3,4)                  1.4966         estimate D2E/DX2                !
 ! R9    R(3,6)                  1.4884         estimate D2E/DX2                !
 ! R10   R(3,15)                 1.0459         estimate D2E/DX2                !
 ! R11   R(4,5)                  1.531          estimate D2E/DX2                !
 ! R12   R(4,16)                 1.1124         estimate D2E/DX2                !
 ! R13   R(4,17)                 1.1128         estimate D2E/DX2                !
 ! R14   R(5,18)                 1.1099         estimate D2E/DX2                !
 ! R15   R(5,19)                 1.1104         estimate D2E/DX2                !
 ! R16   R(5,20)                 1.1107         estimate D2E/DX2                !
 ! R17   R(6,7)                  1.552          estimate D2E/DX2                !
 ! R18   R(6,21)                 1.1135         estimate D2E/DX2                !
 ! R19   R(6,22)                 1.1138         estimate D2E/DX2                !
 ! R20   R(7,8)                  1.409          estimate D2E/DX2                !
 ! R21   R(7,23)                 1.1107         estimate D2E/DX2                !
 ! R22   R(7,24)                 1.1087         estimate D2E/DX2                !
 ! R23   R(8,25)                 0.9886         estimate D2E/DX2                !
 ! R24   R(9,15)                 2.0973         estimate D2E/DX2                !
 ! R25   R(9,25)                 1.951          estimate D2E/DX2                !
 ! A1    A(2,1,10)             111.4498         estimate D2E/DX2                !
 ! A2    A(2,1,11)             110.2973         estimate D2E/DX2                !
 ! A3    A(2,1,12)             109.4018         estimate D2E/DX2                !
 ! A4    A(10,1,11)            109.0315         estimate D2E/DX2                !
 ! A5    A(10,1,12)            108.1816         estimate D2E/DX2                !
 ! A6    A(11,1,12)            108.4035         estimate D2E/DX2                !
 ! A7    A(1,2,3)              112.2533         estimate D2E/DX2                !
 ! A8    A(1,2,13)             106.3669         estimate D2E/DX2                !
 ! A9    A(1,2,14)             109.6409         estimate D2E/DX2                !
 ! A10   A(3,2,13)             110.6779         estimate D2E/DX2                !
 ! A11   A(3,2,14)             110.7817         estimate D2E/DX2                !
 ! A12   A(13,2,14)            106.8911         estimate D2E/DX2                !
 ! A13   A(2,3,4)              110.9524         estimate D2E/DX2                !
 ! A14   A(2,3,6)              109.2419         estimate D2E/DX2                !
 ! A15   A(2,3,15)             106.9698         estimate D2E/DX2                !
 ! A16   A(4,3,6)              111.1154         estimate D2E/DX2                !
 ! A17   A(4,3,15)             110.1875         estimate D2E/DX2                !
 ! A18   A(6,3,15)             108.2466         estimate D2E/DX2                !
 ! A19   A(3,4,5)              111.8967         estimate D2E/DX2                !
 ! A20   A(3,4,16)             112.3957         estimate D2E/DX2                !
 ! A21   A(3,4,17)             112.2303         estimate D2E/DX2                !
 ! A22   A(5,4,16)             107.383          estimate D2E/DX2                !
 ! A23   A(5,4,17)             108.2007         estimate D2E/DX2                !
 ! A24   A(16,4,17)            104.3125         estimate D2E/DX2                !
 ! A25   A(4,5,18)             110.4467         estimate D2E/DX2                !
 ! A26   A(4,5,19)             109.7175         estimate D2E/DX2                !
 ! A27   A(4,5,20)             110.0608         estimate D2E/DX2                !
 ! A28   A(18,5,19)            108.7012         estimate D2E/DX2                !
 ! A29   A(18,5,20)            109.2051         estimate D2E/DX2                !
 ! A30   A(19,5,20)            108.672          estimate D2E/DX2                !
 ! A31   A(3,6,7)              113.5319         estimate D2E/DX2                !
 ! A32   A(3,6,21)             110.5583         estimate D2E/DX2                !
 ! A33   A(3,6,22)             110.2583         estimate D2E/DX2                !
 ! A34   A(7,6,21)             106.9111         estimate D2E/DX2                !
 ! A35   A(7,6,22)             108.9336         estimate D2E/DX2                !
 ! A36   A(21,6,22)            106.3458         estimate D2E/DX2                !
 ! A37   A(6,7,8)              114.051          estimate D2E/DX2                !
 ! A38   A(6,7,23)             108.2573         estimate D2E/DX2                !
 ! A39   A(6,7,24)             110.5708         estimate D2E/DX2                !
 ! A40   A(8,7,23)             108.1784         estimate D2E/DX2                !
 ! A41   A(8,7,24)             108.8236         estimate D2E/DX2                !
 ! A42   A(23,7,24)            106.6739         estimate D2E/DX2                !
 ! A43   A(7,8,25)             108.1875         estimate D2E/DX2                !
 ! A44   A(15,9,25)             65.9334         estimate D2E/DX2                !
 ! A45   A(3,15,9)             149.4744         estimate D2E/DX2                !
 ! A46   A(8,25,9)             147.2236         estimate D2E/DX2                !
 ! D1    D(10,1,2,3)           -62.6516         estimate D2E/DX2                !
 ! D2    D(10,1,2,13)          176.1626         estimate D2E/DX2                !
 ! D3    D(10,1,2,14)           60.9266         estimate D2E/DX2                !
 ! D4    D(11,1,2,3)            58.6046         estimate D2E/DX2                !
 ! D5    D(11,1,2,13)          -62.5812         estimate D2E/DX2                !
 ! D6    D(11,1,2,14)         -177.8172         estimate D2E/DX2                !
 ! D7    D(12,1,2,3)           177.7571         estimate D2E/DX2                !
 ! D8    D(12,1,2,13)           56.5713         estimate D2E/DX2                !
 ! D9    D(12,1,2,14)          -58.6647         estimate D2E/DX2                !
 ! D10   D(1,2,3,4)             73.4517         estimate D2E/DX2                !
 ! D11   D(1,2,3,6)           -163.7123         estimate D2E/DX2                !
 ! D12   D(1,2,3,15)           -46.7601         estimate D2E/DX2                !
 ! D13   D(13,2,3,4)          -167.8719         estimate D2E/DX2                !
 ! D14   D(13,2,3,6)           -45.0358         estimate D2E/DX2                !
 ! D15   D(13,2,3,15)           71.9164         estimate D2E/DX2                !
 ! D16   D(14,2,3,4)           -49.4861         estimate D2E/DX2                !
 ! D17   D(14,2,3,6)            73.3499         estimate D2E/DX2                !
 ! D18   D(14,2,3,15)         -169.6979         estimate D2E/DX2                !
 ! D19   D(2,3,4,5)           -124.6684         estimate D2E/DX2                !
 ! D20   D(2,3,4,16)            -3.7455         estimate D2E/DX2                !
 ! D21   D(2,3,4,17)           113.4655         estimate D2E/DX2                !
 ! D22   D(6,3,4,5)            113.5852         estimate D2E/DX2                !
 ! D23   D(6,3,4,16)          -125.492          estimate D2E/DX2                !
 ! D24   D(6,3,4,17)            -8.281          estimate D2E/DX2                !
 ! D25   D(15,3,4,5)            -6.3885         estimate D2E/DX2                !
 ! D26   D(15,3,4,16)          114.5343         estimate D2E/DX2                !
 ! D27   D(15,3,4,17)         -128.2547         estimate D2E/DX2                !
 ! D28   D(2,3,6,7)            169.2871         estimate D2E/DX2                !
 ! D29   D(2,3,6,21)            49.1431         estimate D2E/DX2                !
 ! D30   D(2,3,6,22)           -68.1678         estimate D2E/DX2                !
 ! D31   D(4,3,6,7)            -67.9742         estimate D2E/DX2                !
 ! D32   D(4,3,6,21)           171.8818         estimate D2E/DX2                !
 ! D33   D(4,3,6,22)            54.5709         estimate D2E/DX2                !
 ! D34   D(15,3,6,7)            53.1459         estimate D2E/DX2                !
 ! D35   D(15,3,6,21)          -66.998          estimate D2E/DX2                !
 ! D36   D(15,3,6,22)          175.6911         estimate D2E/DX2                !
 ! D37   D(2,3,15,9)           -68.7389         estimate D2E/DX2                !
 ! D38   D(4,3,15,9)           170.5612         estimate D2E/DX2                !
 ! D39   D(6,3,15,9)            48.8683         estimate D2E/DX2                !
 ! D40   D(3,4,5,18)           -59.1955         estimate D2E/DX2                !
 ! D41   D(3,4,5,19)          -179.0054         estimate D2E/DX2                !
 ! D42   D(3,4,5,20)            61.461          estimate D2E/DX2                !
 ! D43   D(16,4,5,18)          177.0178         estimate D2E/DX2                !
 ! D44   D(16,4,5,19)           57.2079         estimate D2E/DX2                !
 ! D45   D(16,4,5,20)          -62.3256         estimate D2E/DX2                !
 ! D46   D(17,4,5,18)           64.9555         estimate D2E/DX2                !
 ! D47   D(17,4,5,19)          -54.8544         estimate D2E/DX2                !
 ! D48   D(17,4,5,20)         -174.388          estimate D2E/DX2                !
 ! D49   D(3,6,7,8)            -60.5461         estimate D2E/DX2                !
 ! D50   D(3,6,7,23)           178.9913         estimate D2E/DX2                !
 ! D51   D(3,6,7,24)            62.4708         estimate D2E/DX2                !
 ! D52   D(21,6,7,8)            61.6434         estimate D2E/DX2                !
 ! D53   D(21,6,7,23)          -58.8192         estimate D2E/DX2                !
 ! D54   D(21,6,7,24)         -175.3397         estimate D2E/DX2                !
 ! D55   D(22,6,7,8)           176.1799         estimate D2E/DX2                !
 ! D56   D(22,6,7,23)           55.7173         estimate D2E/DX2                !
 ! D57   D(22,6,7,24)          -60.8032         estimate D2E/DX2                !
 ! D58   D(6,7,8,25)           -13.7377         estimate D2E/DX2                !
 ! D59   D(23,7,8,25)          106.769          estimate D2E/DX2                !
 ! D60   D(24,7,8,25)         -137.7001         estimate D2E/DX2                !
 ! D61   D(7,8,25,9)           115.1981         estimate D2E/DX2                !
 ! D62   D(25,9,15,3)          -69.8766         estimate D2E/DX2                !
 ! D63   D(15,9,25,8)          -71.9837         estimate D2E/DX2                !
 --------------------------------------------------------------------------------
 Trust Radius=3.00D-01 FncErr=1.00D-07 GrdErr=1.00D-06 EigMax=2.50D+02 EigMin=1.00D-04
 Number of steps in this run=    144 maximum allowed number of steps=    150.
 GradGradGradGradGradGradGradGradGradGradGradGradGradGradGradGradGradGrad

 Leave Link  103 at Sat Aug 21 09:31:11 2021, MaxMem=   104857600 cpu:               0.3 elap:               0.0
 (Enter /sw/arch/RedHatEnterpriseServer7/EB_production/2020/software/Gaussian/g16.c01/l202.exe)
                          Input orientation:                          
 ---------------------------------------------------------------------
 Center     Atomic      Atomic             Coordinates (Angstroms)
 Number     Number       Type             X           Y           Z
 ---------------------------------------------------------------------
      1          6           0        0.810045   -0.738353   -1.645773
      2          6           0        1.130683    0.383003   -0.648710
      3          7           0        0.005318    0.643383    0.286512
      4          6           0       -0.112235   -0.451277    1.300333
      5          6           0       -1.512172   -1.070838    1.311898
      6          6           0        0.209013    1.963221    0.943665
      7          6           0       -1.028966    2.457180    1.738818
      8          8           0       -2.184692    2.631740    0.951904
      9         17           0       -2.028447    1.698963   -1.718719
     10          1           0        0.639608   -1.704281   -1.128630
     11          1           0       -0.093127   -0.480467   -2.238179
     12          1           0        1.663313   -0.865462   -2.344859
     13          1           0        1.354395    1.288569   -1.256347
     14          1           0        2.059839    0.131508   -0.088585
     15          1           0       -0.865302    0.695820   -0.290618
     16          1           0        0.614100   -1.274589    1.121267
     17          1           0        0.120213   -0.098417    2.329784
     18          1           0       -2.275997   -0.298772    1.540907
     19          1           0       -1.564344   -1.864235    2.087059
     20          1           0       -1.736218   -1.524455    0.323151
     21          1           0        0.440655    2.745667    0.186014
     22          1           0        1.085760    1.921445    1.629251
     23          1           0       -0.776417    3.433214    2.204873
     24          1           0       -1.262924    1.759666    2.568245
     25          1           0       -1.915944    2.613880    0.000725
 ---------------------------------------------------------------------
                    Distance matrix (angstroms):
                    1          2          3          4          5
     1  C    0.000000
     2  C    1.534400   0.000000
     3  N    2.508088   1.486232   0.000000
     4  C    3.100412   2.457567   1.496640   0.000000
     5  C    3.775057   3.597544   2.508535   1.530952   0.000000
     6  C    3.790110   2.425329   1.488393   2.461750   3.507647
     7  C    5.004883   3.829698   2.543383   3.080874   3.586455
     8  O    5.203259   4.313988   3.031906   3.731149   3.780339
     9  Cl   3.742040   3.585634   3.044897   4.172538   4.137992
    10  H    1.108829   2.197324   2.813623   2.834634   3.314752
    11  H    1.110482   2.183965   2.765284   3.538684   3.868498
    12  H    1.110380   2.172391   3.456830   4.075726   4.847448
    13  H    2.134568   1.113247   2.148648   3.422672   4.514409
    14  H    2.177953   1.113697   2.150295   2.643225   4.020728
    15  H    2.588452   2.051838   1.045853   2.100968   2.471352
    16  H    2.825324   2.479372   2.178543   1.112416   2.144502
    17  H    4.085393   3.181861   2.176793   1.112795   2.155545
    18  H    4.457782   4.106666   2.768675   2.182430   1.109937
    19  H    4.565016   4.449459   3.463229   2.173478   1.110439
    20  H    3.313318   3.577993   2.780973   2.178053   1.110669
    21  H    3.953516   2.599054   2.149236   3.430429   4.432478
    22  H    4.228040   2.749169   2.145634   2.678281   3.975389
    23  H    5.894600   4.591705   3.474820   4.043340   4.650293
    24  H    5.319328   4.239499   2.839160   2.796418   3.106813
    25  H    4.623790   3.831516   2.766908   3.786494   3.931838
                    6          7          8          9         10
     6  C    0.000000
     7  C    1.552049   0.000000
     8  O    2.485319   1.409045   0.000000
     9  Cl   3.487742   3.678099   2.833145   0.000000
    10  H    4.234429   5.322044   5.577309   4.364492   0.000000
    11  H    4.023311   5.032104   4.923120   2.960611   1.807130
    12  H    4.575022   5.913099   6.156802   4.538438   1.797443
    13  H    2.570430   4.002134   4.382421   3.438870   3.079673
    14  H    2.801119   4.276549   5.034861   4.672080   2.543398
    15  H    2.069761   2.692171   2.651874   2.097301   2.954235
    16  H    3.267882   4.123971   4.808464   4.887800   2.290703
    17  H    2.485873   2.863726   3.829477   4.923179   3.848272
    18  H    3.413002   3.031423   2.990512   3.831108   4.195550
    19  H    4.370534   4.368355   4.678376   5.234092   3.901749
    20  H    4.041391   4.284593   4.227341   3.826886   2.790081
    21  H    1.113515   2.157362   2.737154   3.289386   4.644342
    22  H    1.113759   2.184281   3.414553   4.577847   4.577210
    23  H    2.173154   1.110689   2.048299   4.468756   6.285795
    24  H    2.201657   1.108698   2.054928   4.355200   5.411602
    25  H    2.414112   1.957614   0.988578   1.950953   5.143229
                   11         12         13         14         15
    11  H    0.000000
    12  H    1.801300   0.000000
    13  H    2.487730   2.433133   0.000000
    14  H    3.103310   2.498390   1.788885   0.000000
    15  H    2.402686   3.612672   2.492196   2.985919   0.000000
    16  H    3.523731   3.644484   3.573635   2.351810   2.839817
    17  H    4.588874   4.982148   4.038226   3.108621   2.910079
    18  H    4.368000   5.562237   4.850157   4.651866   2.516696
    19  H    4.773571   5.572900   5.444040   4.674518   3.563129
    20  H    3.217153   4.371425   4.467640   4.161945   2.462687
    21  H    4.070574   4.576075   2.244652   3.087230   2.476807
    22  H    4.702762   4.888146   2.966374   2.665270   2.999116
    23  H    5.960243   6.717958   4.595640   4.919915   3.705226
    24  H    5.430316   6.292277   4.658304   4.555260   3.076194
    25  H    4.232061   5.515312   3.745904   4.687963   2.206283
                   16         17         18         19         20
    16  H    0.000000
    17  H    1.757219   0.000000
    18  H    3.079120   2.530670   0.000000
    19  H    2.454802   2.452501   1.804274   0.000000
    20  H    2.494678   3.083261   1.810135   1.804539   0.000000
    21  H    4.131252   3.575926   4.299365   5.374494   4.794948
    22  H    3.270343   2.345820   4.029712   4.643707   4.641517
    23  H    5.027042   3.645815   4.076434   5.357021   5.388931
    24  H    3.850152   2.328606   2.513744   3.668113   4.006233
    25  H    4.772518   4.114244   3.314414   4.952770   4.154766
                   21         22         23         24         25
    21  H    0.000000
    22  H    1.782817   0.000000
    23  H    2.455560   2.466676   0.000000
    24  H    3.090211   2.534600   1.780306   0.000000
    25  H    2.367543   3.484507   2.613063   2.783572   0.000000
 Stoichiometry    C6H16ClNO
 Framework group  C1[X(C6H16ClNO)]
 Deg. of freedom    69
 Full point group                 C1      NOp   1
 Largest Abelian subgroup         C1      NOp   1
 Largest concise Abelian subgroup C1      NOp   1
                         Standard orientation:                         
 ---------------------------------------------------------------------
 Center     Atomic      Atomic             Coordinates (Angstroms)
 Number     Number       Type             X           Y           Z
 ---------------------------------------------------------------------
      1          6           0       -2.555044    1.130412   -0.207108
      2          6           0       -1.655131    0.284728   -1.117798
      3          7           0       -0.561702   -0.383574   -0.365023
      4          6           0       -1.090840   -1.522531    0.449055
      5          6           0       -0.722977   -1.385974    1.928866
      6          6           0        0.480391   -0.846767   -1.321479
      7          6           0        1.787178   -1.321829   -0.631928
      8          8           0        2.428835   -0.325846    0.130765
      9         17           0        0.994442    2.091372    0.486124
     10          1           0       -3.070579    0.503765    0.548564
     11          1           0       -1.955362    1.906267    0.314045
     12          1           0       -3.327943    1.638644   -0.821332
     13          1           0       -1.238967    0.980225   -1.880956
     14          1           0       -2.273079   -0.463334   -1.664485
     15          1           0       -0.135155    0.338860    0.259439
     16          1           0       -2.198287   -1.608293    0.388437
     17          1           0       -0.718499   -2.506977    0.087750
     18          1           0        0.379457   -1.350303    2.052665
     19          1           0       -1.116816   -2.256497    2.494691
     20          1           0       -1.167896   -0.458652    2.348038
     21          1           0        0.762373   -0.026647   -2.019908
     22          1           0        0.083790   -1.673918   -1.953135
     23          1           0        2.492045   -1.662990   -1.419583
     24          1           0        1.588424   -2.197678    0.018147
     25          1           0        2.030754    0.547761   -0.105091
 ---------------------------------------------------------------------
 Rotational constants (GHZ):           1.2083695           1.0265105           0.7817520
 Leave Link  202 at Sat Aug 21 09:31:11 2021, MaxMem=   104857600 cpu:               0.6 elap:               0.1
 (Enter /sw/arch/RedHatEnterpriseServer7/EB_production/2020/software/Gaussian/g16.c01/l301.exe)
 Standard basis: TZVP (5D, 7F)
 Ernie: Thresh=  0.10000D-02 Tol=  0.10000D-05 Strict=F.
 There are   279 symmetry adapted cartesian basis functions of A   symmetry.
 There are   270 symmetry adapted basis functions of A   symmetry.
   270 basis functions,   455 primitive gaussians,   279 cartesian basis functions
    42 alpha electrons       42 beta electrons
       nuclear repulsion energy       602.4732797994 Hartrees.
 IExCor=  404 DFT=T Ex=B Corr=P86 ExCW=0 ScaHFX=  0.000000
 ScaDFX=  1.000000  1.000000  1.000000  1.000000 ScalE2=  1.000000  1.000000
 IRadAn=      5 IRanWt=     -1 IRanGd=            0 ICorTp=0 IEmpDi=131
 NAtoms=   25 NActive=   25 NUniq=   25 SFac= 1.00D+00 NAtFMM=   60 NAOKFM=F Big=F
 Integral buffers will be    131072 words long.
 Raffenetti 2 integral format.
 Two-electron integral symmetry is turned on.
 R6Disp:  Grimme-D3 Dispersion energy=       -0.0313682679 Hartrees.
 Nuclear repulsion after empirical dispersion term =      602.4419115315 Hartrees.
 ------------------------------------------------------------------------------
 Polarizable Continuum Model (PCM)
 =================================
 Model                : PCM.
 Atomic radii         : UFF (Universal Force Field).
 Polarization charges : Total charges.
 Charge compensation  : None.
 Solution method      : On-the-fly selection.
 Cavity type          : Scaled VdW (van der Waals Surface) (Alpha=1.100).
 Cavity algorithm     : GePol (No added spheres)
                        Default sphere list used, NSphG=   25.
                        Lebedev-Laikov grids with approx.  5.0 points / Ang**2.
                        Smoothing algorithm: York/Karplus (Gamma=1.0000).
                        Polarization charges: spherical gaussians, with
                                              point-specific exponents (IZeta= 3).
                        Self-potential: point-specific (ISelfS= 7).
                        Self-field    : sphere-specific E.n sum rule (ISelfD= 2).
 1st derivatives      : Analytical E(r).r(x)/FMM algorithm (CHGder, D1EAlg=3).
                        Cavity 1st derivative terms included.
 Solvent              : Water, Eps=  78.355300 Eps(inf)=   1.777849
 ------------------------------------------------------------------------------
 GePol: Number of generator spheres                  =      25
 GePol: Total number of spheres                      =      25
 GePol: Number of exposed spheres                    =      24 ( 96.00%)
 GePol: Number of points                             =    1677
 GePol: Average weight of points                     =       0.14
 GePol: Minimum weight of points                     =   0.33D-08
 GePol: Maximum weight of points                     =    0.21616
 GePol: Number of points with low weight             =     107
 GePol: Fraction of low-weight points (<1% of avg)   =       6.38%
 GePol: Cavity surface area                          =    231.407 Ang**2
 GePol: Cavity volume                                =    242.705 Ang**3
 Leave Link  301 at Sat Aug 21 09:31:11 2021, MaxMem=   104857600 cpu:               1.5 elap:               0.1
 (Enter /sw/arch/RedHatEnterpriseServer7/EB_production/2020/software/Gaussian/g16.c01/l302.exe)
 NPDir=0 NMtPBC=     1 NCelOv=     1 NCel=       1 NClECP=     1 NCelD=      1
         NCelK=      1 NCelE2=     1 NClLst=     1 CellRange=     0.0.
 One-electron integrals computed using PRISM.
 One-electron integral symmetry used in STVInt
 NBasis=   270 RedAO= T EigKep=  2.66D-04  NBF=   270
 NBsUse=   270 1.00D-06 EigRej= -1.00D+00 NBFU=   270
 Precomputing XC quadrature grid using
 IXCGrd= 4 IRadAn=           5 IRanWt=          -1 IRanGd=           0 AccXCQ= 0.00D+00.
 Generated NRdTot=       0 NPtTot=           0 NUsed=           0 NTot=          32
 NSgBfM=   278   278   278   278   278 MxSgAt=    25 MxSgA2=    25.
 Leave Link  302 at Sat Aug 21 09:31:12 2021, MaxMem=   104857600 cpu:               6.7 elap:               0.3
 (Enter /sw/arch/RedHatEnterpriseServer7/EB_production/2020/software/Gaussian/g16.c01/l303.exe)
 DipDrv:  MaxL=1.
 Leave Link  303 at Sat Aug 21 09:31:13 2021, MaxMem=   104857600 cpu:               2.6 elap:               0.2
 (Enter /sw/arch/RedHatEnterpriseServer7/EB_production/2020/software/Gaussian/g16.c01/l401.exe)
 ExpMin= 9.52D-02 ExpMax= 6.95D+04 ExpMxC= 2.37D+03 IAcc=3 IRadAn=         5 AccDes= 0.00D+00
 Harris functional with IExCor=  404 and IRadAn=       5 diagonalized for initial guess.
 HarFok:  IExCor=  404 AccDes= 0.00D+00 IRadAn=         5 IDoV= 1 UseB2=F ITyADJ=14
 ICtDFT=  3500011 ScaDFX=  1.000000  1.000000  1.000000  1.000000
 FoFCou: FMM=F IPFlag=           0 FMFlag=      100000 FMFlg1=           0
         NFxFlg=           0 DoJE=T BraDBF=F KetDBF=T FulRan=T
         wScrn=  0.000000 ICntrl=       500 IOpCl=  0 I1Cent=   200000004 NGrid=           0
         NMat0=    1 NMatS0=      1 NMatT0=    0 NMatD0=    1 NMtDS0=    0 NMtDT0=    0
 Petite list used in FoFCou.
 Harris En= -828.765679510398    
 JPrj=0 DoOrth=F DoCkMO=F.
 Leave Link  401 at Sat Aug 21 09:31:13 2021, MaxMem=   104857600 cpu:              15.1 elap:               0.7
 (Enter /sw/arch/RedHatEnterpriseServer7/EB_production/2020/software/Gaussian/g16.c01/l502.exe)
 Integral symmetry usage will be decided dynamically.
 Closed shell SCF:
 Using DIIS extrapolation, IDIIS=  1040.
 NGot=   104857600 LenX=   104691616 LenY=   104613334
 Requested convergence on RMS density matrix=1.00D-08 within 128 cycles.
 Requested convergence on MAX density matrix=1.00D-06.
 Requested convergence on             energy=1.00D-06.
 No special actions if energy rises.
 Fock matrices will be formed incrementally for  20 cycles.

 Cycle   1  Pass 1  IDiag  1:
 FoFJK:  IHMeth= 1 ICntrl=     500 DoSepK=F KAlg= 0 I1Cent=           0 FoldK=F
 IRaf= 940000000 NMat=       1 IRICut=       1 DoRegI=T DoRafI=F ISym2E= 0 IDoP0=0 IntGTp=1.
 FoFCou: FMM=F IPFlag=           0 FMFlag=      100000 FMFlg1=           0
         NFxFlg=           0 DoJE=T BraDBF=F KetDBF=F FulRan=T
         wScrn=  0.000000 ICntrl=       500 IOpCl=  0 I1Cent=           0 NGrid=           0
         NMat0=    1 NMatS0=      1 NMatT0=    0 NMatD0=    1 NMtDS0=    0 NMtDT0=    0
 Symmetry not used in FoFCou.
 Inv3:  Mode=1 IEnd=     8436987.
 Iteration    1 A*A^-1 deviation from unit magnitude is 3.11D-15 for    188.
 Iteration    1 A*A^-1 deviation from orthogonality  is 1.94D-15 for   1152    452.
 Iteration    1 A^-1*A deviation from unit magnitude is 3.33D-15 for    188.
 Iteration    1 A^-1*A deviation from orthogonality  is 2.54D-15 for   1266      1.
 E= -828.444911294429    
 DIIS: error= 2.10D-02 at cycle   1 NSaved=   1.
 NSaved= 1 IEnMin= 1 EnMin= -828.444911294429     IErMin= 1 ErrMin= 2.10D-02
 ErrMax= 2.10D-02  0.00D+00 EMaxC= 1.00D-01 BMatC= 2.56D-01 BMatP= 2.56D-01
 IDIUse=3 WtCom= 7.90D-01 WtEn= 2.10D-01
 Coeff-Com:  0.100D+01
 Coeff-En:   0.100D+01
 Coeff:      0.100D+01
 Gap=     0.242 Goal=   None    Shift=    0.000
 GapD=    0.242 DampG=1.000 DampE=0.500 DampFc=0.5000 IDamp=-1.
 Damping current iteration by 5.00D-01
 RMSDP=4.71D-03 MaxDP=9.44D-02              OVMax= 2.33D-01

 Cycle   2  Pass 1  IDiag  1:
 RMSU=  2.35D-03    CP:  9.91D-01
 E= -828.505420842352     Delta-E=       -0.060509547924 Rises=F Damp=T
 DIIS: error= 1.06D-02 at cycle   2 NSaved=   2.
 NSaved= 2 IEnMin= 2 EnMin= -828.505420842352     IErMin= 2 ErrMin= 1.06D-02
 ErrMax= 1.06D-02  0.00D+00 EMaxC= 1.00D-01 BMatC= 4.11D-02 BMatP= 2.56D-01
 IDIUse=3 WtCom= 8.94D-01 WtEn= 1.06D-01
 Coeff-Com:  0.234D+00 0.766D+00
 Coeff-En:   0.363D+00 0.637D+00
 Coeff:      0.248D+00 0.752D+00
 Gap=     0.254 Goal=   None    Shift=    0.000
 RMSDP=1.41D-03 MaxDP=3.11D-02 DE=-6.05D-02 OVMax= 1.65D-01

 Cycle   3  Pass 1  IDiag  1:
 RMSU=  1.05D-03    CP:  9.92D-01  6.04D-01
 E= -828.663241067722     Delta-E=       -0.157820225370 Rises=F Damp=F
 DIIS: error= 7.24D-03 at cycle   3 NSaved=   3.
 NSaved= 3 IEnMin= 3 EnMin= -828.663241067722     IErMin= 3 ErrMin= 7.24D-03
 ErrMax= 7.24D-03  0.00D+00 EMaxC= 1.00D-01 BMatC= 1.61D-02 BMatP= 4.11D-02
 IDIUse=3 WtCom= 9.28D-01 WtEn= 7.24D-02
 Coeff-Com:  0.774D-01 0.384D+00 0.539D+00
 Coeff-En:   0.000D+00 0.000D+00 0.100D+01
 Coeff:      0.718D-01 0.356D+00 0.572D+00
 Gap=     0.233 Goal=   None    Shift=    0.000
 RMSDP=6.21D-04 MaxDP=1.71D-02 DE=-1.58D-01 OVMax= 3.47D-02

 Cycle   4  Pass 1  IDiag  1:
 RMSU=  4.13D-04    CP:  9.96D-01  6.87D-01  6.04D-01
 E= -828.671423080574     Delta-E=       -0.008182012852 Rises=F Damp=F
 DIIS: error= 3.90D-03 at cycle   4 NSaved=   4.
 NSaved= 4 IEnMin= 4 EnMin= -828.671423080574     IErMin= 4 ErrMin= 3.90D-03
 ErrMax= 3.90D-03  0.00D+00 EMaxC= 1.00D-01 BMatC= 5.52D-03 BMatP= 1.61D-02
 IDIUse=3 WtCom= 9.61D-01 WtEn= 3.90D-02
 Coeff-Com:  0.132D-01 0.102D+00 0.372D+00 0.513D+00
 Coeff-En:   0.000D+00 0.000D+00 0.288D+00 0.712D+00
 Coeff:      0.127D-01 0.985D-01 0.368D+00 0.520D+00
 Gap=     0.230 Goal=   None    Shift=    0.000
 RMSDP=2.73D-04 MaxDP=6.99D-03 DE=-8.18D-03 OVMax= 1.16D-02

 Cycle   5  Pass 1  IDiag  1:
 RMSU=  1.36D-04    CP:  9.93D-01  6.42D-01  6.94D-01  5.49D-01
 E= -828.675651088799     Delta-E=       -0.004228008225 Rises=F Damp=F
 DIIS: error= 4.73D-04 at cycle   5 NSaved=   5.
 NSaved= 5 IEnMin= 5 EnMin= -828.675651088799     IErMin= 5 ErrMin= 4.73D-04
 ErrMax= 4.73D-04  0.00D+00 EMaxC= 1.00D-01 BMatC= 1.30D-04 BMatP= 5.52D-03
 IDIUse=3 WtCom= 9.95D-01 WtEn= 4.73D-03
 Coeff-Com:  0.288D-02 0.286D-01 0.145D+00 0.247D+00 0.577D+00
 Coeff-En:   0.000D+00 0.000D+00 0.000D+00 0.000D+00 0.100D+01
 Coeff:      0.287D-02 0.284D-01 0.144D+00 0.245D+00 0.579D+00
 Gap=     0.227 Goal=   None    Shift=    0.000
 RMSDP=5.76D-05 MaxDP=1.75D-03 DE=-4.23D-03 OVMax= 1.53D-03

 Cycle   6  Pass 1  IDiag  1:
 RMSU=  2.77D-05    CP:  9.94D-01  6.49D-01  7.09D-01  5.73D-01  6.82D-01
 E= -828.675745970825     Delta-E=       -0.000094882026 Rises=F Damp=F
 DIIS: error= 1.75D-04 at cycle   6 NSaved=   6.
 NSaved= 6 IEnMin= 6 EnMin= -828.675745970825     IErMin= 6 ErrMin= 1.75D-04
 ErrMax= 1.75D-04  0.00D+00 EMaxC= 1.00D-01 BMatC= 1.35D-05 BMatP= 1.30D-04
 IDIUse=3 WtCom= 9.98D-01 WtEn= 1.75D-03
 Coeff-Com:  0.517D-03 0.862D-02 0.550D-01 0.102D+00 0.324D+00 0.510D+00
 Coeff-En:   0.000D+00 0.000D+00 0.000D+00 0.000D+00 0.000D+00 0.100D+01
 Coeff:      0.516D-03 0.861D-02 0.549D-01 0.102D+00 0.323D+00 0.511D+00
 Gap=     0.228 Goal=   None    Shift=    0.000
 RMSDP=1.41D-05 MaxDP=5.48D-04 DE=-9.49D-05 OVMax= 6.44D-04

 Cycle   7  Pass 1  IDiag  1:
 RMSU=  9.86D-06    CP:  9.94D-01  6.49D-01  7.11D-01  5.82D-01  6.66D-01
                    CP:  6.83D-01
 E= -828.675755660909     Delta-E=       -0.000009690085 Rises=F Damp=F
 DIIS: error= 5.55D-05 at cycle   7 NSaved=   7.
 NSaved= 7 IEnMin= 7 EnMin= -828.675755660909     IErMin= 7 ErrMin= 5.55D-05
 ErrMax= 5.55D-05  0.00D+00 EMaxC= 1.00D-01 BMatC= 1.18D-06 BMatP= 1.35D-05
 IDIUse=1 WtCom= 1.00D+00 WtEn= 0.00D+00
 Coeff-Com:  0.188D-04 0.250D-02 0.198D-01 0.377D-01 0.131D+00 0.292D+00
 Coeff-Com:  0.516D+00
 Coeff:      0.188D-04 0.250D-02 0.198D-01 0.377D-01 0.131D+00 0.292D+00
 Coeff:      0.516D+00
 Gap=     0.228 Goal=   None    Shift=    0.000
 RMSDP=5.99D-06 MaxDP=1.85D-04 DE=-9.69D-06 OVMax= 2.14D-04

 Cycle   8  Pass 1  IDiag  1:
 RMSU=  3.18D-06    CP:  9.94D-01  6.49D-01  7.09D-01  5.82D-01  6.94D-01
                    CP:  6.53D-01  7.35D-01
 E= -828.675756604847     Delta-E=       -0.000000943938 Rises=F Damp=F
 DIIS: error= 1.33D-05 at cycle   8 NSaved=   8.
 NSaved= 8 IEnMin= 8 EnMin= -828.675756604847     IErMin= 8 ErrMin= 1.33D-05
 ErrMax= 1.33D-05  0.00D+00 EMaxC= 1.00D-01 BMatC= 8.96D-08 BMatP= 1.18D-06
 IDIUse=1 WtCom= 1.00D+00 WtEn= 0.00D+00
 Coeff-Com: -0.939D-05 0.376D-03 0.389D-02 0.737D-02 0.307D-01 0.983D-01
 Coeff-Com:  0.280D+00 0.580D+00
 Coeff:     -0.939D-05 0.376D-03 0.389D-02 0.737D-02 0.307D-01 0.983D-01
 Coeff:      0.280D+00 0.580D+00
 Gap=     0.228 Goal=   None    Shift=    0.000
 RMSDP=1.67D-06 MaxDP=9.57D-05 DE=-9.44D-07 OVMax= 1.01D-04

 Cycle   9  Pass 1  IDiag  1:
 RMSU=  9.78D-07    CP:  9.94D-01  6.49D-01  7.10D-01  5.81D-01  6.92D-01
                    CP:  6.75D-01  7.23D-01  7.23D-01
 E= -828.675756729781     Delta-E=       -0.000000124934 Rises=F Damp=F
 DIIS: error= 3.19D-06 at cycle   9 NSaved=   9.
 NSaved= 9 IEnMin= 9 EnMin= -828.675756729781     IErMin= 9 ErrMin= 3.19D-06
 ErrMax= 3.19D-06  0.00D+00 EMaxC= 1.00D-01 BMatC= 6.27D-09 BMatP= 8.96D-08
 IDIUse=1 WtCom= 1.00D+00 WtEn= 0.00D+00
 Coeff-Com: -0.798D-05-0.154D-04 0.493D-03 0.885D-03 0.519D-02 0.249D-01
 Coeff-Com:  0.960D-01 0.293D+00 0.579D+00
 Coeff:     -0.798D-05-0.154D-04 0.493D-03 0.885D-03 0.519D-02 0.249D-01
 Coeff:      0.960D-01 0.293D+00 0.579D+00
 Gap=     0.228 Goal=   None    Shift=    0.000
 RMSDP=4.44D-07 MaxDP=1.51D-05 DE=-1.25D-07 OVMax= 1.42D-05

 Cycle  10  Pass 1  IDiag  1:
 RMSU=  2.15D-07    CP:  9.94D-01  6.49D-01  7.09D-01  5.81D-01  6.91D-01
                    CP:  6.78D-01  7.43D-01  7.17D-01  6.92D-01
 E= -828.675756717812     Delta-E=        0.000000011969 Rises=F Damp=F
 DIIS: error= 1.04D-06 at cycle  10 NSaved=  10.
 NSaved=10 IEnMin= 9 EnMin= -828.675756729781     IErMin=10 ErrMin= 1.04D-06
 ErrMax= 1.04D-06  0.00D+00 EMaxC= 1.00D-01 BMatC= 2.90D-10 BMatP= 6.27D-09
 IDIUse=1 WtCom= 1.00D+00 WtEn= 0.00D+00
 Coeff-Com: -0.206D-05-0.242D-04 0.302D-04 0.336D-04 0.700D-03 0.500D-02
 Coeff-Com:  0.250D-01 0.100D+00 0.244D+00 0.625D+00
 Coeff:     -0.206D-05-0.242D-04 0.302D-04 0.336D-04 0.700D-03 0.500D-02
 Coeff:      0.250D-01 0.100D+00 0.244D+00 0.625D+00
 Gap=     0.228 Goal=   None    Shift=    0.000
 RMSDP=1.16D-07 MaxDP=3.48D-06 DE= 1.20D-08 OVMax= 3.91D-06

 Cycle  11  Pass 1  IDiag  1:
 RMSU=  6.24D-08    CP:  9.94D-01  6.49D-01  7.09D-01  5.81D-01  6.91D-01
                    CP:  6.77D-01  7.45D-01  7.36D-01  7.05D-01  7.63D-01
 E= -828.675756722985     Delta-E=       -0.000000005173 Rises=F Damp=F
 DIIS: error= 2.54D-07 at cycle  11 NSaved=  11.
 NSaved=11 IEnMin= 9 EnMin= -828.675756729781     IErMin=11 ErrMin= 2.54D-07
 ErrMax= 2.54D-07  0.00D+00 EMaxC= 1.00D-01 BMatC= 5.31D-11 BMatP= 2.90D-10
 IDIUse=1 WtCom= 1.00D+00 WtEn= 0.00D+00
 Coeff-Com:  0.423D-06-0.114D-04-0.415D-04-0.903D-04-0.185D-03 0.203D-03
 Coeff-Com:  0.450D-02 0.290D-01 0.737D-01 0.337D+00 0.556D+00
 Coeff:      0.423D-06-0.114D-04-0.415D-04-0.903D-04-0.185D-03 0.203D-03
 Coeff:      0.450D-02 0.290D-01 0.737D-01 0.337D+00 0.556D+00
 Gap=     0.228 Goal=   None    Shift=    0.000
 RMSDP=3.29D-08 MaxDP=1.06D-06 DE=-5.17D-09 OVMax= 1.43D-06

 Cycle  12  Pass 1  IDiag  1:
 RMSU=  1.61D-08    CP:  9.94D-01  6.49D-01  7.09D-01  5.81D-01  6.91D-01
                    CP:  6.77D-01  7.44D-01  7.38D-01  7.19D-01  7.81D-01
                    CP:  7.34D-01
 E= -828.675756723036     Delta-E=       -0.000000000051 Rises=F Damp=F
 DIIS: error= 9.19D-08 at cycle  12 NSaved=  12.
 NSaved=12 IEnMin= 9 EnMin= -828.675756729781     IErMin=12 ErrMin= 9.19D-08
 ErrMax= 9.19D-08  0.00D+00 EMaxC= 1.00D-01 BMatC= 1.32D-12 BMatP= 5.31D-11
 IDIUse=1 WtCom= 1.00D+00 WtEn= 0.00D+00
 Coeff-Com:  0.143D-06-0.308D-05-0.156D-04-0.328D-04-0.921D-04-0.165D-03
 Coeff-Com:  0.520D-03 0.679D-02 0.168D-01 0.107D+00 0.232D+00 0.637D+00
 Coeff:      0.143D-06-0.308D-05-0.156D-04-0.328D-04-0.921D-04-0.165D-03
 Coeff:      0.520D-03 0.679D-02 0.168D-01 0.107D+00 0.232D+00 0.637D+00
 Gap=     0.228 Goal=   None    Shift=    0.000
 RMSDP=8.38D-09 MaxDP=2.91D-07 DE=-5.06D-11 OVMax= 2.97D-07

 Error on total polarization charges =  0.01525
 SCF Done:  E(RB-P86) =  -828.675756723     A.U. after   12 cycles
            NFock= 12  Conv=0.84D-08     -V/T= 2.0040
 KE= 8.253833667129D+02 PE=-3.155701905629D+03 EE= 8.992008706617D+02
 Leave Link  502 at Sat Aug 21 09:31:33 2021, MaxMem=   104857600 cpu:             468.1 elap:              19.8
 (Enter /sw/arch/RedHatEnterpriseServer7/EB_production/2020/software/Gaussian/g16.c01/l601.exe)
 Copying SCF densities to generalized density rwf, IOpCl= 0 IROHF=0.

 **********************************************************************

            Population analysis using the SCF Density.

 **********************************************************************

 Orbital symmetries:
       Occupied  (A) (A) (A) (A) (A) (A) (A) (A) (A) (A) (A) (A)
                 (A) (A) (A) (A) (A) (A) (A) (A) (A) (A) (A) (A)
                 (A) (A) (A) (A) (A) (A) (A) (A) (A) (A) (A) (A)
                 (A) (A) (A) (A) (A) (A)
       Virtual   (A) (A) (A) (A) (A) (A) (A) (A) (A) (A) (A) (A)
                 (A) (A) (A) (A) (A) (A) (A) (A) (A) (A) (A) (A)
                 (A) (A) (A) (A) (A) (A) (A) (A) (A) (A) (A) (A)
                 (A) (A) (A) (A) (A) (A) (A) (A) (A) (A) (A) (A)
                 (A) (A) (A) (A) (A) (A) (A) (A) (A) (A) (A) (A)
                 (A) (A) (A) (A) (A) (A) (A) (A) (A) (A) (A) (A)
                 (A) (A) (A) (A) (A) (A) (A) (A) (A) (A) (A) (A)
                 (A) (A) (A) (A) (A) (A) (A) (A) (A) (A) (A) (A)
                 (A) (A) (A) (A) (A) (A) (A) (A) (A) (A) (A) (A)
                 (A) (A) (A) (A) (A) (A) (A) (A) (A) (A) (A) (A)
                 (A) (A) (A) (A) (A) (A) (A) (A) (A) (A) (A) (A)
                 (A) (A) (A) (A) (A) (A) (A) (A) (A) (A) (A) (A)
                 (A) (A) (A) (A) (A) (A) (A) (A) (A) (A) (A) (A)
                 (A) (A) (A) (A) (A) (A) (A) (A) (A) (A) (A) (A)
                 (A) (A) (A) (A) (A) (A) (A) (A) (A) (A) (A) (A)
                 (A) (A) (A) (A) (A) (A) (A) (A) (A) (A) (A) (A)
                 (A) (A) (A) (A) (A) (A) (A) (A) (A) (A) (A) (A)
                 (A) (A) (A) (A) (A) (A) (A) (A) (A) (A) (A) (A)
                 (A) (A) (A) (A) (A) (A) (A) (A) (A) (A) (A) (A)
 The electronic state is 1-A.
 Alpha  occ. eigenvalues -- -100.66568 -18.75724 -14.12275  -9.96398  -9.96281
 Alpha  occ. eigenvalues --   -9.96129  -9.95663  -9.91047  -9.90763  -9.10480
 Alpha  occ. eigenvalues --   -6.92351  -6.92304  -6.92209  -0.95027  -0.93003
 Alpha  occ. eigenvalues --   -0.72714  -0.72097  -0.67388  -0.65851  -0.60034
 Alpha  occ. eigenvalues --   -0.59567  -0.58077  -0.49934  -0.48749  -0.47490
 Alpha  occ. eigenvalues --   -0.43495  -0.42582  -0.40495  -0.39827  -0.39431
 Alpha  occ. eigenvalues --   -0.37324  -0.35848  -0.34803  -0.34384  -0.33937
 Alpha  occ. eigenvalues --   -0.32523  -0.31977  -0.30036  -0.24229  -0.23345
 Alpha  occ. eigenvalues --   -0.23211  -0.21813
 Alpha virt. eigenvalues --    0.00941   0.02347   0.03294   0.03828   0.03987
 Alpha virt. eigenvalues --    0.04781   0.05741   0.06648   0.07526   0.07891
 Alpha virt. eigenvalues --    0.08585   0.08837   0.09564   0.09683   0.10639
 Alpha virt. eigenvalues --    0.11230   0.11763   0.12456   0.13555   0.15558
 Alpha virt. eigenvalues --    0.16756   0.17220   0.18555   0.19950   0.20121
 Alpha virt. eigenvalues --    0.21175   0.22851   0.23355   0.23742   0.24401
 Alpha virt. eigenvalues --    0.26589   0.27806   0.28642   0.29683   0.31193
 Alpha virt. eigenvalues --    0.31893   0.32720   0.33708   0.35573   0.35875
 Alpha virt. eigenvalues --    0.36390   0.37321   0.37790   0.38333   0.39408
 Alpha virt. eigenvalues --    0.39721   0.40230   0.40355   0.41094   0.41730
 Alpha virt. eigenvalues --    0.42578   0.42980   0.43740   0.44370   0.44526
 Alpha virt. eigenvalues --    0.45007   0.46278   0.47551   0.47999   0.48548
 Alpha virt. eigenvalues --    0.49485   0.51243   0.52812   0.54041   0.55543
 Alpha virt. eigenvalues --    0.57117   0.58627   0.60751   0.61147   0.65440
 Alpha virt. eigenvalues --    0.65725   0.69566   0.75796   0.78470   0.82275
 Alpha virt. eigenvalues --    0.82825   0.83733   0.88540   0.89234   1.00841
 Alpha virt. eigenvalues --    1.02374   1.04444   1.14218   1.14670   1.16231
 Alpha virt. eigenvalues --    1.18287   1.19056   1.20006   1.20884   1.22489
 Alpha virt. eigenvalues --    1.23678   1.24508   1.25753   1.26851   1.27977
 Alpha virt. eigenvalues --    1.28583   1.29599   1.30552   1.31255   1.32579
 Alpha virt. eigenvalues --    1.34355   1.35084   1.36539   1.38647   1.39369
 Alpha virt. eigenvalues --    1.41515   1.43700   1.45670   1.46847   1.47010
 Alpha virt. eigenvalues --    1.49191   1.49761   1.50171   1.54222   1.54837
 Alpha virt. eigenvalues --    1.55434   1.58952   1.60597   1.62941   1.63877
 Alpha virt. eigenvalues --    1.64953   1.67046   1.67808   1.68943   1.69076
 Alpha virt. eigenvalues --    1.70580   1.70921   1.72216   1.72731   1.74130
 Alpha virt. eigenvalues --    1.74737   1.75652   1.77371   1.78602   1.79773
 Alpha virt. eigenvalues --    1.81896   1.82536   1.84539   1.85919   1.87665
 Alpha virt. eigenvalues --    1.90186   1.91610   1.92546   1.95753   1.96702
 Alpha virt. eigenvalues --    1.99211   2.01344   2.03547   2.08603   2.11412
 Alpha virt. eigenvalues --    2.12384   2.17038   2.17681   2.19511   2.20884
 Alpha virt. eigenvalues --    2.22542   2.23833   2.25391   2.26852   2.28033
 Alpha virt. eigenvalues --    2.31307   2.31918   2.32735   2.35785   2.38066
 Alpha virt. eigenvalues --    2.38582   2.38971   2.41503   2.43512   2.44976
 Alpha virt. eigenvalues --    2.46548   2.48390   2.49846   2.50660   2.51157
 Alpha virt. eigenvalues --    2.52409   2.55163   2.56116   2.58966   2.59902
 Alpha virt. eigenvalues --    2.60739   2.62895   2.64318   2.65490   2.67822
 Alpha virt. eigenvalues --    2.68675   2.71093   2.73699   2.76345   2.79425
 Alpha virt. eigenvalues --    2.80595   2.83832   2.87550   2.92591   2.94152
 Alpha virt. eigenvalues --    2.95397   2.98125   3.04041   3.07078   3.08915
 Alpha virt. eigenvalues --    3.10863   3.14103   3.15287   3.17948   3.22111
 Alpha virt. eigenvalues --    3.24259   3.25570   3.25993   3.27112   3.28442
 Alpha virt. eigenvalues --    3.29656   3.33588   3.34566   3.34910   3.63272
 Alpha virt. eigenvalues --    3.64333   3.74282   3.91112   4.18921  21.64681
 Alpha virt. eigenvalues --   21.70361  21.71475  21.75640  21.77601  21.84687
 Alpha virt. eigenvalues --   24.53948  31.64800  43.18843
          Condensed to atoms (all electrons):
               1          2          3          4          5          6
     1  C    5.135508   0.216232  -0.035543  -0.014822   0.003048   0.017192
     2  C    0.216232   5.251498   0.216270  -0.020006  -0.012139  -0.106745
     3  N   -0.035543   0.216270   6.688115   0.089541  -0.000286   0.098268
     4  C   -0.014822  -0.020006   0.089541   5.398007   0.174618   0.006496
     5  C    0.003048  -0.012139  -0.000286   0.174618   5.150766  -0.021360
     6  C    0.017192  -0.106745   0.098268   0.006496  -0.021360   5.494187
     7  C   -0.002606   0.019050  -0.031603  -0.000805   0.002491   0.220538
     8  O    0.000187  -0.002200   0.012565  -0.022242   0.000702  -0.062601
     9  Cl  -0.020023   0.001450  -0.090535   0.004542  -0.003425   0.029586
    10  H    0.391400  -0.033460  -0.009676   0.023633  -0.009312  -0.000303
    11  H    0.387198  -0.037403  -0.003675  -0.005685   0.000711  -0.001777
    12  H    0.392409  -0.028149   0.006116  -0.000318   0.000187  -0.000272
    13  H   -0.038883   0.401140  -0.029854   0.012323  -0.001008  -0.009058
    14  H   -0.031688   0.402443  -0.017326  -0.022008   0.002767  -0.006535
    15  H   -0.005151  -0.040469   0.320633  -0.073976   0.001002  -0.030639
    16  H   -0.015134   0.019592  -0.039275   0.405650  -0.041924  -0.000002
    17  H    0.002038  -0.005663  -0.033649   0.410088  -0.040646   0.015995
    18  H   -0.000795   0.002908   0.001830  -0.044286   0.401083  -0.012411
    19  H    0.000119  -0.000216   0.004623  -0.023128   0.385172  -0.000058
    20  H    0.004533  -0.006074  -0.005337  -0.027747   0.389534   0.003429
    21  H   -0.000838  -0.010730  -0.041439   0.015029  -0.001491   0.400606
    22  H    0.000903  -0.007358  -0.009343  -0.025967   0.004910   0.380149
    23  H    0.000063  -0.000144   0.013201  -0.004208   0.000709  -0.040640
    24  H   -0.000007  -0.001975  -0.026351   0.036836  -0.010049  -0.031565
    25  H    0.000643  -0.001475   0.000169   0.003516   0.000644   0.010721
               7          8          9         10         11         12
     1  C   -0.002606   0.000187  -0.020023   0.391400   0.387198   0.392409
     2  C    0.019050  -0.002200   0.001450  -0.033460  -0.037403  -0.028149
     3  N   -0.031603   0.012565  -0.090535  -0.009676  -0.003675   0.006116
     4  C   -0.000805  -0.022242   0.004542   0.023633  -0.005685  -0.000318
     5  C    0.002491   0.000702  -0.003425  -0.009312   0.000711   0.000187
     6  C    0.220538  -0.062601   0.029586  -0.000303  -0.001777  -0.000272
     7  C    4.958097   0.296785  -0.001894  -0.000001   0.000210   0.000049
     8  O    0.296785   8.039313  -0.087827   0.000025   0.000116  -0.000003
     9  Cl  -0.001894  -0.087827  17.649400   0.000557   0.020726   0.000296
    10  H   -0.000001   0.000025   0.000557   0.530792  -0.024930  -0.021578
    11  H    0.000210   0.000116   0.020726  -0.024930   0.528198  -0.016750
    12  H    0.000049  -0.000003   0.000296  -0.021578  -0.016750   0.502924
    13  H    0.000192   0.000047   0.006495   0.006596  -0.006617  -0.003195
    14  H   -0.000375  -0.000026   0.000298  -0.005694   0.006078  -0.000290
    15  H   -0.004960   0.021863   0.114716  -0.001437   0.007732   0.000612
    16  H    0.002001  -0.000309  -0.000275   0.001032   0.000842   0.000008
    17  H   -0.015642   0.000929  -0.000256   0.000314  -0.000125  -0.000003
    18  H    0.012766   0.010276   0.000946   0.000249   0.000028  -0.000011
    19  H   -0.000023  -0.000019   0.000188   0.000395  -0.000047  -0.000002
    20  H   -0.001820  -0.000217   0.002093  -0.000684  -0.000254   0.000074
    21  H   -0.029549  -0.007705   0.002903  -0.000047   0.000172   0.000010
    22  H   -0.029219   0.006272   0.000641   0.000041  -0.000042  -0.000010
    23  H    0.400586  -0.052647  -0.000072   0.000002   0.000001  -0.000002
    24  H    0.381717  -0.060761  -0.000493  -0.000024   0.000017   0.000003
    25  H   -0.059026   0.282023   0.082555  -0.000031  -0.000316  -0.000006
              13         14         15         16         17         18
     1  C   -0.038883  -0.031688  -0.005151  -0.015134   0.002038  -0.000795
     2  C    0.401140   0.402443  -0.040469   0.019592  -0.005663   0.002908
     3  N   -0.029854  -0.017326   0.320633  -0.039275  -0.033649   0.001830
     4  C    0.012323  -0.022008  -0.073976   0.405650   0.410088  -0.044286
     5  C   -0.001008   0.002767   0.001002  -0.041924  -0.040646   0.401083
     6  C   -0.009058  -0.006535  -0.030639  -0.000002   0.015995  -0.012411
     7  C    0.000192  -0.000375  -0.004960   0.002001  -0.015642   0.012766
     8  O    0.000047  -0.000026   0.021863  -0.000309   0.000929   0.010276
     9  Cl   0.006495   0.000298   0.114716  -0.000275  -0.000256   0.000946
    10  H    0.006596  -0.005694  -0.001437   0.001032   0.000314   0.000249
    11  H   -0.006617   0.006078   0.007732   0.000842  -0.000125   0.000028
    12  H   -0.003195  -0.000290   0.000612   0.000008  -0.000003  -0.000011
    13  H    0.506850  -0.023575  -0.004218   0.000567  -0.000079   0.000069
    14  H   -0.023575   0.487895   0.004393  -0.002928   0.001103  -0.000189
    15  H   -0.004218   0.004393   0.491924  -0.000843   0.002603   0.003307
    16  H    0.000567  -0.002928  -0.000843   0.477374  -0.017272   0.005101
    17  H   -0.000079   0.001103   0.002603  -0.017272   0.470497  -0.004041
    18  H    0.000069  -0.000189   0.003307   0.005101  -0.004041   0.524074
    19  H    0.000030  -0.000092   0.000849  -0.002437  -0.001800  -0.017844
    20  H   -0.000079   0.000193   0.003322  -0.006034   0.005905  -0.028228
    21  H    0.004621   0.000525  -0.009929   0.000093   0.000469  -0.000280
    22  H   -0.000509   0.003125   0.005016   0.000586  -0.002565   0.000100
    23  H    0.000082  -0.000024   0.001856  -0.000071   0.000197   0.000950
    24  H   -0.000107   0.000154  -0.005450   0.000855   0.000273  -0.010626
    25  H   -0.000089   0.000071  -0.021865   0.000126  -0.000088  -0.001849
              19         20         21         22         23         24
     1  C    0.000119   0.004533  -0.000838   0.000903   0.000063  -0.000007
     2  C   -0.000216  -0.006074  -0.010730  -0.007358  -0.000144  -0.001975
     3  N    0.004623  -0.005337  -0.041439  -0.009343   0.013201  -0.026351
     4  C   -0.023128  -0.027747   0.015029  -0.025967  -0.004208   0.036836
     5  C    0.385172   0.389534  -0.001491   0.004910   0.000709  -0.010049
     6  C   -0.000058   0.003429   0.400606   0.380149  -0.040640  -0.031565
     7  C   -0.000023  -0.001820  -0.029549  -0.029219   0.400586   0.381717
     8  O   -0.000019  -0.000217  -0.007705   0.006272  -0.052647  -0.060761
     9  Cl   0.000188   0.002093   0.002903   0.000641  -0.000072  -0.000493
    10  H    0.000395  -0.000684  -0.000047   0.000041   0.000002  -0.000024
    11  H   -0.000047  -0.000254   0.000172  -0.000042   0.000001   0.000017
    12  H   -0.000002   0.000074   0.000010  -0.000010  -0.000002   0.000003
    13  H    0.000030  -0.000079   0.004621  -0.000509   0.000082  -0.000107
    14  H   -0.000092   0.000193   0.000525   0.003125  -0.000024   0.000154
    15  H    0.000849   0.003322  -0.009929   0.005016   0.001856  -0.005450
    16  H   -0.002437  -0.006034   0.000093   0.000586  -0.000071   0.000855
    17  H   -0.001800   0.005905   0.000469  -0.002565   0.000197   0.000273
    18  H   -0.017844  -0.028228  -0.000280   0.000100   0.000950  -0.010626
    19  H    0.500268  -0.016663   0.000028  -0.000113  -0.000007   0.000352
    20  H   -0.016663   0.531506   0.000073  -0.000215  -0.000040   0.000694
    21  H    0.000028   0.000073   0.491005  -0.022617  -0.012356   0.008601
    22  H   -0.000113  -0.000215  -0.022617   0.483427   0.006407  -0.003070
    23  H   -0.000007  -0.000040  -0.012356   0.006407   0.600976  -0.059071
    24  H    0.000352   0.000694   0.008601  -0.003070  -0.059071   0.620941
    25  H   -0.000026  -0.000073   0.006056   0.000338  -0.005468   0.012992
              25
     1  C    0.000643
     2  C   -0.001475
     3  N    0.000169
     4  C    0.003516
     5  C    0.000644
     6  C    0.010721
     7  C   -0.059026
     8  O    0.282023
     9  Cl   0.082555
    10  H   -0.000031
    11  H   -0.000316
    12  H   -0.000006
    13  H   -0.000089
    14  H    0.000071
    15  H   -0.021865
    16  H    0.000126
    17  H   -0.000088
    18  H   -0.001849
    19  H   -0.000026
    20  H   -0.000073
    21  H    0.006056
    22  H    0.000338
    23  H   -0.005468
    24  H    0.012992
    25  H    0.461541
 Mulliken charges:
               1
     1  C   -0.385982
     2  C   -0.216379
     3  N   -0.077438
     4  C   -0.295080
     5  C   -0.376706
     6  C   -0.353202
     7  C   -0.116960
     8  O   -0.374545
     9  Cl  -0.712594
    10  H    0.152140
    11  H    0.145593
    12  H    0.167901
    13  H    0.178259
    14  H    0.201704
    15  H    0.219110
    16  H    0.212676
    17  H    0.211420
    18  H    0.156875
    19  H    0.170450
    20  H    0.152107
    21  H    0.206789
    22  H    0.209114
    23  H    0.149718
    24  H    0.146114
    25  H    0.228917
 Sum of Mulliken charges =  -0.00000
 Mulliken charges with hydrogens summed into heavy atoms:
               1
     1  C    0.079651
     2  C    0.163583
     3  N    0.141672
     4  C    0.129016
     5  C    0.102726
     6  C    0.062701
     7  C    0.178872
     8  O   -0.145628
     9  Cl  -0.712594
 Electronic spatial extent (au):  <R**2>=           1750.3086
 Charge=             -0.0000 electrons
 Dipole moment (field-independent basis, Debye):
    X=             -8.6851    Y=             -9.1592    Z=             -4.5298  Tot=             13.4105
 Quadrupole moment (field-independent basis, Debye-Ang):
   XX=            -70.4019   YY=            -74.4558   ZZ=            -61.6843
   XY=             -5.7654   XZ=             -4.0605   YZ=             -3.9443
 Traceless Quadrupole moment (field-independent basis, Debye-Ang):
   XX=             -1.5546   YY=             -5.6085   ZZ=              7.1630
   XY=             -5.7654   XZ=             -4.0605   YZ=             -3.9443
 Octapole moment (field-independent basis, Debye-Ang**2):
  XXX=            -43.7861  YYY=            -55.9629  ZZZ=            -11.0622  XYY=            -18.2656
  XXY=             -8.3825  XXZ=            -14.5340  XZZ=             -4.8506  YZZ=            -10.1636
  YYZ=             -8.6943  XYZ=              2.3243
 Hexadecapole moment (field-independent basis, Debye-Ang**3):
 XXXX=          -1076.7934 YYYY=           -902.8503 ZZZZ=           -450.2888 XXXY=             -9.7381
 XXXZ=             -5.7407 YYYX=            -35.3738 YYYZ=            -23.8634 ZZZX=             -4.7521
 ZZZY=             -8.1333 XXYY=           -310.0441 XXZZ=           -237.4103 YYZZ=           -210.0496
 XXYZ=             -7.2083 YYXZ=            -11.4089 ZZXY=             -3.5178
 N-N= 6.024419115315D+02 E-N=-3.155701918451D+03  KE= 8.253833667129D+02
 No NMR shielding tensors so no spin-rotation constants.
 Leave Link  601 at Sat Aug 21 09:31:34 2021, MaxMem=   104857600 cpu:               5.0 elap:               0.3
 (Enter /sw/arch/RedHatEnterpriseServer7/EB_production/2020/software/Gaussian/g16.c01/l701.exe)
 ... and contract with generalized density number  0.
 Compute integral first derivatives.
 R6Disp: Adding Grimme-D3 dispersion energy 1st derivatives to the gradient.
 D1PCM: PCM CHGder 1st derivatives, ID1Alg=3 FixD1E=F DoIter=F DoCFld=F I1PDM=0.
 GePol: Maximum number of non-zero 1st derivatives   =     256
 Leave Link  701 at Sat Aug 21 09:31:35 2021, MaxMem=   104857600 cpu:              21.8 elap:               0.9
 (Enter /sw/arch/RedHatEnterpriseServer7/EB_production/2020/software/Gaussian/g16.c01/l702.exe)
 L702 exits ... SP integral derivatives will be done elsewhere.
 Leave Link  702 at Sat Aug 21 09:31:35 2021, MaxMem=   104857600 cpu:               0.4 elap:               0.0
 (Enter /sw/arch/RedHatEnterpriseServer7/EB_production/2020/software/Gaussian/g16.c01/l703.exe)
 Integral derivatives from FoFJK, PRISM(SPDF).
 Compute integral first derivatives, UseDBF=F ICtDFT=           0.
 Calling FoFJK, ICntrl=      2527 FMM=F ISym2X=0 I1Cent= 0 IOpClX= 0 NMat=1 NMatS=1 NMatT=0.
 FoFJK:  IHMeth= 1 ICntrl=    2527 DoSepK=F KAlg= 0 I1Cent=           0 FoldK=F
 IRaf=         0 NMat=       1 IRICut=       1 DoRegI=T DoRafI=F ISym2E= 0 IDoP0=0 IntGTp=1.
 FoFCou: FMM=F IPFlag=           0 FMFlag=      100000 FMFlg1=         800
         NFxFlg=           0 DoJE=F BraDBF=F KetDBF=F FulRan=T
         wScrn=  0.000000 ICntrl=      2527 IOpCl=  0 I1Cent=           0 NGrid=           0
         NMat0=    1 NMatS0=      1 NMatT0=    0 NMatD0=    1 NMtDS0=    0 NMtDT0=    0
 Symmetry not used in FoFCou.
 Leave Link  703 at Sat Aug 21 09:31:38 2021, MaxMem=   104857600 cpu:              74.9 elap:               3.2
 (Enter /sw/arch/RedHatEnterpriseServer7/EB_production/2020/software/Gaussian/g16.c01/l716.exe)
 Dipole        =-3.41699392D+00-3.60352500D+00-1.78217486D+00
 ***** Axes restored to original set *****
 -------------------------------------------------------------------
 Center     Atomic                   Forces (Hartrees/Bohr)
 Number     Number              X              Y              Z
 -------------------------------------------------------------------
      1        6          -0.003251315   -0.004577305    0.000224435
      2        6           0.023482876   -0.006586374   -0.029455073
      3        7           0.022206209   -0.000955886    0.013116964
      4        6          -0.007306542   -0.029036118    0.024173799
      5        6          -0.004764024    0.001668097   -0.002767433
      6        6          -0.003795346    0.032674624    0.016762760
      7        6           0.008588517   -0.000146929    0.007735172
      8        8          -0.005781724    0.000984931    0.009064428
      9       17           0.001665210   -0.004241810   -0.013753861
     10        1           0.000742983    0.003720104   -0.004150936
     11        1           0.005191586   -0.001800605    0.003505000
     12        1          -0.005275231    0.001034398    0.005521377
     13        1          -0.006720464   -0.002235963    0.010497793
     14        1          -0.010811820    0.004589320    0.001749406
     15        1          -0.007457565    0.005704847   -0.007965610
     16        1          -0.001535670    0.011970155   -0.006113389
     17        1           0.000537439    0.005952862   -0.011861348
     18        1           0.002554342   -0.005285684   -0.002014161
     19        1           0.000636847    0.005525908   -0.005414367
     20        1          -0.000988111    0.002223025    0.006274140
     21        1          -0.002338525   -0.011599585   -0.000049088
     22        1          -0.006470468   -0.004851538   -0.006903731
     23        1           0.007391922   -0.004514834    0.000354973
     24        1           0.000962669    0.001257648   -0.001664042
     25        1          -0.007463793   -0.001473289   -0.006867209
 -------------------------------------------------------------------
 Cartesian Forces:  Max     0.032674624 RMS     0.009678666
 Leave Link  716 at Sat Aug 21 09:31:38 2021, MaxMem=   104857600 cpu:               0.5 elap:               0.0
 (Enter /sw/arch/RedHatEnterpriseServer7/EB_production/2020/software/Gaussian/g16.c01/l103.exe)

 GradGradGradGradGradGradGradGradGradGradGradGradGradGradGradGradGradGrad
 Berny optimization.
 FormGI is forming the generalized inverse of G from B-inverse, IUseBI=4.
 Internal  Forces:  Max     0.015055661 RMS     0.004728086
 Search for a local minimum.
 Step number   1 out of a maximum of  144
 All quantities printed in internal units (Hartrees-Bohrs-Radians)
 RMS Force = .47281D-02 SwitMx=.10000D-02 MixMth= 1
 Mixed Optimization -- RFO/linear search
 Second derivative matrix not updated -- first step.
 ITU=  0
     Eigenvalues ---    0.00311   0.00357   0.00413   0.00490   0.00551
     Eigenvalues ---    0.00667   0.01010   0.01926   0.03479   0.03527
     Eigenvalues ---    0.03620   0.03825   0.04018   0.04537   0.04742
     Eigenvalues ---    0.04772   0.04900   0.05102   0.05483   0.05639
     Eigenvalues ---    0.05712   0.05733   0.05860   0.06083   0.08298
     Eigenvalues ---    0.08347   0.08489   0.09018   0.09800   0.11880
     Eigenvalues ---    0.12166   0.12173   0.12527   0.13517   0.15513
     Eigenvalues ---    0.16000   0.16000   0.16000   0.16000   0.16000
     Eigenvalues ---    0.16000   0.16920   0.18582   0.21791   0.21907
     Eigenvalues ---    0.23444   0.26856   0.29021   0.29336   0.32205
     Eigenvalues ---    0.32212   0.32231   0.32259   0.32306   0.32346
     Eigenvalues ---    0.32363   0.32527   0.32529   0.32549   0.32554
     Eigenvalues ---    0.32560   0.32607   0.32724   0.32732   0.32738
     Eigenvalues ---    0.33866   0.38103   0.42943   0.47475
 RFO step:  Lambda=-1.73279006D-02 EMin= 3.10904614D-03
 Linear search not attempted -- first point.
 Iteration  1 RMS(Cart)=  0.05454796 RMS(Int)=  0.00208190
 Iteration  2 RMS(Cart)=  0.00233056 RMS(Int)=  0.00076631
 Iteration  3 RMS(Cart)=  0.00001217 RMS(Int)=  0.00076620
 Iteration  4 RMS(Cart)=  0.00000003 RMS(Int)=  0.00076620
 ITry= 1 IFail=0 DXMaxC= 1.89D-01 DCOld= 1.00D+10 DXMaxT= 3.00D-01 DXLimC= 3.00D+00 Rises=F
 Variable       Old X    -DE/DX   Delta X   Delta X   Delta X     New X
                                 (Linear)    (Quad)   (Total)
    R1        2.89960  -0.00160   0.00000  -0.00521  -0.00521   2.89438
    R2        2.09538  -0.00530   0.00000  -0.01538  -0.01538   2.08001
    R3        2.09851  -0.00651   0.00000  -0.01899  -0.01899   2.07951
    R4        2.09831  -0.00764   0.00000  -0.02229  -0.02229   2.07602
    R5        2.80857   0.01120   0.00000   0.03146   0.03146   2.84003
    R6        2.10373  -0.00889   0.00000  -0.02617  -0.02617   2.07757
    R7        2.10458  -0.00918   0.00000  -0.02704  -0.02704   2.07754
    R8        2.82824   0.00751   0.00000   0.02178   0.02178   2.85002
    R9        2.81266   0.01052   0.00000   0.03048   0.03039   2.84305
   R10        1.97638   0.01384   0.00000   0.03046   0.03079   2.00717
   R11        2.89308   0.00063   0.00000   0.00203   0.00203   2.89511
   R12        2.10216  -0.00888   0.00000  -0.02604  -0.02604   2.07612
   R13        2.10288  -0.00897   0.00000  -0.02636  -0.02636   2.07651
   R14        2.09748  -0.00586   0.00000  -0.01706  -0.01706   2.08042
   R15        2.09843  -0.00776   0.00000  -0.02262  -0.02262   2.07580
   R16        2.09886  -0.00629   0.00000  -0.01836  -0.01836   2.08050
   R17        2.93295  -0.00826   0.00000  -0.03041  -0.03031   2.90264
   R18        2.10424  -0.00861   0.00000  -0.02534  -0.02534   2.07890
   R19        2.10470  -0.00916   0.00000  -0.02700  -0.02700   2.07770
   R20        2.66271   0.01245   0.00000   0.02951   0.02918   2.69189
   R21        2.09890  -0.00214   0.00000  -0.00625  -0.00625   2.09265
   R22        2.09514  -0.00223   0.00000  -0.00648  -0.00648   2.08866
   R23        1.86814   0.01506   0.00000   0.03264   0.03221   1.90035
   R24        3.96333   0.00289   0.00000   0.01738   0.01789   3.98121
   R25        3.68677   0.01040   0.00000   0.14329   0.14302   3.82979
    A1        1.94517   0.00294   0.00000   0.01739   0.01738   1.96255
    A2        1.92505   0.00012   0.00000   0.00141   0.00137   1.92642
    A3        1.90942  -0.00172   0.00000  -0.01123  -0.01120   1.89822
    A4        1.90296  -0.00116   0.00000  -0.00366  -0.00373   1.89923
    A5        1.88812  -0.00080   0.00000  -0.00592  -0.00586   1.88226
    A6        1.89200   0.00056   0.00000   0.00152   0.00151   1.89351
    A7        1.95919   0.00036   0.00000  -0.00022   0.00037   1.95956
    A8        1.85645   0.00571   0.00000   0.05796   0.05758   1.91404
    A9        1.91359   0.00322   0.00000   0.03204   0.03140   1.94500
   A10        1.93169  -0.00589   0.00000  -0.05337  -0.05369   1.87800
   A11        1.93351  -0.00446   0.00000  -0.04900  -0.04928   1.88423
   A12        1.86560   0.00154   0.00000   0.01798   0.01446   1.88006
   A13        1.93648   0.00180   0.00000   0.02419   0.02299   1.95947
   A14        1.90663   0.00214   0.00000   0.02931   0.02868   1.93531
   A15        1.86698  -0.00307   0.00000  -0.02931  -0.02884   1.83814
   A16        1.93933  -0.00012   0.00000   0.01435   0.01354   1.95287
   A17        1.92313  -0.00044   0.00000  -0.02986  -0.02934   1.89380
   A18        1.88926  -0.00046   0.00000  -0.01076  -0.01096   1.87830
   A19        1.95297  -0.00090   0.00000  -0.00757  -0.00686   1.94611
   A20        1.96167  -0.00592   0.00000  -0.05793  -0.05801   1.90367
   A21        1.95879  -0.00560   0.00000  -0.05925  -0.05935   1.89944
   A22        1.87419   0.00579   0.00000   0.05560   0.05474   1.92893
   A23        1.88846   0.00489   0.00000   0.04492   0.04385   1.93231
   A24        1.82060   0.00272   0.00000   0.03434   0.03002   1.85061
   A25        1.92766   0.00243   0.00000   0.01415   0.01408   1.94174
   A26        1.91493  -0.00137   0.00000  -0.00845  -0.00840   1.90653
   A27        1.92092   0.00306   0.00000   0.01758   0.01752   1.93844
   A28        1.89719  -0.00062   0.00000  -0.00411  -0.00407   1.89312
   A29        1.90599  -0.00263   0.00000  -0.01340  -0.01356   1.89243
   A30        1.89668  -0.00098   0.00000  -0.00640  -0.00636   1.89032
   A31        1.98151   0.00451   0.00000   0.00838   0.00848   1.98998
   A32        1.92961  -0.00823   0.00000  -0.05043  -0.05119   1.87842
   A33        1.92437  -0.00247   0.00000  -0.03591  -0.03563   1.88874
   A34        1.86595   0.00523   0.00000   0.04777   0.04797   1.91392
   A35        1.90125  -0.00153   0.00000   0.00867   0.00840   1.90965
   A36        1.85608   0.00265   0.00000   0.02560   0.02375   1.87984
   A37        1.99057  -0.00011   0.00000  -0.00152  -0.00294   1.98763
   A38        1.88945  -0.00800   0.00000  -0.04013  -0.04043   1.84901
   A39        1.92983   0.00100   0.00000  -0.01175  -0.01122   1.91861
   A40        1.88807   0.00850   0.00000   0.06308   0.06415   1.95222
   A41        1.89933  -0.00204   0.00000  -0.00565  -0.00578   1.89355
   A42        1.86181   0.00089   0.00000  -0.00245  -0.00334   1.85847
   A43        1.88823   0.00265   0.00000   0.02078   0.01862   1.90685
   A44        1.15075  -0.00320   0.00000  -0.02312  -0.02481   1.12595
   A45        2.60882   0.00444   0.00000   0.02919   0.02817   2.63699
   A46        2.56954   0.01025   0.00000   0.05954   0.05775   2.62728
    D1       -1.09348  -0.00030   0.00000   0.00140   0.00144  -1.09203
    D2        3.07462   0.00298   0.00000   0.02923   0.02973   3.10435
    D3        1.06337  -0.00345   0.00000  -0.03851  -0.03915   1.02422
    D4        1.02284   0.00028   0.00000   0.00940   0.00949   1.03233
    D5       -1.09225   0.00356   0.00000   0.03722   0.03777  -1.05448
    D6       -3.10350  -0.00287   0.00000  -0.03051  -0.03110  -3.13460
    D7        3.10245  -0.00003   0.00000   0.00517   0.00526   3.10770
    D8        0.98735   0.00325   0.00000   0.03299   0.03354   1.02090
    D9       -1.02389  -0.00318   0.00000  -0.03474  -0.03533  -1.05922
   D10        1.28197  -0.00271   0.00000  -0.06974  -0.06986   1.21211
   D11       -2.85732  -0.00021   0.00000  -0.01568  -0.01501  -2.87233
   D12       -0.81612  -0.00131   0.00000  -0.02917  -0.02936  -0.84547
   D13       -2.92992   0.00078   0.00000  -0.03258  -0.03344  -2.96336
   D14       -0.78602   0.00329   0.00000   0.02147   0.02141  -0.76461
   D15        1.25518   0.00218   0.00000   0.00798   0.00706   1.26224
   D16       -0.86370  -0.00387   0.00000  -0.07520  -0.07495  -0.93865
   D17        1.28020  -0.00137   0.00000  -0.02114  -0.02010   1.26010
   D18       -2.96179  -0.00247   0.00000  -0.03463  -0.03445  -2.99623
   D19       -2.17587   0.00172   0.00000   0.01893   0.01911  -2.15676
   D20       -0.06537   0.00436   0.00000   0.04414   0.04374  -0.02164
   D21        1.98035   0.00008   0.00000   0.00905   0.00959   1.98993
   D22        1.98244  -0.00217   0.00000  -0.04503  -0.04519   1.93725
   D23       -2.19025   0.00047   0.00000  -0.01982  -0.02056  -2.21081
   D24       -0.14453  -0.00381   0.00000  -0.05490  -0.05471  -0.19924
   D25       -0.11150  -0.00123   0.00000  -0.02119  -0.02098  -0.13248
   D26        1.99900   0.00140   0.00000   0.00401   0.00364   2.00264
   D27       -2.23847  -0.00288   0.00000  -0.03107  -0.03051  -2.26897
   D28        2.95462   0.00142   0.00000   0.03445   0.03413   2.98875
   D29        0.85771  -0.00247   0.00000   0.00351   0.00396   0.86167
   D30       -1.18975   0.00080   0.00000   0.02475   0.02444  -1.16531
   D31       -1.18637   0.00508   0.00000   0.09449   0.09436  -1.09202
   D32        2.99990   0.00118   0.00000   0.06355   0.06418   3.06409
   D33        0.95244   0.00445   0.00000   0.08479   0.08466   1.03711
   D34        0.92757   0.00417   0.00000   0.05941   0.05931   0.98689
   D35       -1.16934   0.00027   0.00000   0.02847   0.02914  -1.14019
   D36        3.06639   0.00354   0.00000   0.04972   0.04962   3.11601
   D37       -1.19972   0.00046   0.00000  -0.00283  -0.00266  -1.20238
   D38        2.97686   0.00040   0.00000   0.00287   0.00258   2.97944
   D39        0.85291   0.00110   0.00000   0.01040   0.01025   0.86316
   D40       -1.03316  -0.00000   0.00000   0.00369   0.00367  -1.02948
   D41       -3.12423   0.00011   0.00000   0.00527   0.00530  -3.11893
   D42        1.07270   0.00028   0.00000   0.00753   0.00762   1.08032
   D43        3.08954   0.00399   0.00000   0.04281   0.04363   3.13318
   D44        0.99847   0.00411   0.00000   0.04439   0.04526   1.04373
   D45       -1.08779   0.00428   0.00000   0.04665   0.04758  -1.04021
   D46        1.13369  -0.00424   0.00000  -0.04473  -0.04569   1.08799
   D47       -0.95739  -0.00412   0.00000  -0.04315  -0.04406  -1.00146
   D48       -3.04364  -0.00396   0.00000  -0.04089  -0.04175  -3.08539
   D49       -1.05673   0.00441   0.00000   0.02474   0.02555  -1.03118
   D50        3.12399  -0.00063   0.00000  -0.02588  -0.02496   3.09903
   D51        1.09032   0.00241   0.00000   0.00704   0.00731   1.09763
   D52        1.07588   0.00057   0.00000   0.00017   0.00032   1.07620
[...]
   18      H18      5.73  -0.023    0.05    0.81   -0.41
   19      H19      6.53  -0.035   -0.50    0.92   -0.82
   20      H20      5.09  -0.026   -0.20    0.72   -0.39
   21      H21      6.07  -0.049   -0.67    0.86   -0.64
   22      H22      6.38  -0.053   -1.38    0.90   -0.75
   23      H23      6.53  -0.042   -0.47    0.92   -0.86
   24      H24      5.75  -0.036   -0.46    0.81   -0.51
   25      H25      2.32  -0.015    0.25    0.33    0.00
 --------------------------------------------------------------------
 - cavitation energy not included in the total energy.
 - dispersion energy not included in the total energy.
 - repulsion  energy not included in the total energy.
 After PCM corrections, the energy is  -828.671377262     a.u.
 --------------------------------------------------------------------
 Writing COSMO formatted file "DBQUKJMNGUJRFI-UHFFFAOYSA-N.cosmo"
 Recomputed dielectric energy= -0.049638 old= -0.049571 diff=-6.69D-05

 **********************************************************************

            Population analysis using the SCF Density.

 **********************************************************************

 Orbital symmetries:
       Occupied  (A) (A) (A) (A) (A) (A) (A) (A) (A) (A) (A) (A)
                 (A) (A) (A) (A) (A) (A) (A) (A) (A) (A) (A) (A)
                 (A) (A) (A) (A) (A) (A) (A) (A) (A) (A) (A) (A)
                 (A) (A) (A) (A) (A) (A)
       Virtual   (A) (A) (A) (A) (A) (A) (A) (A) (A) (A) (A) (A)
                 (A) (A) (A) (A) (A) (A) (A) (A) (A) (A) (A) (A)
                 (A) (A) (A) (A) (A) (A) (A) (A) (A) (A) (A) (A)
                 (A) (A) (A) (A) (A) (A) (A) (A) (A) (A) (A) (A)
                 (A) (A) (A) (A) (A) (A) (A) (A) (A) (A) (A) (A)
                 (A) (A) (A) (A) (A) (A) (A) (A) (A) (A) (A) (A)
                 (A) (A) (A) (A) (A) (A) (A) (A) (A) (A) (A) (A)
                 (A) (A) (A) (A) (A) (A) (A) (A) (A) (A) (A) (A)
                 (A) (A) (A) (A) (A) (A) (A) (A) (A) (A) (A) (A)
                 (A) (A) (A) (A) (A) (A) (A) (A) (A) (A) (A) (A)
                 (A) (A) (A) (A) (A) (A) (A) (A) (A) (A) (A) (A)
                 (A) (A) (A) (A) (A) (A) (A) (A) (A) (A) (A) (A)
                 (A) (A) (A) (A) (A) (A) (A) (A) (A) (A) (A) (A)
                 (A) (A) (A) (A) (A) (A) (A) (A) (A) (A) (A) (A)
                 (A) (A) (A) (A) (A) (A) (A) (A) (A) (A) (A) (A)
                 (A) (A) (A) (A) (A) (A) (A) (A) (A) (A) (A) (A)
                 (A) (A) (A) (A) (A) (A) (A) (A) (A) (A) (A) (A)
                 (A) (A) (A) (A) (A) (A) (A) (A) (A) (A) (A) (A)
                 (A) (A) (A) (A) (A) (A) (A) (A) (A) (A) (A) (A)
 The electronic state is 1-A.
 Alpha  occ. eigenvalues -- -100.67135 -18.76487 -14.09967  -9.95112  -9.94744
 Alpha  occ. eigenvalues --   -9.94726  -9.94643  -9.89649  -9.89474  -9.11005
 Alpha  occ. eigenvalues --   -6.92893  -6.92817  -6.92742  -0.93400  -0.90866
 Alpha  occ. eigenvalues --   -0.71407  -0.71065  -0.67007  -0.65770  -0.59110
 Alpha  occ. eigenvalues --   -0.57584  -0.57096  -0.48121  -0.47029  -0.45766
 Alpha  occ. eigenvalues --   -0.43689  -0.41944  -0.38961  -0.38512  -0.37556
 Alpha  occ. eigenvalues --   -0.36717  -0.35376  -0.34189  -0.33668  -0.32829
 Alpha  occ. eigenvalues --   -0.32063  -0.30964  -0.30068  -0.24387  -0.23720
 Alpha  occ. eigenvalues --   -0.23481  -0.23105
 Alpha virt. eigenvalues --    0.02050   0.03008   0.04266   0.04751   0.05269
 Alpha virt. eigenvalues --    0.05846   0.06741   0.07382   0.08016   0.08630
 Alpha virt. eigenvalues --    0.08985   0.10206   0.10823   0.11203   0.11739
 Alpha virt. eigenvalues --    0.12299   0.12549   0.13403   0.15009   0.15673
 Alpha virt. eigenvalues --    0.16923   0.18074   0.18378   0.21019   0.21726
 Alpha virt. eigenvalues --    0.22862   0.23218   0.23796   0.24139   0.26162
 Alpha virt. eigenvalues --    0.27157   0.28281   0.29242   0.30179   0.31954
 Alpha virt. eigenvalues --    0.32373   0.33450   0.34334   0.36100   0.36265
 Alpha virt. eigenvalues --    0.37439   0.38172   0.38734   0.38754   0.40048
 Alpha virt. eigenvalues --    0.40235   0.40822   0.41091   0.41569   0.42074
 Alpha virt. eigenvalues --    0.42422   0.43276   0.44948   0.45063   0.45550
 Alpha virt. eigenvalues --    0.46663   0.46843   0.47864   0.48543   0.49224
 Alpha virt. eigenvalues --    0.50590   0.53394   0.53966   0.55527   0.57204
 Alpha virt. eigenvalues --    0.58451   0.60964   0.61934   0.64277   0.66095
 Alpha virt. eigenvalues --    0.67992   0.71968   0.75892   0.77376   0.78405
 Alpha virt. eigenvalues --    0.80660   0.81515   0.85327   0.92190   1.02479
 Alpha virt. eigenvalues --    1.04627   1.07123   1.14801   1.16125   1.17504
 Alpha virt. eigenvalues --    1.19338   1.19667   1.21983   1.22703   1.23317
 Alpha virt. eigenvalues --    1.23794   1.25070   1.26310   1.27275   1.29069
 Alpha virt. eigenvalues --    1.29805   1.30260   1.30682   1.32342   1.34286
 Alpha virt. eigenvalues --    1.35399   1.36088   1.37117   1.38695   1.40369
 Alpha virt. eigenvalues --    1.41811   1.44982   1.45706   1.46965   1.47033
 Alpha virt. eigenvalues --    1.49442   1.51779   1.52436   1.54250   1.55627
 Alpha virt. eigenvalues --    1.56535   1.57822   1.62415   1.62473   1.65188
 Alpha virt. eigenvalues --    1.66661   1.68412   1.68820   1.69059   1.71222
 Alpha virt. eigenvalues --    1.72116   1.73067   1.73480   1.74088   1.74529
 Alpha virt. eigenvalues --    1.76376   1.77295   1.79029   1.79452   1.81795
 Alpha virt. eigenvalues --    1.82317   1.83578   1.84464   1.86584   1.87767
 Alpha virt. eigenvalues --    1.90722   1.92706   1.95765   1.97034   1.98003
 Alpha virt. eigenvalues --    1.99614   2.03628   2.07254   2.08590   2.14247
 Alpha virt. eigenvalues --    2.15760   2.16963   2.18361   2.21815   2.22593
 Alpha virt. eigenvalues --    2.24630   2.26140   2.27435   2.27990   2.30720
 Alpha virt. eigenvalues --    2.32128   2.33247   2.36030   2.37220   2.37816
 Alpha virt. eigenvalues --    2.38888   2.39899   2.41934   2.43331   2.45944
 Alpha virt. eigenvalues --    2.47294   2.49466   2.50677   2.51602   2.53733
 Alpha virt. eigenvalues --    2.54348   2.56676   2.57729   2.58707   2.60585
 Alpha virt. eigenvalues --    2.62637   2.64432   2.65190   2.67181   2.68194
 Alpha virt. eigenvalues --    2.70606   2.71052   2.74570   2.77555   2.78412
 Alpha virt. eigenvalues --    2.83080   2.84677   2.86378   2.92616   2.94011
 Alpha virt. eigenvalues --    2.96483   2.99192   3.01735   3.06032   3.08598
 Alpha virt. eigenvalues --    3.11041   3.11743   3.16062   3.20948   3.24477
 Alpha virt. eigenvalues --    3.25145   3.26347   3.27854   3.28213   3.29397
 Alpha virt. eigenvalues --    3.31957   3.34158   3.34589   3.36610   3.61403
 Alpha virt. eigenvalues --    3.63621   3.72536   3.87709   4.16715  21.64270
 Alpha virt. eigenvalues --   21.72255  21.76526  21.79679  21.80983  21.85692
 Alpha virt. eigenvalues --   24.65754  31.68981  43.15547
          Condensed to atoms (all electrons):
               1          2          3          4          5          6
     1  C    5.153887   0.211148  -0.044846   0.009125   0.003119   0.012596
     2  C    0.211148   5.224141   0.202365  -0.028540  -0.021162  -0.074025
     3  N   -0.044846   0.202365   6.680451   0.146436  -0.019337   0.173206
     4  C    0.009125  -0.028540   0.146436   5.281547   0.224132  -0.026892
     5  C    0.003119  -0.021162  -0.019337   0.224132   5.129480  -0.001618
     6  C    0.012596  -0.074025   0.173206  -0.026892  -0.001618   5.398709
     7  C   -0.001005   0.005724  -0.027708  -0.024761   0.000762   0.180419
     8  O   -0.000002  -0.004801  -0.011690  -0.002153   0.000954  -0.035193
     9  Cl  -0.014831   0.006518  -0.105749   0.003955  -0.011090   0.012610
    10  H    0.403062  -0.036618  -0.011140   0.028563  -0.015872  -0.000996
    11  H    0.394911  -0.039489  -0.000236  -0.013207   0.002914  -0.000300
    12  H    0.387545  -0.024929   0.006723  -0.001642   0.001195  -0.000234
    13  H   -0.026441   0.401383  -0.028041   0.013147  -0.000876  -0.014903
    14  H   -0.031468   0.404118  -0.025089  -0.023768   0.002392   0.000621
    15  H   -0.004545  -0.058924   0.299924  -0.067129   0.003269  -0.033619
    16  H   -0.014831   0.011538  -0.035925   0.407948  -0.035683  -0.007458
    17  H    0.001534   0.001822  -0.040233   0.404730  -0.037933   0.024623
    18  H   -0.001853   0.001953  -0.004959  -0.029837   0.386996  -0.004691
    19  H   -0.000257   0.000507   0.005904  -0.030271   0.386692  -0.000470
    20  H    0.012380  -0.005538  -0.001243  -0.041649   0.413608   0.001389
    21  H   -0.000070   0.006941  -0.033407   0.009188  -0.001114   0.384928
    22  H   -0.000166  -0.016467  -0.029223  -0.014588   0.001345   0.373037
    23  H    0.000095  -0.000767   0.007478  -0.000012   0.000362  -0.042344
    24  H   -0.000128   0.000197  -0.007039   0.011044  -0.007203  -0.054409
    25  H    0.000627  -0.001010   0.006608   0.001013   0.000144  -0.000531
               7          8          9         10         11         12
     1  C   -0.001005  -0.000002  -0.014831   0.403062   0.394911   0.387545
     2  C    0.005724  -0.004801   0.006518  -0.036618  -0.039489  -0.024929
     3  N   -0.027708  -0.011690  -0.105749  -0.011140  -0.000236   0.006723
     4  C   -0.024761  -0.002153   0.003955   0.028563  -0.013207  -0.001642
     5  C    0.000762   0.000954  -0.011090  -0.015872   0.002914   0.001195
     6  C    0.180419  -0.035193   0.012610  -0.000996  -0.000300  -0.000234
     7  C    5.032086   0.257621   0.014473  -0.000052  -0.000007   0.000027
     8  O    0.257621   8.033173  -0.053853   0.000003   0.000040  -0.000001
     9  Cl   0.014473  -0.053853  17.655295   0.000323   0.015293   0.000172
    10  H   -0.000052   0.000003   0.000323   0.514621  -0.028055  -0.022065
    11  H   -0.000007   0.000040   0.015293  -0.028055   0.529240  -0.015618
    12  H    0.000027  -0.000001   0.000172  -0.022065  -0.015618   0.498742
    13  H   -0.001073   0.000270   0.004750   0.005720  -0.005620  -0.003933
    14  H    0.000318   0.000099   0.000050  -0.005752   0.005619   0.000141
    15  H    0.009937   0.011402   0.114661  -0.001241   0.006227   0.000050
    16  H    0.001397  -0.000067  -0.000317  -0.000964   0.001024  -0.000062
    17  H   -0.013544   0.000105  -0.000023   0.000010  -0.000164   0.000032
    18  H    0.002963  -0.000365   0.009679   0.000625  -0.000096  -0.000053
    19  H    0.000145  -0.000008   0.001033   0.000648   0.000099  -0.000009
    20  H   -0.000281   0.000020   0.001432  -0.002727  -0.003995   0.000638
    21  H   -0.034692  -0.000327  -0.000021   0.000010   0.000006   0.000017
    22  H   -0.012174   0.007110  -0.000167   0.000060  -0.000063  -0.000023
    23  H    0.400147  -0.043322   0.000136  -0.000000  -0.000001  -0.000001
    24  H    0.399155  -0.043771  -0.000250  -0.000012  -0.000011   0.000003
    25  H   -0.042483   0.281491   0.070779  -0.000008  -0.000212  -0.000008
              13         14         15         16         17         18
     1  C   -0.026441  -0.031468  -0.004545  -0.014831   0.001534  -0.001853
     2  C    0.401383   0.404118  -0.058924   0.011538   0.001822   0.001953
     3  N   -0.028041  -0.025089   0.299924  -0.035925  -0.040233  -0.004959
     4  C    0.013147  -0.023768  -0.067129   0.407948   0.404730  -0.029837
     5  C   -0.000876   0.002392   0.003269  -0.035683  -0.037933   0.386996
     6  C   -0.014903   0.000621  -0.033619  -0.007458   0.024623  -0.004691
     7  C   -0.001073   0.000318   0.009937   0.001397  -0.013544   0.002963
     8  O    0.000270   0.000099   0.011402  -0.000067   0.000105  -0.000365
     9  Cl   0.004750   0.000050   0.114661  -0.000317  -0.000023   0.009679
    10  H    0.005720  -0.005752  -0.001241  -0.000964   0.000010   0.000625
    11  H   -0.005620   0.005619   0.006227   0.001024  -0.000164  -0.000096
    12  H   -0.003933   0.000141   0.000050  -0.000062   0.000032  -0.000053
    13  H    0.497310  -0.022754  -0.004291   0.000238  -0.000363   0.000019
    14  H   -0.022754   0.485386   0.007487   0.002003   0.000645  -0.000177
    15  H   -0.004291   0.007487   0.545347   0.004614  -0.001661   0.003010
    16  H    0.000238   0.002003   0.004614   0.468728  -0.016505   0.005624
    17  H   -0.000363   0.000645  -0.001661  -0.016505   0.477951  -0.005772
    18  H    0.000019  -0.000177   0.003010   0.005624  -0.005772   0.534564
    19  H    0.000011  -0.000079   0.000239  -0.001260  -0.002066  -0.016357
    20  H   -0.000111   0.000187  -0.001920  -0.004178   0.005148  -0.030279
    21  H    0.004112  -0.002504  -0.008407   0.000189   0.000973   0.000031
    22  H    0.000442   0.004529   0.010202   0.002929  -0.004689   0.000144
    23  H    0.000056  -0.000036   0.001143  -0.000110  -0.000726  -0.000033
    24  H   -0.000096   0.000058  -0.002272   0.000742   0.006300   0.000261
    25  H    0.000265  -0.000041  -0.008072  -0.000029  -0.000054  -0.000025
              19         20         21         22         23         24
     1  C   -0.000257   0.012380  -0.000070  -0.000166   0.000095  -0.000128
     2  C    0.000507  -0.005538   0.006941  -0.016467  -0.000767   0.000197
     3  N    0.005904  -0.001243  -0.033407  -0.029223   0.007478  -0.007039
     4  C   -0.030271  -0.041649   0.009188  -0.014588  -0.000012   0.011044
     5  C    0.386692   0.413608  -0.001114   0.001345   0.000362  -0.007203
     6  C   -0.000470   0.001389   0.384928   0.373037  -0.042344  -0.054409
     7  C    0.000145  -0.000281  -0.034692  -0.012174   0.400147   0.399155
     8  O   -0.000008   0.000020  -0.000327   0.007110  -0.043322  -0.043771
     9  Cl   0.001033   0.001432  -0.000021  -0.000167   0.000136  -0.000250
    10  H    0.000648  -0.002727   0.000010   0.000060  -0.000000  -0.000012
    11  H    0.000099  -0.003995   0.000006  -0.000063  -0.000001  -0.000011
    12  H   -0.000009   0.000638   0.000017  -0.000023  -0.000001   0.000003
    13  H    0.000011  -0.000111   0.004112   0.000442   0.000056  -0.000096
    14  H   -0.000079   0.000187  -0.002504   0.004529  -0.000036   0.000058
    15  H    0.000239  -0.001920  -0.008407   0.010202   0.001143  -0.002272
    16  H   -0.001260  -0.004178   0.000189   0.002929  -0.000110   0.000742
    17  H   -0.002066   0.005148   0.000973  -0.004689  -0.000726   0.006300
    18  H   -0.016357  -0.030279   0.000031   0.000144  -0.000033   0.000261
    19  H    0.506919  -0.019227   0.000039  -0.000079  -0.000005   0.000261
    20  H   -0.019227   0.507458   0.000008  -0.000081   0.000003   0.000045
    21  H    0.000039   0.000008   0.510913  -0.018785  -0.006438   0.008236
    22  H   -0.000079  -0.000081  -0.018785   0.485124   0.000071   0.004301
    23  H   -0.000005   0.000003  -0.006438   0.000071   0.552274  -0.043833
    24  H    0.000261   0.000045   0.008236   0.004301  -0.043833   0.582617
    25  H   -0.000033   0.000005  -0.002144  -0.000183   0.008500  -0.007976
              25
     1  C    0.000627
     2  C   -0.001010
     3  N    0.006608
     4  C    0.001013
     5  C    0.000144
     6  C   -0.000531
     7  C   -0.042483
     8  O    0.281491
     9  Cl   0.070779
    10  H   -0.000008
    11  H   -0.000212
    12  H   -0.000008
    13  H    0.000265
    14  H   -0.000041
    15  H   -0.008072
    16  H   -0.000029
    17  H   -0.000054
    18  H   -0.000025
    19  H   -0.000033
    20  H    0.000005
    21  H   -0.002144
    22  H   -0.000183
    23  H    0.008500
    24  H   -0.007976
    25  H    0.455678
 Mulliken charges:
               1
     1  C   -0.449588
     2  C   -0.166085
     3  N   -0.103231
     4  C   -0.236381
     5  C   -0.405475
     6  C   -0.264456
     7  C   -0.147393
     8  O   -0.396737
     9  Cl  -0.724857
    10  H    0.171855
    11  H    0.151700
    12  H    0.173293
    13  H    0.180781
    14  H    0.198016
    15  H    0.174568
    16  H    0.210413
    17  H    0.199861
    18  H    0.148627
    19  H    0.167625
    20  H    0.168906
    21  H    0.182320
    22  H    0.207394
    23  H    0.167362
    24  H    0.153781
    25  H    0.237699
 Sum of Mulliken charges =  -0.00000
 Mulliken charges with hydrogens summed into heavy atoms:
               1
     1  C    0.047261
     2  C    0.212713
     3  N    0.071337
     4  C    0.173893
     5  C    0.079683
     6  C    0.125257
     7  C    0.173751
     8  O   -0.159038
     9  Cl  -0.724857
 Electronic spatial extent (au):  <R**2>=           1804.2189
 Charge=             -0.0000 electrons
 Dipole moment (field-independent basis, Debye):
    X=             -7.8673    Y=            -11.0467    Z=              0.1353  Tot=             13.5625
 Quadrupole moment (field-independent basis, Debye-Ang):
   XX=            -72.7323   YY=            -76.0544   ZZ=            -60.6957
   XY=             -5.6066   XZ=              2.9506   YZ=             -0.2790
 Traceless Quadrupole moment (field-independent basis, Debye-Ang):
   XX=             -2.9048   YY=             -6.2269   ZZ=              9.1318
   XY=             -5.6066   XZ=              2.9506   YZ=             -0.2790
 Octapole moment (field-independent basis, Debye-Ang**2):
  XXX=            -52.4607  YYY=            -65.9195  ZZZ=             -2.3310  XYY=             -7.1145
  XXY=            -13.5434  XXZ=              2.7049  XZZ=             -8.7374  YZZ=             -9.2820
  YYZ=             -0.8562  XYZ=              0.6565
 Hexadecapole moment (field-independent basis, Debye-Ang**3):
 XXXX=          -1234.9126 YYYY=           -851.4236 ZZZZ=           -469.3217 XXXY=             -5.5054
 XXXZ=             26.7422 YYYX=            -43.7414 YYYZ=              3.3362 ZZZX=              0.8275
 ZZZY=             -4.6899 XXYY=           -304.8232 XXZZ=           -257.1560 YYZZ=           -213.7466
 XXYZ=             -4.4033 YYXZ=             -1.2531 ZZXY=              1.2665
 N-N= 5.950259871974D+02 E-N=-3.140707687364D+03  KE= 8.254056000395D+02
 Unable to Open any file for archive entry.
 1\1\GINC-TCN1392\SP\RBP86\TZVP\C6H16Cl1N1O1\ELENAA\21-Aug-2021\0\\# BP
 86/TZVP SCRF=COSMORS geom=CHECKPOINT guess=CHECKPOINT\\COSMO-file for 
 #DBQUKJMNGUJRFI-UHFFFAOYSA-N\\0,1\C,0,0.7556469739,-0.8292196339,-1.53
 11750995\C,0,1.0514141076,0.4200710624,-0.7140736822\N,0,0.0057809872,
 0.7135244082,0.3432207025\C,0,-0.1940658707,-0.4302669068,1.3312202793
 \C,0,-1.3968411456,-1.3049217468,1.0016877733\C,0,0.3308860222,2.01081
 86084,1.0573744746\C,0,-0.8891636377,2.6589596781,1.7177113437\O,0,-1.
 6947536437,3.4119247188,0.8114065115\Cl,0,-2.5414580235,1.27553504,-1.
 2876859319\H,0,0.8268455983,-1.7486181774,-0.9347718091\H,0,-0.2418438
 308,-0.7709180509,-1.9899612947\H,0,1.5000986121,-0.8981925765,-2.3366
 218107\H,0,1.0672970539,1.3056011964,-1.3641346251\H,0,2.0184118817,0.
 3538450591,-0.1948619424\H,0,-0.9106015234,0.8603497691,-0.1931968665\
 H,0,0.745405245,-0.9992357179,1.3534316277\H,0,-0.3230569563,0.0235250
 461,2.3214860631\H,0,-2.3236932574,-0.715188353,1.0052706167\H,0,-1.47
 7430198,-2.0890224072,1.7678990195\H,0,-1.3066993678,-1.7903689936,0.0
 222530038\H,0,0.7388737619,2.7045766065,0.3102608567\H,0,1.1165033958,
 1.7827097771,1.7915273689\H,0,-0.5134220433,3.3684801549,2.4694082989\
 H,0,-1.4855433904,1.9003304371,2.2609219538\H,0,-2.082433437,2.7818140
 757,0.1453894019\\Version=ES64L-G16RevC.01\State=1-A\HF=-828.6713773\R
 MSD=5.915e-09\Dipole=4.2789448,-2.0994019,2.3989597\Quadrupole=-1.6801
 268,-0.8991563,2.5792831,3.9080151,-6.1390472,0.4727951\PG=C01 [X(C6H1
 6Cl1N1O1)]\\@
 The archive entry for this job was punched.


 TO ERR IS HUMAN - AND TO BLAME IT ON A COMPUTER IS EVEN MORE SO.
 Job cpu time:       0 days  0 hours  6 minutes 36.0 seconds.
 Elapsed time:       0 days  0 hours  0 minutes 17.0 seconds.
 File lengths (MBytes):  RWF=     63 Int=      0 D2E=      0 Chk=     10 Scr=      1
 Normal termination of Gaussian 16 at Sat Aug 21 09:54:17 2021.
