 Entering Gaussian System, Link 0=g16
 Input=DKYWVDODHFEZIM-UHFFFAOYSA-N.gjf
 Output=DKYWVDODHFEZIM-UHFFFAOYSA-N.log
 Initial command:
 /sw/arch/RedHatEnterpriseServer7/EB_production/2019/software/Gaussian/g16.c01/l1.exe "/scratch-local/elenaa.9715194/Gau-1553.inp" -scrdir="/scratch-local/elenaa.9715194/"
 Entering Link 1 = /sw/arch/RedHatEnterpriseServer7/EB_production/2019/software/Gaussian/g16.c01/l1.exe PID=      1554.
  
 Copyright (c) 1988-2019, Gaussian, Inc.  All Rights Reserved.
  
 This is part of the Gaussian(R) 16 program.  It is based on
 the Gaussian(R) 09 system (copyright 2009, Gaussian, Inc.),
 the Gaussian(R) 03 system (copyright 2003, Gaussian, Inc.),
 the Gaussian(R) 98 system (copyright 1998, Gaussian, Inc.),
 the Gaussian(R) 94 system (copyright 1995, Gaussian, Inc.),
 the Gaussian 92(TM) system (copyright 1992, Gaussian, Inc.),
 the Gaussian 90(TM) system (copyright 1990, Gaussian, Inc.),
 the Gaussian 88(TM) system (copyright 1988, Gaussian, Inc.),
 the Gaussian 86(TM) system (copyright 1986, Carnegie Mellon
 University), and the Gaussian 82(TM) system (copyright 1983,
 Carnegie Mellon University). Gaussian is a federally registered
 trademark of Gaussian, Inc.
  
 This software contains proprietary and confidential information,
 including trade secrets, belonging to Gaussian, Inc.
  
 This software is provided under written license and may be
 used, copied, transmitted, or stored only in accord with that
 written license.
  
 The following legend is applicable only to US Government
 contracts under FAR:
  
                    RESTRICTED RIGHTS LEGEND
  
 Use, reproduction and disclosure by the US Government is
 subject to restrictions as set forth in subparagraphs (a)
 and (c) of the Commercial Computer Software - Restricted
 Rights clause in FAR 52.227-19.
  
 Gaussian, Inc.
 340 Quinnipiac St., Bldg. 40, Wallingford CT 06492
  
  
 ---------------------------------------------------------------
 Warning -- This program may not be used in any manner that
 competes with the business of Gaussian, Inc. or will provide
 assistance to any competitor of Gaussian, Inc.  The licensee
 of this program is prohibited from giving any competitor of
 Gaussian, Inc. access to this program.  By using this program,
 the user acknowledges that Gaussian, Inc. is engaged in the
 business of creating and licensing software in the field of
 computational chemistry and represents and warrants to the
 licensee that it is not a competitor of Gaussian, Inc. and that
 it will not use this program in any manner prohibited above.
 ---------------------------------------------------------------
  

 Cite this work as:
 Gaussian 16, Revision C.01,
 M. J. Frisch, G. W. Trucks, H. B. Schlegel, G. E. Scuseria, 
 M. A. Robb, J. R. Cheeseman, G. Scalmani, V. Barone, 
 G. A. Petersson, H. Nakatsuji, X. Li, M. Caricato, A. V. Marenich, 
 J. Bloino, B. G. Janesko, R. Gomperts, B. Mennucci, H. P. Hratchian, 
 J. V. Ortiz, A. F. Izmaylov, J. L. Sonnenberg, D. Williams-Young, 
 F. Ding, F. Lipparini, F. Egidi, J. Goings, B. Peng, A. Petrone, 
 T. Henderson, D. Ranasinghe, V. G. Zakrzewski, J. Gao, N. Rega, 
 G. Zheng, W. Liang, M. Hada, M. Ehara, K. Toyota, R. Fukuda, 
 J. Hasegawa, M. Ishida, T. Nakajima, Y. Honda, O. Kitao, H. Nakai, 
 T. Vreven, K. Throssell, J. A. Montgomery, Jr., J. E. Peralta, 
 F. Ogliaro, M. J. Bearpark, J. J. Heyd, E. N. Brothers, K. N. Kudin, 
 V. N. Staroverov, T. A. Keith, R. Kobayashi, J. Normand, 
 K. Raghavachari, A. P. Rendell, J. C. Burant, S. S. Iyengar, 
 J. Tomasi, M. Cossi, J. M. Millam, M. Klene, C. Adamo, R. Cammi, 
 J. W. Ochterski, R. L. Martin, K. Morokuma, O. Farkas, 
 J. B. Foresman, and D. J. Fox, Gaussian, Inc., Wallingford CT, 2019.
 
 ******************************************
 Gaussian 16:  ES64L-G16RevC.01  3-Jul-2019
                22-Feb-2021 
 ******************************************
 %chk=DKYWVDODHFEZIM-UHFFFAOYSA-N.chk
 %NProcShared=32
 Will use up to   32 processors via shared memory.
 -------------------------------------------------------------
 #P BP86/TZVP EmpiricalDispersion=GD3 SCRF=(Solvent=Water) Opt
 -------------------------------------------------------------
 1/18=20,19=15,26=3,38=1/1,3;
 2/9=110,12=2,17=6,18=5,40=1/2;
 3/5=19,7=101,11=2,25=1,30=1,70=2201,71=1,72=1,74=404,124=31/1,2,3;
 4//1;
 5/5=2,38=5,53=1/2;
 6/7=2,8=2,9=2,10=2,28=1/1;
 7//1,2,3,16;
 1/18=20,19=15,26=3/3(2);
 2/9=110/2;
 99//99;
 2/9=110/2;
 3/5=19,7=101,11=2,25=1,30=1,70=2205,71=1,72=1,74=404,124=31/1,2,3;
 4/5=5,16=3,69=1/1;
 5/5=2,38=5,53=1/2;
 7//1,2,3,16;
 1/18=20,19=15,26=3/3(-5);
 2/9=110/2;
 6/7=2,8=2,9=2,10=2,19=2,28=1/1;
 99/9=1/99;
 Leave Link    1 at Mon Feb 22 20:57:43 2021, MaxMem=           0 cpu:               1.7 elap:               0.1
 (Enter /sw/arch/RedHatEnterpriseServer7/EB_production/2019/software/Gaussian/g16.c01/l101.exe)
 -------------------------------------
 Particle #DKYWVDODHFEZIM-UHFFFAOYSA-N
 -------------------------------------
 Symbolic Z-matrix:
 Charge =  0 Multiplicity = 1
 C                     8.13209   5.93969  -0.12463 
 C                     7.87357   4.99128  -1.32851 
 C                     7.26297   5.70703  -2.47988 
 O                     6.13531   6.24646  -2.41025 
 O                     7.92127   5.81221  -3.65753 
 C                     7.09194   3.78269  -0.9032 
 C                     7.69612   2.50189  -0.9001 
 C                     6.98105   1.36568  -0.49093 
 C                     5.64494   1.48981  -0.08031 
 C                     5.00415   2.75045  -0.06016 
 C                     3.63828   2.85946   0.32885 
 O                     2.87111   1.97718  -0.12839 
 C                     3.08888   3.87361   1.17955 
 C                     3.88608   4.59602   2.10608 
 C                     3.3182    5.55515   2.96625 
 C                     1.93814   5.81083   2.92307 
 C                     1.12847   5.11566   2.01034 
 C                     1.69853   4.16165   1.14709 
 C                     5.74442   3.88346  -0.47211 
 H                     7.19702   6.31484   0.29677 
 H                     8.67108   5.40367   0.65879 
 H                     8.73921   6.79656  -0.42139 
 H                     8.86431   4.67089  -1.66665 
 H                     7.51943   6.31728  -4.39666 
 H                     8.66889   2.38431  -1.19232 
 H                     7.43312   0.44873  -0.49318 
 H                     5.14447   0.64689   0.20886 
 H                     4.89123   4.42539   2.17726 
 H                     3.90846   6.06232   3.62955 
 H                     1.52312   6.49638   3.55793 
 H                     0.1234    5.30334   1.97526 
 H                     1.07825   3.67765   0.49262 
 H                     5.28935   4.79977  -0.46714 
 
 ITRead=  0  0  0  0  0  0  0  0  0  0  0  0  0  0  0  0  0  0  0  0
 ITRead=  0  0  0  0  0  0  0  0  0  0  0  0  0
 MicOpt= -1 -1 -1 -1 -1 -1 -1 -1 -1 -1 -1 -1 -1 -1 -1 -1 -1 -1 -1 -1
 MicOpt= -1 -1 -1 -1 -1 -1 -1 -1 -1 -1 -1 -1 -1
 NAtoms=     33 NQM=       33 NQMF=       0 NMMI=      0 NMMIF=      0
                NMic=       0 NMicF=      0.
                    Isotopes and Nuclear Properties:
 (Nuclear quadrupole moments (NQMom) in fm**2, nuclear magnetic moments (NMagM)
  in nuclear magnetons)

  Atom         1           2           3           4           5           6           7           8           9          10
 IAtWgt=          12          12          12          16          16          12          12          12          12          12
 AtmWgt=  12.0000000  12.0000000  12.0000000  15.9949146  15.9949146  12.0000000  12.0000000  12.0000000  12.0000000  12.0000000
 NucSpn=           0           0           0           0           0           0           0           0           0           0
 AtZEff=  -0.0000000  -0.0000000  -0.0000000  -0.0000000  -0.0000000  -0.0000000  -0.0000000  -0.0000000  -0.0000000  -0.0000000
 NQMom=    0.0000000   0.0000000   0.0000000   0.0000000   0.0000000   0.0000000   0.0000000   0.0000000   0.0000000   0.0000000
 NMagM=    0.0000000   0.0000000   0.0000000   0.0000000   0.0000000   0.0000000   0.0000000   0.0000000   0.0000000   0.0000000
 AtZNuc=   6.0000000   6.0000000   6.0000000   8.0000000   8.0000000   6.0000000   6.0000000   6.0000000   6.0000000   6.0000000

  Atom        11          12          13          14          15          16          17          18          19          20
 IAtWgt=          12          16          12          12          12          12          12          12          12           1
 AtmWgt=  12.0000000  15.9949146  12.0000000  12.0000000  12.0000000  12.0000000  12.0000000  12.0000000  12.0000000   1.0078250
 NucSpn=           0           0           0           0           0           0           0           0           0           1
 AtZEff=  -0.0000000  -0.0000000  -0.0000000  -0.0000000  -0.0000000  -0.0000000  -0.0000000  -0.0000000  -0.0000000  -0.0000000
 NQMom=    0.0000000   0.0000000   0.0000000   0.0000000   0.0000000   0.0000000   0.0000000   0.0000000   0.0000000   0.0000000
 NMagM=    0.0000000   0.0000000   0.0000000   0.0000000   0.0000000   0.0000000   0.0000000   0.0000000   0.0000000   2.7928460
 AtZNuc=   6.0000000   8.0000000   6.0000000   6.0000000   6.0000000   6.0000000   6.0000000   6.0000000   6.0000000   1.0000000

  Atom        21          22          23          24          25          26          27          28          29          30
 IAtWgt=           1           1           1           1           1           1           1           1           1           1
 AtmWgt=   1.0078250   1.0078250   1.0078250   1.0078250   1.0078250   1.0078250   1.0078250   1.0078250   1.0078250   1.0078250
 NucSpn=           1           1           1           1           1           1           1           1           1           1
 AtZEff=  -0.0000000  -0.0000000  -0.0000000  -0.0000000  -0.0000000  -0.0000000  -0.0000000  -0.0000000  -0.0000000  -0.0000000
 NQMom=    0.0000000   0.0000000   0.0000000   0.0000000   0.0000000   0.0000000   0.0000000   0.0000000   0.0000000   0.0000000
 NMagM=    2.7928460   2.7928460   2.7928460   2.7928460   2.7928460   2.7928460   2.7928460   2.7928460   2.7928460   2.7928460
 AtZNuc=   1.0000000   1.0000000   1.0000000   1.0000000   1.0000000   1.0000000   1.0000000   1.0000000   1.0000000   1.0000000

  Atom        31          32          33
 IAtWgt=           1           1           1
 AtmWgt=   1.0078250   1.0078250   1.0078250
 NucSpn=           1           1           1
 AtZEff=  -0.0000000  -0.0000000  -0.0000000
 NQMom=    0.0000000   0.0000000   0.0000000
 NMagM=    2.7928460   2.7928460   2.7928460
 AtZNuc=   1.0000000   1.0000000   1.0000000
 Leave Link  101 at Mon Feb 22 20:57:43 2021, MaxMem=   104857600 cpu:               2.7 elap:               0.1
 (Enter /sw/arch/RedHatEnterpriseServer7/EB_production/2019/software/Gaussian/g16.c01/l103.exe)

 GradGradGradGradGradGradGradGradGradGradGradGradGradGradGradGradGradGrad
 Berny optimization.
 Initialization pass.
                           ----------------------------
                           !    Initial Parameters    !
                           ! (Angstroms and Degrees)  !
 --------------------------                            --------------------------
 ! Name  Definition              Value          Derivative Info.                !
 --------------------------------------------------------------------------------
 ! R1    R(1,2)                  1.5542         estimate D2E/DX2                !
 ! R2    R(1,20)                 1.0921         estimate D2E/DX2                !
 ! R3    R(1,21)                 1.0916         estimate D2E/DX2                !
 ! R4    R(1,22)                 1.0913         estimate D2E/DX2                !
 ! R5    R(2,3)                  1.4869         estimate D2E/DX2                !
 ! R6    R(2,6)                  1.5008         estimate D2E/DX2                !
 ! R7    R(2,23)                 1.0948         estimate D2E/DX2                !
 ! R8    R(3,4)                  1.252          estimate D2E/DX2                !
 ! R9    R(3,5)                  1.3532         estimate D2E/DX2                !
 ! R10   R(5,24)                 0.9813         estimate D2E/DX2                !
 ! R11   R(6,7)                  1.4162         estimate D2E/DX2                !
 ! R12   R(6,19)                 1.4184         estimate D2E/DX2                !
 ! R13   R(7,8)                  1.4035         estimate D2E/DX2                !
 ! R14   R(7,25)                 1.0225         estimate D2E/DX2                !
 ! R15   R(8,9)                  1.4033         estimate D2E/DX2                !
 ! R16   R(8,26)                 1.0223         estimate D2E/DX2                !
 ! R17   R(9,10)                 1.4143         estimate D2E/DX2                !
 ! R18   R(9,27)                 1.0221         estimate D2E/DX2                !
 ! R19   R(10,11)                1.4244         estimate D2E/DX2                !
 ! R20   R(10,19)                1.4147         estimate D2E/DX2                !
 ! R21   R(11,12)                1.2554         estimate D2E/DX2                !
 ! R22   R(11,13)                1.4332         estimate D2E/DX2                !
 ! R23   R(13,14)                1.4198         estimate D2E/DX2                !
 ! R24   R(13,18)                1.4202         estimate D2E/DX2                !
 ! R25   R(14,15)                1.4079         estimate D2E/DX2                !
 ! R26   R(14,28)                1.022          estimate D2E/DX2                !
 ! R27   R(15,16)                1.4042         estimate D2E/DX2                !
 ! R28   R(15,29)                1.0225         estimate D2E/DX2                !
 ! R29   R(16,17)                1.4042         estimate D2E/DX2                !
 ! R30   R(16,30)                1.0224         estimate D2E/DX2                !
 ! R31   R(17,18)                1.4072         estimate D2E/DX2                !
 ! R32   R(17,31)                1.023          estimate D2E/DX2                !
 ! R33   R(18,32)                1.0234         estimate D2E/DX2                !
 ! R34   R(19,33)                1.0231         estimate D2E/DX2                !
 ! A1    A(2,1,20)             111.4742         estimate D2E/DX2                !
 ! A2    A(2,1,21)             109.7791         estimate D2E/DX2                !
 ! A3    A(2,1,22)             111.1638         estimate D2E/DX2                !
 ! A4    A(20,1,21)            108.3319         estimate D2E/DX2                !
 ! A5    A(20,1,22)            108.1527         estimate D2E/DX2                !
 ! A6    A(21,1,22)            107.8203         estimate D2E/DX2                !
 ! A7    A(1,2,3)              111.9851         estimate D2E/DX2                !
 ! A8    A(1,2,6)              111.0088         estimate D2E/DX2                !
 ! A9    A(1,2,23)             105.5033         estimate D2E/DX2                !
 ! A10   A(3,2,6)              113.1545         estimate D2E/DX2                !
 ! A11   A(3,2,23)             105.863          estimate D2E/DX2                !
 ! A12   A(6,2,23)             108.8542         estimate D2E/DX2                !
 ! A13   A(2,3,4)              122.2914         estimate D2E/DX2                !
 ! A14   A(2,3,5)              120.7652         estimate D2E/DX2                !
 ! A15   A(4,3,5)              116.9405         estimate D2E/DX2                !
 ! A16   A(3,5,24)             119.7552         estimate D2E/DX2                !
 ! A17   A(2,6,7)              120.4469         estimate D2E/DX2                !
 ! A18   A(2,6,19)             121.5803         estimate D2E/DX2                !
 ! A19   A(7,6,19)             117.9636         estimate D2E/DX2                !
 ! A20   A(6,7,8)              121.0284         estimate D2E/DX2                !
 ! A21   A(6,7,25)             120.6147         estimate D2E/DX2                !
 ! A22   A(8,7,25)             118.356          estimate D2E/DX2                !
 ! A23   A(7,8,9)              119.9213         estimate D2E/DX2                !
 ! A24   A(7,8,26)             120.0119         estimate D2E/DX2                !
 ! A25   A(9,8,26)             120.0667         estimate D2E/DX2                !
 ! A26   A(8,9,10)             120.9579         estimate D2E/DX2                !
 ! A27   A(8,9,27)             118.4287         estimate D2E/DX2                !
 ! A28   A(10,9,27)            120.6129         estimate D2E/DX2                !
 ! A29   A(9,10,11)            120.4365         estimate D2E/DX2                !
 ! A30   A(9,10,19)            118.2055         estimate D2E/DX2                !
 ! A31   A(11,10,19)           121.333          estimate D2E/DX2                !
 ! A32   A(10,11,12)           115.6416         estimate D2E/DX2                !
 ! A33   A(10,11,13)           125.7229         estimate D2E/DX2                !
 ! A34   A(12,11,13)           118.6355         estimate D2E/DX2                !
 ! A35   A(11,13,14)           122.1508         estimate D2E/DX2                !
 ! A36   A(11,13,18)           120.3458         estimate D2E/DX2                !
 ! A37   A(14,13,18)           117.4767         estimate D2E/DX2                !
 ! A38   A(13,14,15)           121.2536         estimate D2E/DX2                !
 ! A39   A(13,14,28)           120.8453         estimate D2E/DX2                !
 ! A40   A(15,14,28)           117.8961         estimate D2E/DX2                !
 ! A41   A(14,15,16)           120.1096         estimate D2E/DX2                !
 ! A42   A(14,15,29)           120.0898         estimate D2E/DX2                !
 ! A43   A(16,15,29)           119.7988         estimate D2E/DX2                !
 ! A44   A(15,16,17)           119.77           estimate D2E/DX2                !
 ! A45   A(15,16,30)           120.1292         estimate D2E/DX2                !
 ! A46   A(17,16,30)           120.0997         estimate D2E/DX2                !
 ! A47   A(16,17,18)           120.0503         estimate D2E/DX2                !
 ! A48   A(16,17,31)           119.8629         estimate D2E/DX2                !
 ! A49   A(18,17,31)           120.0867         estimate D2E/DX2                !
 ! A50   A(13,18,17)           121.3348         estimate D2E/DX2                !
 ! A51   A(13,18,32)           120.8            estimate D2E/DX2                !
 ! A52   A(17,18,32)           117.8651         estimate D2E/DX2                !
 ! A53   A(6,19,10)            121.9194         estimate D2E/DX2                !
 ! A54   A(6,19,33)            119.1882         estimate D2E/DX2                !
 ! A55   A(10,19,33)           118.8894         estimate D2E/DX2                !
 ! D1    D(20,1,2,3)            65.6907         estimate D2E/DX2                !
 ! D2    D(20,1,2,6)           -61.8475         estimate D2E/DX2                !
 ! D3    D(20,1,2,23)         -179.6077         estimate D2E/DX2                !
 ! D4    D(21,1,2,3)          -174.2669         estimate D2E/DX2                !
 ! D5    D(21,1,2,6)            58.1949         estimate D2E/DX2                !
 ! D6    D(21,1,2,23)          -59.5654         estimate D2E/DX2                !
 ! D7    D(22,1,2,3)           -55.0601         estimate D2E/DX2                !
 ! D8    D(22,1,2,6)           177.4017         estimate D2E/DX2                !
 ! D9    D(22,1,2,23)           59.6415         estimate D2E/DX2                !
 ! D10   D(1,2,3,4)            -62.9749         estimate D2E/DX2                !
 ! D11   D(1,2,3,5)            116.3963         estimate D2E/DX2                !
 ! D12   D(6,2,3,4)             63.4064         estimate D2E/DX2                !
 ! D13   D(6,2,3,5)           -117.2225         estimate D2E/DX2                !
 ! D14   D(23,2,3,4)          -177.4558         estimate D2E/DX2                !
 ! D15   D(23,2,3,5)             1.9154         estimate D2E/DX2                !
 ! D16   D(1,2,6,7)           -111.6991         estimate D2E/DX2                !
 ! D17   D(1,2,6,19)            67.1752         estimate D2E/DX2                !
 ! D18   D(3,2,6,7)            121.4026         estimate D2E/DX2                !
 ! D19   D(3,2,6,19)           -59.7231         estimate D2E/DX2                !
 ! D20   D(23,2,6,7)             4.0039         estimate D2E/DX2                !
 ! D21   D(23,2,6,19)         -177.1218         estimate D2E/DX2                !
 ! D22   D(2,3,5,24)          -177.6568         estimate D2E/DX2                !
 ! D23   D(4,3,5,24)             1.7469         estimate D2E/DX2                !
 ! D24   D(2,6,7,8)            179.3021         estimate D2E/DX2                !
 ! D25   D(2,6,7,25)            -0.3612         estimate D2E/DX2                !
 ! D26   D(19,6,7,8)             0.3879         estimate D2E/DX2                !
 ! D27   D(19,6,7,25)         -179.2755         estimate D2E/DX2                !
 ! D28   D(2,6,19,10)         -179.5169         estimate D2E/DX2                !
 ! D29   D(2,6,19,33)            1.122          estimate D2E/DX2                !
 ! D30   D(7,6,19,10)           -0.6157         estimate D2E/DX2                !
 ! D31   D(7,6,19,33)         -179.9767         estimate D2E/DX2                !
 ! D32   D(6,7,8,9)              0.1823         estimate D2E/DX2                !
 ! D33   D(6,7,8,26)          -179.8859         estimate D2E/DX2                !
 ! D34   D(25,7,8,9)           179.853          estimate D2E/DX2                !
 ! D35   D(25,7,8,26)           -0.2151         estimate D2E/DX2                !
 ! D36   D(7,8,9,10)            -0.5509         estimate D2E/DX2                !
 ! D37   D(7,8,9,27)           179.717          estimate D2E/DX2                !
 ! D38   D(26,8,9,10)          179.5172         estimate D2E/DX2                !
 ! D39   D(26,8,9,27)           -0.2148         estimate D2E/DX2                !
 ! D40   D(8,9,10,11)          178.531          estimate D2E/DX2                !
 ! D41   D(8,9,10,19)            0.3279         estimate D2E/DX2                !
 ! D42   D(27,9,10,11)          -1.7428         estimate D2E/DX2                !
 ! D43   D(27,9,10,19)        -179.9459         estimate D2E/DX2                !
 ! D44   D(9,10,11,12)         -42.4024         estimate D2E/DX2                !
 ! D45   D(9,10,11,13)         137.6252         estimate D2E/DX2                !
 ! D46   D(19,10,11,12)        135.7437         estimate D2E/DX2                !
 ! D47   D(19,10,11,13)        -44.2288         estimate D2E/DX2                !
 ! D48   D(9,10,19,6)            0.265          estimate D2E/DX2                !
 ! D49   D(9,10,19,33)         179.6279         estimate D2E/DX2                !
 ! D50   D(11,10,19,6)        -177.9212         estimate D2E/DX2                !
 ! D51   D(11,10,19,33)          1.4417         estimate D2E/DX2                !
 ! D52   D(10,11,13,14)        -23.1592         estimate D2E/DX2                !
 ! D53   D(10,11,13,18)        158.7648         estimate D2E/DX2                !
 ! D54   D(12,11,13,14)        156.8691         estimate D2E/DX2                !
 ! D55   D(12,11,13,18)        -21.2069         estimate D2E/DX2                !
 ! D56   D(11,13,14,15)       -177.7131         estimate D2E/DX2                !
 ! D57   D(11,13,14,28)          1.4551         estimate D2E/DX2                !
 ! D58   D(18,13,14,15)          0.4154         estimate D2E/DX2                !
 ! D59   D(18,13,14,28)        179.5837         estimate D2E/DX2                !
 ! D60   D(11,13,18,17)        177.4577         estimate D2E/DX2                !
 ! D61   D(11,13,18,32)         -2.4403         estimate D2E/DX2                !
 ! D62   D(14,13,18,17)         -0.7063         estimate D2E/DX2                !
 ! D63   D(14,13,18,32)        179.3957         estimate D2E/DX2                !
 ! D64   D(13,14,15,16)          0.228          estimate D2E/DX2                !
 ! D65   D(13,14,15,29)        179.7387         estimate D2E/DX2                !
 ! D66   D(28,14,15,16)       -178.964          estimate D2E/DX2                !
 ! D67   D(28,14,15,29)          0.5467         estimate D2E/DX2                !
 ! D68   D(14,15,16,17)         -0.5976         estimate D2E/DX2                !
 ! D69   D(14,15,16,30)        179.0148         estimate D2E/DX2                !
 ! D70   D(29,15,16,17)        179.8903         estimate D2E/DX2                !
 ! D71   D(29,15,16,30)         -0.4973         estimate D2E/DX2                !
 ! D72   D(15,16,17,18)          0.3107         estimate D2E/DX2                !
 ! D73   D(15,16,17,31)       -179.772          estimate D2E/DX2                !
 ! D74   D(30,16,17,18)       -179.3018         estimate D2E/DX2                !
 ! D75   D(30,16,17,31)          0.6155         estimate D2E/DX2                !
 ! D76   D(16,17,18,13)          0.3545         estimate D2E/DX2                !
 ! D77   D(16,17,18,32)       -179.7447         estimate D2E/DX2                !
 ! D78   D(31,17,18,13)       -179.5626         estimate D2E/DX2                !
 ! D79   D(31,17,18,32)          0.3382         estimate D2E/DX2                !
 --------------------------------------------------------------------------------
 Trust Radius=3.00D-01 FncErr=1.00D-07 GrdErr=1.00D-06 EigMax=2.50D+02 EigMin=1.00D-04
 Number of steps in this run=    178 maximum allowed number of steps=    198.
 GradGradGradGradGradGradGradGradGradGradGradGradGradGradGradGradGradGrad

 Leave Link  103 at Mon Feb 22 20:57:43 2021, MaxMem=   104857600 cpu:               0.8 elap:               0.1
 (Enter /sw/arch/RedHatEnterpriseServer7/EB_production/2019/software/Gaussian/g16.c01/l202.exe)
                          Input orientation:                          
 ---------------------------------------------------------------------
 Center     Atomic      Atomic             Coordinates (Angstroms)
 Number     Number       Type             X           Y           Z
 ---------------------------------------------------------------------
      1          6           0        8.132090    5.939690   -0.124630
      2          6           0        7.873570    4.991280   -1.328510
      3          6           0        7.262970    5.707030   -2.479880
      4          8           0        6.135310    6.246460   -2.410250
      5          8           0        7.921270    5.812210   -3.657530
      6          6           0        7.091940    3.782690   -0.903200
      7          6           0        7.696120    2.501890   -0.900100
      8          6           0        6.981050    1.365680   -0.490930
      9          6           0        5.644940    1.489810   -0.080310
     10          6           0        5.004150    2.750450   -0.060160
     11          6           0        3.638280    2.859460    0.328850
     12          8           0        2.871110    1.977180   -0.128390
     13          6           0        3.088880    3.873610    1.179550
     14          6           0        3.886080    4.596020    2.106080
     15          6           0        3.318200    5.555150    2.966250
     16          6           0        1.938140    5.810830    2.923070
     17          6           0        1.128470    5.115660    2.010340
     18          6           0        1.698530    4.161650    1.147090
     19          6           0        5.744420    3.883460   -0.472110
     20          1           0        7.197020    6.314840    0.296770
     21          1           0        8.671080    5.403670    0.658790
     22          1           0        8.739210    6.796560   -0.421390
     23          1           0        8.864310    4.670890   -1.666650
     24          1           0        7.519430    6.317280   -4.396660
     25          1           0        8.668890    2.384310   -1.192320
     26          1           0        7.433120    0.448730   -0.493180
     27          1           0        5.144470    0.646890    0.208860
     28          1           0        4.891230    4.425390    2.177260
     29          1           0        3.908460    6.062320    3.629550
     30          1           0        1.523120    6.496380    3.557930
     31          1           0        0.123400    5.303340    1.975260
     32          1           0        1.078250    3.677650    0.492620
     33          1           0        5.289350    4.799770   -0.467140
 ---------------------------------------------------------------------
                    Distance matrix (angstroms):
                    1          2          3          4          5
     1  C    0.000000
     2  C    1.554233   0.000000
     3  C    2.521250   1.486870   0.000000
     4  O    3.050458   2.401497   1.251978   0.000000
     5  O    3.541480   2.469926   1.353248   2.221246   0.000000
     6  C    2.518081   1.500841   2.493643   3.042450   3.520380
     7  C    3.551041   2.532210   3.599479   4.328797   4.314201
     8  C    4.730818   3.826631   4.783589   5.312352   5.539224
     9  C    5.097971   4.334177   5.114773   5.319286   6.054859
    10  C    4.467596   3.855334   4.438319   4.361712   5.552030
    11  C    5.466973   5.022866   5.397777   5.020916   6.553927
    12  O    6.586305   5.962356   6.223321   5.838548   7.257162
    13  C    5.603886   5.516594   5.846014   5.272364   7.106863
    14  C    4.980976   5.277567   5.802479   5.308505   7.140103
    15  C    5.733668   6.286041   6.726411   6.109073   8.070241
    16  C    6.904353   7.346899   7.586597   6.800758   8.893939
    17  C    7.368027   7.527268   7.625214   6.774125   8.874236
    18  C    6.794806   6.704327   6.819538   6.056907   8.033132
    19  C    3.170141   2.548326   3.108463   3.081063   4.313427
    20  H    1.092095   2.202514   2.843162   2.908584   4.051378
    21  H    1.091593   2.180699   3.453411   4.069328   4.399970
    22  H    1.091278   2.198007   2.757488   3.322419   3.480025
    23  H    2.126929   1.094785   2.073456   3.237716   2.481036
    24  H    4.332224   3.361136   2.027862   2.422112   0.981267
    25  H    3.750846   2.728988   3.830782   4.776880   4.287971
    26  H    5.547525   4.639669   5.623668   6.242847   6.246465
    27  H    6.086939   5.355858   6.109205   6.260726   7.024252
    28  H    4.253819   4.637349   5.381143   5.090116   6.719314
    29  H    5.652252   6.438290   6.978833   6.439872   8.322664
    30  H    7.586148   8.152965   8.368040   7.546783   9.667847
    31  H    8.303830   8.430742   8.425242   7.501016   9.632967
    32  H    7.433336   7.156711   7.155760   6.371758   8.282935
    33  H    3.081867   2.730719   2.961320   2.565977   4.258007
                    6          7          8          9         10
     6  C    0.000000
     7  C    1.416154   0.000000
     8  C    2.454425   1.403467   0.000000
     9  C    2.833418   2.429753   1.403284   0.000000
    10  C    2.476914   2.830898   2.451792   1.414295   0.000000
    11  C    3.781279   4.254908   3.752003   2.463745   1.424364
    12  O    4.655706   4.914426   4.170968   2.816731   2.269903
    13  C    4.513380   5.237673   4.922317   3.715265   2.542957
    14  C    4.471556   5.285726   5.172852   4.185980   3.057582
    15  C    5.688178   6.590694   6.551353   5.587686   4.457345
    16  C    6.731668   7.662901   7.539608   6.436759   5.259848
    17  C    6.769675   7.644376   7.387245   6.157606   4.990199
    18  C    5.782402   6.551097   6.197223   4.921320   3.791578
    19  C    1.418381   2.429206   2.805142   2.427543   1.414713
    20  H    2.804060   4.027429   5.016104   5.082525   4.200114
    21  H    2.749740   3.435260   4.525861   5.002209   4.582886
    22  H    3.468292   4.445379   5.708802   6.152433   5.518348
    23  H    2.124394   2.580083   3.981633   4.795841   4.601058
    24  H    4.337183   5.178258   6.329528   6.741592   6.152572
    25  H    2.127399   1.022496   2.092453   3.343796   3.853072
    26  H    3.376360   2.109554   1.022335   2.109952   3.374213
    27  H    3.855199   3.343910   2.092700   1.022059   2.125330
    28  H    3.839977   4.586655   4.566006   3.779197   2.797181
    29  H    5.989748   6.894981   6.962585   6.138915   5.077694
    30  H    7.633973   8.598599   8.515066   7.435855   6.264195
    31  H    7.691454   8.570992   8.283394   7.018246   5.872129
    32  H    6.174449   6.864276   6.415265   5.096033   4.071604
    33  H    2.115167   3.355629   3.828236   3.351405   2.108716
                   11         12         13         14         15
    11  C    0.000000
    12  O    1.255403   0.000000
    13  C    1.433189   2.313996   0.000000
    14  C    2.497117   3.589059   1.419811   0.000000
    15  C    3.784848   4.751690   2.464236   1.407945   0.000000
    16  C    4.281476   4.987857   2.849015   2.436741   1.404209
    17  C    3.770543   4.178638   2.464976   2.807776   2.429369
    18  C    2.475449   2.788136   1.420244   2.427697   2.806157
    19  C    2.475063   3.465250   3.127294   3.257028   4.528069
    20  H    4.960374   6.140810   4.859601   4.146115   4.769538
    21  H    5.648977   6.782340   5.811474   5.063909   5.831007
    22  H    6.487149   7.599136   6.559945   5.897741   6.511878
    23  H    5.880025   6.748390   6.487843   6.246749   7.280454
    24  H    7.024976   7.659078   7.529636   7.645234   8.511382
    25  H    5.277003   5.908634   6.243420   6.216621   7.481832
    26  H    4.570357   4.825056   5.779295   6.044639   7.414563
    27  H    2.679267   2.655480   3.947076   4.558357   5.918571
    28  H    2.727387   3.923090   2.132687   1.022012   2.091240
    29  H    4.607161   5.646820   3.385951   2.114592   1.022543
    30  H    5.303588   5.985750   3.871333   3.361966   2.111471
    31  H    4.586676   4.799854   3.386939   3.830819   3.354432
    32  H    2.692584   2.547862   2.133754   3.366091   3.828998
    33  H    2.669164   3.732245   2.900246   2.938051   4.030409
                   16         17         18         19         20
    16  C    0.000000
    17  C    1.404245   0.000000
    18  C    2.435429   1.407233   0.000000
    19  C    5.452501   5.384038   4.366741   0.000000
    20  H    5.899771   6.418851   5.965959   2.934763   0.000000
    21  H    7.115140   7.668155   7.099120   3.486447   1.770351
    22  H    7.642750   8.164686   7.679457   4.178216   1.768094
    23  H    8.386705   8.576788   7.715236   3.432300   3.055723
    24  H    9.218771   9.128960   8.322426   4.947346   4.704491
    25  H    8.601190   8.635696   7.564238   3.364324   4.453410
    26  H    8.403433   8.233861   7.025794   3.827469   5.923767
    27  H    6.656858   6.272439   5.010820   3.361405   6.028793
    28  H    3.346105   3.829190   3.365136   2.835627   3.524618
    29  H    2.108204   3.353558   3.828700   4.994176   4.688903
    30  H    1.022383   2.111201   3.360637   6.394368   6.546851
    31  H    2.109306   1.023045   2.114322   6.292976   7.340065
    32  H    3.346185   2.091380   1.023394   4.769298   6.665769
    33  H    4.873025   4.852898   3.988349   1.023102   2.553077
                   21         22         23         24         25
    21  H    0.000000
    22  H    1.763965   0.000000
    23  H    2.445808   2.466738   0.000000
    24  H    5.264841   4.185731   3.460095   0.000000
    25  H    3.541631   4.479646   2.343422   5.201664   0.000000
    26  H    5.235553   6.481201   4.609986   7.048722   2.400499
    27  H    5.938550   7.151071   5.792005   7.681443   4.171747
    28  H    4.189278   5.213672   5.533650   7.328240   5.458094
    29  H    5.651706   6.347076   7.385544   8.804780   7.709726
    30  H    7.790530   8.246032   9.193570   9.963098   9.515042
    31  H    8.649046   9.066742   9.490364   9.814820   9.569728
    32  H    7.788313   8.321858   8.140743   8.506557   7.882231
    33  H    3.615040   3.986326   3.773032   4.766259   4.216826
                   26         27         28         29         30
    26  H    0.000000
    27  H    2.402092   0.000000
    28  H    5.422756   4.267996   0.000000
    29  H    7.805929   6.523475   2.398859   0.000000
    30  H    9.376229   7.651600   4.188008   2.425569   0.000000
    31  H    9.115506   7.072046   4.852196   4.199929   2.426398
    32  H    7.195978   5.079387   4.235085   4.851502   4.187992
    33  H    4.850565   4.210033   2.700280   4.503749   5.767509
                   31         32         33
    31  H    0.000000
    32  H    2.398505   0.000000
    33  H    5.736370   4.462472   0.000000
 Stoichiometry    C16H14O3
 Framework group  C1[X(C16H14O3)]
 Deg. of freedom    93
 Full point group                 C1      NOp   1
 Largest Abelian subgroup         C1      NOp   1
 Largest concise Abelian subgroup C1      NOp   1
                         Standard orientation:                         
 ---------------------------------------------------------------------
 Center     Atomic      Atomic             Coordinates (Angstroms)
 Number     Number       Type             X           Y           Z
 ---------------------------------------------------------------------
      1          6           0       -2.506548   -1.634950    1.658454
      2          6           0       -2.948094   -0.658991    0.532318
      3          6           0       -3.151137   -1.359490   -0.763390
      4          8           0       -2.218234   -1.940606   -1.362927
      5          8           0       -4.373625   -1.404151   -1.342018
      6          6           0       -2.008564    0.507080    0.431892
      7          6           0       -2.438212    1.807828    0.790984
      8          6           0       -1.565627    2.904475    0.715623
      9          6           0       -0.246068    2.720067    0.275207
     10          6           0        0.227793    1.437424   -0.086058
     11          6           0        1.559786    1.267740   -0.561256
     12          8           0        1.961356    2.136101   -1.374107
     13          6           0        2.451571    0.208473   -0.191518
     14          6           0        2.304706   -0.513870    1.021954
     15          6           0        3.219613   -1.519133    1.388972
     16          6           0        4.306100   -1.822253    0.552632
     17          6           0        4.469818   -1.127996   -0.656958
     18          6           0        3.551113   -0.127673   -1.025248
     19          6           0       -0.666766    0.344957    0.001660
     20          1           0       -1.519092   -2.056169    1.458013
     21          1           0       -2.466643   -1.104969    2.611923
     22          1           0       -3.213008   -2.459941    1.764242
     23          1           0       -3.935268   -0.293105    0.832599
     24          1           0       -4.498094   -1.899730   -2.179749
     25          1           0       -3.393749    1.969052    1.117259
     26          1           0       -1.891703    3.836541    0.980379
     27          1           0        0.368514    3.535156    0.224979
     28          1           0        1.535635   -0.309918    1.663390
     29          1           0        3.099032   -2.025571    2.269072
     30          1           0        4.979067   -2.541731    0.826009
     31          1           0        5.258913   -1.350109   -1.269016
     32          1           0        3.700152    0.354276   -1.915668
     33          1           0       -0.336643   -0.586662   -0.262615
 ---------------------------------------------------------------------
 Rotational constants (GHZ):           0.5664450           0.2300205           0.1942662
 Leave Link  202 at Mon Feb 22 20:57:43 2021, MaxMem=   104857600 cpu:               0.5 elap:               0.0
 (Enter /sw/arch/RedHatEnterpriseServer7/EB_production/2019/software/Gaussian/g16.c01/l301.exe)
 Standard basis: TZVP (5D, 7F)
 Ernie: Thresh=  0.10000D-02 Tol=  0.10000D-05 Strict=F.
 There are   464 symmetry adapted cartesian basis functions of A   symmetry.
 There are   445 symmetry adapted basis functions of A   symmetry.
   445 basis functions,   777 primitive gaussians,   464 cartesian basis functions
    67 alpha electrons       67 beta electrons
       nuclear repulsion energy      1320.9612420621 Hartrees.
 IExCor=  404 DFT=T Ex=B Corr=P86 ExCW=0 ScaHFX=  0.000000
 ScaDFX=  1.000000  1.000000  1.000000  1.000000 ScalE2=  1.000000  1.000000
 IRadAn=      5 IRanWt=     -1 IRanGd=            0 ICorTp=0 IEmpDi=131
 NAtoms=   33 NActive=   33 NUniq=   33 SFac= 1.00D+00 NAtFMM=   60 NAOKFM=F Big=F
 Integral buffers will be    131072 words long.
 Raffenetti 2 integral format.
 Two-electron integral symmetry is turned on.
 R6Disp:  Grimme-D3 Dispersion energy=       -0.0358357790 Hartrees.
 Nuclear repulsion after empirical dispersion term =     1320.9254062831 Hartrees.
 ------------------------------------------------------------------------------
 Polarizable Continuum Model (PCM)
 =================================
 Model                : PCM.
 Atomic radii         : UFF (Universal Force Field).
 Polarization charges : Total charges.
 Charge compensation  : None.
 Solution method      : On-the-fly selection.
 Cavity type          : Scaled VdW (van der Waals Surface) (Alpha=1.100).
 Cavity algorithm     : GePol (No added spheres)
                        Default sphere list used, NSphG=   33.
                        Lebedev-Laikov grids with approx.  5.0 points / Ang**2.
                        Smoothing algorithm: York/Karplus (Gamma=1.0000).
                        Polarization charges: spherical gaussians, with
                                              point-specific exponents (IZeta= 3).
                        Self-potential: point-specific (ISelfS= 7).
                        Self-field    : sphere-specific E.n sum rule (ISelfD= 2).
 1st derivatives      : Analytical E(r).r(x)/FMM algorithm (CHGder, D1EAlg=3).
                        Cavity 1st derivative terms included.
 Solvent              : Water, Eps=  78.355300 Eps(inf)=   1.777849
 ------------------------------------------------------------------------------
 GePol: Number of generator spheres                  =      33
 GePol: Total number of spheres                      =      33
 GePol: Number of exposed spheres                    =      33 (100.00%)
 GePol: Number of points                             =    2570
 GePol: Average weight of points                     =       0.13
 GePol: Minimum weight of points                     =   0.10D-10
 GePol: Maximum weight of points                     =    0.20577
 GePol: Number of points with low weight             =     173
 GePol: Fraction of low-weight points (<1% of avg)   =       6.73%
 GePol: Cavity surface area                          =    333.360 Ang**2
 GePol: Cavity volume                                =    356.731 Ang**3
 Leave Link  301 at Mon Feb 22 20:57:43 2021, MaxMem=   104857600 cpu:               1.7 elap:               0.1
 (Enter /sw/arch/RedHatEnterpriseServer7/EB_production/2019/software/Gaussian/g16.c01/l302.exe)
 NPDir=0 NMtPBC=     1 NCelOv=     1 NCel=       1 NClECP=     1 NCelD=      1
         NCelK=      1 NCelE2=     1 NClLst=     1 CellRange=     0.0.
 One-electron integrals computed using PRISM.
 One-electron integral symmetry used in STVInt
 PrsmSu:  requested number of processors reduced to:  25 ShMem   1 Linda.
 NBasis=   445 RedAO= T EigKep=  7.41D-06  NBF=   445
 NBsUse=   445 1.00D-06 EigRej= -1.00D+00 NBFU=   445
 Precomputing XC quadrature grid using
 IXCGrd= 4 IRadAn=           5 IRanWt=          -1 IRanGd=           0 AccXCQ= 0.00D+00.
 Generated NRdTot=       0 NPtTot=           0 NUsed=           0 NTot=          32
 NSgBfM=   457   457   457   457   457 MxSgAt=    33 MxSgA2=    33.
 Leave Link  302 at Mon Feb 22 20:57:44 2021, MaxMem=   104857600 cpu:              16.1 elap:               0.6
 (Enter /sw/arch/RedHatEnterpriseServer7/EB_production/2019/software/Gaussian/g16.c01/l303.exe)
 DipDrv:  MaxL=1.
 Leave Link  303 at Mon Feb 22 20:57:44 2021, MaxMem=   104857600 cpu:               4.0 elap:               0.2
 (Enter /sw/arch/RedHatEnterpriseServer7/EB_production/2019/software/Gaussian/g16.c01/l401.exe)
 ExpMin= 9.52D-02 ExpMax= 2.70D+04 ExpMxC= 9.22D+02 IAcc=3 IRadAn=         5 AccDes= 0.00D+00
 Harris functional with IExCor=  404 and IRadAn=       5 diagonalized for initial guess.
 HarFok:  IExCor=  404 AccDes= 0.00D+00 IRadAn=         5 IDoV= 1 UseB2=F ITyADJ=14
 ICtDFT=  3500011 ScaDFX=  1.000000  1.000000  1.000000  1.000000
 FoFCou: FMM=F IPFlag=           0 FMFlag=      100000 FMFlg1=           0
         NFxFlg=           0 DoJE=T BraDBF=F KetDBF=T FulRan=T
         wScrn=  0.000000 ICntrl=       500 IOpCl=  0 I1Cent=   200000004 NGrid=           0
         NMat0=    1 NMatS0=      1 NMatT0=    0 NMatD0=    1 NMtDS0=    0 NMtDT0=    0
 Petite list used in FoFCou.
 Harris En= -844.422159892732    
 JPrj=0 DoOrth=F DoCkMO=F.
 Leave Link  401 at Mon Feb 22 20:57:45 2021, MaxMem=   104857600 cpu:              28.4 elap:               0.9
 (Enter /sw/arch/RedHatEnterpriseServer7/EB_production/2019/software/Gaussian/g16.c01/l502.exe)
 Integral symmetry usage will be decided dynamically.
 Closed shell SCF:
 Using DIIS extrapolation, IDIIS=  1040.
 NGot=   104857600 LenX=   104406756 LenY=   104190996
 Requested convergence on RMS density matrix=1.00D-08 within 128 cycles.
 Requested convergence on MAX density matrix=1.00D-06.
 Requested convergence on             energy=1.00D-06.
 No special actions if energy rises.
 Fock matrices will be formed incrementally for  20 cycles.

 Cycle   1  Pass 1  IDiag  1:
 FoFJK:  IHMeth= 1 ICntrl=     500 DoSepK=F KAlg= 0 I1Cent=           0 FoldK=F
 IRaf= 810000000 NMat=       1 IRICut=       1 DoRegI=T DoRafI=F ISym2E= 0 IDoP0=0 IntGTp=1.
 FoFCou: FMM=F IPFlag=           0 FMFlag=      100000 FMFlg1=           0
         NFxFlg=           0 DoJE=T BraDBF=F KetDBF=F FulRan=T
         wScrn=  0.000000 ICntrl=       500 IOpCl=  0 I1Cent=           0 NGrid=           0
         NMat0=    1 NMatS0=      1 NMatT0=    0 NMatD0=    1 NMtDS0=    0 NMtDT0=    0
 Symmetry not used in FoFCou.
 Inv3:  Mode=1 IEnd=    19814700.
 Iteration    1 A*A^-1 deviation from unit magnitude is 3.00D-15 for    795.
 Iteration    1 A*A^-1 deviation from orthogonality  is 2.64D-15 for   1514    484.
 Iteration    1 A^-1*A deviation from unit magnitude is 3.22D-15 for    795.
 Iteration    1 A^-1*A deviation from orthogonality  is 1.23D-14 for   2416   2398.
 E= -843.690448303521    
 DIIS: error= 2.54D-02 at cycle   1 NSaved=   1.
 NSaved= 1 IEnMin= 1 EnMin= -843.690448303521     IErMin= 1 ErrMin= 2.54D-02
 ErrMax= 2.54D-02  0.00D+00 EMaxC= 1.00D-01 BMatC= 4.59D-01 BMatP= 4.59D-01
 IDIUse=3 WtCom= 7.46D-01 WtEn= 2.54D-01
 Coeff-Com:  0.100D+01
 Coeff-En:   0.100D+01
 Coeff:      0.100D+01
 Gap=     0.077 Goal=   None    Shift=    0.000
 GapD=    0.077 DampG=0.500 DampE=0.500 DampFc=0.2500 IDamp=-1.
 Damping current iteration by 2.50D-01
 RMSDP=1.16D-02 MaxDP=1.06D+00              OVMax= 3.09D-01

 Cycle   2  Pass 1  IDiag  1:
 RMSU=  2.85D-03    CP:  1.05D+00
 E= -843.831960025087     Delta-E=       -0.141511721567 Rises=F Damp=T
 DIIS: error= 1.01D-02 at cycle   2 NSaved=   2.
 NSaved= 2 IEnMin= 2 EnMin= -843.831960025087     IErMin= 2 ErrMin= 1.01D-02
 ErrMax= 1.01D-02  0.00D+00 EMaxC= 1.00D-01 BMatC= 8.04D-02 BMatP= 4.59D-01
 IDIUse=3 WtCom= 8.99D-01 WtEn= 1.01D-01
 Coeff-Com: -0.368D+00 0.137D+01
 Coeff-En:   0.000D+00 0.100D+01
 Coeff:     -0.331D+00 0.133D+01
 Gap=     0.114 Goal=   None    Shift=    0.000
 RMSDP=2.61D-03 MaxDP=1.90D-01 DE=-1.42D-01 OVMax= 2.57D-01

 Cycle   3  Pass 1  IDiag  1:
 RMSU=  2.12D-03    CP:  9.69D-01  5.69D-01
 E= -843.980300066787     Delta-E=       -0.148340041700 Rises=F Damp=F
 DIIS: error= 2.71D-02 at cycle   3 NSaved=   3.
 NSaved= 3 IEnMin= 3 EnMin= -843.980300066787     IErMin= 2 ErrMin= 1.01D-02
 ErrMax= 2.71D-02  0.00D+00 EMaxC= 1.00D-01 BMatC= 1.49D-01 BMatP= 8.04D-02
 IDIUse=2 WtCom= 0.00D+00 WtEn= 1.00D+00
 Coeff-En:   0.000D+00 0.764D-01 0.924D+00
 Coeff:      0.000D+00 0.764D-01 0.924D+00
 Gap=     0.105 Goal=   None    Shift=    0.000
 RMSDP=8.49D-03 MaxDP=9.07D-01 DE=-1.48D-01 OVMax= 4.61D-01

 Cycle   4  Pass 1  IDiag  1:
 RMSU=  3.59D-03    CP:  1.19D+00  2.89D+00 -4.74D-01
 E= -842.988789693266     Delta-E=        0.991510373521 Rises=F Damp=F
 DIIS: error= 6.43D-02 at cycle   4 NSaved=   4.
 NSaved= 4 IEnMin= 3 EnMin= -843.980300066787     IErMin= 2 ErrMin= 1.01D-02
 ErrMax= 6.43D-02  0.00D+00 EMaxC= 1.00D-01 BMatC= 1.33D+00 BMatP= 8.04D-02
 IDIUse=2 WtCom= 0.00D+00 WtEn= 1.00D+00
 Coeff-En:   0.000D+00 0.000D+00 0.833D+00 0.167D+00
 Coeff:      0.000D+00 0.000D+00 0.833D+00 0.167D+00
 Gap=     0.079 Goal=   None    Shift=    0.000
 RMSDP=6.00D-03 MaxDP=6.76D-01 DE= 9.92D-01 OVMax= 2.53D-01

 Cycle   5  Pass 1  IDiag  1:
 RMSU=  8.51D-04    CP:  1.05D+00  1.16D+00  2.93D-01  3.11D-01
 E= -844.004203385231     Delta-E=       -1.015413691965 Rises=F Damp=F
 DIIS: error= 2.38D-02 at cycle   5 NSaved=   5.
 NSaved= 5 IEnMin= 5 EnMin= -844.004203385231     IErMin= 2 ErrMin= 1.01D-02
 ErrMax= 2.38D-02  0.00D+00 EMaxC= 1.00D-01 BMatC= 1.26D-01 BMatP= 8.04D-02
 IDIUse=2 WtCom= 0.00D+00 WtEn= 1.00D+00
 Coeff-En:   0.000D+00 0.000D+00 0.464D+00 0.000D+00 0.536D+00
 Coeff:      0.000D+00 0.000D+00 0.464D+00 0.000D+00 0.536D+00
 Gap=     0.102 Goal=   None    Shift=    0.000
 RMSDP=1.58D-03 MaxDP=1.32D-01 DE=-1.02D+00 OVMax= 1.34D-01

 Cycle   6  Pass 1  IDiag  1:
 RMSU=  2.37D-04    CP:  1.01D+00  7.88D-01  6.47D-01  1.36D-01  5.59D-01
 E= -844.104462739978     Delta-E=       -0.100259354747 Rises=F Damp=F
 DIIS: error= 4.07D-03 at cycle   6 NSaved=   6.
 NSaved= 6 IEnMin= 6 EnMin= -844.104462739978     IErMin= 6 ErrMin= 4.07D-03
 ErrMax= 4.07D-03  0.00D+00 EMaxC= 1.00D-01 BMatC= 3.32D-03 BMatP= 8.04D-02
 IDIUse=3 WtCom= 9.59D-01 WtEn= 4.07D-02
 Coeff-Com: -0.368D-01 0.636D-01 0.237D+00-0.414D-01 0.404D+00 0.374D+00
 Coeff-En:   0.000D+00 0.000D+00 0.000D+00 0.000D+00 0.000D+00 0.100D+01
 Coeff:     -0.353D-01 0.610D-01 0.228D+00-0.397D-01 0.387D+00 0.399D+00
 Gap=     0.100 Goal=   None    Shift=    0.000
 RMSDP=2.75D-04 MaxDP=1.87D-02 DE=-1.00D-01 OVMax= 2.99D-02

 Cycle   7  Pass 1  IDiag  1:
 RMSU=  1.21D-04    CP:  1.01D+00  8.64D-01  6.27D-01  1.50D-01  6.14D-01
                    CP:  6.75D-01
 E= -844.106723501201     Delta-E=       -0.002260761223 Rises=F Damp=F
 DIIS: error= 1.56D-03 at cycle   7 NSaved=   7.
 NSaved= 7 IEnMin= 7 EnMin= -844.106723501201     IErMin= 7 ErrMin= 1.56D-03
 ErrMax= 1.56D-03  0.00D+00 EMaxC= 1.00D-01 BMatC= 4.89D-04 BMatP= 3.32D-03
 IDIUse=3 WtCom= 9.84D-01 WtEn= 1.56D-02
 Coeff-Com: -0.177D-01 0.290D-01 0.946D-01-0.213D-01 0.169D+00 0.274D+00
 Coeff-Com:  0.473D+00
 Coeff-En:   0.000D+00 0.000D+00 0.000D+00 0.000D+00 0.000D+00 0.165D+00
 Coeff-En:   0.835D+00
 Coeff:     -0.174D-01 0.285D-01 0.932D-01-0.210D-01 0.166D+00 0.272D+00
 Coeff:      0.479D+00
 Gap=     0.101 Goal=   None    Shift=    0.000
 RMSDP=8.49D-05 MaxDP=3.89D-03 DE=-2.26D-03 OVMax= 7.61D-03

 Cycle   8  Pass 1  IDiag  1:
 RMSU=  4.58D-05    CP:  1.01D+00  8.50D-01  6.26D-01  1.45D-01  6.31D-01
                    CP:  6.45D-01  5.56D-01
 E= -844.107026490532     Delta-E=       -0.000302989331 Rises=F Damp=F
 DIIS: error= 4.06D-04 at cycle   8 NSaved=   8.
 NSaved= 8 IEnMin= 8 EnMin= -844.107026490532     IErMin= 8 ErrMin= 4.06D-04
 ErrMax= 4.06D-04  0.00D+00 EMaxC= 1.00D-01 BMatC= 6.52D-05 BMatP= 4.89D-04
 IDIUse=3 WtCom= 9.96D-01 WtEn= 4.06D-03
 Coeff-Com: -0.958D-03 0.407D-03 0.209D-01-0.500D-02 0.344D-01 0.138D+00
 Coeff-Com:  0.333D+00 0.480D+00
 Coeff-En:   0.000D+00 0.000D+00 0.000D+00 0.000D+00 0.000D+00 0.000D+00
 Coeff-En:   0.405D-01 0.960D+00
 Coeff:     -0.954D-03 0.406D-03 0.208D-01-0.498D-02 0.343D-01 0.137D+00
 Coeff:      0.332D+00 0.482D+00
 Gap=     0.101 Goal=   None    Shift=    0.000
 RMSDP=3.89D-05 MaxDP=2.85D-03 DE=-3.03D-04 OVMax= 2.85D-03

 Cycle   9  Pass 1  IDiag  1:
 RMSU=  1.85D-05    CP:  1.01D+00  8.45D-01  6.30D-01  1.45D-01  6.19D-01
                    CP:  6.50D-01  6.34D-01  4.77D-01
 E= -844.107088108359     Delta-E=       -0.000061617827 Rises=F Damp=F
 DIIS: error= 2.17D-04 at cycle   9 NSaved=   9.
 NSaved= 9 IEnMin= 9 EnMin= -844.107088108359     IErMin= 9 ErrMin= 2.17D-04
 ErrMax= 2.17D-04  0.00D+00 EMaxC= 1.00D-01 BMatC= 1.02D-05 BMatP= 6.52D-05
 IDIUse=3 WtCom= 9.98D-01 WtEn= 2.17D-03
 Coeff-Com:  0.222D-02-0.451D-02 0.480D-02-0.653D-03 0.457D-02 0.744D-01
 Coeff-Com:  0.188D+00 0.353D+00 0.378D+00
 Coeff-En:   0.000D+00 0.000D+00 0.000D+00 0.000D+00 0.000D+00 0.000D+00
 Coeff-En:   0.000D+00 0.302D-01 0.970D+00
 Coeff:      0.221D-02-0.450D-02 0.479D-02-0.652D-03 0.456D-02 0.742D-01
 Coeff:      0.188D+00 0.352D+00 0.380D+00
 Gap=     0.101 Goal=   None    Shift=    0.000
 RMSDP=1.36D-05 MaxDP=1.24D-03 DE=-6.16D-05 OVMax= 8.70D-04

 Cycle  10  Pass 1  IDiag  1:
 RMSU=  6.22D-06    CP:  1.01D+00  8.45D-01  6.31D-01  1.46D-01  6.17D-01
                    CP:  6.74D-01  6.20D-01  5.69D-01  5.26D-01
 E= -844.107095932539     Delta-E=       -0.000007824180 Rises=F Damp=F
 DIIS: error= 5.00D-05 at cycle  10 NSaved=  10.
 NSaved=10 IEnMin=10 EnMin= -844.107095932539     IErMin=10 ErrMin= 5.00D-05
 ErrMax= 5.00D-05  0.00D+00 EMaxC= 1.00D-01 BMatC= 5.78D-07 BMatP= 1.02D-05
 IDIUse=1 WtCom= 1.00D+00 WtEn= 0.00D+00
 Coeff-Com:  0.116D-02-0.192D-02 0.978D-03-0.536D-04-0.850D-03 0.267D-01
 Coeff-Com:  0.721D-01 0.158D+00 0.230D+00 0.513D+00
 Coeff:      0.116D-02-0.192D-02 0.978D-03-0.536D-04-0.850D-03 0.267D-01
 Coeff:      0.721D-01 0.158D+00 0.230D+00 0.513D+00
 Gap=     0.101 Goal=   None    Shift=    0.000
 RMSDP=4.08D-06 MaxDP=4.93D-04 DE=-7.82D-06 OVMax= 2.14D-04

 Cycle  11  Pass 1  IDiag  1:
 RMSU=  1.66D-06    CP:  1.01D+00  8.44D-01  6.31D-01  1.45D-01  6.17D-01
                    CP:  6.75D-01  6.24D-01  5.67D-01  5.48D-01  6.45D-01
 E= -844.107096406858     Delta-E=       -0.000000474319 Rises=F Damp=F
 DIIS: error= 1.16D-05 at cycle  11 NSaved=  11.
 NSaved=11 IEnMin=11 EnMin= -844.107096406858     IErMin=11 ErrMin= 1.16D-05
 ErrMax= 1.16D-05  0.00D+00 EMaxC= 1.00D-01 BMatC= 4.27D-08 BMatP= 5.78D-07
 IDIUse=1 WtCom= 1.00D+00 WtEn= 0.00D+00
 Coeff-Com:  0.537D-03-0.796D-03 0.361D-03-0.228D-04-0.672D-03 0.109D-01
 Coeff-Com:  0.302D-01 0.705D-01 0.108D+00 0.312D+00 0.469D+00
 Coeff:      0.537D-03-0.796D-03 0.361D-03-0.228D-04-0.672D-03 0.109D-01
 Coeff:      0.302D-01 0.705D-01 0.108D+00 0.312D+00 0.469D+00
 Gap=     0.101 Goal=   None    Shift=    0.000
 RMSDP=9.85D-07 MaxDP=6.50D-05 DE=-4.74D-07 OVMax= 9.34D-05

 Cycle  12  Pass 1  IDiag  1:
 RMSU=  6.81D-07    CP:  1.01D+00  8.44D-01  6.31D-01  1.45D-01  6.17D-01
                    CP:  6.74D-01  6.25D-01  5.72D-01  5.38D-01  6.55D-01
                    CP:  6.41D-01
 E= -844.107096444957     Delta-E=       -0.000000038100 Rises=F Damp=F
 DIIS: error= 2.86D-06 at cycle  12 NSaved=  12.
 NSaved=12 IEnMin=12 EnMin= -844.107096444957     IErMin=12 ErrMin= 2.86D-06
 ErrMax= 2.86D-06  0.00D+00 EMaxC= 1.00D-01 BMatC= 6.75D-09 BMatP= 4.27D-08
 IDIUse=1 WtCom= 1.00D+00 WtEn= 0.00D+00
 Coeff-Com:  0.212D-03-0.285D-03 0.112D-03-0.586D-05-0.321D-03 0.352D-02
 Coeff-Com:  0.979D-02 0.242D-01 0.377D-01 0.137D+00 0.317D+00 0.470D+00
 Coeff:      0.212D-03-0.285D-03 0.112D-03-0.586D-05-0.321D-03 0.352D-02
 Coeff:      0.979D-02 0.242D-01 0.377D-01 0.137D+00 0.317D+00 0.470D+00
 Gap=     0.101 Goal=   None    Shift=    0.000
 RMSDP=3.69D-07 MaxDP=2.48D-05 DE=-3.81D-08 OVMax= 4.03D-05

 Cycle  13  Pass 1  IDiag  1:
 RMSU=  1.78D-07    CP:  1.01D+00  8.44D-01  6.31D-01  1.45D-01  6.17D-01
                    CP:  6.74D-01  6.25D-01  5.72D-01  5.40D-01  6.58D-01
                    CP:  7.06D-01  6.26D-01
 E= -844.107096451474     Delta-E=       -0.000000006517 Rises=F Damp=F
 DIIS: error= 6.31D-07 at cycle  13 NSaved=  13.
 NSaved=13 IEnMin=13 EnMin= -844.107096451474     IErMin=13 ErrMin= 6.31D-07
 ErrMax= 6.31D-07  0.00D+00 EMaxC= 1.00D-01 BMatC= 6.29D-10 BMatP= 6.75D-09
 IDIUse=1 WtCom= 1.00D+00 WtEn= 0.00D+00
 Coeff-Com:  0.759D-04-0.976D-04 0.275D-04 0.128D-05-0.114D-03 0.867D-03
 Coeff-Com:  0.236D-02 0.624D-02 0.998D-02 0.476D-01 0.141D+00 0.293D+00
 Coeff-Com:  0.500D+00
 Coeff:      0.759D-04-0.976D-04 0.275D-04 0.128D-05-0.114D-03 0.867D-03
 Coeff:      0.236D-02 0.624D-02 0.998D-02 0.476D-01 0.141D+00 0.293D+00
 Coeff:      0.500D+00
 Gap=     0.101 Goal=   None    Shift=    0.000
 RMSDP=1.35D-07 MaxDP=9.00D-06 DE=-6.52D-09 OVMax= 9.71D-06

 Cycle  14  Pass 1  IDiag  1:
 RMSU=  6.60D-08    CP:  1.01D+00  8.44D-01  6.31D-01  1.45D-01  6.17D-01
                    CP:  6.74D-01  6.25D-01  5.71D-01  5.41D-01  6.64D-01
                    CP:  6.90D-01  6.31D-01  6.14D-01
 E= -844.107096452102     Delta-E=       -0.000000000628 Rises=F Damp=F
 DIIS: error= 2.12D-07 at cycle  14 NSaved=  14.
 NSaved=14 IEnMin=14 EnMin= -844.107096452102     IErMin=14 ErrMin= 2.12D-07
 ErrMax= 2.12D-07  0.00D+00 EMaxC= 1.00D-01 BMatC= 4.15D-11 BMatP= 6.29D-10
 IDIUse=1 WtCom= 1.00D+00 WtEn= 0.00D+00
 Coeff-Com:  0.292D-04-0.374D-04 0.727D-05 0.163D-05-0.406D-04 0.229D-03
 Coeff-Com:  0.599D-03 0.173D-02 0.285D-02 0.170D-01 0.558D-01 0.130D+00
 Coeff-Com:  0.289D+00 0.502D+00
 Coeff:      0.292D-04-0.374D-04 0.727D-05 0.163D-05-0.406D-04 0.229D-03
 Coeff:      0.599D-03 0.173D-02 0.285D-02 0.170D-01 0.558D-01 0.130D+00
 Coeff:      0.289D+00 0.502D+00
 Gap=     0.101 Goal=   None    Shift=    0.000
 RMSDP=2.39D-08 MaxDP=8.11D-07 DE=-6.28D-10 OVMax= 2.89D-06

 Cycle  15  Pass 1  IDiag  1:
 RMSU=  1.89D-08    CP:  1.01D+00  8.44D-01  6.31D-01  1.45D-01  6.17D-01
                    CP:  6.74D-01  6.25D-01  5.71D-01  5.41D-01  6.64D-01
                    CP:  6.95D-01  6.29D-01  6.48D-01  9.10D-01
 E= -844.107096452138     Delta-E=       -0.000000000036 Rises=F Damp=F
 DIIS: error= 5.73D-08 at cycle  15 NSaved=  15.
 NSaved=15 IEnMin=15 EnMin= -844.107096452138     IErMin=15 ErrMin= 5.73D-08
 ErrMax= 5.73D-08  0.00D+00 EMaxC= 1.00D-01 BMatC= 5.14D-12 BMatP= 4.15D-11
 IDIUse=1 WtCom= 1.00D+00 WtEn= 0.00D+00
 Coeff-Com:  0.552D-05-0.628D-05 0.167D-05 0.107D-08-0.441D-05 0.106D-04
 Coeff-Com:  0.231D-04 0.146D-03 0.276D-03 0.316D-02 0.114D-01 0.326D-01
 Coeff-Com:  0.969D-01 0.299D+00 0.556D+00
 Coeff:      0.552D-05-0.628D-05 0.167D-05 0.107D-08-0.441D-05 0.106D-04
 Coeff:      0.231D-04 0.146D-03 0.276D-03 0.316D-02 0.114D-01 0.326D-01
 Coeff:      0.969D-01 0.299D+00 0.556D+00
 Gap=     0.101 Goal=   None    Shift=    0.000
 RMSDP=1.06D-08 MaxDP=5.14D-07 DE=-3.57D-11 OVMax= 7.49D-07

 Cycle  16  Pass 1  IDiag  1:
 RMSU=  6.27D-09    CP:  1.01D+00  8.44D-01  6.31D-01  1.45D-01  6.17D-01
                    CP:  6.74D-01  6.25D-01  5.71D-01  5.40D-01  6.64D-01
                    CP:  6.94D-01  6.33D-01  6.62D-01  9.11D-01  8.19D-01
 E= -844.107096452131     Delta-E=        0.000000000007 Rises=F Damp=F
 DIIS: error= 1.83D-08 at cycle  16 NSaved=  16.
 NSaved=16 IEnMin=15 EnMin= -844.107096452138     IErMin=16 ErrMin= 1.83D-08
 ErrMax= 1.83D-08  0.00D+00 EMaxC= 1.00D-01 BMatC= 2.30D-13 BMatP= 5.14D-12
 IDIUse=1 WtCom= 1.00D+00 WtEn= 0.00D+00
 Coeff-Com:  0.115D-05-0.107D-05 0.465D-06-0.102D-06 0.876D-07-0.608D-05
 Coeff-Com: -0.198D-04-0.150D-04-0.570D-05 0.643D-03 0.237D-02 0.840D-02
 Coeff-Com:  0.311D-01 0.119D+00 0.274D+00 0.565D+00
 Coeff:      0.115D-05-0.107D-05 0.465D-06-0.102D-06 0.876D-07-0.608D-05
 Coeff:     -0.198D-04-0.150D-04-0.570D-05 0.643D-03 0.237D-02 0.840D-02
 Coeff:      0.311D-01 0.119D+00 0.274D+00 0.565D+00
 Gap=     0.101 Goal=   None    Shift=    0.000
 RMSDP=2.39D-09 MaxDP=1.34D-07 DE= 7.28D-12 OVMax= 2.92D-07

 Error on total polarization charges =  0.01583
 SCF Done:  E(RB-P86) =  -844.107096452     A.U. after   16 cycles
            NFock= 16  Conv=0.24D-08     -V/T= 2.0035
 KE= 8.411776896095D+02 PE=-4.610729252415D+03 EE= 1.604519060071D+03
 Leave Link  502 at Mon Feb 22 20:58:40 2021, MaxMem=   104857600 cpu:            1709.3 elap:              54.3
 (Enter /sw/arch/RedHatEnterpriseServer7/EB_production/2019/software/Gaussian/g16.c01/l601.exe)
 Copying SCF densities to generalized density rwf, IOpCl= 0 IROHF=0.

 **********************************************************************

            Population analysis using the SCF Density.

 **********************************************************************

 Orbital symmetries:
       Occupied  (A) (A) (A) (A) (A) (A) (A) (A) (A) (A) (A) (A)
                 (A) (A) (A) (A) (A) (A) (A) (A) (A) (A) (A) (A)
                 (A) (A) (A) (A) (A) (A) (A) (A) (A) (A) (A) (A)
                 (A) (A) (A) (A) (A) (A) (A) (A) (A) (A) (A) (A)
                 (A) (A) (A) (A) (A) (A) (A) (A) (A) (A) (A) (A)
                 (A) (A) (A) (A) (A) (A) (A)
       Virtual   (A) (A) (A) (A) (A) (A) (A) (A) (A) (A) (A) (A)
                 (A) (A) (A) (A) (A) (A) (A) (A) (A) (A) (A) (A)
                 (A) (A) (A) (A) (A) (A) (A) (A) (A) (A) (A) (A)
                 (A) (A) (A) (A) (A) (A) (A) (A) (A) (A) (A) (A)
                 (A) (A) (A) (A) (A) (A) (A) (A) (A) (A) (A) (A)
                 (A) (A) (A) (A) (A) (A) (A) (A) (A) (A) (A) (A)
                 (A) (A) (A) (A) (A) (A) (A) (A) (A) (A) (A) (A)
                 (A) (A) (A) (A) (A) (A) (A) (A) (A) (A) (A) (A)
                 (A) (A) (A) (A) (A) (A) (A) (A) (A) (A) (A) (A)
                 (A) (A) (A) (A) (A) (A) (A) (A) (A) (A) (A) (A)
                 (A) (A) (A) (A) (A) (A) (A) (A) (A) (A) (A) (A)
                 (A) (A) (A) (A) (A) (A) (A) (A) (A) (A) (A) (A)
                 (A) (A) (A) (A) (A) (A) (A) (A) (A) (A) (A) (A)
                 (A) (A) (A) (A) (A) (A) (A) (A) (A) (A) (A) (A)
                 (A) (A) (A) (A) (A) (A) (A) (A) (A) (A) (A) (A)
                 (A) (A) (A) (A) (A) (A) (A) (A) (A) (A) (A) (A)
                 (A) (A) (A) (A) (A) (A) (A) (A) (A) (A) (A) (A)
                 (A) (A) (A) (A) (A) (A) (A) (A) (A) (A) (A) (A)
                 (A) (A) (A) (A) (A) (A) (A) (A) (A) (A) (A) (A)
                 (A) (A) (A) (A) (A) (A) (A) (A) (A) (A) (A) (A)
                 (A) (A) (A) (A) (A) (A) (A) (A) (A) (A) (A) (A)
                 (A) (A) (A) (A) (A) (A) (A) (A) (A) (A) (A) (A)
                 (A) (A) (A) (A) (A) (A) (A) (A) (A) (A) (A) (A)
                 (A) (A) (A) (A) (A) (A) (A) (A) (A) (A) (A) (A)
                 (A) (A) (A) (A) (A) (A) (A) (A) (A) (A) (A) (A)
                 (A) (A) (A) (A) (A) (A) (A) (A) (A) (A) (A) (A)
                 (A) (A) (A) (A) (A) (A) (A) (A) (A) (A) (A) (A)
                 (A) (A) (A) (A) (A) (A) (A) (A) (A) (A) (A) (A)
                 (A) (A) (A) (A) (A) (A) (A) (A) (A) (A) (A) (A)
                 (A) (A) (A) (A) (A) (A) (A) (A) (A) (A) (A) (A)
                 (A) (A) (A) (A) (A) (A) (A) (A) (A) (A) (A) (A)
                 (A) (A) (A) (A) (A) (A)
 The electronic state is 1-A.
 Alpha  occ. eigenvalues --  -18.82522 -18.76274 -18.75864 -10.04096  -9.98522
 Alpha  occ. eigenvalues --   -9.93848  -9.93297  -9.92520  -9.92326  -9.91644
 Alpha  occ. eigenvalues --   -9.91444  -9.91412  -9.91270  -9.91269  -9.91226
 Alpha  occ. eigenvalues --   -9.90978  -9.90972  -9.90890  -9.90428  -1.02173
 Alpha  occ. eigenvalues --   -0.95356  -0.92561  -0.80405  -0.79514  -0.75450
 Alpha  occ. eigenvalues --   -0.72273  -0.69948  -0.69434  -0.68145  -0.62981
 Alpha  occ. eigenvalues --   -0.61528  -0.58486  -0.57862  -0.56712  -0.54789
 Alpha  occ. eigenvalues --   -0.51592  -0.49596  -0.47572  -0.46781  -0.45228
 Alpha  occ. eigenvalues --   -0.43176  -0.42806  -0.42430  -0.42090  -0.41244
 Alpha  occ. eigenvalues --   -0.40291  -0.39955  -0.39485  -0.38287  -0.36951
 Alpha  occ. eigenvalues --   -0.36492  -0.35966  -0.34663  -0.34272  -0.33734
 Alpha  occ. eigenvalues --   -0.32993  -0.32645  -0.32177  -0.31684  -0.31519
 Alpha  occ. eigenvalues --   -0.28657  -0.25108  -0.24990  -0.24637  -0.24189
 Alpha  occ. eigenvalues --   -0.23766  -0.21730
 Alpha virt. eigenvalues --   -0.11658  -0.07351  -0.06668  -0.05818  -0.04936
 Alpha virt. eigenvalues --   -0.00514   0.01422   0.03108   0.04728   0.05815
 Alpha virt. eigenvalues --    0.06465   0.06975   0.07230   0.08003   0.08602
 Alpha virt. eigenvalues --    0.09007   0.09360   0.09544   0.10038   0.10583
 Alpha virt. eigenvalues --    0.10922   0.12080   0.12570   0.13292   0.13610
 Alpha virt. eigenvalues --    0.14861   0.15252   0.15647   0.16814   0.17749
 Alpha virt. eigenvalues --    0.18047   0.18255   0.18569   0.18786   0.19398
 Alpha virt. eigenvalues --    0.20104   0.20825   0.20950   0.21182   0.21385
 Alpha virt. eigenvalues --    0.21897   0.22269   0.23069   0.23249   0.24026
 Alpha virt. eigenvalues --    0.24270   0.25321   0.25392   0.26168   0.26724
 Alpha virt. eigenvalues --    0.27357   0.27662   0.28745   0.29193   0.29491
 Alpha virt. eigenvalues --    0.29780   0.30348   0.30883   0.31851   0.32460
 Alpha virt. eigenvalues --    0.33191   0.34037   0.34425   0.34615   0.35096
 Alpha virt. eigenvalues --    0.35679   0.36211   0.36758   0.37579   0.38094
 Alpha virt. eigenvalues --    0.38471   0.39288   0.39531   0.39742   0.40848
 Alpha virt. eigenvalues --    0.40875   0.41127   0.41259   0.41997   0.42199
 Alpha virt. eigenvalues --    0.43257   0.43959   0.44091   0.44302   0.44971
 Alpha virt. eigenvalues --    0.45405   0.46102   0.46471   0.46895   0.47372
 Alpha virt. eigenvalues --    0.47788   0.48103   0.48233   0.48998   0.49652
 Alpha virt. eigenvalues --    0.50435   0.50805   0.51376   0.52024   0.53505
 Alpha virt. eigenvalues --    0.54087   0.55291   0.55573   0.56538   0.57636
 Alpha virt. eigenvalues --    0.59059   0.59909   0.60682   0.61466   0.62203
 Alpha virt. eigenvalues --    0.62963   0.63250   0.63862   0.65022   0.65245
 Alpha virt. eigenvalues --    0.66066   0.66566   0.67766   0.68413   0.69478
 Alpha virt. eigenvalues --    0.71944   0.73007   0.74159   0.75683   0.77606
 Alpha virt. eigenvalues --    0.79379   0.81993   0.82812   0.87505   0.88638
 Alpha virt. eigenvalues --    0.89665   0.92530   1.10161   1.11816   1.12853
 Alpha virt. eigenvalues --    1.14420   1.15970   1.16326   1.17026   1.17905
 Alpha virt. eigenvalues --    1.18088   1.19308   1.20097   1.20287   1.20849
 Alpha virt. eigenvalues --    1.21383   1.21753   1.22048   1.22474   1.22993
 Alpha virt. eigenvalues --    1.23021   1.23653   1.25130   1.25554   1.26205
 Alpha virt. eigenvalues --    1.26956   1.27774   1.28617   1.30756   1.31885
 Alpha virt. eigenvalues --    1.32478   1.33874   1.34368   1.35029   1.35698
 Alpha virt. eigenvalues --    1.36490   1.36697   1.37433   1.37681   1.38341
 Alpha virt. eigenvalues --    1.38600   1.39441   1.39808   1.40058   1.40164
 Alpha virt. eigenvalues --    1.41006   1.41252   1.41970   1.42665   1.42922
 Alpha virt. eigenvalues --    1.43604   1.44325   1.45197   1.45369   1.45937
 Alpha virt. eigenvalues --    1.46623   1.46745   1.47570   1.47805   1.49164
 Alpha virt. eigenvalues --    1.49310   1.50286   1.50774   1.52126   1.52748
 Alpha virt. eigenvalues --    1.54119   1.55146   1.56023   1.57489   1.58778
 Alpha virt. eigenvalues --    1.60173   1.61423   1.61528   1.63092   1.65562
 Alpha virt. eigenvalues --    1.68535   1.70355   1.71636   1.72013   1.72698
 Alpha virt. eigenvalues --    1.72797   1.73516   1.74297   1.75759   1.77069
 Alpha virt. eigenvalues --    1.77299   1.77675   1.79073   1.80030   1.80826
 Alpha virt. eigenvalues --    1.81519   1.81906   1.82687   1.83396   1.84725
 Alpha virt. eigenvalues --    1.85004   1.85881   1.86567   1.87097   1.87879
 Alpha virt. eigenvalues --    1.89015   1.89738   1.90879   1.91718   1.92093
 Alpha virt. eigenvalues --    1.94016   1.95075   1.95311   1.96308   1.97278
 Alpha virt. eigenvalues --    2.00611   2.01131   2.02689   2.03480   2.06113
 Alpha virt. eigenvalues --    2.09002   2.09521   2.10872   2.12318   2.12464
 Alpha virt. eigenvalues --    2.15205   2.16769   2.18334   2.18577   2.18853
 Alpha virt. eigenvalues --    2.21030   2.21406   2.22478   2.23359   2.23570
 Alpha virt. eigenvalues --    2.23903   2.24630   2.25029   2.26379   2.27669
 Alpha virt. eigenvalues --    2.28400   2.30381   2.30650   2.31932   2.32075
 Alpha virt. eigenvalues --    2.35550   2.37541   2.41313   2.42343   2.43830
 Alpha virt. eigenvalues --    2.45988   2.46475   2.47120   2.47649   2.49387
 Alpha virt. eigenvalues --    2.50501   2.50874   2.52049   2.52373   2.52631
 Alpha virt. eigenvalues --    2.53314   2.53527   2.54048   2.55333   2.56085
 Alpha virt. eigenvalues --    2.58249   2.58528   2.59085   2.60137   2.60735
 Alpha virt. eigenvalues --    2.61003   2.61917   2.62947   2.63881   2.64411
 Alpha virt. eigenvalues --    2.66654   2.66851   2.67976   2.68913   2.70466
 Alpha virt. eigenvalues --    2.71313   2.71983   2.74006   2.74477   2.75334
 Alpha virt. eigenvalues --    2.76390   2.77273   2.81440   2.81897   2.83294
 Alpha virt. eigenvalues --    2.88856   2.89259   2.92174   2.95456   2.97812
 Alpha virt. eigenvalues --    2.99401   2.99791   3.00735   3.03042   3.03364
 Alpha virt. eigenvalues --    3.04561   3.05713   3.06272   3.06771   3.07953
 Alpha virt. eigenvalues --    3.08401   3.09537   3.11588   3.12243   3.13392
 Alpha virt. eigenvalues --    3.15945   3.18051   3.18545   3.20881   3.22494
 Alpha virt. eigenvalues --    3.26309   3.26778   3.27295   3.30768   3.31683
 Alpha virt. eigenvalues --    3.33493   3.33667   3.34278   3.35785   3.36296
 Alpha virt. eigenvalues --    3.45318   3.46561   3.49142   3.71276   3.75969
 Alpha virt. eigenvalues --    3.84278   4.00309   4.10534   4.18208  21.09276
 Alpha virt. eigenvalues --   21.17247  21.54032  21.63381  21.64932  21.70568
 Alpha virt. eigenvalues --   21.75688  21.81148  21.83109  21.84858  21.87430
 Alpha virt. eigenvalues --   21.90191  21.94058  21.96444  21.99229  22.00356
 Alpha virt. eigenvalues --   43.07698  43.17996  43.22100
          Condensed to atoms (all electrons):
               1          2          3          4          5          6
     1  C    5.137644   0.286542  -0.074755  -0.010446  -0.005100  -0.069002
     2  C    0.286542   5.709454   0.030980  -0.085087  -0.090113   0.128873
     3  C   -0.074755   0.030980   5.010277   0.573804   0.374641  -0.054306
     4  O   -0.010446  -0.085087   0.573804   7.998330  -0.129910  -0.042965
     5  O   -0.005100  -0.090113   0.374641  -0.129910   7.841765  -0.019945
     6  C   -0.069002   0.128873  -0.054306  -0.042965  -0.019945   6.231728
     7  C   -0.022148  -0.118547   0.021353   0.008473   0.000373   0.192582
     8  C   -0.001237   0.023916  -0.005516  -0.000719  -0.000117   0.151929
     9  C   -0.001001   0.007014   0.002885   0.000931   0.000084  -0.199023
    10  C   -0.000165   0.006104   0.005183  -0.006402  -0.000563   0.178321
    11  C    0.000505  -0.008136   0.000759  -0.000162  -0.000026   0.018897
    12  O    0.000003  -0.000061   0.000003  -0.000001  -0.000000  -0.006437
    13  C   -0.000418  -0.000910   0.000275   0.000018  -0.000001  -0.031610
    14  C    0.000254   0.000017   0.000073  -0.000058  -0.000000   0.001125
    15  C    0.000178  -0.000129   0.000005   0.000045   0.000000  -0.001782
    16  C   -0.000011   0.000008  -0.000001  -0.000005  -0.000000   0.000081
    17  C    0.000006  -0.000013   0.000002   0.000004  -0.000000  -0.000134
    18  C   -0.000021   0.000026  -0.000035  -0.000022  -0.000000   0.000476
    19  C    0.023563  -0.071528  -0.010302  -0.005318   0.002470  -0.277761
    20  H    0.391999  -0.004412  -0.018536   0.008741   0.000839  -0.031762
    21  H    0.406104  -0.047400   0.011564   0.000032  -0.000099   0.012636
    22  H    0.385029  -0.044546   0.008043  -0.000680   0.001216   0.016168
    23  H   -0.033385   0.434276  -0.032598   0.007708   0.011465  -0.112395
    24  H   -0.000713   0.014074  -0.023959   0.002606   0.292053   0.001022
    25  H   -0.000460  -0.024565  -0.000437   0.000063  -0.000287  -0.069507
    26  H    0.000022  -0.001117  -0.000091  -0.000003  -0.000001   0.022233
    27  H   -0.000002   0.000171   0.000019   0.000003   0.000000  -0.004054
    28  H   -0.000593   0.000012   0.000102   0.000019   0.000000  -0.001574
    29  H    0.000021  -0.000011  -0.000000   0.000000   0.000000  -0.000064
    30  H   -0.000000   0.000000  -0.000000  -0.000000  -0.000000   0.000001
    31  H    0.000000  -0.000000   0.000000   0.000000   0.000000  -0.000001
    32  H   -0.000001   0.000001  -0.000001  -0.000000  -0.000000   0.000063
    33  H   -0.007037   0.012762  -0.009050   0.032306   0.001462  -0.071114
               7          8          9         10         11         12
     1  C   -0.022148  -0.001237  -0.001001  -0.000165   0.000505   0.000003
     2  C   -0.118547   0.023916   0.007014   0.006104  -0.008136  -0.000061
     3  C    0.021353  -0.005516   0.002885   0.005183   0.000759   0.000003
     4  O    0.008473  -0.000719   0.000931  -0.006402  -0.000162  -0.000001
     5  O    0.000373  -0.000117   0.000084  -0.000563  -0.000026  -0.000000
     6  C    0.192582   0.151929  -0.199023   0.178321   0.018897  -0.006437
     7  C    5.418991   0.240553   0.104964  -0.193131   0.021402   0.001769
     8  C    0.240553   5.213458   0.254107   0.137154  -0.003192  -0.004315
     9  C    0.104964   0.254107   5.392636   0.140686  -0.088741   0.033248
    10  C   -0.193131   0.137154   0.140686   6.430273  -0.020044  -0.203818
    11  C    0.021402  -0.003192  -0.088741  -0.020044   6.034253   0.725838
    12  O    0.001769  -0.004315   0.033248  -0.203818   0.725838   7.937973
    13  C    0.004701  -0.011612   0.056135  -0.507949  -0.547787  -0.254142
    14  C    0.000357  -0.000083   0.003701   0.016032   0.061497   0.015695
    15  C    0.000139  -0.000249   0.000740  -0.010192  -0.008997  -0.002985
    16  C   -0.000009   0.000018  -0.000005   0.003999   0.013028   0.001451
    17  C    0.000013  -0.000031   0.000108  -0.008407   0.014947  -0.002229
    18  C   -0.000125   0.000430  -0.004467   0.073407  -0.117356   0.030455
    19  C    0.081739  -0.260048   0.078530   0.004773  -0.087211   0.012255
    20  H    0.002584  -0.000175   0.000374  -0.002485  -0.000294  -0.000001
    21  H    0.004238  -0.001013   0.000063   0.000004  -0.000049  -0.000000
    22  H    0.000487   0.000052   0.000001   0.000149  -0.000020  -0.000000
    23  H    0.006042   0.001355   0.000525  -0.002095  -0.000045   0.000000
    24  H   -0.000206   0.000002  -0.000005   0.000023   0.000001  -0.000000
    25  H    0.435744  -0.056691   0.018020  -0.004638   0.000247   0.000010
    26  H   -0.075444   0.451771  -0.073639   0.020823  -0.002100  -0.000174
    27  H    0.018464  -0.059249   0.449301  -0.084203  -0.017763   0.014013
    28  H    0.000546   0.000236   0.001106   0.005791  -0.017353   0.000027
    29  H    0.000003  -0.000004  -0.000001   0.000009  -0.001706  -0.000006
    30  H   -0.000000   0.000000  -0.000001   0.000009  -0.000015   0.000004
    31  H    0.000000  -0.000000   0.000000  -0.000132  -0.002764  -0.000260
    32  H   -0.000007   0.000027  -0.000110   0.006863  -0.017928   0.022618
    33  H    0.019233  -0.006482   0.015397  -0.075142  -0.015666   0.000167
              13         14         15         16         17         18
     1  C   -0.000418   0.000254   0.000178  -0.000011   0.000006  -0.000021
     2  C   -0.000910   0.000017  -0.000129   0.000008  -0.000013   0.000026
     3  C    0.000275   0.000073   0.000005  -0.000001   0.000002  -0.000035
     4  O    0.000018  -0.000058   0.000045  -0.000005   0.000004  -0.000022
     5  O   -0.000001  -0.000000   0.000000  -0.000000  -0.000000  -0.000000
     6  C   -0.031610   0.001125  -0.001782   0.000081  -0.000134   0.000476
     7  C    0.004701   0.000357   0.000139  -0.000009   0.000013  -0.000125
     8  C   -0.011612  -0.000083  -0.000249   0.000018  -0.000031   0.000430
     9  C    0.056135   0.003701   0.000740  -0.000005   0.000108  -0.004467
    10  C   -0.507949   0.016032  -0.010192   0.003999  -0.008407   0.073407
    11  C   -0.547787   0.061497  -0.008997   0.013028   0.014947  -0.117356
    12  O   -0.254142   0.015695  -0.002985   0.001451  -0.002229   0.030455
    13  C    6.987075   0.140994   0.082470  -0.123507   0.069869   0.188998
    14  C    0.140994   5.365693   0.257972   0.029005  -0.135622  -0.038966
    15  C    0.082470   0.257972   5.193514   0.368618   0.032720  -0.132393
    16  C   -0.123507   0.029005   0.368618   5.099076   0.362683   0.028908
    17  C    0.069869  -0.135622   0.032720   0.362683   5.141405   0.300410
    18  C    0.188998  -0.038966  -0.132393   0.028908   0.300410   5.399562
    19  C    0.075471   0.000481  -0.003055   0.000302  -0.001155   0.003872
    20  H    0.000144   0.000465   0.000198  -0.000009  -0.000002  -0.000016
    21  H   -0.000018   0.000025   0.000001   0.000000  -0.000000  -0.000000
    22  H    0.000019   0.000001  -0.000008   0.000000  -0.000000   0.000001
    23  H    0.000006   0.000001   0.000000  -0.000000  -0.000000   0.000000
    24  H    0.000001  -0.000000  -0.000000  -0.000000   0.000000   0.000000
    25  H    0.000058   0.000006   0.000001  -0.000000   0.000000  -0.000001
    26  H   -0.000123  -0.000000  -0.000001   0.000000  -0.000000   0.000002
    27  H    0.005682  -0.000459   0.000037  -0.000003   0.000004  -0.000225
    28  H   -0.050213   0.421101  -0.040183   0.010023  -0.001793   0.010488
    29  H    0.015753  -0.056000   0.439229  -0.058858   0.012525  -0.000739
    30  H   -0.004524   0.018779  -0.060688   0.440200  -0.060972   0.016869
    31  H    0.018447  -0.002093   0.014469  -0.062568   0.438332  -0.054450
    32  H   -0.089022   0.016211  -0.004944   0.016272  -0.057086   0.455408
    33  H   -0.002646  -0.004139   0.000259   0.000139   0.000205   0.000087
              19         20         21         22         23         24
     1  C    0.023563   0.391999   0.406104   0.385029  -0.033385  -0.000713
     2  C   -0.071528  -0.004412  -0.047400  -0.044546   0.434276   0.014074
     3  C   -0.010302  -0.018536   0.011564   0.008043  -0.032598  -0.023959
     4  O   -0.005318   0.008741   0.000032  -0.000680   0.007708   0.002606
     5  O    0.002470   0.000839  -0.000099   0.001216   0.011465   0.292053
     6  C   -0.277761  -0.031762   0.012636   0.016168  -0.112395   0.001022
     7  C    0.081739   0.002584   0.004238   0.000487   0.006042  -0.000206
     8  C   -0.260048  -0.000175  -0.001013   0.000052   0.001355   0.000002
     9  C    0.078530   0.000374   0.000063   0.000001   0.000525  -0.000005
    10  C    0.004773  -0.002485   0.000004   0.000149  -0.002095   0.000023
    11  C   -0.087211  -0.000294  -0.000049  -0.000020  -0.000045   0.000001
    12  O    0.012255  -0.000001  -0.000000  -0.000000   0.000000  -0.000000
    13  C    0.075471   0.000144  -0.000018   0.000019   0.000006   0.000001
    14  C    0.000481   0.000465   0.000025   0.000001   0.000001  -0.000000
    15  C   -0.003055   0.000198   0.000001  -0.000008   0.000000  -0.000000
    16  C    0.000302  -0.000009   0.000000   0.000000  -0.000000  -0.000000
    17  C   -0.001155  -0.000002  -0.000000  -0.000000  -0.000000   0.000000
    18  C    0.003872  -0.000016  -0.000000   0.000001   0.000000   0.000000
    19  C    6.135815   0.008051  -0.009553  -0.000412   0.021572  -0.000105
    20  H    0.008051   0.516886  -0.022414  -0.020924   0.006787  -0.000029
    21  H   -0.009553  -0.022414   0.514976  -0.021728  -0.006784   0.000033
    22  H   -0.000412  -0.020924  -0.021728   0.524004  -0.004463  -0.000046
    23  H    0.021572   0.006787  -0.006784  -0.004463   0.512086  -0.000880
    24  H   -0.000105  -0.000029   0.000033  -0.000046  -0.000880   0.380322
    25  H    0.032143  -0.000004   0.000454  -0.000023   0.003329   0.000013
    26  H    0.000525  -0.000003  -0.000007  -0.000000  -0.000040   0.000000
    27  H    0.023664   0.000004  -0.000001   0.000000   0.000005  -0.000000
[...]
 Alpha virt. eigenvalues --   21.77983  21.80332  21.81989  21.83742  21.84613
 Alpha virt. eigenvalues --   21.87177  21.89197  21.94338  21.97484  21.99768
 Alpha virt. eigenvalues --   43.12056  43.18610  43.21441
          Condensed to atoms (all electrons):
               1          2          3          4          5          6
     1  C    5.176166   0.195171  -0.059599   0.004810   0.006089  -0.054381
     2  C    0.195171   5.780027   0.108719  -0.079221  -0.114114   0.032750
     3  C   -0.059599   0.108719   4.958348   0.565650   0.360222  -0.081551
     4  O    0.004810  -0.079221   0.565650   7.962988  -0.102314  -0.053215
     5  O    0.006089  -0.114114   0.360222  -0.102314   7.839660  -0.022471
     6  C   -0.054381   0.032750  -0.081551  -0.053215  -0.022471   6.394119
     7  C    0.003021  -0.076710  -0.011526  -0.000567   0.000513   0.318402
     8  C   -0.004762   0.027018  -0.003799   0.000014  -0.000656   0.128764
     9  C    0.001224   0.002222   0.001315   0.000108   0.000286  -0.182931
    10  C   -0.005177   0.032045  -0.000498   0.002175  -0.002997   0.125214
    11  C    0.000611  -0.004095  -0.000457  -0.000239  -0.000097   0.019540
    12  O    0.000000  -0.000027  -0.000003  -0.000000  -0.000000  -0.004629
    13  C   -0.000544   0.000359   0.000124   0.000119  -0.000013  -0.027729
    14  C    0.000373  -0.000151   0.000156  -0.000203  -0.000001  -0.000336
    15  C    0.000355  -0.000101  -0.000072   0.000066  -0.000000  -0.002589
    16  C   -0.000023   0.000001   0.000004  -0.000009   0.000000   0.000027
    17  C    0.000013  -0.000010  -0.000007   0.000006  -0.000000  -0.000280
    18  C   -0.000031   0.000005  -0.000045  -0.000006   0.000000   0.000091
    19  C    0.011298  -0.066753   0.021398   0.012829   0.008109  -0.342655
    20  H    0.386442   0.017700  -0.026703   0.009510   0.000416  -0.043118
    21  H    0.403502  -0.056681   0.013113   0.000349  -0.000115   0.018549
    22  H    0.400549  -0.053258   0.004801  -0.000015   0.000145   0.017037
    23  H   -0.029908   0.445048  -0.023858   0.005996   0.007051  -0.117056
    24  H   -0.001340   0.014416  -0.018960   0.001843   0.286199   0.001256
    25  H    0.000624  -0.022395  -0.000050  -0.000019   0.000167  -0.068631
    26  H   -0.000015  -0.000861  -0.000036  -0.000000  -0.000005   0.020525
    27  H    0.000012  -0.000002   0.000013  -0.000000   0.000001  -0.005028
    28  H   -0.000480  -0.000112   0.000083   0.000038  -0.000001  -0.003518
    29  H    0.000041  -0.000009  -0.000003  -0.000001  -0.000000  -0.000074
    30  H   -0.000000   0.000000  -0.000000  -0.000000   0.000000   0.000001
    31  H    0.000000  -0.000000  -0.000000   0.000000  -0.000000  -0.000001
    32  H   -0.000000   0.000001  -0.000002  -0.000000   0.000000   0.000032
    33  H   -0.006395   0.004759  -0.003879   0.010550   0.001415  -0.026168
               7          8          9         10         11         12
     1  C    0.003021  -0.004762   0.001224  -0.005177   0.000611   0.000000
     2  C   -0.076710   0.027018   0.002222   0.032045  -0.004095  -0.000027
     3  C   -0.011526  -0.003799   0.001315  -0.000498  -0.000457  -0.000003
     4  O   -0.000567   0.000014   0.000108   0.002175  -0.000239  -0.000000
     5  O    0.000513  -0.000656   0.000286  -0.002997  -0.000097  -0.000000
     6  C    0.318402   0.128764  -0.182931   0.125214   0.019540  -0.004629
     7  C    5.321356   0.247415   0.065229  -0.166197   0.018750   0.001493
     8  C    0.247415   5.267885   0.247604   0.129157   0.004238  -0.003186
     9  C    0.065229   0.247604   5.419434   0.145896  -0.074244   0.033158
    10  C   -0.166197   0.129157   0.145896   6.525243  -0.117668  -0.201248
    11  C    0.018750   0.004238  -0.074244  -0.117668   5.686048   0.707314
    12  O    0.001493  -0.003186   0.033158  -0.201248   0.707314   7.914476
    13  C    0.002622  -0.008891   0.054262  -0.388568  -0.116083  -0.199348
    14  C    0.000445  -0.000673   0.006712   0.010437  -0.016398   0.010937
    15  C    0.000083  -0.000200   0.000789  -0.010654   0.009419  -0.002585
    16  C   -0.000006   0.000012  -0.000004   0.004016   0.007416   0.001235
    17  C    0.000012  -0.000027   0.000209  -0.008458   0.008505  -0.003501
    18  C    0.000003   0.000192  -0.004370   0.049545  -0.087659   0.029099
    19  C   -0.000279  -0.239812   0.040250  -0.032158  -0.048989   0.012462
    20  H    0.000043   0.000182   0.000108   0.000243  -0.000265  -0.000000
    21  H    0.004983  -0.000808   0.000099  -0.000430  -0.000032  -0.000000
    22  H   -0.000344   0.000080  -0.000013   0.000082  -0.000023  -0.000000
    23  H   -0.001793   0.001226   0.000417  -0.001353  -0.000029   0.000000
    24  H   -0.000100   0.000002  -0.000007   0.000021   0.000003  -0.000000
    25  H    0.433848  -0.063918   0.018978  -0.005657   0.000127   0.000005
    26  H   -0.070951   0.442633  -0.069830   0.018540  -0.001698  -0.000102
    27  H    0.018147  -0.054079   0.443753  -0.090248  -0.019365   0.016416
    28  H    0.000642   0.000116   0.000880   0.003699  -0.015157   0.000018
    29  H    0.000003  -0.000002  -0.000007   0.000089  -0.001062  -0.000000
    30  H   -0.000000   0.000000  -0.000000   0.000009  -0.000039   0.000002
    31  H    0.000000  -0.000000  -0.000000  -0.000061  -0.001472  -0.000120
    32  H   -0.000002   0.000013  -0.000132   0.005279  -0.018245   0.016767
    33  H    0.010090  -0.002727   0.009253  -0.052562  -0.010459   0.000108
              13         14         15         16         17         18
     1  C   -0.000544   0.000373   0.000355  -0.000023   0.000013  -0.000031
     2  C    0.000359  -0.000151  -0.000101   0.000001  -0.000010   0.000005
     3  C    0.000124   0.000156  -0.000072   0.000004  -0.000007  -0.000045
     4  O    0.000119  -0.000203   0.000066  -0.000009   0.000006  -0.000006
     5  O   -0.000013  -0.000001  -0.000000   0.000000  -0.000000   0.000000
     6  C   -0.027729  -0.000336  -0.002589   0.000027  -0.000280   0.000091
     7  C    0.002622   0.000445   0.000083  -0.000006   0.000012   0.000003
     8  C   -0.008891  -0.000673  -0.000200   0.000012  -0.000027   0.000192
     9  C    0.054262   0.006712   0.000789  -0.000004   0.000209  -0.004370
    10  C   -0.388568   0.010437  -0.010654   0.004016  -0.008458   0.049545
    11  C   -0.116083  -0.016398   0.009419   0.007416   0.008505  -0.087659
    12  O   -0.199348   0.010937  -0.002585   0.001235  -0.003501   0.029099
    13  C    6.428482   0.180316   0.074828  -0.125025   0.080145   0.180795
    14  C    0.180316   5.398215   0.223106   0.040788  -0.170779   0.016672
    15  C    0.074828   0.223106   5.279364   0.326049   0.068858  -0.152661
    16  C   -0.125025   0.040788   0.326049   5.171878   0.320802   0.032628
    17  C    0.080145  -0.170779   0.068858   0.320802   5.222092   0.285911
    18  C    0.180795   0.016672  -0.152661   0.032628   0.285911   5.368306
    19  C    0.010162   0.020939  -0.005553   0.000761  -0.002032   0.007354
    20  H    0.000082   0.000555   0.000278   0.000006  -0.000011  -0.000019
    21  H   -0.000034   0.000051   0.000006   0.000001  -0.000000  -0.000000
    22  H    0.000021   0.000023  -0.000019   0.000000  -0.000000   0.000001
    23  H    0.000007  -0.000002   0.000001  -0.000000   0.000000   0.000000
    24  H    0.000003  -0.000000  -0.000000  -0.000000   0.000000  -0.000000
    25  H    0.000033   0.000008   0.000001  -0.000000   0.000000  -0.000000
    26  H   -0.000042  -0.000002  -0.000001   0.000000  -0.000000  -0.000000
    27  H    0.004451  -0.000126   0.000026  -0.000002   0.000012  -0.000139
    28  H   -0.056621   0.416839  -0.033759   0.010357  -0.002312   0.010093
    29  H    0.016551  -0.057464   0.433393  -0.060392   0.013520  -0.001419
    30  H   -0.005521   0.020694  -0.064527   0.438347  -0.064723   0.018668
    31  H    0.017456  -0.002337   0.014363  -0.061561   0.434740  -0.058377
    32  H   -0.088179   0.016096  -0.004644   0.015346  -0.049027   0.445943
    33  H   -0.003440  -0.003061  -0.001303   0.000479   0.000243   0.000867
              19         20         21         22         23         24
     1  C    0.011298   0.386442   0.403502   0.400549  -0.029908  -0.001340
     2  C   -0.066753   0.017700  -0.056681  -0.053258   0.445048   0.014416
     3  C    0.021398  -0.026703   0.013113   0.004801  -0.023858  -0.018960
     4  O    0.012829   0.009510   0.000349  -0.000015   0.005996   0.001843
     5  O    0.008109   0.000416  -0.000115   0.000145   0.007051   0.286199
     6  C   -0.342655  -0.043118   0.018549   0.017037  -0.117056   0.001256
     7  C   -0.000279   0.000043   0.004983  -0.000344  -0.001793  -0.000100
     8  C   -0.239812   0.000182  -0.000808   0.000080   0.001226   0.000002
     9  C    0.040250   0.000108   0.000099  -0.000013   0.000417  -0.000007
    10  C   -0.032158   0.000243  -0.000430   0.000082  -0.001353   0.000021
    11  C   -0.048989  -0.000265  -0.000032  -0.000023  -0.000029   0.000003
    12  O    0.012462  -0.000000  -0.000000  -0.000000   0.000000  -0.000000
    13  C    0.010162   0.000082  -0.000034   0.000021   0.000007   0.000003
    14  C    0.020939   0.000555   0.000051   0.000023  -0.000002  -0.000000
    15  C   -0.005553   0.000278   0.000006  -0.000019   0.000001  -0.000000
    16  C    0.000761   0.000006   0.000001   0.000000  -0.000000  -0.000000
    17  C   -0.002032  -0.000011  -0.000000  -0.000000   0.000000   0.000000
    18  C    0.007354  -0.000019  -0.000000   0.000001   0.000000  -0.000000
    19  C    6.258047   0.014887  -0.009948  -0.000096   0.027702  -0.000429
    20  H    0.014887   0.515242  -0.020273  -0.022486   0.005655  -0.000015
    21  H   -0.009948  -0.020273   0.515969  -0.020660  -0.005092   0.000033
    22  H   -0.000096  -0.022486  -0.020660   0.514523  -0.003586  -0.000021
    23  H    0.027702   0.005655  -0.005092  -0.003586   0.481505  -0.000741
    24  H   -0.000429  -0.000015   0.000033  -0.000021  -0.000741   0.387100
    25  H    0.033370  -0.000066   0.000399  -0.000047   0.003462   0.000012
    26  H    0.000541  -0.000001  -0.000003  -0.000000  -0.000031   0.000001
    27  H    0.023371   0.000001  -0.000001  -0.000000   0.000002  -0.000000
    28  H   -0.000553  -0.000176   0.000048   0.000008   0.000002  -0.000000
    29  H   -0.000144  -0.000003   0.000002  -0.000000   0.000000   0.000000
    30  H    0.000014  -0.000000  -0.000000   0.000000  -0.000000   0.000000
    31  H   -0.000002   0.000000   0.000000   0.000000   0.000000   0.000000
    32  H   -0.000187   0.000000   0.000000   0.000000   0.000000   0.000000
    33  H    0.387929   0.001813   0.000510  -0.000067   0.000293  -0.000073
              25         26         27         28         29         30
     1  C    0.000624  -0.000015   0.000012  -0.000480   0.000041  -0.000000
     2  C   -0.022395  -0.000861  -0.000002  -0.000112  -0.000009   0.000000
     3  C   -0.000050  -0.000036   0.000013   0.000083  -0.000003  -0.000000
     4  O   -0.000019  -0.000000  -0.000000   0.000038  -0.000001  -0.000000
     5  O    0.000167  -0.000005   0.000001  -0.000001  -0.000000   0.000000
     6  C   -0.068631   0.020525  -0.005028  -0.003518  -0.000074   0.000001
     7  C    0.433848  -0.070951   0.018147   0.000642   0.000003  -0.000000
     8  C   -0.063918   0.442633  -0.054079   0.000116  -0.000002   0.000000
     9  C    0.018978  -0.069830   0.443753   0.000880  -0.000007  -0.000000
    10  C   -0.005657   0.018540  -0.090248   0.003699   0.000089   0.000009
    11  C    0.000127  -0.001698  -0.019365  -0.015157  -0.001062  -0.000039
    12  O    0.000005  -0.000102   0.016416   0.000018  -0.000000   0.000002
    13  C    0.000033  -0.000042   0.004451  -0.056621   0.016551  -0.005521
    14  C    0.000008  -0.000002  -0.000126   0.416839  -0.057464   0.020694
    15  C    0.000001  -0.000001   0.000026  -0.033759   0.433393  -0.064527
    16  C   -0.000000   0.000000  -0.000002   0.010357  -0.060392   0.438347
    17  C    0.000000  -0.000000   0.000012  -0.002312   0.013520  -0.064723
    18  C   -0.000000  -0.000000  -0.000139   0.010093  -0.001419   0.018668
    19  C    0.033370   0.000541   0.023371  -0.000553  -0.000144   0.000014
    20  H   -0.000066  -0.000001   0.000001  -0.000176  -0.000003  -0.000000
    21  H    0.000399  -0.000003  -0.000001   0.000048   0.000002  -0.000000
    22  H   -0.000047  -0.000000  -0.000000   0.000008  -0.000000   0.000000
    23  H    0.003462  -0.000031   0.000002   0.000002   0.000000  -0.000000
    24  H    0.000012   0.000001  -0.000000  -0.000000   0.000000   0.000000
    25  H    0.525657  -0.006411  -0.000091  -0.000002   0.000000  -0.000000
    26  H   -0.006411   0.527279  -0.006173  -0.000002  -0.000000   0.000000
    27  H   -0.000091  -0.006173   0.518327   0.000021  -0.000000  -0.000000
    28  H   -0.000002  -0.000002   0.000021   0.467815  -0.005331  -0.000107
    29  H    0.000000  -0.000000  -0.000000  -0.005331   0.515629  -0.006727
    30  H   -0.000000   0.000000  -0.000000  -0.000107  -0.006727   0.514473
    31  H    0.000000  -0.000000   0.000000   0.000020  -0.000143  -0.006634
    32  H   -0.000000   0.000000  -0.000020  -0.000045   0.000025  -0.000079
    33  H   -0.000072   0.000001  -0.000011   0.002090   0.000039  -0.000006
              31         32         33
     1  C    0.000000  -0.000000  -0.006395
     2  C   -0.000000   0.000001   0.004759
     3  C   -0.000000  -0.000002  -0.003879
     4  O    0.000000  -0.000000   0.010550
     5  O   -0.000000   0.000000   0.001415
     6  C   -0.000001   0.000032  -0.026168
     7  C    0.000000  -0.000002   0.010090
     8  C   -0.000000   0.000013  -0.002727
     9  C   -0.000000  -0.000132   0.009253
    10  C   -0.000061   0.005279  -0.052562
    11  C   -0.001472  -0.018245  -0.010459
    12  O   -0.000120   0.016767   0.000108
    13  C    0.017456  -0.088179  -0.003440
    14  C   -0.002337   0.016096  -0.003061
    15  C    0.014363  -0.004644  -0.001303
    16  C   -0.061561   0.015346   0.000479
    17  C    0.434740  -0.049027   0.000243
    18  C   -0.058377   0.445943   0.000867
    19  C   -0.000002  -0.000187   0.387929
    20  H    0.000000   0.000000   0.001813
    21  H    0.000000   0.000000   0.000510
    22  H    0.000000   0.000000  -0.000067
    23  H    0.000000   0.000000   0.000293
    24  H    0.000000   0.000000  -0.000073
    25  H    0.000000  -0.000000  -0.000072
    26  H   -0.000000   0.000000   0.000001
    27  H    0.000000  -0.000020  -0.000011
    28  H    0.000020  -0.000045   0.002090
    29  H   -0.000143   0.000025   0.000039
    30  H   -0.006634  -0.000079  -0.000006
    31  H    0.516975  -0.006203  -0.000001
    32  H   -0.006203   0.513871   0.000062
    33  H   -0.000001   0.000062   0.447996
 Mulliken charges:
               1
     1  C   -0.427644
     2  C   -0.185742
     3  C    0.197102
     4  O   -0.341242
     5  O   -0.267489
     6  C   -0.039946
     7  C   -0.118624
     8  C   -0.113010
     9  C   -0.160649
    10  C    0.032246
    11  C    0.071802
    12  O   -0.328742
    13  C   -0.030782
    14  C   -0.111828
    15  C   -0.152320
    16  C   -0.123129
    17  C   -0.133903
    18  C   -0.141448
    19  C   -0.141831
    20  H    0.159970
    21  H    0.156462
    22  H    0.163367
    23  H    0.205078
    24  H    0.330797
    25  H    0.150669
    26  H    0.146645
    27  H    0.150729
    28  H    0.205407
    29  H    0.153489
    30  H    0.156154
    31  H    0.153358
    32  H    0.153328
    33  H    0.231724
 Sum of Mulliken charges =  -0.00000
 Mulliken charges with hydrogens summed into heavy atoms:
               1
     1  C    0.052155
     2  C    0.019336
     3  C    0.197102
     4  O   -0.341242
     5  O    0.063308
     6  C   -0.039946
     7  C    0.032045
     8  C    0.033634
     9  C   -0.009920
    10  C    0.032246
    11  C    0.071802
    12  O   -0.328742
    13  C   -0.030782
    14  C    0.093579
    15  C    0.001170
    16  C    0.033025
    17  C    0.019455
    18  C    0.011880
    19  C    0.089893
 Electronic spatial extent (au):  <R**2>=           5466.1442
 Charge=             -0.0000 electrons
 Dipole moment (field-independent basis, Debye):
    X=             -3.3416    Y=             -2.4266    Z=              2.9535  Tot=              5.0772
 Quadrupole moment (field-independent basis, Debye-Ang):
   XX=            -93.3549   YY=           -116.8133   ZZ=           -103.9237
   XY=            -14.8983   XZ=              1.1228   YZ=              3.1402
 Traceless Quadrupole moment (field-independent basis, Debye-Ang):
   XX=             11.3424   YY=            -12.1160   ZZ=              0.7736
   XY=            -14.8983   XZ=              1.1228   YZ=              3.1402
 Octapole moment (field-independent basis, Debye-Ang**2):
  XXX=            -37.4450  YYY=              5.7745  ZZZ=            -31.0396  XYY=            -25.2644
  XXY=            -62.6379  XXZ=            -14.5561  XZZ=            -25.9372  YZZ=            -25.5240
  YYZ=             30.4464  XYZ=             -6.8823
 Hexadecapole moment (field-independent basis, Debye-Ang**3):
 XXXX=          -4336.4270 YYYY=          -1968.1083 ZZZZ=           -655.0478 XXXY=           -125.5416
 XXXZ=            -37.8889 YYYX=           -115.3587 YYYZ=             34.1632 ZZZX=            109.0912
 ZZZY=             26.5602 XXYY=          -1017.4517 XXZZ=           -770.8453 YYZZ=           -461.2074
 XXYZ=             65.9844 YYXZ=             41.3290 ZZXY=             33.4938
 N-N= 1.327622185638D+03 E-N=-4.623245676042D+03  KE= 8.402875843915D+02
 Unable to Open any file for archive entry.
 1\1\GINC-TCN1682\SP\RBP86\TZVP\C16H14O3\ELENAA\22-Feb-2021\0\\# BP86/T
 ZVP SCRF=COSMORS geom=CHECKPOINT guess=CHECKPOINT\\COSMO-file for #DKY
 WVDODHFEZIM-UHFFFAOYSA-N\\0,1\C,0,8.0234956823,5.96667905,0.0720930501
 \C,0,7.8433246514,5.0804816022,-1.1703038614\C,0,7.073391504,5.8150422
 914,-2.2637201075\O,0,6.2330090241,6.6801589083,-2.0760594886\O,0,7.40
 59063361,5.3589054154,-3.5015040278\C,0,7.0971630365,3.7868368119,-0.8
 487106433\C,0,7.7256259006,2.540591842,-0.9832404639\C,0,7.0409677594,
 1.358598742,-0.6674181111\C,0,5.7208103784,1.4108198247,-0.2220704617\
 C,0,5.0805953129,2.6549313096,-0.0655545319\C,0,3.6486812858,2.6823944
 047,0.3744114498\O,0,2.8891365328,1.7475656797,0.0874851784\C,0,3.1472
 051352,3.8525188154,1.1628518067\C,0,3.9715056353,4.5543658117,2.06389
 4581\C,0,3.4463703533,5.599430563,2.829663786\C,0,2.1028223063,5.96718
 2315,2.6873942465\C,0,1.2760057798,5.2736046345,1.7912425346\C,0,1.791
 3870626,4.2142003351,1.0438502668\C,0,5.7751030461,3.8338969195,-0.383
 8558588\H,0,7.0495142596,6.2711436169,0.4794876812\H,0,8.5684381516,5.
 410052302,0.8469404634\H,0,8.5916480135,6.8747282405,-0.1756516237\H,0
 ,8.8263112645,4.811869458,-1.5843382582\H,0,6.8424381409,5.8292713354,
 -4.1537663422\H,0,8.7584229023,2.4926287322,-1.3365757081\H,0,7.545242
 4681,0.3959154353,-0.7718281174\H,0,5.1729979033,0.498118448,0.0187862
 632\H,0,5.0171793531,4.2660321533,2.1836903576\H,0,4.0875910718,6.1290
 684195,3.5368658461\H,0,1.6975134689,6.7920837568,3.2770399812\H,0,0.2
 288441326,5.5616154493,1.678904895\H,0,1.1565812277,3.6586800897,0.350
 8628292\H,0,5.2716309192,4.7988172871,-0.2959376114\\Version=ES64L-G16
 RevC.01\State=1-A\HF=-844.1312213\RMSD=2.704e-09\Dipole=1.7520995,0.92
 34578,0.2597237\Quadrupole=4.9122713,-9.0933493,4.181078,-10.466578,-4
 .3503738,3.8085775\PG=C01 [X(C16H14O3)]\\@
 The archive entry for this job was punched.


 IT IS A SIMPLE TASK TO MAKE THINGS COMPLEX,
 BUT A COMPLEX TASK TO MAKE THEM SIMPLE.
 Job cpu time:       0 days  0 hours 22 minutes 23.6 seconds.
 Elapsed time:       0 days  0 hours  0 minutes 43.1 seconds.
 File lengths (MBytes):  RWF=    148 Int=      0 D2E=      0 Chk=     19 Scr=      1
 Normal termination of Gaussian 16 at Mon Feb 22 21:12:37 2021.
