 Entering Gaussian System, Link 0=g16
 Input=DVSPHWCZXKPJEQ-UHFFFAOYSA-N.gjf
 Output=DVSPHWCZXKPJEQ-UHFFFAOYSA-N.log
 Initial command:
 /sw/arch/RedHatEnterpriseServer7/EB_production/2019/software/Gaussian/g16.c01/l1.exe "/scratch-local/elenaa.9715937/Gau-28914.inp" -scrdir="/scratch-local/elenaa.9715937/"
 Entering Link 1 = /sw/arch/RedHatEnterpriseServer7/EB_production/2019/software/Gaussian/g16.c01/l1.exe PID=     28917.
  
 Copyright (c) 1988-2019, Gaussian, Inc.  All Rights Reserved.
  
 This is part of the Gaussian(R) 16 program.  It is based on
 the Gaussian(R) 09 system (copyright 2009, Gaussian, Inc.),
 the Gaussian(R) 03 system (copyright 2003, Gaussian, Inc.),
 the Gaussian(R) 98 system (copyright 1998, Gaussian, Inc.),
 the Gaussian(R) 94 system (copyright 1995, Gaussian, Inc.),
 the Gaussian 92(TM) system (copyright 1992, Gaussian, Inc.),
 the Gaussian 90(TM) system (copyright 1990, Gaussian, Inc.),
 the Gaussian 88(TM) system (copyright 1988, Gaussian, Inc.),
 the Gaussian 86(TM) system (copyright 1986, Carnegie Mellon
 University), and the Gaussian 82(TM) system (copyright 1983,
 Carnegie Mellon University). Gaussian is a federally registered
 trademark of Gaussian, Inc.
  
 This software contains proprietary and confidential information,
 including trade secrets, belonging to Gaussian, Inc.
  
 This software is provided under written license and may be
 used, copied, transmitted, or stored only in accord with that
 written license.
  
 The following legend is applicable only to US Government
 contracts under FAR:
  
                    RESTRICTED RIGHTS LEGEND
  
 Use, reproduction and disclosure by the US Government is
 subject to restrictions as set forth in subparagraphs (a)
 and (c) of the Commercial Computer Software - Restricted
 Rights clause in FAR 52.227-19.
  
 Gaussian, Inc.
 340 Quinnipiac St., Bldg. 40, Wallingford CT 06492
  
  
 ---------------------------------------------------------------
 Warning -- This program may not be used in any manner that
 competes with the business of Gaussian, Inc. or will provide
 assistance to any competitor of Gaussian, Inc.  The licensee
 of this program is prohibited from giving any competitor of
 Gaussian, Inc. access to this program.  By using this program,
 the user acknowledges that Gaussian, Inc. is engaged in the
 business of creating and licensing software in the field of
 computational chemistry and represents and warrants to the
 licensee that it is not a competitor of Gaussian, Inc. and that
 it will not use this program in any manner prohibited above.
 ---------------------------------------------------------------
  

 Cite this work as:
 Gaussian 16, Revision C.01,
 M. J. Frisch, G. W. Trucks, H. B. Schlegel, G. E. Scuseria, 
 M. A. Robb, J. R. Cheeseman, G. Scalmani, V. Barone, 
 G. A. Petersson, H. Nakatsuji, X. Li, M. Caricato, A. V. Marenich, 
 J. Bloino, B. G. Janesko, R. Gomperts, B. Mennucci, H. P. Hratchian, 
 J. V. Ortiz, A. F. Izmaylov, J. L. Sonnenberg, D. Williams-Young, 
 F. Ding, F. Lipparini, F. Egidi, J. Goings, B. Peng, A. Petrone, 
 T. Henderson, D. Ranasinghe, V. G. Zakrzewski, J. Gao, N. Rega, 
 G. Zheng, W. Liang, M. Hada, M. Ehara, K. Toyota, R. Fukuda, 
 J. Hasegawa, M. Ishida, T. Nakajima, Y. Honda, O. Kitao, H. Nakai, 
 T. Vreven, K. Throssell, J. A. Montgomery, Jr., J. E. Peralta, 
 F. Ogliaro, M. J. Bearpark, J. J. Heyd, E. N. Brothers, K. N. Kudin, 
 V. N. Staroverov, T. A. Keith, R. Kobayashi, J. Normand, 
 K. Raghavachari, A. P. Rendell, J. C. Burant, S. S. Iyengar, 
 J. Tomasi, M. Cossi, J. M. Millam, M. Klene, C. Adamo, R. Cammi, 
 J. W. Ochterski, R. L. Martin, K. Morokuma, O. Farkas, 
 J. B. Foresman, and D. J. Fox, Gaussian, Inc., Wallingford CT, 2019.
 
 ******************************************
 Gaussian 16:  ES64L-G16RevC.01  3-Jul-2019
                23-Feb-2021 
 ******************************************
 %chk=DVSPHWCZXKPJEQ-UHFFFAOYSA-N.chk
 %NProcShared=32
 Will use up to   32 processors via shared memory.
 -------------------------------------------------------------
 #P BP86/TZVP EmpiricalDispersion=GD3 SCRF=(Solvent=Water) Opt
 -------------------------------------------------------------
 1/18=20,19=15,26=3,38=1/1,3;
 2/9=110,12=2,17=6,18=5,40=1/2;
 3/5=19,7=101,11=2,25=1,30=1,70=2201,71=1,72=1,74=404,124=31/1,2,3;
 4//1;
 5/5=2,38=5,53=1/2;
 6/7=2,8=2,9=2,10=2,28=1/1;
 7//1,2,3,16;
 1/18=20,19=15,26=3/3(2);
 2/9=110/2;
 99//99;
 2/9=110/2;
 3/5=19,7=101,11=2,25=1,30=1,70=2205,71=1,72=1,74=404,124=31/1,2,3;
 4/5=5,16=3,69=1/1;
 5/5=2,38=5,53=1/2;
 7//1,2,3,16;
 1/18=20,19=15,26=3/3(-5);
 2/9=110/2;
 6/7=2,8=2,9=2,10=2,19=2,28=1/1;
 99/9=1/99;
 Leave Link    1 at Tue Feb 23 00:11:07 2021, MaxMem=           0 cpu:               2.1 elap:               0.1
 (Enter /sw/arch/RedHatEnterpriseServer7/EB_production/2019/software/Gaussian/g16.c01/l101.exe)
 -------------------------------------
 Particle #DVSPHWCZXKPJEQ-UHFFFAOYSA-N
 -------------------------------------
 Symbolic Z-matrix:
 Charge =  1 Multiplicity = 1
 C                     0.96235  -1.36473   0.12802 
 O                     0.85073   0.04359  -0.15076 
 C                     0.40713   0.84428   0.96473 
 C                     0.33467   2.33376   0.51707 
 N                    -0.11301   3.37525   1.5346 
 C                    -1.51749   3.09853   2.01581 
 C                    -0.10226   4.73547   0.86804 
 C                     0.82722   3.42286   2.71545 
 H                    -0.00408  -1.78858   0.41333 
 H                     1.30239  -1.86765  -0.77842 
 H                     1.69227  -1.55394   0.91951 
 H                     1.11136   0.7376    1.79275 
 H                    -0.5789    0.5038    1.28839 
 H                     1.33157   2.59791   0.1453 
 H                    -0.33333   2.36762  -0.3515 
 H                    -1.57205   2.17184   2.5907 
 H                    -1.88702   3.89668   2.66721 
 H                    -2.21336   3.00973   1.17718 
 H                     0.89753   4.99776   0.50841 
 H                    -0.41739   5.5255    1.5579 
 H                    -0.77868   4.7659    0.00824 
 H                     1.86103   3.57331   2.39295 
 H                     0.57456   4.23717   3.40172 
 H                     0.79288   2.49897   3.29637 
 
 ITRead=  0  0  0  0  0  0  0  0  0  0  0  0  0  0  0  0  0  0  0  0
 ITRead=  0  0  0  0
 MicOpt= -1 -1 -1 -1 -1 -1 -1 -1 -1 -1 -1 -1 -1 -1 -1 -1 -1 -1 -1 -1
 MicOpt= -1 -1 -1 -1
 NAtoms=     24 NQM=       24 NQMF=       0 NMMI=      0 NMMIF=      0
                NMic=       0 NMicF=      0.
                    Isotopes and Nuclear Properties:
 (Nuclear quadrupole moments (NQMom) in fm**2, nuclear magnetic moments (NMagM)
  in nuclear magnetons)

  Atom         1           2           3           4           5           6           7           8           9          10
 IAtWgt=          12          16          12          12          14          12          12          12           1           1
 AtmWgt=  12.0000000  15.9949146  12.0000000  12.0000000  14.0030740  12.0000000  12.0000000  12.0000000   1.0078250   1.0078250
 NucSpn=           0           0           0           0           2           0           0           0           1           1
 AtZEff=  -0.0000000  -0.0000000  -0.0000000  -0.0000000  -0.0000000  -0.0000000  -0.0000000  -0.0000000  -0.0000000  -0.0000000
 NQMom=    0.0000000   0.0000000   0.0000000   0.0000000   2.0440000   0.0000000   0.0000000   0.0000000   0.0000000   0.0000000
 NMagM=    0.0000000   0.0000000   0.0000000   0.0000000   0.4037610   0.0000000   0.0000000   0.0000000   2.7928460   2.7928460
 AtZNuc=   6.0000000   8.0000000   6.0000000   6.0000000   7.0000000   6.0000000   6.0000000   6.0000000   1.0000000   1.0000000

  Atom        11          12          13          14          15          16          17          18          19          20
 IAtWgt=           1           1           1           1           1           1           1           1           1           1
 AtmWgt=   1.0078250   1.0078250   1.0078250   1.0078250   1.0078250   1.0078250   1.0078250   1.0078250   1.0078250   1.0078250
 NucSpn=           1           1           1           1           1           1           1           1           1           1
 AtZEff=  -0.0000000  -0.0000000  -0.0000000  -0.0000000  -0.0000000  -0.0000000  -0.0000000  -0.0000000  -0.0000000  -0.0000000
 NQMom=    0.0000000   0.0000000   0.0000000   0.0000000   0.0000000   0.0000000   0.0000000   0.0000000   0.0000000   0.0000000
 NMagM=    2.7928460   2.7928460   2.7928460   2.7928460   2.7928460   2.7928460   2.7928460   2.7928460   2.7928460   2.7928460
 AtZNuc=   1.0000000   1.0000000   1.0000000   1.0000000   1.0000000   1.0000000   1.0000000   1.0000000   1.0000000   1.0000000

  Atom        21          22          23          24
 IAtWgt=           1           1           1           1
 AtmWgt=   1.0078250   1.0078250   1.0078250   1.0078250
 NucSpn=           1           1           1           1
 AtZEff=  -0.0000000  -0.0000000  -0.0000000  -0.0000000
 NQMom=    0.0000000   0.0000000   0.0000000   0.0000000
 NMagM=    2.7928460   2.7928460   2.7928460   2.7928460
 AtZNuc=   1.0000000   1.0000000   1.0000000   1.0000000
 Leave Link  101 at Tue Feb 23 00:11:08 2021, MaxMem=   104857600 cpu:               2.7 elap:               0.1
 (Enter /sw/arch/RedHatEnterpriseServer7/EB_production/2019/software/Gaussian/g16.c01/l103.exe)

 GradGradGradGradGradGradGradGradGradGradGradGradGradGradGradGradGradGrad
 Berny optimization.
 Initialization pass.
                           ----------------------------
                           !    Initial Parameters    !
                           ! (Angstroms and Degrees)  !
 --------------------------                            --------------------------
 ! Name  Definition              Value          Derivative Info.                !
 --------------------------------------------------------------------------------
 ! R1    R(1,2)                  1.44           estimate D2E/DX2                !
 ! R2    R(1,9)                  1.0932         estimate D2E/DX2                !
 ! R3    R(1,10)                 1.091          estimate D2E/DX2                !
 ! R4    R(1,11)                 1.0932         estimate D2E/DX2                !
 ! R5    R(2,3)                  1.443          estimate D2E/DX2                !
 ! R6    R(3,4)                  1.557          estimate D2E/DX2                !
 ! R7    R(3,12)                 1.0922         estimate D2E/DX2                !
 ! R8    R(3,13)                 1.0922         estimate D2E/DX2                !
 ! R9    R(4,5)                  1.5233         estimate D2E/DX2                !
 ! R10   R(4,14)                 1.0963         estimate D2E/DX2                !
 ! R11   R(4,15)                 1.0963         estimate D2E/DX2                !
 ! R12   R(5,6)                  1.5102         estimate D2E/DX2                !
 ! R13   R(5,7)                  1.5148         estimate D2E/DX2                !
 ! R14   R(5,8)                  1.5102         estimate D2E/DX2                !
 ! R15   R(6,16)                 1.0919         estimate D2E/DX2                !
 ! R16   R(6,17)                 1.0945         estimate D2E/DX2                !
 ! R17   R(6,18)                 1.0934         estimate D2E/DX2                !
 ! R18   R(7,19)                 1.0944         estimate D2E/DX2                !
 ! R19   R(7,20)                 1.0952         estimate D2E/DX2                !
 ! R20   R(7,21)                 1.0944         estimate D2E/DX2                !
 ! R21   R(8,22)                 1.0933         estimate D2E/DX2                !
 ! R22   R(8,23)                 1.0945         estimate D2E/DX2                !
 ! R23   R(8,24)                 1.0919         estimate D2E/DX2                !
 ! A1    A(2,1,9)              111.1738         estimate D2E/DX2                !
 ! A2    A(2,1,10)             108.31           estimate D2E/DX2                !
 ! A3    A(2,1,11)             111.1742         estimate D2E/DX2                !
 ! A4    A(9,1,10)             108.2802         estimate D2E/DX2                !
 ! A5    A(9,1,11)             109.5248         estimate D2E/DX2                !
 ! A6    A(10,1,11)            108.2801         estimate D2E/DX2                !
 ! A7    A(1,2,3)              114.6361         estimate D2E/DX2                !
 ! A8    A(2,3,4)              108.8366         estimate D2E/DX2                !
 ! A9    A(2,3,12)             109.4899         estimate D2E/DX2                !
 ! A10   A(2,3,13)             109.4895         estimate D2E/DX2                !
 ! A11   A(4,3,12)             109.9631         estimate D2E/DX2                !
 ! A12   A(4,3,13)             109.9625         estimate D2E/DX2                !
 ! A13   A(12,3,13)            109.0859         estimate D2E/DX2                !
 ! A14   A(3,4,5)              118.4037         estimate D2E/DX2                !
 ! A15   A(3,4,14)             106.6002         estimate D2E/DX2                !
 ! A16   A(3,4,15)             106.6011         estimate D2E/DX2                !
 ! A17   A(5,4,14)             109.2101         estimate D2E/DX2                !
 ! A18   A(5,4,15)             109.2106         estimate D2E/DX2                !
 ! A19   A(14,4,15)            106.1398         estimate D2E/DX2                !
 ! A20   A(4,5,6)              111.1541         estimate D2E/DX2                !
 ! A21   A(4,5,7)              108.537          estimate D2E/DX2                !
 ! A22   A(4,5,8)              111.1544         estimate D2E/DX2                !
 ! A23   A(6,5,7)              108.1405         estimate D2E/DX2                !
 ! A24   A(6,5,8)              109.6108         estimate D2E/DX2                !
 ! A25   A(7,5,8)              108.1401         estimate D2E/DX2                !
 ! A26   A(5,6,16)             111.7001         estimate D2E/DX2                !
 ! A27   A(5,6,17)             111.7163         estimate D2E/DX2                !
 ! A28   A(5,6,18)             111.2463         estimate D2E/DX2                !
 ! A29   A(16,6,17)            106.7789         estimate D2E/DX2                !
 ! A30   A(16,6,18)            107.6447         estimate D2E/DX2                !
 ! A31   A(17,6,18)            107.5085         estimate D2E/DX2                !
 ! A32   A(5,7,19)             111.487          estimate D2E/DX2                !
 ! A33   A(5,7,20)             111.6259         estimate D2E/DX2                !
 ! A34   A(5,7,21)             111.4866         estimate D2E/DX2                !
 ! A35   A(19,7,20)            107.2763         estimate D2E/DX2                !
 ! A36   A(19,7,21)            107.4461         estimate D2E/DX2                !
 ! A37   A(20,7,21)            107.2762         estimate D2E/DX2                !
 ! A38   A(5,8,22)             111.2467         estimate D2E/DX2                !
 ! A39   A(5,8,23)             111.7164         estimate D2E/DX2                !
 ! A40   A(5,8,24)             111.7002         estimate D2E/DX2                !
 ! A41   A(22,8,23)            107.5086         estimate D2E/DX2                !
 ! A42   A(22,8,24)            107.644          estimate D2E/DX2                !
 ! A43   A(23,8,24)            106.7789         estimate D2E/DX2                !
 ! D1    D(9,1,2,3)             61.1522         estimate D2E/DX2                !
 ! D2    D(10,1,2,3)          -179.9997         estimate D2E/DX2                !
 ! D3    D(11,1,2,3)           -61.1513         estimate D2E/DX2                !
 ! D4    D(1,2,3,4)           -179.9998         estimate D2E/DX2                !
 ! D5    D(1,2,3,12)            59.7752         estimate D2E/DX2                !
 ! D6    D(1,2,3,13)           -59.7758         estimate D2E/DX2                !
 ! D7    D(2,3,4,5)            180.0            estimate D2E/DX2                !
 ! D8    D(2,3,4,14)           -56.5268         estimate D2E/DX2                !
 ! D9    D(2,3,4,15)            56.5253         estimate D2E/DX2                !
 ! D10   D(12,3,4,5)           -60.068          estimate D2E/DX2                !
 ! D11   D(12,3,4,14)           63.4052         estimate D2E/DX2                !
 ! D12   D(12,3,4,15)          176.4573         estimate D2E/DX2                !
 ! D13   D(13,3,4,5)            60.0688         estimate D2E/DX2                !
 ! D14   D(13,3,4,14)         -176.458          estimate D2E/DX2                !
 ! D15   D(13,3,4,15)          -63.4059         estimate D2E/DX2                !
 ! D16   D(3,4,5,6)            -61.1934         estimate D2E/DX2                !
 ! D17   D(3,4,5,7)            179.9995         estimate D2E/DX2                !
 ! D18   D(3,4,5,8)             61.1926         estimate D2E/DX2                !
 ! D19   D(14,4,5,6)           176.641          estimate D2E/DX2                !
 ! D20   D(14,4,5,7)            57.8339         estimate D2E/DX2                !
 ! D21   D(14,4,5,8)           -60.973          estimate D2E/DX2                !
 ! D22   D(15,4,5,6)            60.9739         estimate D2E/DX2                !
 ! D23   D(15,4,5,7)           -57.8332         estimate D2E/DX2                !
 ! D24   D(15,4,5,8)          -176.6401         estimate D2E/DX2                !
 ! D25   D(4,5,6,16)            66.3709         estimate D2E/DX2                !
 ! D26   D(4,5,6,17)          -174.0958         estimate D2E/DX2                !
 ! D27   D(4,5,6,18)           -53.9436         estimate D2E/DX2                !
 ! D28   D(7,5,6,16)          -174.5841         estimate D2E/DX2                !
 ! D29   D(7,5,6,17)           -55.0508         estimate D2E/DX2                !
 ! D30   D(7,5,6,18)            65.1014         estimate D2E/DX2                !
 ! D31   D(8,5,6,16)           -56.904          estimate D2E/DX2                !
 ! D32   D(8,5,6,17)            62.6293         estimate D2E/DX2                !
 ! D33   D(8,5,6,18)          -177.2185         estimate D2E/DX2                !
 ! D34   D(4,5,7,19)           -60.0405         estimate D2E/DX2                !
 ! D35   D(4,5,7,20)           179.9997         estimate D2E/DX2                !
 ! D36   D(4,5,7,21)            60.0404         estimate D2E/DX2                !
 ! D37   D(6,5,7,19)           179.2695         estimate D2E/DX2                !
 ! D38   D(6,5,7,20)            59.3097         estimate D2E/DX2                !
 ! D39   D(6,5,7,21)           -60.6496         estimate D2E/DX2                !
 ! D40   D(8,5,7,19)            60.6496         estimate D2E/DX2                !
 ! D41   D(8,5,7,20)           -59.3102         estimate D2E/DX2                !
 ! D42   D(8,5,7,21)          -179.2695         estimate D2E/DX2                !
 ! D43   D(4,5,8,22)            53.9434         estimate D2E/DX2                !
 ! D44   D(4,5,8,23)           174.096          estimate D2E/DX2                !
 ! D45   D(4,5,8,24)           -66.3706         estimate D2E/DX2                !
 ! D46   D(6,5,8,22)           177.2182         estimate D2E/DX2                !
 ! D47   D(6,5,8,23)           -62.6292         estimate D2E/DX2                !
 ! D48   D(6,5,8,24)            56.9041         estimate D2E/DX2                !
 ! D49   D(7,5,8,22)           -65.1015         estimate D2E/DX2                !
 ! D50   D(7,5,8,23)            55.0511         estimate D2E/DX2                !
 ! D51   D(7,5,8,24)           174.5844         estimate D2E/DX2                !
 --------------------------------------------------------------------------------
 Trust Radius=3.00D-01 FncErr=1.00D-07 GrdErr=1.00D-06 EigMax=2.50D+02 EigMin=1.00D-04
 Number of steps in this run=    127 maximum allowed number of steps=    144.
 GradGradGradGradGradGradGradGradGradGradGradGradGradGradGradGradGradGrad

 Leave Link  103 at Tue Feb 23 00:11:08 2021, MaxMem=   104857600 cpu:               0.4 elap:               0.0
 (Enter /sw/arch/RedHatEnterpriseServer7/EB_production/2019/software/Gaussian/g16.c01/l202.exe)
                          Input orientation:                          
 ---------------------------------------------------------------------
 Center     Atomic      Atomic             Coordinates (Angstroms)
 Number     Number       Type             X           Y           Z
 ---------------------------------------------------------------------
      1          6           0        0.962350   -1.364730    0.128020
      2          8           0        0.850730    0.043590   -0.150760
      3          6           0        0.407130    0.844280    0.964730
      4          6           0        0.334670    2.333760    0.517070
      5          7           0       -0.113010    3.375250    1.534600
      6          6           0       -1.517490    3.098530    2.015810
      7          6           0       -0.102260    4.735470    0.868040
      8          6           0        0.827220    3.422860    2.715450
      9          1           0       -0.004080   -1.788580    0.413330
     10          1           0        1.302390   -1.867650   -0.778420
     11          1           0        1.692270   -1.553940    0.919510
     12          1           0        1.111360    0.737600    1.792750
     13          1           0       -0.578900    0.503800    1.288390
     14          1           0        1.331570    2.597910    0.145300
     15          1           0       -0.333330    2.367620   -0.351500
     16          1           0       -1.572050    2.171840    2.590700
     17          1           0       -1.887020    3.896680    2.667210
     18          1           0       -2.213360    3.009730    1.177180
     19          1           0        0.897530    4.997760    0.508410
     20          1           0       -0.417390    5.525500    1.557900
     21          1           0       -0.778680    4.765900    0.008240
     22          1           0        1.861030    3.573310    2.392950
     23          1           0        0.574560    4.237170    3.401720
     24          1           0        0.792880    2.498970    3.296370
 ---------------------------------------------------------------------
                    Distance matrix (angstroms):
                    1          2          3          4          5
     1  C    0.000000
     2  O    1.439980   0.000000
     3  C    2.426536   1.442984   0.000000
     4  C    3.771494   2.440736   1.556984   0.000000
     5  N    5.059869   3.856059   2.645960   1.523314   0.000000
     6  C    5.443716   4.431157   3.144928   2.502317   1.510199
     7  C    6.236462   4.894883   3.925581   2.466232   1.514799
     8  C    5.443719   4.431160   3.144928   2.502323   1.510201
     9  H    1.093178   2.098987   2.721229   4.137536   5.285286
    10  H    1.090958   2.061745   3.345837   4.501847   5.902662
    11  H    1.093179   2.098993   2.721229   4.137541   5.285290
    12  H    2.685763   2.080098   1.092217   2.185940   2.919404
    13  H    2.685761   2.080093   1.092217   2.185932   2.919400
    14  H    3.979841   2.615991   2.145058   1.096265   2.149703
    15  H    3.979845   2.615991   2.145066   1.096259   2.149705
    16  H    4.999530   4.232601   2.885021   2.821656   2.166181
    17  H    6.499910   5.502957   4.180754   3.464351   2.168365
    18  H    5.506521   4.466549   3.406065   2.717561   2.161672
    19  H    6.374181   4.998049   4.207151   2.722826   2.169515
    20  H    7.171019   5.880390   4.790147   3.440367   2.171811
    21  H    6.374179   4.998047   4.207151   2.722822   2.169516
    22  H    5.506521   4.466552   3.406060   2.717570   2.161672
    23  H    6.499906   5.502954   4.180748   3.464350   2.168362
    24  H    4.999534   4.232605   2.885021   2.821659   2.166180
                    6          7          8          9         10
     6  C    0.000000
     7  C    2.449454   0.000000
     8  C    2.468269   2.449449   0.000000
     9  H    5.361175   6.540614   5.757597   0.000000
    10  H    6.357860   6.948746   6.357862   1.770137   0.000000
    11  H    5.757596   6.540617   5.361180   1.785743   1.770137
    12  H    3.540423   4.279127   2.853547   3.086842   3.665342
    13  H    2.853544   4.279125   3.540422   2.520150   3.665342
    14  H    3.444789   2.673459   2.746012   4.593157   4.560190
    15  H    2.746019   2.673459   3.444792   4.238793   4.560192
    16  H    1.091893   3.420532   2.708710   4.783764   5.994235
    17  H    1.094494   2.669447   2.755709   6.399033   7.434528
    18  H    1.093353   2.744174   3.432503   5.337430   6.322476
    19  H    3.422229   1.094399   2.712246   6.846631   6.996692
    20  H    2.703717   1.095153   2.703714   7.414623   7.941958
    21  H    2.712250   1.094407   3.422230   6.612512   6.996690
    22  H    3.432499   2.744171   1.093346   6.012270   6.322477
    23  H    2.755707   2.669442   1.094488   6.750923   7.434523
    24  H    2.708711   3.420525   1.091888   5.227825   5.994238
                   11         12         13         14         15
    11  H    0.000000
    12  H    2.520151   0.000000
    13  H    3.086840   1.779331   0.000000
    14  H    4.238793   2.494662   3.056444   0.000000
    15  H    4.593164   3.056453   2.494668   1.752637   0.000000
    16  H    5.227820   3.145546   2.337673   3.820016   3.198327
    17  H    6.750928   4.442381   3.888953   4.290240   3.723518
    18  H    6.012273   4.073729   2.993913   3.714956   2.506727
    19  H    6.612518   4.454685   4.794152   2.465668   3.028547
    20  H    7.414626   5.031522   5.031520   3.691217   3.691217
    21  H    6.846633   4.794156   4.454682   3.028551   2.465663
    22  H    5.337434   2.993910   4.073721   2.506724   3.714958
    23  H    6.399031   3.888950   4.442374   3.723508   4.290238
    24  H    4.783769   2.337676   3.145547   3.198315   3.820021
                   16         17         18         19         20
    16  H    0.000000
    17  H    1.755031   0.000000
    18  H    1.763910   1.764474   0.000000
    19  H    4.291920   3.691411   3.751953   0.000000
    20  H    3.694178   2.458340   3.114411   1.763222   0.000000
    21  H    3.745355   3.009000   2.551247   1.764542   1.763227
    22  H    3.713389   3.771958   4.289099   2.551251   3.114410
    23  H    3.087276   2.591296   3.771960   3.008995   2.458339
    24  H    2.489554   3.087280   3.713397   3.745347   3.694173
                   21         22         23         24
    21  H    0.000000
    22  H    3.751957   0.000000
    23  H    3.691412   1.764464   0.000000
    24  H    4.291919   1.763893   1.755022   0.000000
 Stoichiometry    C6H16NO(1+)
 Framework group  C1[X(C6H16NO)]
 Deg. of freedom    66
 Full point group                 C1      NOp   1
 Largest Abelian subgroup         C1      NOp   1
 Largest concise Abelian subgroup C1      NOp   1
                         Standard orientation:                         
 ---------------------------------------------------------------------
 Center     Atomic      Atomic             Coordinates (Angstroms)
 Number     Number       Type             X           Y           Z
 ---------------------------------------------------------------------
      1          6           0       -3.638829   -0.159285    0.000001
      2          8           0       -2.396079    0.568118   -0.000005
      3          6           0       -1.214384   -0.260013   -0.000001
      4          6           0        0.042993    0.658249   -0.000003
      5          7           0        1.418421    0.003509    0.000001
      6          6           0        1.618811   -0.843506    1.234144
      7          6           0        2.470549    1.093300   -0.000015
      8          6           0        1.618814   -0.843534   -1.234124
      9          1           0       -3.731152   -0.783208    0.892881
     10          1           0       -4.457813    0.561447   -0.000009
     11          1           0       -3.731154   -0.783234   -0.892862
     12          1           0       -1.213423   -0.893611   -0.889658
     13          1           0       -1.213422   -0.893588    0.889673
     14          1           0       -0.045817    1.310898   -0.876336
     15          1           0       -0.045817    1.310927    0.876301
     16          1           0        0.949523   -1.706159    1.244794
     17          1           0        2.639226   -1.234514    1.295663
     18          1           0        1.431764   -0.267670    2.144554
     19          1           0        2.383113    1.734904   -0.882290
     20          1           0        3.483311    0.676558   -0.000007
     21          1           0        2.383110    1.734927    0.882252
     22          1           0        1.431766   -0.267728   -2.144545
     23          1           0        2.639223   -1.234542   -1.295633
     24          1           0        0.949528   -1.706182   -1.244760
 ---------------------------------------------------------------------
 Rotational constants (GHZ):           4.0862956           0.8623229           0.8530425
 Leave Link  202 at Tue Feb 23 00:11:08 2021, MaxMem=   104857600 cpu:               0.3 elap:               0.0
 (Enter /sw/arch/RedHatEnterpriseServer7/EB_production/2019/software/Gaussian/g16.c01/l301.exe)
 Standard basis: TZVP (5D, 7F)
 Ernie: Thresh=  0.10000D-02 Tol=  0.10000D-05 Strict=F.
 There are   256 symmetry adapted cartesian basis functions of A   symmetry.
 There are   248 symmetry adapted basis functions of A   symmetry.
   248 basis functions,   408 primitive gaussians,   256 cartesian basis functions
    33 alpha electrons       33 beta electrons
       nuclear repulsion energy       423.7877905938 Hartrees.
 IExCor=  404 DFT=T Ex=B Corr=P86 ExCW=0 ScaHFX=  0.000000
 ScaDFX=  1.000000  1.000000  1.000000  1.000000 ScalE2=  1.000000  1.000000
 IRadAn=      5 IRanWt=     -1 IRanGd=            0 ICorTp=0 IEmpDi=131
 NAtoms=   24 NActive=   24 NUniq=   24 SFac= 1.00D+00 NAtFMM=   60 NAOKFM=F Big=F
 Integral buffers will be    131072 words long.
 Raffenetti 2 integral format.
 Two-electron integral symmetry is turned on.
 R6Disp:  Grimme-D3 Dispersion energy=       -0.0234818207 Hartrees.
 Nuclear repulsion after empirical dispersion term =      423.7643087731 Hartrees.
 ------------------------------------------------------------------------------
 Polarizable Continuum Model (PCM)
 =================================
 Model                : PCM.
 Atomic radii         : UFF (Universal Force Field).
 Polarization charges : Total charges.
 Charge compensation  : None.
 Solution method      : On-the-fly selection.
 Cavity type          : Scaled VdW (van der Waals Surface) (Alpha=1.100).
 Cavity algorithm     : GePol (No added spheres)
                        Default sphere list used, NSphG=   24.
                        Lebedev-Laikov grids with approx.  5.0 points / Ang**2.
                        Smoothing algorithm: York/Karplus (Gamma=1.0000).
                        Polarization charges: spherical gaussians, with
                                              point-specific exponents (IZeta= 3).
                        Self-potential: point-specific (ISelfS= 7).
                        Self-field    : sphere-specific E.n sum rule (ISelfD= 2).
 1st derivatives      : Analytical E(r).r(x)/FMM algorithm (CHGder, D1EAlg=3).
                        Cavity 1st derivative terms included.
 Solvent              : Water, Eps=  78.355300 Eps(inf)=   1.777849
 ------------------------------------------------------------------------------
 GePol: Number of generator spheres                  =      24
 GePol: Total number of spheres                      =      24
 GePol: Number of exposed spheres                    =      23 ( 95.83%)
 GePol: Number of points                             =    1636
 GePol: Average weight of points                     =       0.13
 GePol: Minimum weight of points                     =   0.61D-08
 GePol: Maximum weight of points                     =    0.20577
 GePol: Number of points with low weight             =      85
 GePol: Fraction of low-weight points (<1% of avg)   =       5.20%
 GePol: Cavity surface area                          =    216.816 Ang**2
 GePol: Cavity volume                                =    215.933 Ang**3
 Leave Link  301 at Tue Feb 23 00:11:08 2021, MaxMem=   104857600 cpu:               1.8 elap:               0.1
 (Enter /sw/arch/RedHatEnterpriseServer7/EB_production/2019/software/Gaussian/g16.c01/l302.exe)
 NPDir=0 NMtPBC=     1 NCelOv=     1 NCel=       1 NClECP=     1 NCelD=      1
         NCelK=      1 NCelE2=     1 NClLst=     1 CellRange=     0.0.
 One-electron integrals computed using PRISM.
 One-electron integral symmetry used in STVInt
 PrsmSu:  requested number of processors reduced to:  28 ShMem   1 Linda.
 NBasis=   248 RedAO= T EigKep=  2.87D-04  NBF=   248
 NBsUse=   248 1.00D-06 EigRej= -1.00D+00 NBFU=   248
 Precomputing XC quadrature grid using
 IXCGrd= 4 IRadAn=           5 IRanWt=          -1 IRanGd=           0 AccXCQ= 0.00D+00.
 Generated NRdTot=       0 NPtTot=           0 NUsed=           0 NTot=          32
 NSgBfM=   254   254   254   254   254 MxSgAt=    24 MxSgA2=    24.
 Leave Link  302 at Tue Feb 23 00:11:09 2021, MaxMem=   104857600 cpu:               9.1 elap:               0.3
 (Enter /sw/arch/RedHatEnterpriseServer7/EB_production/2019/software/Gaussian/g16.c01/l303.exe)
 DipDrv:  MaxL=1.
 Leave Link  303 at Tue Feb 23 00:11:09 2021, MaxMem=   104857600 cpu:               3.7 elap:               0.2
 (Enter /sw/arch/RedHatEnterpriseServer7/EB_production/2019/software/Gaussian/g16.c01/l401.exe)
 ExpMin= 9.52D-02 ExpMax= 2.70D+04 ExpMxC= 9.22D+02 IAcc=3 IRadAn=         5 AccDes= 0.00D+00
 Harris functional with IExCor=  404 and IRadAn=       5 diagonalized for initial guess.
 HarFok:  IExCor=  404 AccDes= 0.00D+00 IRadAn=         5 IDoV= 1 UseB2=F ITyADJ=14
 ICtDFT=  3500011 ScaDFX=  1.000000  1.000000  1.000000  1.000000
 FoFCou: FMM=F IPFlag=           0 FMFlag=      100000 FMFlg1=           0
         NFxFlg=           0 DoJE=T BraDBF=F KetDBF=T FulRan=T
         wScrn=  0.000000 ICntrl=       500 IOpCl=  0 I1Cent=   200000004 NGrid=           0
         NMat0=    1 NMatS0=      1 NMatT0=    0 NMatD0=    1 NMtDS0=    0 NMtDT0=    0
 Petite list used in FoFCou.
 Harris En= -368.318200089993    
 JPrj=0 DoOrth=F DoCkMO=F.
 Leave Link  401 at Tue Feb 23 00:11:10 2021, MaxMem=   104857600 cpu:              13.4 elap:               0.5
 (Enter /sw/arch/RedHatEnterpriseServer7/EB_production/2019/software/Gaussian/g16.c01/l502.exe)
 Integral symmetry usage will be decided dynamically.
 Closed shell SCF:
 Using DIIS extrapolation, IDIIS=  1040.
 NGot=   104857600 LenX=   104714954 LenY=   104648977
 Requested convergence on RMS density matrix=1.00D-08 within 128 cycles.
 Requested convergence on MAX density matrix=1.00D-06.
 Requested convergence on             energy=1.00D-06.
 No special actions if energy rises.
 Fock matrices will be formed incrementally for  20 cycles.

 Cycle   1  Pass 1  IDiag  1:
 FoFJK:  IHMeth= 1 ICntrl=     500 DoSepK=F KAlg= 0 I1Cent=           0 FoldK=F
 IRaf= 920000000 NMat=       1 IRICut=       1 DoRegI=T DoRafI=F ISym2E= 0 IDoP0=0 IntGTp=1.
 FoFCou: FMM=F IPFlag=           0 FMFlag=      100000 FMFlg1=           0
         NFxFlg=           0 DoJE=T BraDBF=F KetDBF=F FulRan=T
         wScrn=  0.000000 ICntrl=       500 IOpCl=  0 I1Cent=           0 NGrid=           0
         NMat0=    1 NMatS0=      1 NMatT0=    0 NMatD0=    1 NMtDS0=    0 NMtDT0=    0
 Symmetry not used in FoFCou.
 Inv3:  Mode=1 IEnd=     8029488.
 Iteration    1 A*A^-1 deviation from unit magnitude is 2.78D-15 for     92.
 Iteration    1 A*A^-1 deviation from orthogonality  is 3.22D-15 for   1283    375.
 Iteration    1 A^-1*A deviation from unit magnitude is 2.66D-15 for    254.
 Iteration    1 A^-1*A deviation from orthogonality  is 2.44D-15 for   1471    429.
 E= -368.004567356756    
 DIIS: error= 2.80D-02 at cycle   1 NSaved=   1.
 NSaved= 1 IEnMin= 1 EnMin= -368.004567356756     IErMin= 1 ErrMin= 2.80D-02
 ErrMax= 2.80D-02  0.00D+00 EMaxC= 1.00D-01 BMatC= 2.09D-01 BMatP= 2.09D-01
 IDIUse=3 WtCom= 7.20D-01 WtEn= 2.80D-01
 Coeff-Com:  0.100D+01
 Coeff-En:   0.100D+01
 Coeff:      0.100D+01
 Gap=     0.152 Goal=   None    Shift=    0.000
 GapD=    0.152 DampG=1.000 DampE=0.500 DampFc=0.5000 IDamp=-1.
 Damping current iteration by 5.00D-01
 RMSDP=4.29D-03 MaxDP=3.14D-01              OVMax= 1.61D-01

 Cycle   2  Pass 1  IDiag  1:
 RMSU=  2.14D-03    CP:  9.98D-01
 E= -368.055656676426     Delta-E=       -0.051089319670 Rises=F Damp=T
 DIIS: error= 1.43D-02 at cycle   2 NSaved=   2.
 NSaved= 2 IEnMin= 2 EnMin= -368.055656676426     IErMin= 2 ErrMin= 1.43D-02
 ErrMax= 1.43D-02  0.00D+00 EMaxC= 1.00D-01 BMatC= 3.57D-02 BMatP= 2.09D-01
 IDIUse=3 WtCom= 8.57D-01 WtEn= 1.43D-01
 Coeff-Com:  0.239D+00 0.761D+00
 Coeff-En:   0.356D+00 0.644D+00
 Coeff:      0.256D+00 0.744D+00
 Gap=     0.232 Goal=   None    Shift=    0.000
 RMSDP=1.02D-03 MaxDP=8.52D-02 DE=-5.11D-02 OVMax= 1.08D-01

 Cycle   3  Pass 1  IDiag  1:
 RMSU=  6.80D-04    CP:  9.94D-01  6.47D-01
 E= -368.181952036300     Delta-E=       -0.126295359874 Rises=F Damp=F
 DIIS: error= 7.04D-03 at cycle   3 NSaved=   3.
 NSaved= 3 IEnMin= 3 EnMin= -368.181952036300     IErMin= 3 ErrMin= 7.04D-03
 ErrMax= 7.04D-03  0.00D+00 EMaxC= 1.00D-01 BMatC= 1.37D-02 BMatP= 3.57D-02
 IDIUse=3 WtCom= 9.30D-01 WtEn= 7.04D-02
 Coeff-Com:  0.846D-01 0.377D+00 0.538D+00
 Coeff-En:   0.000D+00 0.000D+00 0.100D+01
 Coeff:      0.787D-01 0.351D+00 0.571D+00
 Gap=     0.205 Goal=   None    Shift=    0.000
 RMSDP=4.87D-04 MaxDP=1.82D-02 DE=-1.26D-01 OVMax= 2.57D-02

 Cycle   4  Pass 1  IDiag  1:
 RMSU=  3.35D-04    CP:  1.00D+00  7.43D-01  5.98D-01
 E= -368.189406762027     Delta-E=       -0.007454725727 Rises=F Damp=F
 DIIS: error= 3.83D-03 at cycle   4 NSaved=   4.
 NSaved= 4 IEnMin= 4 EnMin= -368.189406762027     IErMin= 4 ErrMin= 3.83D-03
 ErrMax= 3.83D-03  0.00D+00 EMaxC= 1.00D-01 BMatC= 4.50D-03 BMatP= 1.37D-02
 IDIUse=3 WtCom= 9.62D-01 WtEn= 3.83D-02
 Coeff-Com:  0.241D-01 0.108D+00 0.369D+00 0.499D+00
 Coeff-En:   0.000D+00 0.000D+00 0.283D+00 0.717D+00
 Coeff:      0.232D-01 0.104D+00 0.366D+00 0.507D+00
 Gap=     0.215 Goal=   None    Shift=    0.000
 RMSDP=2.62D-04 MaxDP=1.46D-02 DE=-7.45D-03 OVMax= 1.14D-02

 Cycle   5  Pass 1  IDiag  1:
 RMSU=  8.81D-05    CP:  9.97D-01  6.71D-01  7.04D-01  4.89D-01
 E= -368.193094575204     Delta-E=       -0.003687813177 Rises=F Damp=F
 DIIS: error= 8.30D-04 at cycle   5 NSaved=   5.
 NSaved= 5 IEnMin= 5 EnMin= -368.193094575204     IErMin= 5 ErrMin= 8.30D-04
 ErrMax= 8.30D-04  0.00D+00 EMaxC= 1.00D-01 BMatC= 1.24D-04 BMatP= 4.50D-03
 IDIUse=3 WtCom= 9.92D-01 WtEn= 8.30D-03
 Coeff-Com:  0.634D-02 0.264D-01 0.139D+00 0.246D+00 0.582D+00
 Coeff-En:   0.000D+00 0.000D+00 0.000D+00 0.000D+00 0.100D+01
 Coeff:      0.629D-02 0.261D-01 0.138D+00 0.244D+00 0.586D+00
 Gap=     0.213 Goal=   None    Shift=    0.000
 RMSDP=6.49D-05 MaxDP=4.41D-03 DE=-3.69D-03 OVMax= 2.98D-03

 Cycle   6  Pass 1  IDiag  1:
 RMSU=  3.49D-05    CP:  9.98D-01  6.92D-01  6.84D-01  5.27D-01  7.18D-01
 E= -368.193148885737     Delta-E=       -0.000054310533 Rises=F Damp=F
 DIIS: error= 4.10D-04 at cycle   6 NSaved=   6.
 NSaved= 6 IEnMin= 6 EnMin= -368.193148885737     IErMin= 6 ErrMin= 4.10D-04
 ErrMax= 4.10D-04  0.00D+00 EMaxC= 1.00D-01 BMatC= 4.05D-05 BMatP= 1.24D-04
 IDIUse=3 WtCom= 9.96D-01 WtEn= 4.10D-03
 Coeff-Com:  0.171D-02 0.649D-02 0.525D-01 0.111D+00 0.413D+00 0.415D+00
 Coeff-En:   0.000D+00 0.000D+00 0.000D+00 0.000D+00 0.277D+00 0.723D+00
 Coeff:      0.170D-02 0.647D-02 0.522D-01 0.110D+00 0.413D+00 0.416D+00
 Gap=     0.213 Goal=   None    Shift=    0.000
 RMSDP=2.33D-05 MaxDP=9.05D-04 DE=-5.43D-05 OVMax= 1.14D-03

 Cycle   7  Pass 1  IDiag  1:
 RMSU=  6.50D-06    CP:  9.98D-01  6.87D-01  6.95D-01  5.37D-01  7.27D-01
                    CP:  4.93D-01
 E= -368.193180553051     Delta-E=       -0.000031667314 Rises=F Damp=F
 DIIS: error= 1.93D-05 at cycle   7 NSaved=   7.
 NSaved= 7 IEnMin= 7 EnMin= -368.193180553051     IErMin= 7 ErrMin= 1.93D-05
 ErrMax= 1.93D-05  0.00D+00 EMaxC= 1.00D-01 BMatC= 9.77D-08 BMatP= 4.05D-05
 IDIUse=1 WtCom= 1.00D+00 WtEn= 0.00D+00
 Coeff-Com:  0.431D-03 0.156D-02 0.138D-01 0.302D-01 0.121D+00 0.127D+00
 Coeff-Com:  0.706D+00
 Coeff:      0.431D-03 0.156D-02 0.138D-01 0.302D-01 0.121D+00 0.127D+00
 Coeff:      0.706D+00
 Gap=     0.213 Goal=   None    Shift=    0.000
 RMSDP=2.09D-06 MaxDP=1.39D-04 DE=-3.17D-05 OVMax= 7.92D-05

 Cycle   8  Pass 1  IDiag  1:
 RMSU=  1.40D-06    CP:  9.98D-01  6.86D-01  6.95D-01  5.36D-01  7.34D-01
                    CP:  4.88D-01  8.85D-01
 E= -368.193180666915     Delta-E=       -0.000000113863 Rises=F Damp=F
 DIIS: error= 9.95D-06 at cycle   8 NSaved=   8.
 NSaved= 8 IEnMin= 8 EnMin= -368.193180666915     IErMin= 8 ErrMin= 9.95D-06
 ErrMax= 9.95D-06  0.00D+00 EMaxC= 1.00D-01 BMatC= 3.24D-08 BMatP= 9.77D-08
 IDIUse=1 WtCom= 1.00D+00 WtEn= 0.00D+00
 Coeff-Com:  0.966D-04 0.326D-03 0.312D-02 0.721D-02 0.312D-01 0.330D-01
 Coeff-Com:  0.385D+00 0.540D+00
 Coeff:      0.966D-04 0.326D-03 0.312D-02 0.721D-02 0.312D-01 0.330D-01
 Coeff:      0.385D+00 0.540D+00
 Gap=     0.213 Goal=   None    Shift=    0.000
 RMSDP=7.21D-07 MaxDP=2.66D-05 DE=-1.14D-07 OVMax= 3.92D-05

 Cycle   9  Pass 1  IDiag  1:
 RMSU=  4.04D-07    CP:  9.98D-01  6.86D-01  6.95D-01  5.36D-01  7.35D-01
                    CP:  4.91D-01  9.04D-01  6.40D-01
 E= -368.193180650205     Delta-E=        0.000000016710 Rises=F Damp=F
 DIIS: error= 2.22D-06 at cycle   9 NSaved=   9.
 NSaved= 9 IEnMin= 8 EnMin= -368.193180666915     IErMin= 9 ErrMin= 2.22D-06
 ErrMax= 2.22D-06  0.00D+00 EMaxC= 1.00D-01 BMatC= 1.36D-09 BMatP= 3.24D-08
 IDIUse=1 WtCom= 1.00D+00 WtEn= 0.00D+00
 Coeff-Com:  0.885D-06-0.190D-05 0.608D-04 0.319D-03 0.175D-02 0.210D-02
 Coeff-Com:  0.894D-01 0.226D+00 0.680D+00
 Coeff:      0.885D-06-0.190D-05 0.608D-04 0.319D-03 0.175D-02 0.210D-02
 Coeff:      0.894D-01 0.226D+00 0.680D+00
 Gap=     0.213 Goal=   None    Shift=    0.000
 RMSDP=1.63D-07 MaxDP=7.51D-06 DE= 1.67D-08 OVMax= 9.23D-06

 Cycle  10  Pass 1  IDiag  1:
 RMSU=  8.91D-08    CP:  9.98D-01  6.86D-01  6.95D-01  5.37D-01  7.34D-01
                    CP:  4.91D-01  9.11D-01  6.60D-01  7.37D-01
 E= -368.193180651530     Delta-E=       -0.000000001325 Rises=F Damp=F
 DIIS: error= 4.07D-07 at cycle  10 NSaved=  10.
 NSaved=10 IEnMin= 8 EnMin= -368.193180666915     IErMin=10 ErrMin= 4.07D-07
 ErrMax= 4.07D-07  0.00D+00 EMaxC= 1.00D-01 BMatC= 5.52D-11 BMatP= 1.36D-09
 IDIUse=1 WtCom= 1.00D+00 WtEn= 0.00D+00
 Coeff-Com: -0.529D-06-0.750D-05-0.258D-04-0.249D-05 0.600D-04 0.158D-03
 Coeff-Com:  0.265D-01 0.784D-01 0.282D+00 0.613D+00
 Coeff:     -0.529D-06-0.750D-05-0.258D-04-0.249D-05 0.600D-04 0.158D-03
 Coeff:      0.265D-01 0.784D-01 0.282D+00 0.613D+00
 Gap=     0.213 Goal=   None    Shift=    0.000
 RMSDP=3.27D-08 MaxDP=1.04D-06 DE=-1.32D-09 OVMax= 1.97D-06

 Cycle  11  Pass 1  IDiag  1:
 RMSU=  2.62D-08    CP:  9.98D-01  6.86D-01  6.95D-01  5.37D-01  7.34D-01
                    CP:  4.91D-01  9.12D-01  6.62D-01  7.61D-01  8.47D-01
 E= -368.193180651569     Delta-E=       -0.000000000039 Rises=F Damp=F
 DIIS: error= 2.29D-07 at cycle  11 NSaved=  11.
 NSaved=11 IEnMin= 8 EnMin= -368.193180666915     IErMin=11 ErrMin= 2.29D-07
 ErrMax= 2.29D-07  0.00D+00 EMaxC= 1.00D-01 BMatC= 1.36D-11 BMatP= 5.52D-11
 IDIUse=1 WtCom= 1.00D+00 WtEn= 0.00D+00
 Coeff-Com: -0.307D-06-0.518D-05-0.239D-04-0.459D-04-0.198D-03-0.189D-03
 Coeff-Com:  0.424D-02 0.174D-01 0.800D-01 0.358D+00 0.540D+00
 Coeff:     -0.307D-06-0.518D-05-0.239D-04-0.459D-04-0.198D-03-0.189D-03
 Coeff:      0.424D-02 0.174D-01 0.800D-01 0.358D+00 0.540D+00
 Gap=     0.213 Goal=   None    Shift=    0.000
 RMSDP=1.17D-08 MaxDP=3.33D-07 DE=-3.92D-11 OVMax= 6.26D-07

 Cycle  12  Pass 1  IDiag  1:
 RMSU=  5.29D-09    CP:  9.98D-01  6.86D-01  6.95D-01  5.37D-01  7.34D-01
                    CP:  4.91D-01  9.12D-01  6.65D-01  7.63D-01  8.57D-01
                    CP:  6.46D-01
 E= -368.193180651579     Delta-E=       -0.000000000010 Rises=F Damp=F
 DIIS: error= 2.00D-08 at cycle  12 NSaved=  12.
 NSaved=12 IEnMin= 8 EnMin= -368.193180666915     IErMin=12 ErrMin= 2.00D-08
 ErrMax= 2.00D-08  0.00D+00 EMaxC= 1.00D-01 BMatC= 1.11D-13 BMatP= 1.36D-11
 IDIUse=1 WtCom= 1.00D+00 WtEn= 0.00D+00
 Coeff-Com: -0.495D-07-0.158D-05-0.626D-05-0.143D-04-0.604D-04-0.633D-04
 Coeff-Com:  0.746D-03 0.362D-02 0.190D-01 0.102D+00 0.178D+00 0.696D+00
 Coeff:     -0.495D-07-0.158D-05-0.626D-05-0.143D-04-0.604D-04-0.633D-04
 Coeff:      0.746D-03 0.362D-02 0.190D-01 0.102D+00 0.178D+00 0.696D+00
 Gap=     0.213 Goal=   None    Shift=    0.000
 RMSDP=1.86D-09 MaxDP=3.90D-08 DE=-9.83D-12 OVMax= 7.20D-08

 Error on total polarization charges =  0.01050
 SCF Done:  E(RB-P86) =  -368.193180652     A.U. after   12 cycles
            NFock= 12  Conv=0.19D-08     -V/T= 2.0057
 KE= 3.661194397910D+02 PE=-1.691320416155D+03 EE= 5.332434869395D+02
 Leave Link  502 at Tue Feb 23 00:11:23 2021, MaxMem=   104857600 cpu:             413.8 elap:              13.2
 (Enter /sw/arch/RedHatEnterpriseServer7/EB_production/2019/software/Gaussian/g16.c01/l601.exe)
 Copying SCF densities to generalized density rwf, IOpCl= 0 IROHF=0.

 **********************************************************************

            Population analysis using the SCF Density.

 **********************************************************************

 Orbital symmetries:
       Occupied  (A) (A) (A) (A) (A) (A) (A) (A) (A) (A) (A) (A)
                 (A) (A) (A) (A) (A) (A) (A) (A) (A) (A) (A) (A)
                 (A) (A) (A) (A) (A) (A) (A) (A) (A)
       Virtual   (A) (A) (A) (A) (A) (A) (A) (A) (A) (A) (A) (A)
                 (A) (A) (A) (A) (A) (A) (A) (A) (A) (A) (A) (A)
                 (A) (A) (A) (A) (A) (A) (A) (A) (A) (A) (A) (A)
                 (A) (A) (A) (A) (A) (A) (A) (A) (A) (A) (A) (A)
                 (A) (A) (A) (A) (A) (A) (A) (A) (A) (A) (A) (A)
                 (A) (A) (A) (A) (A) (A) (A) (A) (A) (A) (A) (A)
                 (A) (A) (A) (A) (A) (A) (A) (A) (A) (A) (A) (A)
                 (A) (A) (A) (A) (A) (A) (A) (A) (A) (A) (A) (A)
                 (A) (A) (A) (A) (A) (A) (A) (A) (A) (A) (A) (A)
                 (A) (A) (A) (A) (A) (A) (A) (A) (A) (A) (A) (A)
                 (A) (A) (A) (A) (A) (A) (A) (A) (A) (A) (A) (A)
                 (A) (A) (A) (A) (A) (A) (A) (A) (A) (A) (A) (A)
                 (A) (A) (A) (A) (A) (A) (A) (A) (A) (A) (A) (A)
                 (A) (A) (A) (A) (A) (A) (A) (A) (A) (A) (A) (A)
                 (A) (A) (A) (A) (A) (A) (A) (A) (A) (A) (A) (A)
                 (A) (A) (A) (A) (A) (A) (A) (A) (A) (A) (A) (A)
                 (A) (A) (A) (A) (A) (A) (A) (A) (A) (A) (A) (A)
                 (A) (A) (A) (A) (A) (A) (A) (A) (A) (A) (A)
 The electronic state is 1-A.
 Alpha  occ. eigenvalues --  -18.79413 -14.16836  -9.97657  -9.97136  -9.96481
 Alpha  occ. eigenvalues --   -9.96449  -9.96448  -9.94421  -0.96331  -0.95589
 Alpha  occ. eigenvalues --   -0.73223  -0.70201  -0.70044  -0.65425  -0.60454
 Alpha  occ. eigenvalues --   -0.57178  -0.50636  -0.50146  -0.49041  -0.45415
 Alpha  occ. eigenvalues --   -0.44593  -0.41922  -0.40855  -0.40222  -0.38881
 Alpha  occ. eigenvalues --   -0.38124  -0.37718  -0.37536  -0.37398  -0.34863
 Alpha  occ. eigenvalues --   -0.34739  -0.29497  -0.23439
 Alpha virt. eigenvalues --   -0.02126   0.00507   0.02616   0.03213   0.03604
 Alpha virt. eigenvalues --    0.03723   0.04497   0.04592   0.05761   0.07092
 Alpha virt. eigenvalues --    0.07593   0.08220   0.09304   0.09741   0.09803
 Alpha virt. eigenvalues --    0.10573   0.10678   0.12075   0.12445   0.13062
 Alpha virt. eigenvalues --    0.14505   0.14704   0.14865   0.16765   0.20292
 Alpha virt. eigenvalues --    0.20928   0.21024   0.22267   0.23275   0.25143
 Alpha virt. eigenvalues --    0.25160   0.25416   0.26383   0.28017   0.30676
 Alpha virt. eigenvalues --    0.31858   0.32040   0.34276   0.34469   0.34914
 Alpha virt. eigenvalues --    0.36914   0.38227   0.38762   0.39367   0.39571
 Alpha virt. eigenvalues --    0.39848   0.40069   0.41230   0.41499   0.41870
 Alpha virt. eigenvalues --    0.42162   0.42175   0.42973   0.43178   0.43603
 Alpha virt. eigenvalues --    0.44390   0.44901   0.46789   0.46914   0.49496
 Alpha virt. eigenvalues --    0.50704   0.53826   0.59527   0.62614   0.65176
 Alpha virt. eigenvalues --    0.65779   0.66625   0.68261   0.69051   0.76892
 Alpha virt. eigenvalues --    0.84722   0.98994   1.00603   1.10849   1.13239
 Alpha virt. eigenvalues --    1.13714   1.14423   1.15064   1.16089   1.16693
 Alpha virt. eigenvalues --    1.18271   1.18337   1.20599   1.22216   1.22719
 Alpha virt. eigenvalues --    1.23508   1.24047   1.24829   1.25414   1.26632
 Alpha virt. eigenvalues --    1.28782   1.29924   1.31407   1.32754   1.34215
 Alpha virt. eigenvalues --    1.37352   1.37728   1.38717   1.43725   1.44428
 Alpha virt. eigenvalues --    1.44945   1.45531   1.47987   1.49724   1.51302
 Alpha virt. eigenvalues --    1.53052   1.54799   1.56958   1.58827   1.60586
 Alpha virt. eigenvalues --    1.63423   1.64007   1.65261   1.66000   1.66235
 Alpha virt. eigenvalues --    1.67913   1.68196   1.68735   1.69643   1.70023
 Alpha virt. eigenvalues --    1.70336   1.70707   1.71429   1.72108   1.72541
 Alpha virt. eigenvalues --    1.72936   1.75672   1.76220   1.78521   1.81178
 Alpha virt. eigenvalues --    1.85059   1.85954   1.86602   1.89198   1.89568
 Alpha virt. eigenvalues --    1.94750   1.96523   1.96767   1.97881   2.08965
 Alpha virt. eigenvalues --    2.13163   2.13993   2.14633   2.16128   2.18068
 Alpha virt. eigenvalues --    2.18532   2.25341   2.26927   2.27409   2.27906
 Alpha virt. eigenvalues --    2.28057   2.31859   2.31946   2.33040   2.34694
 Alpha virt. eigenvalues --    2.34825   2.38037   2.38194   2.40487   2.41658
 Alpha virt. eigenvalues --    2.47221   2.48831   2.49309   2.51545   2.53668
 Alpha virt. eigenvalues --    2.55467   2.57753   2.58056   2.59609   2.59745
 Alpha virt. eigenvalues --    2.61325   2.61465   2.64054   2.66580   2.66620
 Alpha virt. eigenvalues --    2.68387   2.79752   2.81958   2.83936   2.85921
 Alpha virt. eigenvalues --    2.87392   2.88106   2.91350   2.95638   2.97503
 Alpha virt. eigenvalues --    3.02261   3.04349   3.04868   3.07307   3.09753
 Alpha virt. eigenvalues --    3.16307   3.19155   3.20703   3.22309   3.22591
 Alpha virt. eigenvalues --    3.23538   3.23934   3.27370   3.27571   3.32397
 Alpha virt. eigenvalues --    3.33559   3.37582   3.53095   3.53497   3.54760
 Alpha virt. eigenvalues --    3.79510   3.96786  21.63641  21.71099  21.78776
 Alpha virt. eigenvalues --   21.79245  21.81615  21.83884  31.60024  43.18813
          Condensed to atoms (all electrons):
               1          2          3          4          5          6
     1  C    4.862564   0.244965  -0.068813   0.003321   0.000059   0.000003
     2  O    0.244965   8.020245   0.304493  -0.089026   0.005335  -0.000624
     3  C   -0.068813   0.304493   5.083493   0.069980   0.006268   0.007103
     4  C    0.003321  -0.089026   0.069980   5.662976   0.137029  -0.085668
     5  N    0.000059   0.005335   0.006268   0.137029   6.453201   0.239865
     6  C    0.000003  -0.000624   0.007103  -0.085668   0.239865   5.180507
     7  C    0.000043  -0.000063   0.016587  -0.104124   0.274120  -0.082824
     8  C    0.000003  -0.000624   0.007102  -0.085666   0.239866  -0.110827
     9  H    0.404723  -0.046028  -0.010508  -0.000354   0.000020   0.000129
    10  H    0.385373  -0.029681   0.010350  -0.000105   0.000003  -0.000001
    11  H    0.404721  -0.046027  -0.010508  -0.000354   0.000020  -0.000050
    12  H   -0.000734  -0.050279   0.406206  -0.046047  -0.002190  -0.007585
    13  H   -0.000733  -0.050280   0.406210  -0.046052  -0.002190   0.019316
    14  H   -0.000161   0.014550  -0.022267   0.371154  -0.009964   0.013974
    15  H   -0.000161   0.014550  -0.022266   0.371156  -0.009964  -0.018231
    16  H    0.000067  -0.000047   0.003723  -0.013376  -0.016369   0.391654
    17  H    0.000003  -0.000005   0.000320   0.008382  -0.012570   0.387358
    18  H   -0.000003   0.000161  -0.003403  -0.002109  -0.013152   0.378546
    19  H   -0.000002  -0.000027   0.000188  -0.007734  -0.014916   0.009390
    20  H   -0.000001   0.000006  -0.000616   0.009557  -0.012869  -0.009197
    21  H   -0.000002  -0.000027   0.000188  -0.007734  -0.014916  -0.005117
    22  H   -0.000003   0.000161  -0.003403  -0.002110  -0.013152   0.010965
    23  H    0.000003  -0.000005   0.000320   0.008382  -0.012570  -0.007184
    24  H    0.000067  -0.000047   0.003723  -0.013376  -0.016369  -0.005050
               7          8          9         10         11         12
     1  C    0.000043   0.000003   0.404723   0.385373   0.404721  -0.000734
     2  O   -0.000063  -0.000624  -0.046028  -0.029681  -0.046027  -0.050279
     3  C    0.016587   0.007102  -0.010508   0.010350  -0.010508   0.406206
     4  C   -0.104124  -0.085666  -0.000354  -0.000105  -0.000354  -0.046047
     5  N    0.274120   0.239866   0.000020   0.000003   0.000020  -0.002190
     6  C   -0.082824  -0.110827   0.000129  -0.000001  -0.000050  -0.007585
     7  C    5.104817  -0.082824  -0.000001  -0.000001  -0.000001  -0.000509
     8  C   -0.082824   5.180506  -0.000050  -0.000001   0.000129   0.019315
     9  H   -0.000001  -0.000050   0.589846  -0.025066  -0.055891  -0.005959
    10  H   -0.000001  -0.000001  -0.025066   0.528567  -0.025066  -0.000141
    11  H   -0.000001   0.000129  -0.055891  -0.025066   0.589847   0.015396
    12  H   -0.000509   0.019315  -0.005959  -0.000141   0.015396   0.581453
    13  H   -0.000509  -0.007585   0.015396  -0.000141  -0.005959  -0.061122
    14  H   -0.004652  -0.018232   0.000377  -0.000039  -0.000422  -0.011531
    15  H   -0.004652   0.013974  -0.000422  -0.000039   0.000377   0.008305
    16  H    0.008758  -0.005050  -0.000001  -0.000001   0.000003   0.000471
    17  H   -0.006171  -0.007184   0.000001  -0.000000  -0.000000  -0.000048
    18  H   -0.006262   0.010965  -0.000014   0.000000   0.000004   0.000467
    19  H    0.387154  -0.005117  -0.000000   0.000000   0.000000   0.000083
    20  H    0.390827  -0.009198   0.000000   0.000000   0.000000   0.000014
    21  H    0.387153   0.009390   0.000000   0.000000  -0.000000  -0.000036
    22  H   -0.006262   0.378546   0.000004   0.000000  -0.000014  -0.002294
    23  H   -0.006171   0.387359  -0.000000  -0.000000   0.000001   0.000315
    24  H    0.008758   0.391654   0.000003  -0.000001  -0.000001  -0.002018
              13         14         15         16         17         18
     1  C   -0.000733  -0.000161  -0.000161   0.000067   0.000003  -0.000003
     2  O   -0.050280   0.014550   0.014550  -0.000047  -0.000005   0.000161
     3  C    0.406210  -0.022267  -0.022266   0.003723   0.000320  -0.003403
     4  C   -0.046052   0.371154   0.371156  -0.013376   0.008382  -0.002109
     5  N   -0.002190  -0.009964  -0.009964  -0.016369  -0.012570  -0.013152
     6  C    0.019316   0.013974  -0.018231   0.391654   0.387358   0.378546
     7  C   -0.000509  -0.004652  -0.004652   0.008758  -0.006171  -0.006262
     8  C   -0.007585  -0.018232   0.013974  -0.005050  -0.007184   0.010965
     9  H    0.015396   0.000377  -0.000422  -0.000001   0.000001  -0.000014
    10  H   -0.000141  -0.000039  -0.000039  -0.000001  -0.000000   0.000000
    11  H   -0.005959  -0.000422   0.000377   0.000003  -0.000000   0.000004
    12  H   -0.061122  -0.011531   0.008305   0.000471  -0.000048   0.000467
    13  H    0.581454   0.008305  -0.011531  -0.002018   0.000315  -0.002294
    14  H    0.008305   0.475508  -0.021481  -0.000053  -0.000173  -0.000281
    15  H   -0.011531  -0.021481   0.475503   0.000648  -0.000118   0.003250
    16  H   -0.002018  -0.000053   0.000648   0.465319  -0.019595  -0.018992
    17  H    0.000315  -0.000173  -0.000118  -0.019595   0.463812  -0.018581
    18  H   -0.002294  -0.000281   0.003250  -0.018992  -0.018581   0.468388
    19  H   -0.000036   0.003016  -0.000426  -0.000335   0.000058  -0.000011
    20  H    0.000014   0.000047   0.000047   0.000091   0.002629   0.000217
    21  H    0.000083  -0.000426   0.003016   0.000011  -0.000168   0.001906
    22  H    0.000467   0.003250  -0.000281   0.000027   0.000002  -0.000392
    23  H   -0.000048  -0.000118  -0.000173  -0.000060   0.002110   0.000002
    24  H    0.000471   0.000648  -0.000053   0.001443  -0.000060   0.000027
              19         20         21         22         23         24
     1  C   -0.000002  -0.000001  -0.000002  -0.000003   0.000003   0.000067
     2  O   -0.000027   0.000006  -0.000027   0.000161  -0.000005  -0.000047
     3  C    0.000188  -0.000616   0.000188  -0.003403   0.000320   0.003723
     4  C   -0.007734   0.009557  -0.007734  -0.002110   0.008382  -0.013376
     5  N   -0.014916  -0.012869  -0.014916  -0.013152  -0.012570  -0.016369
     6  C    0.009390  -0.009197  -0.005117   0.010965  -0.007184  -0.005050
     7  C    0.387154   0.390827   0.387153  -0.006262  -0.006171   0.008758
     8  C   -0.005117  -0.009198   0.009390   0.378546   0.387359   0.391654
     9  H   -0.000000   0.000000   0.000000   0.000004  -0.000000   0.000003
    10  H    0.000000   0.000000   0.000000   0.000000  -0.000000  -0.000001
    11  H    0.000000   0.000000  -0.000000  -0.000014   0.000001  -0.000001
    12  H    0.000083   0.000014  -0.000036  -0.002294   0.000315  -0.002018
    13  H   -0.000036   0.000014   0.000083   0.000467  -0.000048   0.000471
    14  H    0.003016   0.000047  -0.000426   0.003250  -0.000118   0.000648
    15  H   -0.000426   0.000047   0.003016  -0.000281  -0.000173  -0.000053
    16  H   -0.000335   0.000091   0.000011   0.000027  -0.000060   0.001443
    17  H    0.000058   0.002629  -0.000168   0.000002   0.002110  -0.000060
    18  H   -0.000011   0.000217   0.001906  -0.000392   0.000002   0.000027
    19  H    0.470024  -0.019692  -0.019509   0.001906  -0.000168   0.000011
    20  H   -0.019692   0.465236  -0.019692   0.000217   0.002629   0.000091
    21  H   -0.019509  -0.019692   0.470027  -0.000011   0.000058  -0.000335
    22  H    0.001906   0.000217  -0.000011   0.468386  -0.018581  -0.018992
    23  H   -0.000168   0.002629   0.000058  -0.018581   0.463810  -0.019595
    24  H    0.000011   0.000091  -0.000335  -0.018992  -0.019595   0.465319
 Mulliken charges:
               1
     1  C   -0.235302
     2  O   -0.291673
     3  C   -0.184469
     4  C   -0.138104
     5  N   -0.204592
     6  C   -0.306451
     7  C   -0.273193
     8  C   -0.306452
     9  H    0.133795
    10  H    0.155986
    11  H    0.133795
    12  H    0.158469
    13  H    0.158469
    14  H    0.198968
    15  H    0.198971
    16  H    0.203682
    17  H    0.199684
    18  H    0.201564
    19  H    0.196142
    20  H    0.199643
    21  H    0.196140
    22  H    0.201564
    23  H    0.199685
    24  H    0.203682
 Sum of Mulliken charges =   1.00000
 Mulliken charges with hydrogens summed into heavy atoms:
               1
     1  C    0.188274
     2  O   -0.291673
     3  C    0.132469
     4  C    0.259834
     5  N   -0.204592
     6  C    0.298478
     7  C    0.318732
     8  C    0.298478
 Electronic spatial extent (au):  <R**2>=           1493.4380
 Charge=              1.0000 electrons
 Dipole moment (field-independent basis, Debye):
    X=              6.3639    Y=             -1.7442    Z=              0.0000  Tot=              6.5986
 Quadrupole moment (field-independent basis, Debye-Ang):
   XX=            -26.8552   YY=            -45.2163   ZZ=            -43.7296
   XY=              4.0191   XZ=             -0.0000   YZ=              0.0001
 Traceless Quadrupole moment (field-independent basis, Debye-Ang):
   XX=             11.7452   YY=             -6.6160   ZZ=             -5.1292
   XY=              4.0191   XZ=             -0.0000   YZ=              0.0001
 Octapole moment (field-independent basis, Debye-Ang**2):
  XXX=              8.4054  YYY=              0.7294  ZZZ=             -0.0000  XYY=             13.6898
  XXY=             -5.7348  XXZ=             -0.0001  XZZ=             10.5954  YZZ=             -2.9563
  YYZ=             -0.0001  XYZ=             -0.0001
 Hexadecapole moment (field-independent basis, Debye-Ang**3):
 XXXX=          -1160.0260 YYYY=           -232.4977 ZZZZ=           -205.9394 XXXY=             12.8665
 XXXZ=             -0.0001 YYYX=              2.6838 YYYZ=              0.0004 ZZZX=             -0.0001
 ZZZY=              0.0001 XXYY=           -264.0003 XXZZ=           -266.6108 YYZZ=            -67.5765
 XXYZ=             -0.0000 YYXZ=             -0.0001 ZZXY=             -2.6570
 N-N= 4.237643087731D+02 E-N=-1.691320414678D+03  KE= 3.661194397910D+02
 No NMR shielding tensors so no spin-rotation constants.
 Leave Link  601 at Tue Feb 23 00:11:23 2021, MaxMem=   104857600 cpu:               6.1 elap:               0.2
 (Enter /sw/arch/RedHatEnterpriseServer7/EB_production/2019/software/Gaussian/g16.c01/l701.exe)
 ... and contract with generalized density number  0.
 Compute integral first derivatives.
 R6Disp: Adding Grimme-D3 dispersion energy 1st derivatives to the gradient.
 PrsmSu:  requested number of processors reduced to:  29 ShMem   1 Linda.
 D1PCM: PCM CHGder 1st derivatives, ID1Alg=3 FixD1E=F DoIter=F DoCFld=F I1PDM=0.
 GePol: Maximum number of non-zero 1st derivatives   =     239
 CoulSu:  requested number of processors reduced to:  29 ShMem   1 Linda.
 CoulSu:  requested number of processors reduced to:  30 ShMem   1 Linda.
 Leave Link  701 at Tue Feb 23 00:11:24 2021, MaxMem=   104857600 cpu:              24.9 elap:               0.8
 (Enter /sw/arch/RedHatEnterpriseServer7/EB_production/2019/software/Gaussian/g16.c01/l702.exe)
 L702 exits ... SP integral derivatives will be done elsewhere.
 Leave Link  702 at Tue Feb 23 00:11:24 2021, MaxMem=   104857600 cpu:               0.8 elap:               0.1
 (Enter /sw/arch/RedHatEnterpriseServer7/EB_production/2019/software/Gaussian/g16.c01/l703.exe)
 Integral derivatives from FoFJK, PRISM(SPDF).
 Compute integral first derivatives, UseDBF=F ICtDFT=           0.
 Calling FoFJK, ICntrl=      2527 FMM=F ISym2X=0 I1Cent= 0 IOpClX= 0 NMat=1 NMatS=1 NMatT=0.
 FoFJK:  IHMeth= 1 ICntrl=    2527 DoSepK=F KAlg= 0 I1Cent=           0 FoldK=F
 IRaf=         0 NMat=       1 IRICut=       1 DoRegI=T DoRafI=F ISym2E= 0 IDoP0=0 IntGTp=1.
 FoFCou: FMM=F IPFlag=           0 FMFlag=      100000 FMFlg1=         800
         NFxFlg=           0 DoJE=F BraDBF=F KetDBF=F FulRan=T
         wScrn=  0.000000 ICntrl=      2527 IOpCl=  0 I1Cent=           0 NGrid=           0
         NMat0=    1 NMatS0=      1 NMatT0=    0 NMatD0=    1 NMtDS0=    0 NMtDT0=    0
 Symmetry not used in FoFCou.
 Leave Link  703 at Tue Feb 23 00:11:26 2021, MaxMem=   104857600 cpu:              63.9 elap:               2.1
 (Enter /sw/arch/RedHatEnterpriseServer7/EB_production/2019/software/Gaussian/g16.c01/l716.exe)
 Dipole        = 2.50373840D+00-6.86233120D-01 1.11630020D-06
 ***** Axes restored to original set *****
 -------------------------------------------------------------------
 Center     Atomic                   Forces (Hartrees/Bohr)
 Number     Number              X              Y              Z
 -------------------------------------------------------------------
      1        6          -0.002288952    0.008553813    0.003705685
      2        8          -0.000421176    0.014859756   -0.005473480
      3        6          -0.000390327    0.000102482    0.001252256
      4        6           0.007472313   -0.019540917   -0.015962872
      5        7          -0.001194307    0.002393409    0.002895922
      6        6          -0.011607211   -0.004494758    0.003958906
      7        6           0.001157538    0.010382982   -0.008708862
      8        6           0.008328357   -0.001739389    0.009906425
      9        1          -0.006397929   -0.002459134    0.003137483
     10        1           0.001340601    0.002420841   -0.005614888
     11        1           0.004072792   -0.001010043    0.006261416
     12        1           0.003998819   -0.001421322    0.007150138
     13        1          -0.006713829   -0.002903749    0.003954385
     14        1           0.001322798    0.006602381    0.003825807
     15        1          -0.004776006    0.005758592    0.002004728
     16        1           0.006405173   -0.003248189    0.000041385
     17        1           0.006555734    0.004616287   -0.000339568
     18        1           0.003986195    0.000971349   -0.005827278
     19        1           0.003781819   -0.006168261    0.001903932
     20        1          -0.001184822   -0.005121244    0.006344635
     21        1          -0.002526062   -0.007040711    0.000024275
     22        1          -0.000308023    0.000378024   -0.007112276
     23        1          -0.006246560    0.002848516   -0.004157114
     24        1          -0.004366935   -0.004740714   -0.003171040
 -------------------------------------------------------------------
 Cartesian Forces:  Max     0.019540917 RMS     0.005896641
 Leave Link  716 at Tue Feb 23 00:11:27 2021, MaxMem=   104857600 cpu:               0.9 elap:               0.1
 (Enter /sw/arch/RedHatEnterpriseServer7/EB_production/2019/software/Gaussian/g16.c01/l103.exe)

 GradGradGradGradGradGradGradGradGradGradGradGradGradGradGradGradGradGrad
 Berny optimization.
 FormGI is forming the generalized inverse of G from B-inverse, IUseBI=4.
 Internal  Forces:  Max     0.021175023 RMS     0.005384768
 Search for a local minimum.
 Step number   1 out of a maximum of  127
 All quantities printed in internal units (Hartrees-Bohrs-Radians)
 RMS Force = .53848D-02 SwitMx=.10000D-02 MixMth= 1
 Mixed Optimization -- RFO/linear search
 Second derivative matrix not updated -- first step.
 ITU=  0
     Eigenvalues ---    0.00230   0.00230   0.00230   0.00234   0.00234
     Eigenvalues ---    0.01123   0.01163   0.02921   0.04306   0.04609
     Eigenvalues ---    0.04847   0.05082   0.05150   0.05326   0.05326
     Eigenvalues ---    0.05330   0.05337   0.05339   0.05339   0.05748
     Eigenvalues ---    0.09235   0.09950   0.10342   0.11165   0.12834
     Eigenvalues ---    0.13645   0.14311   0.14438   0.16000   0.16000
     Eigenvalues ---    0.16000   0.16000   0.16000   0.16000   0.16000
     Eigenvalues ---    0.16000   0.16000   0.16000   0.16000   0.16000
     Eigenvalues ---    0.22016   0.22036   0.25000   0.27066   0.30050
     Eigenvalues ---    0.30873   0.31330   0.31330   0.34099   0.34099
     Eigenvalues ---    0.34224   0.34298   0.34299   0.34308   0.34309
     Eigenvalues ---    0.34428   0.34429   0.34448   0.34448   0.34558
     Eigenvalues ---    0.34558   0.34595   0.34595   0.34702   0.39179
     Eigenvalues ---    0.39588
 RFO step:  Lambda=-1.57609136D-02 EMin= 2.30000000D-03
 Linear search not attempted -- first point.
 Iteration  1 RMS(Cart)=  0.07607885 RMS(Int)=  0.00114894
 Iteration  2 RMS(Cart)=  0.00120307 RMS(Int)=  0.00063836
 Iteration  3 RMS(Cart)=  0.00000449 RMS(Int)=  0.00063836
 Iteration  4 RMS(Cart)=  0.00000002 RMS(Int)=  0.00063836
 ITry= 1 IFail=0 DXMaxC= 2.53D-01 DCOld= 1.00D+10 DXMaxT= 3.00D-01 DXLimC= 3.00D+00 Rises=F
 Variable       Old X    -DE/DX   Delta X   Delta X   Delta X     New X
                                 (Linear)    (Quad)   (Total)
    R1        2.72117  -0.00615   0.00000  -0.01494  -0.01494   2.70623
    R2        2.06581   0.00743   0.00000   0.02062   0.02062   2.08642
    R3        2.06161   0.00397   0.00000   0.01094   0.01094   2.07255
    R4        2.06581   0.00743   0.00000   0.02061   0.02061   2.08642
    R5        2.72684  -0.01510   0.00000  -0.03704  -0.03704   2.68981
    R6        2.94227  -0.01355   0.00000  -0.04731  -0.04731   2.89496
    R7        2.06399   0.00814   0.00000   0.02252   0.02252   2.08651
    R8        2.06399   0.00814   0.00000   0.02252   0.02252   2.08651
    R9        2.87865  -0.01114   0.00000  -0.03522  -0.03522   2.84343
   R10        2.07164   0.00150   0.00000   0.00419   0.00419   2.07584
   R11        2.07163   0.00150   0.00000   0.00420   0.00420   2.07583
   R12        2.85386  -0.00526   0.00000  -0.01598  -0.01598   2.83788
   R13        2.86256  -0.00694   0.00000  -0.02138  -0.02138   2.84117
   R14        2.85387  -0.00526   0.00000  -0.01598  -0.01598   2.83788
   R15        2.06338   0.00246   0.00000   0.00680   0.00680   2.07018
   R16        2.06829   0.00095   0.00000   0.00265   0.00265   2.07094
   R17        2.06614   0.00185   0.00000   0.00515   0.00515   2.07128
   R18        2.06811   0.00135   0.00000   0.00376   0.00376   2.07188
   R19        2.06954   0.00064   0.00000   0.00180   0.00180   2.07134
   R20        2.06813   0.00135   0.00000   0.00375   0.00375   2.07188
   R21        2.06612   0.00186   0.00000   0.00516   0.00516   2.07128
   R22        2.06828   0.00095   0.00000   0.00266   0.00266   2.07094
   R23        2.06337   0.00246   0.00000   0.00681   0.00681   2.07018
    A1        1.94035   0.00081   0.00000   0.00491   0.00488   1.94523
    A2        1.89037  -0.00699   0.00000  -0.04038  -0.04042   1.84995
    A3        1.94036   0.00081   0.00000   0.00491   0.00487   1.94523
    A4        1.88985   0.00294   0.00000   0.01614   0.01610   1.90594
    A5        1.91157  -0.00043   0.00000  -0.00141  -0.00144   1.91013
    A6        1.88984   0.00294   0.00000   0.01614   0.01610   1.90594
    A7        2.00078  -0.01713   0.00000  -0.06448  -0.06448   1.93630
    A8        1.89956  -0.02118   0.00000  -0.09326  -0.09310   1.80646
    A9        1.91096   0.00679   0.00000   0.02434   0.02431   1.93527
   A10        1.91095   0.00679   0.00000   0.02435   0.02432   1.93527
   A11        1.91922   0.00547   0.00000   0.02330   0.02314   1.94236
   A12        1.91921   0.00547   0.00000   0.02331   0.02316   1.94236
   A13        1.90391  -0.00326   0.00000  -0.00181  -0.00260   1.90130
   A14        2.06653  -0.01405   0.00000  -0.06717  -0.06706   1.99948
   A15        1.86052   0.00861   0.00000   0.05339   0.05106   1.91159
   A16        1.86054   0.00860   0.00000   0.05338   0.05105   1.91159
   A17        1.90608  -0.00083   0.00000  -0.02982  -0.02877   1.87730
   A18        1.90608  -0.00083   0.00000  -0.02982  -0.02878   1.87730
   A19        1.85249   0.00003   0.00000   0.03320   0.03044   1.88293
   A20        1.94001  -0.00020   0.00000  -0.00827  -0.00822   1.93179
   A21        1.89433  -0.00164   0.00000  -0.01458  -0.01448   1.87985
   A22        1.94001  -0.00020   0.00000  -0.00827  -0.00822   1.93179
   A23        1.88741   0.00133   0.00000   0.01565   0.01552   1.90293
   A24        1.91307  -0.00053   0.00000   0.00104   0.00078   1.91385
   A25        1.88740   0.00133   0.00000   0.01566   0.01553   1.90293
   A26        1.94953  -0.00609   0.00000  -0.03395  -0.03463   1.91491
   A27        1.94982  -0.00824   0.00000  -0.04736  -0.04823   1.90159
   A28        1.94161  -0.00639   0.00000  -0.03656  -0.03733   1.90429
   A29        1.86364   0.00773   0.00000   0.04436   0.04356   1.90721
   A30        1.87875   0.00684   0.00000   0.03984   0.03926   1.91801
   A31        1.87638   0.00766   0.00000   0.04232   0.04136   1.91774
   A32        1.94582  -0.00687   0.00000  -0.03894  -0.03978   1.90603
   A33        1.94824  -0.00831   0.00000  -0.04756  -0.04850   1.89974
   A34        1.94581  -0.00687   0.00000  -0.03894  -0.03978   1.90603
   A35        1.87232   0.00811   0.00000   0.04589   0.04493   1.91726
   A36        1.87529   0.00744   0.00000   0.04280   0.04205   1.91734
   A37        1.87232   0.00811   0.00000   0.04589   0.04493   1.91725
   A38        1.94162  -0.00639   0.00000  -0.03657  -0.03733   1.90429
   A39        1.94982  -0.00824   0.00000  -0.04736  -0.04823   1.90159
   A40        1.94954  -0.00609   0.00000  -0.03395  -0.03463   1.91491
   A41        1.87638   0.00766   0.00000   0.04232   0.04136   1.91774
   A42        1.87874   0.00685   0.00000   0.03985   0.03927   1.91801
   A43        1.86364   0.00773   0.00000   0.04436   0.04356   1.90721
    D1        1.06731   0.00029   0.00000   0.00255   0.00254   1.06984
    D2       -3.14159   0.00000   0.00000   0.00000   0.00000  -3.14159
    D3       -1.06729  -0.00029   0.00000  -0.00255  -0.00254  -1.06983
    D4       -3.14159  -0.00000   0.00000  -0.00001  -0.00001   3.14159
    D5        1.04327   0.00214   0.00000   0.01369   0.01398   1.05725
    D6       -1.04328  -0.00213   0.00000  -0.01368  -0.01397  -1.05726
    D7        3.14159   0.00000   0.00000   0.00000   0.00000   3.14159
    D8       -0.98658  -0.00389   0.00000  -0.04293  -0.04430  -1.03088
    D9        0.98655   0.00390   0.00000   0.04295   0.04432   1.03087
   D10       -1.04838  -0.00143   0.00000  -0.01359  -0.01375  -1.06213
   D11        1.10663  -0.00533   0.00000  -0.05652  -0.05805   1.04858
   D12        3.07976   0.00246   0.00000   0.02936   0.03057   3.11034
   D13        1.04840   0.00143   0.00000   0.01358   0.01373   1.06213
   D14       -3.07977  -0.00246   0.00000  -0.02935  -0.03057  -3.11034
   D15       -1.10664   0.00533   0.00000   0.05652   0.05805  -1.04859
   D16       -1.06803   0.00048   0.00000   0.00516   0.00519  -1.06284
   D17        3.14158   0.00000   0.00000   0.00001   0.00001  -3.14159
   D18        1.06801  -0.00048   0.00000  -0.00514  -0.00517   1.06284
   D19        3.08297   0.00004   0.00000   0.00846   0.00788   3.09085
   D20        1.00939  -0.00045   0.00000   0.00331   0.00270   1.01209
   D21       -1.06418  -0.00093   0.00000  -0.00184  -0.00248  -1.06666
   D22        1.06420   0.00093   0.00000   0.00183   0.00248   1.06667
   D23       -1.00938   0.00045   0.00000  -0.00332  -0.00270  -1.01208
   D24       -3.08295  -0.00004   0.00000  -0.00847  -0.00789  -3.09084
   D25        1.15839   0.00014   0.00000  -0.00427  -0.00431   1.15408
   D26       -3.03854   0.00021   0.00000  -0.00326  -0.00328  -3.04183
   D27       -0.94149  -0.00003   0.00000  -0.00670  -0.00658  -0.94807
   D28       -3.04707  -0.00115   0.00000  -0.01721  -0.01728  -3.06435
   D29       -0.96082  -0.00108   0.00000  -0.01620  -0.01625  -0.97707
   D30        1.13623  -0.00132   0.00000  -0.01964  -0.01954   1.11669
   D31       -0.99316   0.00090   0.00000   0.01113   0.01106  -0.98210
   D32        1.09309   0.00097   0.00000   0.01215   0.01209   1.10518
   D33       -3.09305   0.00073   0.00000   0.00870   0.00880  -3.08425
   D34       -1.04791  -0.00005   0.00000  -0.00065  -0.00059  -1.04850
   D35        3.14159   0.00000   0.00000   0.00000   0.00000   3.14159
   D36        1.04790   0.00005   0.00000   0.00065   0.00059   1.04850
   D37        3.12884   0.00037   0.00000   0.00861   0.00876   3.13761
   D38        1.03515   0.00041   0.00000   0.00926   0.00936   1.04451
   D39       -1.05854   0.00046   0.00000   0.00991   0.00995  -1.04858
   D40        1.05853  -0.00046   0.00000  -0.00992  -0.00995   1.04858
   D41       -1.03516  -0.00041   0.00000  -0.00926  -0.00936  -1.04452
   D42       -3.12884  -0.00037   0.00000  -0.00861  -0.00877  -3.13761
   D43        0.94149   0.00003   0.00000   0.00670   0.00658   0.94807
   D44        3.03855  -0.00021   0.00000   0.00326   0.00328   3.04183
   D45       -1.15839  -0.00014   0.00000   0.00427   0.00431  -1.15408
   D46        3.09304  -0.00073   0.00000  -0.00870  -0.00879   3.08425
   D47       -1.09309  -0.00097   0.00000  -0.01214  -0.01209  -1.10518
   D48        0.99316  -0.00090   0.00000  -0.01113  -0.01106   0.98210
   D49       -1.13624   0.00132   0.00000   0.01964   0.01955  -1.11669
   D50        0.96082   0.00108   0.00000   0.01619   0.01625   0.97707
   D51        3.04707   0.00115   0.00000   0.01721   0.01728   3.06435
         Item               Value     Threshold  Converged?
 Maximum Force            0.021175     0.000450     NO 
 RMS     Force            0.005385     0.000300     NO 
 Maximum Displacement     0.253443     0.001800     NO 
 RMS     Displacement     0.076619     0.001200     NO 
 Predicted change in Energy=-8.624804D-03
 Lowest energy point so far.  Saving SCF results.
 GradGradGradGradGradGradGradGradGradGradGradGradGradGradGradGradGradGrad

 Leave Link  103 at Tue Feb 23 00:11:27 2021, MaxMem=   104857600 cpu:               1.6 elap:               0.1
 (Enter /sw/arch/RedHatEnterpriseServer7/EB_production/2019/software/Gaussian/g16.c01/l202.exe)
                          Input orientation:                          
 ---------------------------------------------------------------------
 Center     Atomic      Atomic             Coordinates (Angstroms)
 Number     Number       Type             X           Y           Z
 ---------------------------------------------------------------------
      1          6           0        0.930842   -1.245823    0.178495
      2          8           0        0.829365    0.149341   -0.128183
      3          6           0        0.388809    0.888708    1.005515
      4          6           0        0.341529    2.332246    0.494800
      5          7           0       -0.103249    3.343029    1.516831
      6          6           0       -1.495280    3.039856    1.991769
      7          6           0       -0.093533    4.694363    0.857843
      8          6           0        0.836942    3.362456    2.687682
      9          1           0       -0.046920   -1.667182    0.470808
     10          1           0        1.273068   -1.733534   -0.742306
     11          1           0        1.665486   -1.430311    0.981783
     12          1           0        1.098970    0.783313    1.844368
     13          1           0       -0.608148    0.547180    1.334981
     14          1           0        1.339250    2.631003    0.145564
     15          1           0       -0.347916    2.397632   -0.357876
     16          1           0       -1.499678    2.093302    2.543237
     17          1           0       -1.828735    3.846297    2.654678
     18          1           0       -2.162745    2.969745    1.125190
     19          1           0        0.922535    4.920466    0.513528
     20          1           0       -0.415273    5.446428    1.587453
     21          1           0       -0.782261    4.684653    0.004830
     22          1           0        1.858282    3.525945    2.325028
     23          1           0        0.546980    4.174911    3.363571
     24          1           0        0.779802    2.408605    3.223411
 ---------------------------------------------------------------------
                    Distance matrix (angstroms):
                    1          2          3          4          5
     1  C    0.000000
     2  O    1.432073   0.000000
     3  C    2.352442   1.423384   0.000000
     4  C    3.640044   2.321888   1.531949   0.000000
     5  N    4.890608   3.711533   2.554849   1.504678   0.000000
     6  C    5.247959   4.272381   3.024884   2.472953   1.501742
     7  C    6.066026   4.741435   3.838941   2.429131   1.503484
     8  C    5.247959   4.272383   3.024886   2.472953   1.501742
     9  H    1.104087   2.103906   2.647328   4.018319   5.118549
    10  H    1.096748   2.029591   3.273063   4.350720   5.724459
    11  H    1.104087   2.103906   2.647322   4.018314   5.118542
    12  H    2.630740   2.089393   1.104133   2.189577   2.846885
    13  H    2.630743   2.089394   1.104134   2.189577   2.846886
    14  H    3.898418   2.548247   2.162972   1.098485   2.113802
    15  H    3.898421   2.548247   2.162973   1.098484   2.113803
    16  H    4.759116   4.042265   2.716987   2.764640   2.136666
[...]
 --------------------------------------------------------------------
 Cavitation energy                        (kcal/mol) =      24.51
 Dispersion energy                        (kcal/mol) =     -17.64
 Repulsion energy                         (kcal/mol) =       1.45
 Total non electrostatic                  (kcal/mol) =       8.32
 --------------------------------------------------------------------
 Partition over spheres:
 Sphere  on Atom  Surface  Charge   GEl     GCav    GDR
    1      C1      20.34  -0.012   -0.55    2.39   -1.54
    2      O2      10.12   0.137    3.06    1.26   -0.88
    3      C3       8.23  -0.031   -1.69    0.97   -0.36
    4      C4       6.16  -0.040   -2.15    0.72   -0.23
    5      N5       0.00   0.000    0.00    0.00    0.00
    6      C6      13.98  -0.074   -4.22    1.64   -1.03
    7      C7      14.40  -0.077   -4.34    1.69   -1.09
    8      C8      13.98  -0.075   -4.28    1.64   -1.03
    9      H9       6.60  -0.032   -1.20    0.93   -0.71
   10      H10      6.50  -0.039   -1.21    0.92   -0.75
   11      H11      6.60  -0.032   -1.20    0.93   -0.71
   12      H12      5.81  -0.040   -2.13    0.82   -0.49
   13      H13      5.81  -0.041   -2.14    0.82   -0.49
   14      H14      6.42  -0.058   -3.12    0.91   -0.64
   15      H15      6.42  -0.059   -3.19    0.91   -0.64
   16      H16      5.66  -0.057   -3.35    0.80   -0.51
   17      H17      6.44  -0.059   -3.49    0.91   -0.65
   18      H18      6.47  -0.059   -3.38    0.91   -0.68
   19      H19      6.45  -0.060   -3.40    0.91   -0.65
   20      H20      6.47  -0.060   -3.53    0.91   -0.63
   21      H21      6.45  -0.059   -3.35    0.91   -0.65
   22      H22      6.47  -0.059   -3.40    0.91   -0.68
   23      H23      6.44  -0.060   -3.53    0.91   -0.65
   24      H24      5.66  -0.056   -3.30    0.80   -0.51
 --------------------------------------------------------------------
 - cavitation energy not included in the total energy.
 - dispersion energy not included in the total energy.
 - repulsion  energy not included in the total energy.
 After PCM corrections, the energy is  -368.189322683     a.u.
 --------------------------------------------------------------------
 Writing COSMO formatted file "DVSPHWCZXKPJEQ-UHFFFAOYSA-N.cosmo"
 Recomputed dielectric energy= -0.091998 old= -0.094124 diff= 2.13D-03

 **********************************************************************

            Population analysis using the SCF Density.

 **********************************************************************

 Orbital symmetries:
       Occupied  (A) (A) (A) (A) (A) (A) (A) (A) (A) (A) (A) (A)
                 (A) (A) (A) (A) (A) (A) (A) (A) (A) (A) (A) (A)
                 (A) (A) (A) (A) (A) (A) (A) (A) (A)
       Virtual   (A) (A) (A) (A) (A) (A) (A) (A) (A) (A) (A) (A)
                 (A) (A) (A) (A) (A) (A) (A) (A) (A) (A) (A) (A)
                 (A) (A) (A) (A) (A) (A) (A) (A) (A) (A) (A) (A)
                 (A) (A) (A) (A) (A) (A) (A) (A) (A) (A) (A) (A)
                 (A) (A) (A) (A) (A) (A) (A) (A) (A) (A) (A) (A)
                 (A) (A) (A) (A) (A) (A) (A) (A) (A) (A) (A) (A)
                 (A) (A) (A) (A) (A) (A) (A) (A) (A) (A) (A) (A)
                 (A) (A) (A) (A) (A) (A) (A) (A) (A) (A) (A) (A)
                 (A) (A) (A) (A) (A) (A) (A) (A) (A) (A) (A) (A)
                 (A) (A) (A) (A) (A) (A) (A) (A) (A) (A) (A) (A)
                 (A) (A) (A) (A) (A) (A) (A) (A) (A) (A) (A) (A)
                 (A) (A) (A) (A) (A) (A) (A) (A) (A) (A) (A) (A)
                 (A) (A) (A) (A) (A) (A) (A) (A) (A) (A) (A) (A)
                 (A) (A) (A) (A) (A) (A) (A) (A) (A) (A) (A) (A)
                 (A) (A) (A) (A) (A) (A) (A) (A) (A) (A) (A) (A)
                 (A) (A) (A) (A) (A) (A) (A) (A) (A) (A) (A) (A)
                 (A) (A) (A) (A) (A) (A) (A) (A) (A) (A) (A) (A)
                 (A) (A) (A) (A) (A) (A) (A) (A) (A) (A) (A)
 The electronic state is 1-A.
 Alpha  occ. eigenvalues --  -18.78879 -14.14079  -9.95751  -9.95691  -9.94651
 Alpha  occ. eigenvalues --   -9.94650  -9.94643  -9.93785  -0.96071  -0.93956
 Alpha  occ. eigenvalues --   -0.71940  -0.68344  -0.68304  -0.63872  -0.58680
 Alpha  occ. eigenvalues --   -0.55395  -0.48806  -0.47999  -0.46927  -0.44306
 Alpha  occ. eigenvalues --   -0.43427  -0.41084  -0.39581  -0.38858  -0.37264
 Alpha  occ. eigenvalues --   -0.36187  -0.36083  -0.36045  -0.35945  -0.33441
 Alpha  occ. eigenvalues --   -0.33124  -0.29599  -0.22919
 Alpha virt. eigenvalues --   -0.00447   0.01713   0.04268   0.04484   0.05093
 Alpha virt. eigenvalues --    0.05284   0.05861   0.06082   0.06809   0.08053
 Alpha virt. eigenvalues --    0.09116   0.09629   0.10306   0.11003   0.11182
 Alpha virt. eigenvalues --    0.11753   0.12446   0.13528   0.13749   0.14715
 Alpha virt. eigenvalues --    0.16034   0.16082   0.16658   0.18185   0.20729
 Alpha virt. eigenvalues --    0.22338   0.22575   0.23758   0.23969   0.26204
 Alpha virt. eigenvalues --    0.26506   0.27296   0.27710   0.28710   0.31177
 Alpha virt. eigenvalues --    0.32534   0.33013   0.34367   0.35664   0.36173
 Alpha virt. eigenvalues --    0.38091   0.39250   0.39767   0.40203   0.40749
 Alpha virt. eigenvalues --    0.41063   0.41530   0.41925   0.42588   0.43283
 Alpha virt. eigenvalues --    0.43769   0.43810   0.44875   0.45052   0.45209
 Alpha virt. eigenvalues --    0.46551   0.46750   0.47701   0.47853   0.51073
 Alpha virt. eigenvalues --    0.51844   0.55784   0.61437   0.63057   0.64379
 Alpha virt. eigenvalues --    0.65979   0.67355   0.68913   0.69071   0.77354
 Alpha virt. eigenvalues --    0.85569   1.00788   1.02673   1.12971   1.15262
 Alpha virt. eigenvalues --    1.15684   1.17140   1.17843   1.18125   1.18807
 Alpha virt. eigenvalues --    1.19640   1.20226   1.22108   1.23245   1.23349
 Alpha virt. eigenvalues --    1.25037   1.25438   1.27090   1.27343   1.28410
 Alpha virt. eigenvalues --    1.29891   1.30346   1.31759   1.32455   1.36739
 Alpha virt. eigenvalues --    1.37464   1.38167   1.40546   1.43799   1.44506
 Alpha virt. eigenvalues --    1.45406   1.45494   1.47963   1.51512   1.52127
 Alpha virt. eigenvalues --    1.54420   1.56739   1.58046   1.60802   1.61765
 Alpha virt. eigenvalues --    1.66061   1.66527   1.68127   1.68303   1.69101
 Alpha virt. eigenvalues --    1.69389   1.70254   1.70308   1.71350   1.71931
 Alpha virt. eigenvalues --    1.71963   1.72140   1.73758   1.74122   1.74288
 Alpha virt. eigenvalues --    1.74872   1.76932   1.78615   1.80769   1.84258
 Alpha virt. eigenvalues --    1.86107   1.88780   1.89254   1.91869   1.92673
 Alpha virt. eigenvalues --    1.97725   1.99639   2.00010   2.01102   2.12153
 Alpha virt. eigenvalues --    2.12499   2.12894   2.14377   2.18709   2.20448
 Alpha virt. eigenvalues --    2.20463   2.26102   2.26800   2.27182   2.29328
 Alpha virt. eigenvalues --    2.29886   2.31580   2.33100   2.34716   2.36991
 Alpha virt. eigenvalues --    2.37064   2.40120   2.40850   2.41962   2.43244
 Alpha virt. eigenvalues --    2.49626   2.49840   2.53342   2.54171   2.57134
 Alpha virt. eigenvalues --    2.57165   2.59225   2.61563   2.62530   2.63410
 Alpha virt. eigenvalues --    2.64278   2.64518   2.66866   2.69567   2.70077
 Alpha virt. eigenvalues --    2.70147   2.83521   2.84433   2.86501   2.88951
 Alpha virt. eigenvalues --    2.90333   2.90740   2.95964   2.96994   2.97813
 Alpha virt. eigenvalues --    3.05810   3.07622   3.07955   3.08727   3.13065
 Alpha virt. eigenvalues --    3.17944   3.20580   3.20795   3.21921   3.22231
 Alpha virt. eigenvalues --    3.24067   3.24678   3.26155   3.27287   3.31216
 Alpha virt. eigenvalues --    3.34299   3.39531   3.56985   3.57657   3.58369
 Alpha virt. eigenvalues --    3.81718   4.00838  21.63798  21.72089  21.80810
 Alpha virt. eigenvalues --   21.81585  21.82539  21.85243  31.65653  43.20806
          Condensed to atoms (all electrons):
               1          2          3          4          5          6
     1  C    4.902648   0.235679  -0.080224   0.006295  -0.000015  -0.000028
     2  O    0.235679   8.050422   0.297939  -0.108450   0.007458  -0.000758
     3  C   -0.080224   0.297939   5.103859   0.103189  -0.002966   0.002914
     4  C    0.006295  -0.108450   0.103189   5.643690   0.120889  -0.080533
     5  N   -0.000015   0.007458  -0.002966   0.120889   6.540501   0.228194
     6  C   -0.000028  -0.000758   0.002914  -0.080533   0.228194   5.186272
     7  C    0.000070   0.000002   0.019337  -0.115598   0.259405  -0.081286
     8  C   -0.000029  -0.000759   0.002934  -0.080583   0.228174  -0.111712
     9  H    0.403538  -0.045903  -0.011177  -0.000147   0.000031   0.000169
    10  H    0.385351  -0.031095   0.011351  -0.000451   0.000007  -0.000000
    11  H    0.403512  -0.045910  -0.011170  -0.000141   0.000031  -0.000072
    12  H   -0.002047  -0.049998   0.403432  -0.042300  -0.001479  -0.008124
    13  H   -0.002033  -0.049990   0.403476  -0.042352  -0.001485   0.020005
    14  H   -0.000217   0.015813  -0.023087   0.376576  -0.012281   0.013878
    15  H   -0.000218   0.015810  -0.023113   0.376573  -0.012263  -0.018835
    16  H    0.000098  -0.000022   0.002974  -0.013212  -0.018020   0.393318
    17  H    0.000003  -0.000008   0.000355   0.009003  -0.016455   0.389740
    18  H    0.000002   0.000197  -0.003378  -0.002969  -0.015448   0.379716
    19  H   -0.000003  -0.000059   0.000297  -0.008220  -0.017507   0.009652
    20  H   -0.000001   0.000009  -0.000821   0.010211  -0.016871  -0.009321
    21  H   -0.000003  -0.000059   0.000298  -0.008235  -0.017506  -0.005541
    22  H    0.000002   0.000197  -0.003376  -0.002967  -0.015453   0.011452
    23  H    0.000003  -0.000007   0.000354   0.009002  -0.016471  -0.007253
    24  H    0.000098  -0.000022   0.002975  -0.013219  -0.018004  -0.006085
               7          8          9         10         11         12
     1  C    0.000070  -0.000029   0.403538   0.385351   0.403512  -0.002047
     2  O    0.000002  -0.000759  -0.045903  -0.031095  -0.045910  -0.049998
     3  C    0.019337   0.002934  -0.011177   0.011351  -0.011170   0.403432
     4  C   -0.115598  -0.080583  -0.000147  -0.000451  -0.000141  -0.042300
     5  N    0.259405   0.228174   0.000031   0.000007   0.000031  -0.001479
     6  C   -0.081286  -0.111712   0.000169  -0.000000  -0.000072  -0.008124
     7  C    5.121675  -0.081294  -0.000000  -0.000001  -0.000000  -0.000484
     8  C   -0.081294   5.186527  -0.000072  -0.000000   0.000169   0.020004
     9  H   -0.000000  -0.000072   0.585245  -0.023402  -0.056171  -0.006319
    10  H   -0.000001  -0.000000  -0.023402   0.524128  -0.023405  -0.000082
    11  H   -0.000000   0.000169  -0.056171  -0.023405   0.585274   0.016564
    12  H   -0.000484   0.020004  -0.006319  -0.000082   0.016564   0.573409
    13  H   -0.000485  -0.008125   0.016563  -0.000082  -0.006321  -0.060054
    14  H   -0.004506  -0.018826   0.000365  -0.000020  -0.000397  -0.010303
    15  H   -0.004498   0.013881  -0.000397  -0.000020   0.000365   0.007325
    16  H    0.009146  -0.006088  -0.000016  -0.000001   0.000009   0.000724
    17  H   -0.007341  -0.007250   0.000003  -0.000000  -0.000001  -0.000080
    18  H   -0.006219   0.011454  -0.000019   0.000000   0.000005   0.000513
    19  H    0.388797  -0.005548  -0.000001   0.000000   0.000001   0.000113
    20  H    0.392599  -0.009311   0.000000   0.000000   0.000000   0.000017
    21  H    0.388795   0.009653   0.000001   0.000000  -0.000001  -0.000058
    22  H   -0.006222   0.379730   0.000005   0.000000  -0.000019  -0.002451
    23  H   -0.007341   0.389760  -0.000001  -0.000000   0.000003   0.000395
    24  H    0.009146   0.393304   0.000009  -0.000001  -0.000016  -0.002289
              13         14         15         16         17         18
     1  C   -0.002033  -0.000217  -0.000218   0.000098   0.000003   0.000002
     2  O   -0.049990   0.015813   0.015810  -0.000022  -0.000008   0.000197
     3  C    0.403476  -0.023087  -0.023113   0.002974   0.000355  -0.003378
     4  C   -0.042352   0.376576   0.376573  -0.013212   0.009003  -0.002969
     5  N   -0.001485  -0.012281  -0.012263  -0.018020  -0.016455  -0.015448
     6  C    0.020005   0.013878  -0.018835   0.393318   0.389740   0.379716
     7  C   -0.000485  -0.004506  -0.004498   0.009146  -0.007341  -0.006219
     8  C   -0.008125  -0.018826   0.013881  -0.006088  -0.007250   0.011454
     9  H    0.016563   0.000365  -0.000397  -0.000016   0.000003  -0.000019
    10  H   -0.000082  -0.000020  -0.000020  -0.000001  -0.000000   0.000000
    11  H   -0.006321  -0.000397   0.000365   0.000009  -0.000001   0.000005
    12  H   -0.060054  -0.010303   0.007325   0.000724  -0.000080   0.000513
    13  H    0.573448   0.007326  -0.010300  -0.002280   0.000395  -0.002451
    14  H    0.007326   0.466371  -0.019125  -0.000048  -0.000230  -0.000274
    15  H   -0.010300  -0.019125   0.466424   0.000727  -0.000117   0.003332
    16  H   -0.002280  -0.000048   0.000727   0.464782  -0.019529  -0.018918
    17  H    0.000395  -0.000230  -0.000117  -0.019529   0.465760  -0.018561
    18  H   -0.002451  -0.000274   0.003332  -0.018918  -0.018561   0.470787
    19  H   -0.000058   0.003633  -0.000587  -0.000407   0.000054   0.000011
    20  H    0.000017   0.000073   0.000074   0.000093   0.003005   0.000215
    21  H    0.000113  -0.000586   0.003639   0.000026  -0.000043   0.002143
    22  H    0.000513   0.003328  -0.000274   0.000052   0.000005  -0.000469
    23  H   -0.000080  -0.000117  -0.000230  -0.000071   0.002327   0.000004
    24  H    0.000725   0.000728  -0.000049   0.001691  -0.000071   0.000052
              19         20         21         22         23         24
     1  C   -0.000003  -0.000001  -0.000003   0.000002   0.000003   0.000098
     2  O   -0.000059   0.000009  -0.000059   0.000197  -0.000007  -0.000022
     3  C    0.000297  -0.000821   0.000298  -0.003376   0.000354   0.002975
     4  C   -0.008220   0.010211  -0.008235  -0.002967   0.009002  -0.013219
     5  N   -0.017507  -0.016871  -0.017506  -0.015453  -0.016471  -0.018004
     6  C    0.009652  -0.009321  -0.005541   0.011452  -0.007253  -0.006085
     7  C    0.388797   0.392599   0.388795  -0.006222  -0.007341   0.009146
     8  C   -0.005548  -0.009311   0.009653   0.379730   0.389760   0.393304
     9  H   -0.000001   0.000000   0.000001   0.000005  -0.000001   0.000009
    10  H    0.000000   0.000000   0.000000   0.000000  -0.000000  -0.000001
    11  H    0.000001   0.000000  -0.000001  -0.000019   0.000003  -0.000016
    12  H    0.000113   0.000017  -0.000058  -0.002451   0.000395  -0.002289
    13  H   -0.000058   0.000017   0.000113   0.000513  -0.000080   0.000725
    14  H    0.003633   0.000073  -0.000586   0.003328  -0.000117   0.000728
    15  H   -0.000587   0.000074   0.003639  -0.000274  -0.000230  -0.000049
    16  H   -0.000407   0.000093   0.000026   0.000052  -0.000071   0.001691
    17  H    0.000054   0.003005  -0.000043   0.000005   0.002327  -0.000071
    18  H    0.000011   0.000215   0.002143  -0.000469   0.000004   0.000052
    19  H    0.470863  -0.019326  -0.019744   0.002144  -0.000042   0.000026
    20  H   -0.019326   0.466512  -0.019316   0.000215   0.003005   0.000093
    21  H   -0.019744  -0.019316   0.470917   0.000011   0.000054  -0.000407
    22  H    0.002144   0.000215   0.000011   0.470695  -0.018552  -0.018923
    23  H   -0.000042   0.003005   0.000054  -0.018552   0.465687  -0.019508
    24  H    0.000026   0.000093  -0.000407  -0.018923  -0.019508   0.464742
 Mulliken charges:
               1
     1  C   -0.252482
     2  O   -0.290486
     3  C   -0.196373
     4  C   -0.136050
     5  N   -0.202465
     6  C   -0.305762
     7  C   -0.273697
     8  C   -0.305993
     9  H    0.137695
    10  H    0.157721
    11  H    0.137689
    12  H    0.163572
    13  H    0.163516
    14  H    0.201924
    15  H    0.201875
    16  H    0.204972
    17  H    0.199038
    18  H    0.200275
    19  H    0.195911
    20  H    0.198830
    21  H    0.195848
    22  H    0.200356
    23  H    0.199080
    24  H    0.205005
 Sum of Mulliken charges =   1.00000
 Mulliken charges with hydrogens summed into heavy atoms:
               1
     1  C    0.180624
     2  O   -0.290486
     3  C    0.130715
     4  C    0.267749
     5  N   -0.202465
     6  C    0.298522
     7  C    0.316893
     8  C    0.298448
 Electronic spatial extent (au):  <R**2>=           1438.2959
 Charge=              1.0000 electrons
 Dipole moment (field-independent basis, Debye):
    X=              6.2347    Y=             -1.8280    Z=             -0.0001  Tot=              6.4971
 Quadrupole moment (field-independent basis, Debye-Ang):
   XX=            -29.1881   YY=            -45.6040   ZZ=            -44.3034
   XY=              4.1004   XZ=             -0.0007   YZ=             -0.0001
 Traceless Quadrupole moment (field-independent basis, Debye-Ang):
   XX=             10.5104   YY=             -5.9055   ZZ=             -4.6049
   XY=              4.1004   XZ=             -0.0007   YZ=             -0.0001
 Octapole moment (field-independent basis, Debye-Ang**2):
  XXX=              9.9746  YYY=              0.4079  ZZZ=             -0.0005  XYY=             11.7582
  XXY=             -6.8800  XXZ=              0.0000  XZZ=              9.1262  YZZ=             -1.3411
  YYZ=             -0.0009  XYZ=             -0.0006
 Hexadecapole moment (field-independent basis, Debye-Ang**3):
 XXXX=          -1139.7922 YYYY=           -237.3845 ZZZZ=           -209.1647 XXXY=              5.2800
 XXXZ=             -0.0047 YYYX=              2.2916 YYYZ=             -0.0001 ZZZX=             -0.0019
 ZZZY=             -0.0008 XXYY=           -257.8434 XXZZ=           -259.5497 YYZZ=            -69.3644
 XXYZ=              0.0017 YYXZ=             -0.0016 ZZXY=              0.3642
 N-N= 4.285470035344D+02 E-N=-1.700727831153D+03  KE= 3.661750786309D+02
 Unable to Open any file for archive entry.
 1\1\GINC-TCN1684\SP\RBP86\TZVP\C6H16N1O1(1+)\ELENAA\23-Feb-2021\0\\# B
 P86/TZVP SCRF=COSMORS geom=CHECKPOINT guess=CHECKPOINT\\COSMO-file for
  #DVSPHWCZXKPJEQ-UHFFFAOYSA-N\\1,1\C,0,0.9420259715,-1.2718061788,0.15
 30568883\O,0,0.8353933393,0.1293638293,-0.1391163655\C,0,0.394405281,0
 .8746370218,0.9932906838\C,0,0.3425557822,2.3190733078,0.4974705159\N,
 0,-0.1066696309,3.3491355406,1.525462744\C,0,-1.5101171776,3.059046260
 3,2.0077838887\C,0,-0.0927042013,4.703951564,0.8506188796\C,0,0.835465
 3638,3.3834942054,2.7076859487\H,0,-0.0351316398,-1.6948948182,0.44970
 8482\H,0,1.2843204167,-1.7605114292,-0.7675311688\H,0,1.6742849613,-1.
 4584426504,0.9597828419\H,0,1.102482294,0.7589219861,1.8350541918\H,0,
 -0.5998656755,0.5234492178,1.3270888584\H,0,1.3398364985,2.6275108607,
 0.1583892199\H,0,-0.3544249331,2.3931562449,-0.3471644879\H,0,-1.51298
 6722,2.1218892066,2.572077815\H,0,-1.8271700983,3.8815298638,2.6577880
 148\H,0,-2.1728889519,2.9833613903,1.1389345687\H,0,0.9262240116,4.915
 9018413,0.5093128376\H,0,-0.4138244871,5.4579361992,1.5772726772\H,0,-
 0.7818221424,4.679640036,-0.0003528482\H,0,1.8556435727,3.5406008395,2
 .3410148556\H,0,0.5352482725,4.2083061235,3.3627143196\H,0,0.767839889
 8,2.4373795369,3.2526566373\\Version=ES64L-G16RevC.01\State=1-A\HF=-36
 8.1893227\RMSD=3.131e-09\Dipole=-0.6988782,2.0157776,1.4079005\Quadrup
 ole=-3.2258384,8.087257,-4.8614186,-1.9740567,0.2518899,1.2814708\PG=C
 01 [X(C6H16N1O1)]\\@
 The archive entry for this job was punched.


 GOORD'S AXIOM:  A MEETING IS AN EVENT AT WHICH
 THE MINUTES ARE KEPT AND THE HOURS ARE LOST.
 Job cpu time:       0 days  0 hours  6 minutes 41.1 seconds.
 Elapsed time:       0 days  0 hours  0 minutes 13.1 seconds.
 File lengths (MBytes):  RWF=     55 Int=      0 D2E=      0 Chk=      8 Scr=      1
 Normal termination of Gaussian 16 at Tue Feb 23 00:12:51 2021.
