 Entering Gaussian System, Link 0=g16
 Input=FBPFZTCFMRRESA-BXKVDMCESA-N.gjf
 Output=FBPFZTCFMRRESA-BXKVDMCESA-N.log
 Initial command:
 /sw/arch/RedHatEnterpriseServer7/EB_production/2019/software/Gaussian/g16.c01/l1.exe "/scratch-local/elenaa.9715201/Gau-24962.inp" -scrdir="/scratch-local/elenaa.9715201/"
 Entering Link 1 = /sw/arch/RedHatEnterpriseServer7/EB_production/2019/software/Gaussian/g16.c01/l1.exe PID=     24963.
  
 Copyright (c) 1988-2019, Gaussian, Inc.  All Rights Reserved.
  
 This is part of the Gaussian(R) 16 program.  It is based on
 the Gaussian(R) 09 system (copyright 2009, Gaussian, Inc.),
 the Gaussian(R) 03 system (copyright 2003, Gaussian, Inc.),
 the Gaussian(R) 98 system (copyright 1998, Gaussian, Inc.),
 the Gaussian(R) 94 system (copyright 1995, Gaussian, Inc.),
 the Gaussian 92(TM) system (copyright 1992, Gaussian, Inc.),
 the Gaussian 90(TM) system (copyright 1990, Gaussian, Inc.),
 the Gaussian 88(TM) system (copyright 1988, Gaussian, Inc.),
 the Gaussian 86(TM) system (copyright 1986, Carnegie Mellon
 University), and the Gaussian 82(TM) system (copyright 1983,
 Carnegie Mellon University). Gaussian is a federally registered
 trademark of Gaussian, Inc.
  
 This software contains proprietary and confidential information,
 including trade secrets, belonging to Gaussian, Inc.
  
 This software is provided under written license and may be
 used, copied, transmitted, or stored only in accord with that
 written license.
  
 The following legend is applicable only to US Government
 contracts under FAR:
  
                    RESTRICTED RIGHTS LEGEND
  
 Use, reproduction and disclosure by the US Government is
 subject to restrictions as set forth in subparagraphs (a)
 and (c) of the Commercial Computer Software - Restricted
 Rights clause in FAR 52.227-19.
  
 Gaussian, Inc.
 340 Quinnipiac St., Bldg. 40, Wallingford CT 06492
  
  
 ---------------------------------------------------------------
 Warning -- This program may not be used in any manner that
 competes with the business of Gaussian, Inc. or will provide
 assistance to any competitor of Gaussian, Inc.  The licensee
 of this program is prohibited from giving any competitor of
 Gaussian, Inc. access to this program.  By using this program,
 the user acknowledges that Gaussian, Inc. is engaged in the
 business of creating and licensing software in the field of
 computational chemistry and represents and warrants to the
 licensee that it is not a competitor of Gaussian, Inc. and that
 it will not use this program in any manner prohibited above.
 ---------------------------------------------------------------
  

 Cite this work as:
 Gaussian 16, Revision C.01,
 M. J. Frisch, G. W. Trucks, H. B. Schlegel, G. E. Scuseria, 
 M. A. Robb, J. R. Cheeseman, G. Scalmani, V. Barone, 
 G. A. Petersson, H. Nakatsuji, X. Li, M. Caricato, A. V. Marenich, 
 J. Bloino, B. G. Janesko, R. Gomperts, B. Mennucci, H. P. Hratchian, 
 J. V. Ortiz, A. F. Izmaylov, J. L. Sonnenberg, D. Williams-Young, 
 F. Ding, F. Lipparini, F. Egidi, J. Goings, B. Peng, A. Petrone, 
 T. Henderson, D. Ranasinghe, V. G. Zakrzewski, J. Gao, N. Rega, 
 G. Zheng, W. Liang, M. Hada, M. Ehara, K. Toyota, R. Fukuda, 
 J. Hasegawa, M. Ishida, T. Nakajima, Y. Honda, O. Kitao, H. Nakai, 
 T. Vreven, K. Throssell, J. A. Montgomery, Jr., J. E. Peralta, 
 F. Ogliaro, M. J. Bearpark, J. J. Heyd, E. N. Brothers, K. N. Kudin, 
 V. N. Staroverov, T. A. Keith, R. Kobayashi, J. Normand, 
 K. Raghavachari, A. P. Rendell, J. C. Burant, S. S. Iyengar, 
 J. Tomasi, M. Cossi, J. M. Millam, M. Klene, C. Adamo, R. Cammi, 
 J. W. Ochterski, R. L. Martin, K. Morokuma, O. Farkas, 
 J. B. Foresman, and D. J. Fox, Gaussian, Inc., Wallingford CT, 2019.
 
 ******************************************
 Gaussian 16:  ES64L-G16RevC.01  3-Jul-2019
                22-Feb-2021 
 ******************************************
 %chk=FBPFZTCFMRRESA-BXKVDMCESA-N.chk
 %NProcShared=32
 Will use up to   32 processors via shared memory.
 -------------------------------------------------------------
 #P BP86/TZVP EmpiricalDispersion=GD3 SCRF=(Solvent=Water) Opt
 -------------------------------------------------------------
 1/18=20,19=15,26=3,38=1/1,3;
 2/9=110,12=2,17=6,18=5,40=1/2;
 3/5=19,7=101,11=2,25=1,30=1,70=2201,71=1,72=1,74=404,124=31/1,2,3;
 4//1;
 5/5=2,38=5,53=1/2;
 6/7=2,8=2,9=2,10=2,28=1/1;
 7//1,2,3,16;
 1/18=20,19=15,26=3/3(2);
 2/9=110/2;
 99//99;
 2/9=110/2;
 3/5=19,7=101,11=2,25=1,30=1,70=2205,71=1,72=1,74=404,124=31/1,2,3;
 4/5=5,16=3,69=1/1;
 5/5=2,38=5,53=1/2;
 7//1,2,3,16;
 1/18=20,19=15,26=3/3(-5);
 2/9=110/2;
 6/7=2,8=2,9=2,10=2,19=2,28=1/1;
 99/9=1/99;
 Leave Link    1 at Mon Feb 22 20:59:27 2021, MaxMem=           0 cpu:               1.4 elap:               0.1
 (Enter /sw/arch/RedHatEnterpriseServer7/EB_production/2019/software/Gaussian/g16.c01/l101.exe)
 -------------------------------------
 Particle #FBPFZTCFMRRESA-BXKVDMCESA-N
 -------------------------------------
 Symbolic Z-matrix:
 Charge =  0 Multiplicity = 1
 O                    -5.27943   16.09013   9.68507 
 C                    -5.13186   16.02892   8.26973 
 C                    -5.83992   17.23653   7.60544 
 O                    -7.23615   17.21018   7.89948 
 C                    -5.60049   17.36553   6.06864 
 O                    -6.24427   18.55736   5.613 
 C                    -6.06644   16.16438   5.18511 
 O                    -7.47222   15.96614   5.34653 
 C                    -5.74645   16.3335   3.66486 
 O                    -4.34723   16.54854   3.46753 
 C                    -6.14262   15.10082   2.81242 
 O                    -7.55303   14.90524   2.78621 
 H                    -4.85536   15.27444   10.02373 
 H                    -4.06598   16.03889   8.03617 
 H                    -5.56107   15.08886   7.92446 
 H                    -5.44405   18.14176   8.0721 
 H                    -7.29655   17.23853   8.87775 
 H                    -4.52621   17.50619   5.91894 
 H                    -5.8673    19.27945   6.16103 
 H                    -5.56108   15.25623   5.52074 
 H                    -7.58878   15.68094   6.27574 
 H                    -6.27362   17.20711   3.27137 
 H                    -4.1585    17.42491   3.86209 
 H                    -5.80854   15.24344   1.78307 
 H                    -5.66754   14.19888   3.20469 
 H                    -7.68668   14.09586   2.2487 
 
 ITRead=  0  0  0  0  0  0  0  0  0  0  0  0  0  0  0  0  0  0  0  0
 ITRead=  0  0  0  0  0  0
 MicOpt= -1 -1 -1 -1 -1 -1 -1 -1 -1 -1 -1 -1 -1 -1 -1 -1 -1 -1 -1 -1
 MicOpt= -1 -1 -1 -1 -1 -1
 NAtoms=     26 NQM=       26 NQMF=       0 NMMI=      0 NMMIF=      0
                NMic=       0 NMicF=      0.
                    Isotopes and Nuclear Properties:
 (Nuclear quadrupole moments (NQMom) in fm**2, nuclear magnetic moments (NMagM)
  in nuclear magnetons)

  Atom         1           2           3           4           5           6           7           8           9          10
 IAtWgt=          16          12          12          16          12          16          12          16          12          16
 AtmWgt=  15.9949146  12.0000000  12.0000000  15.9949146  12.0000000  15.9949146  12.0000000  15.9949146  12.0000000  15.9949146
 NucSpn=           0           0           0           0           0           0           0           0           0           0
 AtZEff=  -0.0000000  -0.0000000  -0.0000000  -0.0000000  -0.0000000  -0.0000000  -0.0000000  -0.0000000  -0.0000000  -0.0000000
 NQMom=    0.0000000   0.0000000   0.0000000   0.0000000   0.0000000   0.0000000   0.0000000   0.0000000   0.0000000   0.0000000
 NMagM=    0.0000000   0.0000000   0.0000000   0.0000000   0.0000000   0.0000000   0.0000000   0.0000000   0.0000000   0.0000000
 AtZNuc=   8.0000000   6.0000000   6.0000000   8.0000000   6.0000000   8.0000000   6.0000000   8.0000000   6.0000000   8.0000000

  Atom        11          12          13          14          15          16          17          18          19          20
 IAtWgt=          12          16           1           1           1           1           1           1           1           1
 AtmWgt=  12.0000000  15.9949146   1.0078250   1.0078250   1.0078250   1.0078250   1.0078250   1.0078250   1.0078250   1.0078250
 NucSpn=           0           0           1           1           1           1           1           1           1           1
 AtZEff=  -0.0000000  -0.0000000  -0.0000000  -0.0000000  -0.0000000  -0.0000000  -0.0000000  -0.0000000  -0.0000000  -0.0000000
 NQMom=    0.0000000   0.0000000   0.0000000   0.0000000   0.0000000   0.0000000   0.0000000   0.0000000   0.0000000   0.0000000
 NMagM=    0.0000000   0.0000000   2.7928460   2.7928460   2.7928460   2.7928460   2.7928460   2.7928460   2.7928460   2.7928460
 AtZNuc=   6.0000000   8.0000000   1.0000000   1.0000000   1.0000000   1.0000000   1.0000000   1.0000000   1.0000000   1.0000000

  Atom        21          22          23          24          25          26
 IAtWgt=           1           1           1           1           1           1
 AtmWgt=   1.0078250   1.0078250   1.0078250   1.0078250   1.0078250   1.0078250
 NucSpn=           1           1           1           1           1           1
 AtZEff=  -0.0000000  -0.0000000  -0.0000000  -0.0000000  -0.0000000  -0.0000000
 NQMom=    0.0000000   0.0000000   0.0000000   0.0000000   0.0000000   0.0000000
 NMagM=    2.7928460   2.7928460   2.7928460   2.7928460   2.7928460   2.7928460
 AtZNuc=   1.0000000   1.0000000   1.0000000   1.0000000   1.0000000   1.0000000
 Leave Link  101 at Mon Feb 22 20:59:27 2021, MaxMem=   104857600 cpu:               3.0 elap:               0.1
 (Enter /sw/arch/RedHatEnterpriseServer7/EB_production/2019/software/Gaussian/g16.c01/l103.exe)

 GradGradGradGradGradGradGradGradGradGradGradGradGradGradGradGradGradGrad
 Berny optimization.
 Initialization pass.
                           ----------------------------
                           !    Initial Parameters    !
                           ! (Angstroms and Degrees)  !
 --------------------------                            --------------------------
 ! Name  Definition              Value          Derivative Info.                !
 --------------------------------------------------------------------------------
 ! R1    R(1,2)                  1.4243         estimate D2E/DX2                !
 ! R2    R(1,13)                 0.9797         estimate D2E/DX2                !
 ! R3    R(2,3)                  1.5495         estimate D2E/DX2                !
 ! R4    R(2,14)                 1.0912         estimate D2E/DX2                !
 ! R5    R(2,15)                 1.0896         estimate D2E/DX2                !
 ! R6    R(3,4)                  1.4271         estimate D2E/DX2                !
 ! R7    R(3,5)                  1.5607         estimate D2E/DX2                !
 ! R8    R(3,16)                 1.0927         estimate D2E/DX2                !
 ! R9    R(4,17)                 0.9805         estimate D2E/DX2                !
 ! R10   R(5,6)                  1.4292         estimate D2E/DX2                !
 ! R11   R(5,7)                  1.5622         estimate D2E/DX2                !
 ! R12   R(5,18)                 1.0937         estimate D2E/DX2                !
 ! R13   R(6,19)                 0.9818         estimate D2E/DX2                !
 ! R14   R(7,8)                  1.4288         estimate D2E/DX2                !
 ! R15   R(7,9)                  1.5627         estimate D2E/DX2                !
 ! R16   R(7,20)                 1.0921         estimate D2E/DX2                !
 ! R17   R(8,21)                 0.979          estimate D2E/DX2                !
 ! R18   R(9,10)                 1.4293         estimate D2E/DX2                !
 ! R19   R(9,11)                 1.5502         estimate D2E/DX2                !
 ! R20   R(9,22)                 1.0936         estimate D2E/DX2                !
 ! R21   R(10,23)                0.9794         estimate D2E/DX2                !
 ! R22   R(11,12)                1.4241         estimate D2E/DX2                !
 ! R23   R(11,24)                1.0916         estimate D2E/DX2                !
 ! R24   R(11,25)                1.0923         estimate D2E/DX2                !
 ! R25   R(12,26)                0.9808         estimate D2E/DX2                !
 ! A1    A(2,1,13)             105.2398         estimate D2E/DX2                !
 ! A2    A(1,2,3)              110.1922         estimate D2E/DX2                !
 ! A3    A(1,2,14)             108.27           estimate D2E/DX2                !
 ! A4    A(1,2,15)             108.1288         estimate D2E/DX2                !
 ! A5    A(3,2,14)             110.3326         estimate D2E/DX2                !
 ! A6    A(3,2,15)             110.8886         estimate D2E/DX2                !
 ! A7    A(14,2,15)            108.9559         estimate D2E/DX2                !
 ! A8    A(2,3,4)              110.1423         estimate D2E/DX2                !
 ! A9    A(2,3,5)              114.6117         estimate D2E/DX2                !
 ! A10   A(2,3,16)             107.2782         estimate D2E/DX2                !
 ! A11   A(4,3,5)              110.7634         estimate D2E/DX2                !
 ! A12   A(4,3,16)             106.3653         estimate D2E/DX2                !
 ! A13   A(5,3,16)             107.2469         estimate D2E/DX2                !
 ! A14   A(3,4,17)             105.3845         estimate D2E/DX2                !
 ! A15   A(3,5,6)              108.286          estimate D2E/DX2                !
 ! A16   A(3,5,7)              116.5898         estimate D2E/DX2                !
 ! A17   A(3,5,18)             107.2229         estimate D2E/DX2                !
 ! A18   A(6,5,7)              109.0582         estimate D2E/DX2                !
 ! A19   A(6,5,18)             106.9513         estimate D2E/DX2                !
 ! A20   A(7,5,18)             108.3263         estimate D2E/DX2                !
 ! A21   A(5,6,19)             105.2144         estimate D2E/DX2                !
 ! A22   A(5,7,8)              109.6475         estimate D2E/DX2                !
 ! A23   A(5,7,9)              113.9479         estimate D2E/DX2                !
 ! A24   A(5,7,20)             109.1188         estimate D2E/DX2                !
 ! A25   A(8,7,9)              109.0489         estimate D2E/DX2                !
 ! A26   A(8,7,20)             107.7684         estimate D2E/DX2                !
 ! A27   A(9,7,20)             107.1095         estimate D2E/DX2                !
 ! A28   A(7,8,21)             105.3548         estimate D2E/DX2                !
 ! A29   A(7,9,10)             110.5505         estimate D2E/DX2                !
 ! A30   A(7,9,11)             113.3631         estimate D2E/DX2                !
 ! A31   A(7,9,22)             109.7415         estimate D2E/DX2                !
 ! A32   A(10,9,11)            107.0912         estimate D2E/DX2                !
 ! A33   A(10,9,22)            107.5801         estimate D2E/DX2                !
 ! A34   A(11,9,22)            108.3108         estimate D2E/DX2                !
 ! A35   A(9,10,23)            105.5233         estimate D2E/DX2                !
 ! A36   A(9,11,12)            111.8649         estimate D2E/DX2                !
 ! A37   A(9,11,24)            109.6601         estimate D2E/DX2                !
 ! A38   A(9,11,25)            110.3634         estimate D2E/DX2                !
 ! A39   A(12,11,24)           107.6795         estimate D2E/DX2                !
 ! A40   A(12,11,25)           108.9024         estimate D2E/DX2                !
 ! A41   A(24,11,25)           108.2662         estimate D2E/DX2                !
 ! A42   A(11,12,26)           104.9739         estimate D2E/DX2                !
 ! D1    D(13,1,2,3)           176.789          estimate D2E/DX2                !
 ! D2    D(13,1,2,14)          -62.4609         estimate D2E/DX2                !
 ! D3    D(13,1,2,15)           55.4463         estimate D2E/DX2                !
 ! D4    D(1,2,3,4)            -61.2237         estimate D2E/DX2                !
 ! D5    D(1,2,3,5)            173.0894         estimate D2E/DX2                !
 ! D6    D(1,2,3,16)            54.1415         estimate D2E/DX2                !
 ! D7    D(14,2,3,4)           179.2712         estimate D2E/DX2                !
 ! D8    D(14,2,3,5)            53.5843         estimate D2E/DX2                !
 ! D9    D(14,2,3,16)          -65.3636         estimate D2E/DX2                !
 ! D10   D(15,2,3,4)            58.4598         estimate D2E/DX2                !
 ! D11   D(15,2,3,5)           -67.2271         estimate D2E/DX2                !
 ! D12   D(15,2,3,16)          173.8249         estimate D2E/DX2                !
 ! D13   D(2,3,4,17)            58.8388         estimate D2E/DX2                !
 ! D14   D(5,3,4,17)          -173.3203         estimate D2E/DX2                !
 ! D15   D(16,3,4,17)          -57.1011         estimate D2E/DX2                !
 ! D16   D(2,3,5,6)           -176.6663         estimate D2E/DX2                !
 ! D17   D(2,3,5,7)             59.9687         estimate D2E/DX2                !
 ! D18   D(2,3,5,18)           -61.5843         estimate D2E/DX2                !
 ! D19   D(4,3,5,6)             57.9712         estimate D2E/DX2                !
 ! D20   D(4,3,5,7)            -65.3938         estimate D2E/DX2                !
 ! D21   D(4,3,5,18)           173.0532         estimate D2E/DX2                !
 ! D22   D(16,3,5,6)           -57.7008         estimate D2E/DX2                !
 ! D23   D(16,3,5,7)           178.9342         estimate D2E/DX2                !
 ! D24   D(16,3,5,18)           57.3812         estimate D2E/DX2                !
 ! D25   D(3,5,6,19)            56.0027         estimate D2E/DX2                !
 ! D26   D(7,5,6,19)          -176.1978         estimate D2E/DX2                !
 ! D27   D(18,5,6,19)          -59.2569         estimate D2E/DX2                !
 ! D28   D(3,5,7,8)             59.759          estimate D2E/DX2                !
 ! D29   D(3,5,7,9)           -177.7097         estimate D2E/DX2                !
 ! D30   D(3,5,7,20)           -58.0621         estimate D2E/DX2                !
 ! D31   D(6,5,7,8)            -63.2067         estimate D2E/DX2                !
 ! D32   D(6,5,7,9)             59.3246         estimate D2E/DX2                !
 ! D33   D(6,5,7,20)           178.9722         estimate D2E/DX2                !
 ! D34   D(18,5,7,8)          -179.2707         estimate D2E/DX2                !
 ! D35   D(18,5,7,9)           -56.7394         estimate D2E/DX2                !
 ! D36   D(18,5,7,20)           62.9081         estimate D2E/DX2                !
 ! D37   D(5,7,8,21)           -66.2094         estimate D2E/DX2                !
 ! D38   D(9,7,8,21)           168.3934         estimate D2E/DX2                !
 ! D39   D(20,7,8,21)           52.4502         estimate D2E/DX2                !
 ! D40   D(5,7,9,10)            56.521          estimate D2E/DX2                !
 ! D41   D(5,7,9,11)           176.7755         estimate D2E/DX2                !
 ! D42   D(5,7,9,22)           -61.9846         estimate D2E/DX2                !
 ! D43   D(8,7,9,10)           179.3798         estimate D2E/DX2                !
 ! D44   D(8,7,9,11)           -60.3657         estimate D2E/DX2                !
 ! D45   D(8,7,9,22)            60.8743         estimate D2E/DX2                !
 ! D46   D(20,7,9,10)          -64.2554         estimate D2E/DX2                !
 ! D47   D(20,7,9,11)           55.9991         estimate D2E/DX2                !
 ! D48   D(20,7,9,22)          177.239          estimate D2E/DX2                !
 ! D49   D(7,9,10,23)          -67.205          estimate D2E/DX2                !
 ! D50   D(11,9,10,23)         168.8537         estimate D2E/DX2                !
 ! D51   D(22,9,10,23)          52.6089         estimate D2E/DX2                !
 ! D52   D(7,9,11,12)           65.9335         estimate D2E/DX2                !
 ! D53   D(7,9,11,24)         -174.6697         estimate D2E/DX2                !
 ! D54   D(7,9,11,25)          -55.4848         estimate D2E/DX2                !
 ! D55   D(10,9,11,12)        -171.8668         estimate D2E/DX2                !
 ! D56   D(10,9,11,24)         -52.47           estimate D2E/DX2                !
 ! D57   D(10,9,11,25)          66.7149         estimate D2E/DX2                !
 ! D58   D(22,9,11,12)         -56.1071         estimate D2E/DX2                !
 ! D59   D(22,9,11,24)          63.2897         estimate D2E/DX2                !
 ! D60   D(22,9,11,25)        -177.5255         estimate D2E/DX2                !
 ! D61   D(9,11,12,26)        -178.4094         estimate D2E/DX2                !
 ! D62   D(24,11,12,26)         61.0335         estimate D2E/DX2                !
 ! D63   D(25,11,12,26)        -56.1517         estimate D2E/DX2                !
 --------------------------------------------------------------------------------
 Trust Radius=3.00D-01 FncErr=1.00D-07 GrdErr=1.00D-06 EigMax=2.50D+02 EigMin=1.00D-04
 Number of steps in this run=    140 maximum allowed number of steps=    156.
 GradGradGradGradGradGradGradGradGradGradGradGradGradGradGradGradGradGrad

 Leave Link  103 at Mon Feb 22 20:59:27 2021, MaxMem=   104857600 cpu:               0.4 elap:               0.0
 (Enter /sw/arch/RedHatEnterpriseServer7/EB_production/2019/software/Gaussian/g16.c01/l202.exe)
                          Input orientation:                          
 ---------------------------------------------------------------------
 Center     Atomic      Atomic             Coordinates (Angstroms)
 Number     Number       Type             X           Y           Z
 ---------------------------------------------------------------------
      1          8           0       -5.279430   16.090130    9.685070
      2          6           0       -5.131860   16.028920    8.269730
      3          6           0       -5.839920   17.236530    7.605440
      4          8           0       -7.236150   17.210180    7.899480
      5          6           0       -5.600490   17.365530    6.068640
      6          8           0       -6.244270   18.557360    5.613000
      7          6           0       -6.066440   16.164380    5.185110
      8          8           0       -7.472220   15.966140    5.346530
      9          6           0       -5.746450   16.333500    3.664860
     10          8           0       -4.347230   16.548540    3.467530
     11          6           0       -6.142620   15.100820    2.812420
     12          8           0       -7.553030   14.905240    2.786210
     13          1           0       -4.855360   15.274440   10.023730
     14          1           0       -4.065980   16.038890    8.036170
     15          1           0       -5.561070   15.088860    7.924460
     16          1           0       -5.444050   18.141760    8.072100
     17          1           0       -7.296550   17.238530    8.877750
     18          1           0       -4.526210   17.506190    5.918940
     19          1           0       -5.867300   19.279450    6.161030
     20          1           0       -5.561080   15.256230    5.520740
     21          1           0       -7.588780   15.680940    6.275740
     22          1           0       -6.273620   17.207110    3.271370
     23          1           0       -4.158500   17.424910    3.862090
     24          1           0       -5.808540   15.243440    1.783070
     25          1           0       -5.667540   14.198880    3.204690
     26          1           0       -7.686680   14.095860    2.248700
 ---------------------------------------------------------------------
                    Distance matrix (angstroms):
                    1          2          3          4          5
     1  O    0.000000
     2  C    1.424328   0.000000
     3  C    2.439927   1.549501   0.000000
     4  O    2.876038   2.441413   1.427099   0.000000
     5  C    3.848154   2.617430   1.560680   2.459978   0.000000
     6  O    4.857972   3.832581   2.424440   2.833145   1.429167
     7  C    4.568866   3.225937   2.656843   3.135239   1.562209
     8  O    4.862780   3.745173   3.062837   2.849722   2.446039
     9  C    6.043200   4.655676   4.043806   4.573815   2.620028
    10  O    6.303724   4.893544   4.452387   5.331586   3.000651
    11  C    6.996939   5.627187   5.256037   5.614569   4.003222
    12  O    7.359857   6.098665   5.620911   5.617712   4.543103
    13  H    0.979733   1.929303   3.266081   3.731982   4.535484
    14  H    2.047915   1.091215   2.183285   3.382393   2.825928
    15  H    2.044899   1.089562   2.189068   2.703057   2.937490
    16  H    2.614949   2.144904   1.092669   2.027131   2.154265
    17  H    2.457511   2.553180   1.934050   0.980543   3.283877
    18  H    4.093446   2.841716   2.154723   3.369560   1.093743
    19  H    4.789176   3.943784   2.502118   3.029495   1.934635
    20  H    4.256332   2.887599   2.888826   3.504595   2.179655
    21  H    4.138123   3.183322   2.691927   2.258197   2.614198
    22  H    6.585712   5.260737   4.355815   4.727142   2.881479
    23  H    6.078258   4.724776   4.107959   5.081196   2.636612
    24  H    7.964826   6.568990   6.154136   6.581535   4.786717
    25  H    6.761862   5.412082   5.350106   5.793921   4.270173
    26  H    8.066695   6.820310   6.478348   6.467865   5.443792
                    6          7          8          9         10
     6  O    0.000000
     7  C    2.437430   0.000000
     8  O    2.879807   1.428836   0.000000
     9  C    2.998104   1.562740   2.437468   0.000000
    10  O    3.498165   2.460354   3.692613   1.429335   0.000000
    11  C    4.449860   2.601273   2.989704   1.550195   2.397600
    12  O    4.800164   3.090324   2.772594   2.464890   3.666304
    13  H    5.671082   5.066651   5.403943   6.507755   6.698155
    14  H    4.118178   3.485130   4.340729   4.692454   4.605574
    15  H    4.223754   2.985997   3.326836   4.441586   4.844409
    16  H    2.619208   3.554168   4.034294   4.773365   4.994340
    17  H    3.674942   4.037643   3.757572   5.513267   6.200408
    18  H    2.037226   2.170546   3.373186   2.818699   2.637904
    19  H    0.981762   3.270434   3.770570   3.863171   4.125945
    20  H    3.372346   1.092141   2.046162   2.153872   2.712779
    21  H    3.243566   1.934091   0.978957   3.261397   4.375662
    22  H    2.703196   2.189203   2.698692   1.093589   2.045280
    23  H    2.949333   2.641884   3.913095   1.936920   0.979449
    24  H    5.083335   3.533910   3.998546   2.175596   2.583819
    25  H    5.012876   2.818577   3.311730   2.185083   2.707989
    26  H    5.770966   3.940362   3.624982   3.282839   4.318925
                   11         12         13         14         15
    11  C    0.000000
    12  O    1.424147   0.000000
    13  H    7.327358   7.732750   0.000000
    14  H    5.699120   6.403652   2.271101   0.000000
    15  H    5.145026   5.513913   2.222476   1.774917   0.000000
    16  H    6.115517   6.547022   3.518087   2.514444   3.058707
    17  H    6.533727   6.528161   3.336215   3.547390   2.922624
    18  H    4.248418   5.073517   4.683839   2.616762   3.307042
    19  H    5.361897   5.776228   5.655491   4.154772   4.556809
    20  H    2.774408   3.401281   4.557992   3.029071   2.409540
    21  H    3.797697   3.574886   4.656636   3.954410   2.679635
    22  H    2.159688   2.677849   7.165266   5.379752   5.161972
    23  H    3.231089   4.362234   6.563227   4.399154   4.891542
    24  H    1.091564   2.040567   8.295661   6.539917   6.148317
    25  H    1.092279   2.056488   6.950955   5.412378   4.804126
    26  H    1.926615   0.980752   8.358021   7.097862   6.141540
                   16         17         18         19         20
    16  H    0.000000
    17  H    2.212838   0.000000
    18  H    2.425382   4.062140   0.000000
    19  H    2.263994   3.686282   2.236421   0.000000
    20  H    3.853494   4.267421   2.508354   4.085345   0.000000
    21  H    3.725911   3.046628   3.583040   3.990730   2.204988
    22  H    4.960722   5.699024   3.186302   3.579081   3.061586
    23  H    4.459899   5.919370   2.091040   3.412395   3.069450
    24  H    6.934336   7.518580   4.885676   5.954777   3.745875
    25  H    6.268009   6.639033   4.428102   5.881500   2.548217
    26  H    7.437115   7.346624   5.923646   6.744337   4.070735
                   21         22         23         24         25
    21  H    0.000000
    22  H    3.617330   0.000000
    23  H    4.542462   2.206835   0.000000
    24  H    4.852293   2.507456   3.435661   0.000000
    25  H    3.913951   3.069402   3.621691   1.769743   0.000000
    26  H    4.328870   3.566857   5.112109   2.249702   2.236394
                   26
    26  H    0.000000
 Stoichiometry    C6H14O6
 Framework group  C1[X(C6H14O6)]
 Deg. of freedom    72
 Full point group                 C1      NOp   1
 Largest Abelian subgroup         C1      NOp   1
 Largest concise Abelian subgroup C1      NOp   1
                         Standard orientation:                         
 ---------------------------------------------------------------------
 Center     Atomic      Atomic             Coordinates (Angstroms)
 Number     Number       Type             X           Y           Z
 ---------------------------------------------------------------------
      1          8           0        3.866505   -0.581043   -1.046377
      2          6           0        2.486836   -0.233307   -1.111964
      3          6           0        2.009384    0.320731    0.254065
      4          8           0        2.160621   -0.672787    1.267309
      5          6           0        0.557109    0.892231    0.251948
      6          8           0        0.286224    1.433221    1.546734
      7          6           0       -0.584734   -0.101277   -0.134877
      8          8           0       -0.597591   -1.198324    0.780489
      9          6           0       -2.005442    0.548615   -0.172093
     10          8           0       -2.024949    1.661094   -1.069315
     11          6           0       -3.116604   -0.428694   -0.633926
     12          8           0       -3.312510   -1.487625    0.297997
     13          1           0        4.076530   -0.967712   -1.921736
     14          1           0        2.360516    0.519665   -1.891597
     15          1           0        1.925075   -1.125406   -1.387154
     16          1           0        2.679669    1.140336    0.524048
     17          1           0        3.115386   -0.896090    1.272228
     18          1           0        0.539093    1.728209   -0.453098
     19          1           0        0.998198    2.090285    1.705537
     20          1           0       -0.388222   -0.501399   -1.131902
     21          1           0        0.242459   -1.676110    0.624307
     22          1           0       -2.267252    0.921450    0.822084
     23          1           0       -1.450079    2.339342   -0.658433
     24          1           0       -4.062053    0.108556   -0.728796
     25          1           0       -2.866421   -0.855935   -1.607551
     26          1           0       -4.008600   -2.051273   -0.101547
 ---------------------------------------------------------------------
 Rotational constants (GHZ):           1.4663162           0.4583997           0.4422739
 Leave Link  202 at Mon Feb 22 20:59:28 2021, MaxMem=   104857600 cpu:               0.8 elap:               0.1
 (Enter /sw/arch/RedHatEnterpriseServer7/EB_production/2019/software/Gaussian/g16.c01/l301.exe)
 Standard basis: TZVP (5D, 7F)
 Ernie: Thresh=  0.10000D-02 Tol=  0.10000D-05 Strict=F.
 There are   324 symmetry adapted cartesian basis functions of A   symmetry.
 There are   312 symmetry adapted basis functions of A   symmetry.
   312 basis functions,   532 primitive gaussians,   324 cartesian basis functions
    49 alpha electrons       49 beta electrons
       nuclear repulsion energy       811.6304344823 Hartrees.
 IExCor=  404 DFT=T Ex=B Corr=P86 ExCW=0 ScaHFX=  0.000000
 ScaDFX=  1.000000  1.000000  1.000000  1.000000 ScalE2=  1.000000  1.000000
 IRadAn=      5 IRanWt=     -1 IRanGd=            0 ICorTp=0 IEmpDi=131
 NAtoms=   26 NActive=   26 NUniq=   26 SFac= 1.00D+00 NAtFMM=   60 NAOKFM=F Big=F
 Integral buffers will be    131072 words long.
 Raffenetti 2 integral format.
 Two-electron integral symmetry is turned on.
 R6Disp:  Grimme-D3 Dispersion energy=       -0.0300595300 Hartrees.
 Nuclear repulsion after empirical dispersion term =      811.6003749523 Hartrees.
 ------------------------------------------------------------------------------
 Polarizable Continuum Model (PCM)
 =================================
 Model                : PCM.
 Atomic radii         : UFF (Universal Force Field).
 Polarization charges : Total charges.
 Charge compensation  : None.
 Solution method      : On-the-fly selection.
 Cavity type          : Scaled VdW (van der Waals Surface) (Alpha=1.100).
 Cavity algorithm     : GePol (No added spheres)
                        Default sphere list used, NSphG=   26.
                        Lebedev-Laikov grids with approx.  5.0 points / Ang**2.
                        Smoothing algorithm: York/Karplus (Gamma=1.0000).
                        Polarization charges: spherical gaussians, with
                                              point-specific exponents (IZeta= 3).
                        Self-potential: point-specific (ISelfS= 7).
                        Self-field    : sphere-specific E.n sum rule (ISelfD= 2).
 1st derivatives      : Analytical E(r).r(x)/FMM algorithm (CHGder, D1EAlg=3).
                        Cavity 1st derivative terms included.
 Solvent              : Water, Eps=  78.355300 Eps(inf)=   1.777849
 ------------------------------------------------------------------------------
 GePol: Number of generator spheres                  =      26
 GePol: Total number of spheres                      =      26
 GePol: Number of exposed spheres                    =      26 (100.00%)
 GePol: Number of points                             =    1851
 GePol: Average weight of points                     =       0.13
 GePol: Minimum weight of points                     =   0.50D-09
 GePol: Maximum weight of points                     =    0.20321
 GePol: Number of points with low weight             =     106
 GePol: Fraction of low-weight points (<1% of avg)   =       5.73%
 GePol: Cavity surface area                          =    247.197 Ang**2
 GePol: Cavity volume                                =    254.096 Ang**3
 Leave Link  301 at Mon Feb 22 20:59:28 2021, MaxMem=   104857600 cpu:               1.7 elap:               0.1
 (Enter /sw/arch/RedHatEnterpriseServer7/EB_production/2019/software/Gaussian/g16.c01/l302.exe)
 NPDir=0 NMtPBC=     1 NCelOv=     1 NCel=       1 NClECP=     1 NCelD=      1
         NCelK=      1 NCelE2=     1 NClLst=     1 CellRange=     0.0.
 One-electron integrals computed using PRISM.
 One-electron integral symmetry used in STVInt
 PrsmSu:  requested number of processors reduced to:  27 ShMem   1 Linda.
 NBasis=   312 RedAO= T EigKep=  1.18D-04  NBF=   312
 NBsUse=   312 1.00D-06 EigRej= -1.00D+00 NBFU=   312
 Precomputing XC quadrature grid using
 IXCGrd= 4 IRadAn=           5 IRanWt=          -1 IRanGd=           0 AccXCQ= 0.00D+00.
 Generated NRdTot=       0 NPtTot=           0 NUsed=           0 NTot=          32
 NSgBfM=   319   319   319   319   319 MxSgAt=    26 MxSgA2=    26.
 Leave Link  302 at Mon Feb 22 20:59:28 2021, MaxMem=   104857600 cpu:               8.3 elap:               0.3
 (Enter /sw/arch/RedHatEnterpriseServer7/EB_production/2019/software/Gaussian/g16.c01/l303.exe)
 DipDrv:  MaxL=1.
 Leave Link  303 at Mon Feb 22 20:59:29 2021, MaxMem=   104857600 cpu:               4.4 elap:               0.2
 (Enter /sw/arch/RedHatEnterpriseServer7/EB_production/2019/software/Gaussian/g16.c01/l401.exe)
 ExpMin= 9.52D-02 ExpMax= 2.70D+04 ExpMxC= 9.22D+02 IAcc=3 IRadAn=         5 AccDes= 0.00D+00
 Harris functional with IExCor=  404 and IRadAn=       5 diagonalized for initial guess.
 HarFok:  IExCor=  404 AccDes= 0.00D+00 IRadAn=         5 IDoV= 1 UseB2=F ITyADJ=14
 ICtDFT=  3500011 ScaDFX=  1.000000  1.000000  1.000000  1.000000
 FoFCou: FMM=F IPFlag=           0 FMFlag=      100000 FMFlg1=           0
         NFxFlg=           0 DoJE=T BraDBF=F KetDBF=T FulRan=T
         wScrn=  0.000000 ICntrl=       500 IOpCl=  0 I1Cent=   200000004 NGrid=           0
         NMat0=    1 NMatS0=      1 NMatT0=    0 NMatD0=    1 NMtDS0=    0 NMtDT0=    0
 Petite list used in FoFCou.
 Harris En= -688.845638007141    
 JPrj=0 DoOrth=F DoCkMO=F.
 Leave Link  401 at Mon Feb 22 20:59:29 2021, MaxMem=   104857600 cpu:              16.7 elap:               0.6
 (Enter /sw/arch/RedHatEnterpriseServer7/EB_production/2019/software/Gaussian/g16.c01/l502.exe)
 Integral symmetry usage will be decided dynamically.
 Closed shell SCF:
 Using DIIS extrapolation, IDIIS=  1040.
 NGot=   104857600 LenX=   104633290 LenY=   104527873
 Requested convergence on RMS density matrix=1.00D-08 within 128 cycles.
 Requested convergence on MAX density matrix=1.00D-06.
 Requested convergence on             energy=1.00D-06.
 No special actions if energy rises.
 Fock matrices will be formed incrementally for  20 cycles.

 Cycle   1  Pass 1  IDiag  1:
 FoFJK:  IHMeth= 1 ICntrl=     500 DoSepK=F KAlg= 0 I1Cent=           0 FoldK=F
 IRaf= 880000000 NMat=       1 IRICut=       1 DoRegI=T DoRafI=F ISym2E= 0 IDoP0=0 IntGTp=1.
 FoFCou: FMM=F IPFlag=           0 FMFlag=      100000 FMFlg1=           0
         NFxFlg=           0 DoJE=T BraDBF=F KetDBF=F FulRan=T
         wScrn=  0.000000 ICntrl=       500 IOpCl=  0 I1Cent=           0 NGrid=           0
         NMat0=    1 NMatS0=      1 NMatT0=    0 NMatD0=    1 NMtDS0=    0 NMtDT0=    0
 Symmetry not used in FoFCou.
 Inv3:  Mode=1 IEnd=    10278603.
 Iteration    1 A*A^-1 deviation from unit magnitude is 3.33D-15 for    917.
 Iteration    1 A*A^-1 deviation from orthogonality  is 2.22D-15 for   1667     59.
 Iteration    1 A^-1*A deviation from unit magnitude is 3.00D-15 for    604.
 Iteration    1 A^-1*A deviation from orthogonality  is 3.76D-14 for   1158   1064.
 E= -688.369770369750    
 DIIS: error= 2.43D-02 at cycle   1 NSaved=   1.
 NSaved= 1 IEnMin= 1 EnMin= -688.369770369750     IErMin= 1 ErrMin= 2.43D-02
 ErrMax= 2.43D-02  0.00D+00 EMaxC= 1.00D-01 BMatC= 3.80D-01 BMatP= 3.80D-01
 IDIUse=3 WtCom= 7.57D-01 WtEn= 2.43D-01
 Coeff-Com:  0.100D+01
 Coeff-En:   0.100D+01
 Coeff:      0.100D+01
 Gap=     0.168 Goal=   None    Shift=    0.000
 GapD=    0.168 DampG=1.000 DampE=0.500 DampFc=0.5000 IDamp=-1.
 Damping current iteration by 5.00D-01
 RMSDP=1.08D-02 MaxDP=1.06D+00              OVMax= 1.84D-01

 Cycle   2  Pass 1  IDiag  1:
 RMSU=  5.32D-03    CP:  1.08D+00
 E= -688.404457552577     Delta-E=       -0.034687182827 Rises=F Damp=T
 DIIS: error= 1.15D-02 at cycle   2 NSaved=   2.
 NSaved= 2 IEnMin= 2 EnMin= -688.404457552577     IErMin= 2 ErrMin= 1.15D-02
 ErrMax= 1.15D-02  0.00D+00 EMaxC= 1.00D-01 BMatC= 8.95D-02 BMatP= 3.80D-01
 IDIUse=3 WtCom= 8.85D-01 WtEn= 1.15D-01
 Coeff-Com:  0.306D+00 0.694D+00
 Coeff-En:   0.451D+00 0.549D+00
 Coeff:      0.323D+00 0.677D+00
 Gap=     0.213 Goal=   None    Shift=    0.000
 RMSDP=3.00D-03 MaxDP=3.20D-01 DE=-3.47D-02 OVMax= 1.17D-01

 Cycle   3  Pass 1  IDiag  1:
 RMSU=  1.03D-03    CP:  1.03D+00  4.83D-01
 E= -688.655950074651     Delta-E=       -0.251492522074 Rises=F Damp=F
 DIIS: error= 3.44D-03 at cycle   3 NSaved=   3.
 NSaved= 3 IEnMin= 3 EnMin= -688.655950074651     IErMin= 3 ErrMin= 3.44D-03
 ErrMax= 3.44D-03  0.00D+00 EMaxC= 1.00D-01 BMatC= 1.09D-02 BMatP= 8.95D-02
 IDIUse=3 WtCom= 9.66D-01 WtEn= 3.44D-02
 Coeff-Com:  0.114D+00 0.296D+00 0.590D+00
 Coeff-En:   0.000D+00 0.000D+00 0.100D+01
 Coeff:      0.110D+00 0.286D+00 0.604D+00
 Gap=     0.214 Goal=   None    Shift=    0.000
 RMSDP=6.13D-04 MaxDP=2.31D-02 DE=-2.51D-01 OVMax= 2.05D-02

 Cycle   4  Pass 1  IDiag  1:
 RMSU=  4.96D-04    CP:  1.04D+00  5.06D-01  6.96D-01
 E= -688.663227886398     Delta-E=       -0.007277811747 Rises=F Damp=F
 DIIS: error= 1.97D-03 at cycle   4 NSaved=   4.
 NSaved= 4 IEnMin= 4 EnMin= -688.663227886398     IErMin= 4 ErrMin= 1.97D-03
 ErrMax= 1.97D-03  0.00D+00 EMaxC= 1.00D-01 BMatC= 3.59D-03 BMatP= 1.09D-02
 IDIUse=3 WtCom= 9.80D-01 WtEn= 1.97D-02
 Coeff-Com:  0.357D-01 0.822D-01 0.368D+00 0.515D+00
 Coeff-En:   0.000D+00 0.000D+00 0.250D+00 0.750D+00
 Coeff:      0.350D-01 0.806D-01 0.365D+00 0.519D+00
 Gap=     0.212 Goal=   None    Shift=    0.000
 RMSDP=2.89D-04 MaxDP=1.43D-02 DE=-7.28D-03 OVMax= 7.76D-03

 Cycle   5  Pass 1  IDiag  1:
 RMSU=  1.35D-04    CP:  1.04D+00  4.96D-01  7.94D-01  5.62D-01
 E= -688.666365452434     Delta-E=       -0.003137566037 Rises=F Damp=F
 DIIS: error= 3.28D-04 at cycle   5 NSaved=   5.
 NSaved= 5 IEnMin= 5 EnMin= -688.666365452434     IErMin= 5 ErrMin= 3.28D-04
 ErrMax= 3.28D-04  0.00D+00 EMaxC= 1.00D-01 BMatC= 8.77D-05 BMatP= 3.59D-03
 IDIUse=3 WtCom= 9.97D-01 WtEn= 3.28D-03
 Coeff-Com:  0.898D-02 0.128D-01 0.118D+00 0.215D+00 0.645D+00
 Coeff-En:   0.000D+00 0.000D+00 0.000D+00 0.000D+00 0.100D+01
 Coeff:      0.895D-02 0.127D-01 0.118D+00 0.214D+00 0.646D+00
 Gap=     0.213 Goal=   None    Shift=    0.000
 RMSDP=5.22D-05 MaxDP=1.67D-03 DE=-3.14D-03 OVMax= 1.40D-03

 Cycle   6  Pass 1  IDiag  1:
 RMSU=  3.32D-05    CP:  1.04D+00  4.92D-01  7.97D-01  5.83D-01  7.45D-01
 E= -688.666412527346     Delta-E=       -0.000047074912 Rises=F Damp=F
 DIIS: error= 2.38D-04 at cycle   6 NSaved=   6.
 NSaved= 6 IEnMin= 6 EnMin= -688.666412527346     IErMin= 6 ErrMin= 2.38D-04
 ErrMax= 2.38D-04  0.00D+00 EMaxC= 1.00D-01 BMatC= 2.72D-05 BMatP= 8.77D-05
 IDIUse=3 WtCom= 9.98D-01 WtEn= 2.38D-03
 Coeff-Com:  0.390D-02 0.287D-02 0.553D-01 0.109D+00 0.426D+00 0.403D+00
 Coeff-En:   0.000D+00 0.000D+00 0.000D+00 0.000D+00 0.174D+00 0.826D+00
 Coeff:      0.389D-02 0.286D-02 0.551D-01 0.109D+00 0.425D+00 0.404D+00
 Gap=     0.212 Goal=   None    Shift=    0.000
 RMSDP=1.92D-05 MaxDP=6.76D-04 DE=-4.71D-05 OVMax= 6.22D-04

 Cycle   7  Pass 1  IDiag  1:
 RMSU=  1.07D-05    CP:  1.04D+00  4.92D-01  7.96D-01  5.83D-01  7.48D-01
                    CP:  5.26D-01
 E= -688.666430625449     Delta-E=       -0.000018098103 Rises=F Damp=F
 DIIS: error= 3.22D-05 at cycle   7 NSaved=   7.
 NSaved= 7 IEnMin= 7 EnMin= -688.666430625449     IErMin= 7 ErrMin= 3.22D-05
 ErrMax= 3.22D-05  0.00D+00 EMaxC= 1.00D-01 BMatC= 5.28D-07 BMatP= 2.72D-05
 IDIUse=1 WtCom= 1.00D+00 WtEn= 0.00D+00
 Coeff-Com:  0.117D-02 0.117D-03 0.147D-01 0.300D-01 0.129D+00 0.179D+00
 Coeff-Com:  0.646D+00
 Coeff:      0.117D-02 0.117D-03 0.147D-01 0.300D-01 0.129D+00 0.179D+00
 Coeff:      0.646D+00
 Gap=     0.212 Goal=   None    Shift=    0.000
 RMSDP=4.18D-06 MaxDP=1.18D-04 DE=-1.81D-05 OVMax= 9.80D-05

 Cycle   8  Pass 1  IDiag  1:
 RMSU=  1.92D-06    CP:  1.04D+00  4.92D-01  7.96D-01  5.84D-01  7.58D-01
                    CP:  5.53D-01  6.91D-01
 E= -688.666431111599     Delta-E=       -0.000000486150 Rises=F Damp=F
 DIIS: error= 6.90D-06 at cycle   8 NSaved=   8.
 NSaved= 8 IEnMin= 8 EnMin= -688.666431111599     IErMin= 8 ErrMin= 6.90D-06
 ErrMax= 6.90D-06  0.00D+00 EMaxC= 1.00D-01 BMatC= 4.02D-08 BMatP= 5.28D-07
 IDIUse=1 WtCom= 1.00D+00 WtEn= 0.00D+00
 Coeff-Com:  0.368D-03-0.143D-03 0.377D-02 0.763D-02 0.349D-01 0.584D-01
 Coeff-Com:  0.299D+00 0.596D+00
 Coeff:      0.368D-03-0.143D-03 0.377D-02 0.763D-02 0.349D-01 0.584D-01
 Coeff:      0.299D+00 0.596D+00
 Gap=     0.213 Goal=   None    Shift=    0.000
 RMSDP=1.06D-06 MaxDP=2.71D-05 DE=-4.86D-07 OVMax= 3.74D-05

 Cycle   9  Pass 1  IDiag  1:
 RMSU=  7.99D-07    CP:  1.04D+00  4.92D-01  7.96D-01  5.84D-01  7.56D-01
                    CP:  5.53D-01  7.20D-01  7.86D-01
 E= -688.666431152227     Delta-E=       -0.000000040628 Rises=F Damp=F
 DIIS: error= 3.27D-06 at cycle   9 NSaved=   9.
 NSaved= 9 IEnMin= 9 EnMin= -688.666431152227     IErMin= 9 ErrMin= 3.27D-06
 ErrMax= 3.27D-06  0.00D+00 EMaxC= 1.00D-01 BMatC= 8.55D-09 BMatP= 4.02D-08
 IDIUse=1 WtCom= 1.00D+00 WtEn= 0.00D+00
 Coeff-Com:  0.529D-04-0.103D-03 0.369D-04-0.189D-04 0.744D-03 0.617D-02
 Coeff-Com:  0.749D-01 0.353D+00 0.565D+00
 Coeff:      0.529D-04-0.103D-03 0.369D-04-0.189D-04 0.744D-03 0.617D-02
 Coeff:      0.749D-01 0.353D+00 0.565D+00
 Gap=     0.213 Goal=   None    Shift=    0.000
 RMSDP=4.60D-07 MaxDP=3.02D-05 DE=-4.06D-08 OVMax= 1.36D-05

 Cycle  10  Pass 1  IDiag  1:
 RMSU=  2.12D-07    CP:  1.04D+00  4.92D-01  7.96D-01  5.84D-01  7.56D-01
                    CP:  5.55D-01  7.31D-01  8.50D-01  6.34D-01
 E= -688.666431164474     Delta-E=       -0.000000012247 Rises=F Damp=F
 DIIS: error= 8.80D-07 at cycle  10 NSaved=  10.
 NSaved=10 IEnMin=10 EnMin= -688.666431164474     IErMin=10 ErrMin= 8.80D-07
 ErrMax= 8.80D-07  0.00D+00 EMaxC= 1.00D-01 BMatC= 4.47D-10 BMatP= 8.55D-09
 IDIUse=1 WtCom= 1.00D+00 WtEn= 0.00D+00
 Coeff-Com:  0.211D-04-0.552D-04-0.732D-04-0.206D-03-0.496D-03 0.192D-02
 Coeff-Com:  0.352D-01 0.190D+00 0.332D+00 0.442D+00
 Coeff:      0.211D-04-0.552D-04-0.732D-04-0.206D-03-0.496D-03 0.192D-02
 Coeff:      0.352D-01 0.190D+00 0.332D+00 0.442D+00
 Gap=     0.213 Goal=   None    Shift=    0.000
 RMSDP=1.13D-07 MaxDP=5.11D-06 DE=-1.22D-08 OVMax= 3.10D-06

 Cycle  11  Pass 1  IDiag  1:
 RMSU=  6.72D-08    CP:  1.04D+00  4.92D-01  7.96D-01  5.84D-01  7.56D-01
                    CP:  5.55D-01  7.31D-01  8.46D-01  6.81D-01  6.39D-01
 E= -688.666431159652     Delta-E=        0.000000004823 Rises=F Damp=F
 DIIS: error= 2.80D-07 at cycle  11 NSaved=  11.
 NSaved=11 IEnMin=10 EnMin= -688.666431164474     IErMin=11 ErrMin= 2.80D-07
 ErrMax= 2.80D-07  0.00D+00 EMaxC= 1.00D-01 BMatC= 4.14D-11 BMatP= 4.47D-10
 IDIUse=1 WtCom= 1.00D+00 WtEn= 0.00D+00
 Coeff-Com:  0.292D-05-0.140D-04-0.464D-04-0.109D-03-0.398D-03 0.550D-04
 Coeff-Com:  0.763D-02 0.482D-01 0.932D-01 0.256D+00 0.595D+00
 Coeff:      0.292D-05-0.140D-04-0.464D-04-0.109D-03-0.398D-03 0.550D-04
 Coeff:      0.763D-02 0.482D-01 0.932D-01 0.256D+00 0.595D+00
 Gap=     0.213 Goal=   None    Shift=    0.000
 RMSDP=3.58D-08 MaxDP=1.90D-06 DE= 4.82D-09 OVMax= 8.91D-07

 Cycle  12  Pass 1  IDiag  1:
 RMSU=  1.49D-08    CP:  1.04D+00  4.92D-01  7.96D-01  5.84D-01  7.56D-01
                    CP:  5.55D-01  7.31D-01  8.49D-01  6.76D-01  6.83D-01
                    CP:  6.29D-01
 E= -688.666431164778     Delta-E=       -0.000000005127 Rises=F Damp=F
 DIIS: error= 2.11D-08 at cycle  12 NSaved=  12.
 NSaved=12 IEnMin=12 EnMin= -688.666431164778     IErMin=12 ErrMin= 2.11D-08
 ErrMax= 2.11D-08  0.00D+00 EMaxC= 1.00D-01 BMatC= 6.40D-13 BMatP= 4.14D-11
 IDIUse=1 WtCom= 1.00D+00 WtEn= 0.00D+00
 Coeff-Com:  0.243D-06-0.273D-05-0.116D-04-0.268D-04-0.106D-03-0.407D-04
 Coeff-Com:  0.133D-02 0.925D-02 0.191D-01 0.708D-01 0.210D+00 0.690D+00
 Coeff:      0.243D-06-0.273D-05-0.116D-04-0.268D-04-0.106D-03-0.407D-04
 Coeff:      0.133D-02 0.925D-02 0.191D-01 0.708D-01 0.210D+00 0.690D+00
 Gap=     0.213 Goal=   None    Shift=    0.000
 RMSDP=5.01D-09 MaxDP=1.92D-07 DE=-5.13D-09 OVMax= 1.41D-07

 Error on total polarization charges =  0.01077
 SCF Done:  E(RB-P86) =  -688.666431165     A.U. after   12 cycles
            NFock= 12  Conv=0.50D-08     -V/T= 2.0042
 KE= 6.857995921814D+02 PE=-3.241642444748D+03 EE= 1.055576046449D+03
 Leave Link  502 at Mon Feb 22 20:59:49 2021, MaxMem=   104857600 cpu:             607.2 elap:              19.4
 (Enter /sw/arch/RedHatEnterpriseServer7/EB_production/2019/software/Gaussian/g16.c01/l601.exe)
 Copying SCF densities to generalized density rwf, IOpCl= 0 IROHF=0.

 **********************************************************************

            Population analysis using the SCF Density.

 **********************************************************************

 Orbital symmetries:
       Occupied  (A) (A) (A) (A) (A) (A) (A) (A) (A) (A) (A) (A)
                 (A) (A) (A) (A) (A) (A) (A) (A) (A) (A) (A) (A)
                 (A) (A) (A) (A) (A) (A) (A) (A) (A) (A) (A) (A)
                 (A) (A) (A) (A) (A) (A) (A) (A) (A) (A) (A) (A)
                 (A)
       Virtual   (A) (A) (A) (A) (A) (A) (A) (A) (A) (A) (A) (A)
                 (A) (A) (A) (A) (A) (A) (A) (A) (A) (A) (A) (A)
                 (A) (A) (A) (A) (A) (A) (A) (A) (A) (A) (A) (A)
                 (A) (A) (A) (A) (A) (A) (A) (A) (A) (A) (A) (A)
                 (A) (A) (A) (A) (A) (A) (A) (A) (A) (A) (A) (A)
                 (A) (A) (A) (A) (A) (A) (A) (A) (A) (A) (A) (A)
                 (A) (A) (A) (A) (A) (A) (A) (A) (A) (A) (A) (A)
                 (A) (A) (A) (A) (A) (A) (A) (A) (A) (A) (A) (A)
                 (A) (A) (A) (A) (A) (A) (A) (A) (A) (A) (A) (A)
                 (A) (A) (A) (A) (A) (A) (A) (A) (A) (A) (A) (A)
                 (A) (A) (A) (A) (A) (A) (A) (A) (A) (A) (A) (A)
                 (A) (A) (A) (A) (A) (A) (A) (A) (A) (A) (A) (A)
                 (A) (A) (A) (A) (A) (A) (A) (A) (A) (A) (A) (A)
                 (A) (A) (A) (A) (A) (A) (A) (A) (A) (A) (A) (A)
                 (A) (A) (A) (A) (A) (A) (A) (A) (A) (A) (A) (A)
                 (A) (A) (A) (A) (A) (A) (A) (A) (A) (A) (A) (A)
                 (A) (A) (A) (A) (A) (A) (A) (A) (A) (A) (A) (A)
                 (A) (A) (A) (A) (A) (A) (A) (A) (A) (A) (A) (A)
                 (A) (A) (A) (A) (A) (A) (A) (A) (A) (A) (A) (A)
                 (A) (A) (A) (A) (A) (A) (A) (A) (A) (A) (A) (A)
                 (A) (A) (A) (A) (A) (A) (A) (A) (A) (A) (A) (A)
                 (A) (A) (A) (A) (A) (A) (A) (A) (A) (A) (A)
 The electronic state is 1-A.
 Alpha  occ. eigenvalues --  -18.78493 -18.78216 -18.78215 -18.78048 -18.77021
 Alpha  occ. eigenvalues --  -18.76726  -9.96431  -9.96384  -9.95939  -9.95864
 Alpha  occ. eigenvalues --   -9.94936  -9.94460  -0.96835  -0.95738  -0.94980
 Alpha  occ. eigenvalues --   -0.93937  -0.93778  -0.93316  -0.71234  -0.68848
 Alpha  occ. eigenvalues --   -0.64336  -0.59426  -0.55035  -0.52734  -0.50391
 Alpha  occ. eigenvalues --   -0.49638  -0.48371  -0.46291  -0.44497  -0.43694
 Alpha  occ. eigenvalues --   -0.42909  -0.42013  -0.40145  -0.39622  -0.38522
 Alpha  occ. eigenvalues --   -0.36333  -0.36039  -0.33150  -0.32702  -0.32214
 Alpha  occ. eigenvalues --   -0.31947  -0.30124  -0.28201  -0.24651  -0.24543
 Alpha  occ. eigenvalues --   -0.24424  -0.24074  -0.23617  -0.21974
 Alpha virt. eigenvalues --   -0.00723  -0.00114   0.01339   0.03023   0.03417
 Alpha virt. eigenvalues --    0.04586   0.05022   0.06318   0.07474   0.08784
 Alpha virt. eigenvalues --    0.09320   0.09919   0.11087   0.11231   0.12316
 Alpha virt. eigenvalues --    0.12993   0.13327   0.15004   0.15341   0.16894
 Alpha virt. eigenvalues --    0.17223   0.17980   0.18805   0.20056   0.21495
 Alpha virt. eigenvalues --    0.24184   0.25555   0.25859   0.26530   0.27384
 Alpha virt. eigenvalues --    0.28537   0.29281   0.29701   0.30741   0.31047
 Alpha virt. eigenvalues --    0.31434   0.31864   0.33438   0.33840   0.34456
 Alpha virt. eigenvalues --    0.34609   0.36124   0.36726   0.37661   0.38276
 Alpha virt. eigenvalues --    0.38790   0.39832   0.40485   0.40674   0.42240
 Alpha virt. eigenvalues --    0.42561   0.43079   0.43646   0.43830   0.44512
 Alpha virt. eigenvalues --    0.45726   0.46286   0.47216   0.48865   0.49558
 Alpha virt. eigenvalues --    0.50120   0.51096   0.52047   0.53370   0.53946
 Alpha virt. eigenvalues --    0.54360   0.55107   0.55911   0.56903   0.58169
 Alpha virt. eigenvalues --    0.59525   0.60518   0.64571   0.65903   0.67459
 Alpha virt. eigenvalues --    0.68651   0.69578   0.72663   0.73829   0.77750
 Alpha virt. eigenvalues --    0.79417   0.83438   0.85529   0.88110   0.90795
 Alpha virt. eigenvalues --    0.92888   1.01224   1.12013   1.13619   1.16521
 Alpha virt. eigenvalues --    1.19844   1.20121   1.20928   1.22854   1.23259
 Alpha virt. eigenvalues --    1.24520   1.25300   1.25943   1.27534   1.28052
 Alpha virt. eigenvalues --    1.28670   1.31374   1.32356   1.33688   1.35024
 Alpha virt. eigenvalues --    1.35315   1.36167   1.38068   1.39263   1.39867
 Alpha virt. eigenvalues --    1.41632   1.42604   1.44474   1.45006   1.46005
 Alpha virt. eigenvalues --    1.46977   1.47411   1.49739   1.51452   1.52731
 Alpha virt. eigenvalues --    1.54218   1.56052   1.58457   1.58956   1.62135
 Alpha virt. eigenvalues --    1.64414   1.65871   1.67042   1.68069   1.68843
 Alpha virt. eigenvalues --    1.69466   1.71895   1.72620   1.73840   1.75162
 Alpha virt. eigenvalues --    1.77887   1.78326   1.81127   1.82624   1.83801
 Alpha virt. eigenvalues --    1.85277   1.87685   1.88644   1.89918   1.90459
 Alpha virt. eigenvalues --    1.91366   1.93519   1.94120   1.95860   1.96533
 Alpha virt. eigenvalues --    1.98346   1.99445   2.00428   2.01917   2.03182
 Alpha virt. eigenvalues --    2.04507   2.05739   2.07667   2.10153   2.13100
 Alpha virt. eigenvalues --    2.15500   2.18808   2.19711   2.20894   2.23399
 Alpha virt. eigenvalues --    2.25001   2.26670   2.28730   2.29528   2.36509
 Alpha virt. eigenvalues --    2.37916   2.42604   2.43771   2.45469   2.46615
 Alpha virt. eigenvalues --    2.48651   2.49151   2.51143   2.51924   2.53887
 Alpha virt. eigenvalues --    2.54959   2.56131   2.58388   2.58813   2.59025
 Alpha virt. eigenvalues --    2.60551   2.60907   2.62070   2.62672   2.62872
 Alpha virt. eigenvalues --    2.65155   2.65434   2.66137   2.67745   2.70148
 Alpha virt. eigenvalues --    2.73024   2.75163   2.78686   2.82701   2.82818
 Alpha virt. eigenvalues --    2.84425   2.84646   2.85241   2.86475   2.87504
 Alpha virt. eigenvalues --    2.88066   2.89345   2.89784   2.90830   2.91663
 Alpha virt. eigenvalues --    2.92524   2.94084   2.95023   2.96687   2.98097
 Alpha virt. eigenvalues --    2.99407   3.00326   3.02591   3.05371   3.06193
 Alpha virt. eigenvalues --    3.08389   3.10228   3.10880   3.12762   3.14202
 Alpha virt. eigenvalues --    3.15332   3.16920   3.19243   3.19532   3.22993
 Alpha virt. eigenvalues --    3.25329   3.29179   3.32924   3.33582   3.34175
 Alpha virt. eigenvalues --    3.36743   3.41751   3.46451   3.46850   3.84809
 Alpha virt. eigenvalues --    3.86792   3.88435   3.91418   3.93102   3.96585
 Alpha virt. eigenvalues --    4.14862   4.15766   4.16582   4.17170   4.18251
 Alpha virt. eigenvalues --    4.21231  21.62855  21.67630  21.68594  21.74404
 Alpha virt. eigenvalues --   21.74792  21.82691  43.09755  43.13728  43.18622
 Alpha virt. eigenvalues --   43.22981  43.30417  43.34161
          Condensed to atoms (all electrons):
               1          2          3          4          5          6
     1  O    7.973831   0.296671  -0.107140  -0.000526   0.017702  -0.000132
     2  C    0.296671   5.316868  -0.096726  -0.007533   0.047185   0.019110
     3  C   -0.107140  -0.096726   6.195153   0.187776  -0.342442  -0.005911
     4  O   -0.000526  -0.007533   0.187776   8.011914  -0.048204  -0.002572
     5  C    0.017702   0.047185  -0.342442  -0.048204   6.475853   0.173446
     6  O   -0.000132   0.019110  -0.005911  -0.002572   0.173446   7.992545
     7  C   -0.001997  -0.015361   0.025357  -0.037667  -0.414009  -0.069607
     8  O    0.000046  -0.009980   0.003898  -0.010053   0.007853  -0.010476
     9  C    0.000028  -0.000056  -0.003183  -0.002541   0.045108   0.009902
    10  O    0.000000  -0.000787   0.007341   0.000000   0.001260  -0.003879
    11  C   -0.000003  -0.000574   0.001469   0.000035   0.000495  -0.001362
    12  O    0.000000  -0.000045   0.000164   0.000001  -0.003634   0.000012
    13  H    0.302492  -0.033422   0.014257  -0.000515  -0.001849   0.000020
    14  H   -0.058313   0.411901  -0.074868   0.010653   0.024150  -0.000420
    15  H   -0.057822   0.368145   0.009287  -0.012353  -0.040765  -0.000444
    16  H    0.010473  -0.048106   0.350242  -0.061756  -0.041026  -0.015393
    17  H    0.014992  -0.001077  -0.051574   0.302000   0.021367  -0.001119
    18  H   -0.000314   0.001612   0.030270   0.003710   0.329811  -0.060384
    19  H   -0.000053   0.000260   0.009203   0.000990  -0.044871   0.296393
    20  H   -0.000039   0.012139  -0.034632   0.000549  -0.052896   0.003963
    21  H    0.000058  -0.002119   0.011338   0.026601  -0.022045   0.000151
    22  H    0.000001   0.000102  -0.002657   0.000080  -0.018995   0.016025
    23  H    0.000001  -0.000043  -0.001604  -0.000013   0.018324   0.002444
    24  H    0.000000  -0.000011   0.000040  -0.000000  -0.002503   0.000031
    25  H    0.000000   0.000185  -0.000540  -0.000001   0.002714   0.000050
    26  H   -0.000000   0.000002   0.000000   0.000000   0.000127  -0.000001
               7          8          9         10         11         12
     1  O   -0.001997   0.000046   0.000028   0.000000  -0.000003   0.000000
     2  C   -0.015361  -0.009980  -0.000056  -0.000787  -0.000574  -0.000045
     3  C    0.025357   0.003898  -0.003183   0.007341   0.001469   0.000164
     4  O   -0.037667  -0.010053  -0.002541   0.000000   0.000035   0.000001
     5  C   -0.414009   0.007853   0.045108   0.001260   0.000495  -0.003634
     6  O   -0.069607  -0.010476   0.009902  -0.003879  -0.001362   0.000012
     7  C    6.397586   0.224655  -0.221133  -0.026289  -0.018713   0.004696
     8  O    0.224655   7.960038  -0.088596   0.005206   0.013214  -0.006793
     9  C   -0.221133  -0.088596   5.822493   0.182638   0.066244  -0.104779
    10  O   -0.026289   0.005206   0.182638   7.964353  -0.042034   0.003250
    11  C   -0.018713   0.013214   0.066244  -0.042034   5.179090   0.324988
    12  O    0.004696  -0.006793  -0.104779   0.003250   0.324988   7.963416
    13  H   -0.000061   0.000005  -0.000010   0.000000  -0.000001  -0.000000
    14  H   -0.012772   0.000480  -0.000118   0.000227  -0.000020   0.000001
    15  H    0.030902   0.000007   0.000384  -0.000058   0.000442   0.000005
    16  H    0.028277  -0.000619  -0.000711  -0.000022   0.000119  -0.000001
    17  H   -0.000414   0.000263   0.000197   0.000000  -0.000003   0.000000
    18  H   -0.051114   0.007835  -0.034379   0.015774  -0.000101   0.000032
    19  H    0.013064  -0.001202  -0.000150  -0.000062   0.000050  -0.000002
    20  H    0.392317  -0.054301  -0.007088   0.007412  -0.024249   0.000104
    21  H   -0.022028   0.299453   0.002819  -0.000244   0.001911   0.001658
    22  H   -0.113978   0.006278   0.434265  -0.053603  -0.059106   0.011032
    23  H   -0.015572   0.000113  -0.033417   0.309305   0.009425  -0.000229
    24  H    0.031886  -0.000980  -0.075080   0.013791   0.411613  -0.051857
    25  H   -0.054522   0.001064   0.022552  -0.000849   0.369639  -0.063030
    26  H    0.000697   0.001257   0.014368  -0.000279  -0.035567   0.294821
              13         14         15         16         17         18
     1  O    0.302492  -0.058313  -0.057822   0.010473   0.014992  -0.000314
     2  C   -0.033422   0.411901   0.368145  -0.048106  -0.001077   0.001612
     3  C    0.014257  -0.074868   0.009287   0.350242  -0.051574   0.030270
     4  O   -0.000515   0.010653  -0.012353  -0.061756   0.302000   0.003710
     5  C   -0.001849   0.024150  -0.040765  -0.041026   0.021367   0.329811
     6  O    0.000020  -0.000420  -0.000444  -0.015393  -0.001119  -0.060384
     7  C   -0.000061  -0.012772   0.030902   0.028277  -0.000414  -0.051114
     8  O    0.000005   0.000480   0.000007  -0.000619   0.000263   0.007835
     9  C   -0.000010  -0.000118   0.000384  -0.000711   0.000197  -0.034379
    10  O    0.000000   0.000227  -0.000058  -0.000022   0.000000   0.015774
    11  C   -0.000001  -0.000020   0.000442   0.000119  -0.000003  -0.000101
    12  O   -0.000000   0.000001   0.000005  -0.000001   0.000000   0.000032
    13  H    0.424498  -0.003407  -0.005437  -0.000813  -0.000722   0.000018
    14  H   -0.003407   0.628797  -0.063303  -0.010502   0.001824   0.005023
    15  H   -0.005437  -0.063303   0.606143   0.011992  -0.002409  -0.000129
    16  H   -0.000813  -0.010502   0.011992   0.616792  -0.008656  -0.008622
    17  H   -0.000722   0.001824  -0.002409  -0.008656   0.429133  -0.000476
    18  H    0.000018   0.005023  -0.000129  -0.008622  -0.000476   0.574949
    19  H    0.000004  -0.000023  -0.000048   0.004595  -0.000228  -0.009061
    20  H    0.000027  -0.000228  -0.005500  -0.000356  -0.000051   0.007990
    21  H   -0.000027   0.000583   0.001350   0.000916  -0.000173   0.000568
    22  H   -0.000000   0.000010  -0.000072  -0.000113   0.000000   0.004339
    23  H   -0.000000  -0.000047   0.000011   0.000139   0.000001   0.000019
    24  H   -0.000000  -0.000001   0.000005  -0.000000   0.000000  -0.000070
    25  H    0.000000   0.000009  -0.000097  -0.000005  -0.000000   0.000046
    26  H    0.000000  -0.000000  -0.000001   0.000000  -0.000000   0.000001
              19         20         21         22         23         24
     1  O   -0.000053  -0.000039   0.000058   0.000001   0.000001   0.000000
     2  C    0.000260   0.012139  -0.002119   0.000102  -0.000043  -0.000011
     3  C    0.009203  -0.034632   0.011338  -0.002657  -0.001604   0.000040
     4  O    0.000990   0.000549   0.026601   0.000080  -0.000013  -0.000000
     5  C   -0.044871  -0.052896  -0.022045  -0.018995   0.018324  -0.002503
     6  O    0.296393   0.003963   0.000151   0.016025   0.002444   0.000031
     7  C    0.013064   0.392317  -0.022028  -0.113978  -0.015572   0.031886
     8  O   -0.001202  -0.054301   0.299453   0.006278   0.000113  -0.000980
     9  C   -0.000150  -0.007088   0.002819   0.434265  -0.033417  -0.075080
    10  O   -0.000062   0.007412  -0.000244  -0.053603   0.309305   0.013791
    11  C    0.000050  -0.024249   0.001911  -0.059106   0.009425   0.411613
    12  O   -0.000002   0.000104   0.001658   0.011032  -0.000229  -0.051857
    13  H    0.000004   0.000027  -0.000027  -0.000000  -0.000000  -0.000000
    14  H   -0.000023  -0.000228   0.000583   0.000010  -0.000047  -0.000001
    15  H   -0.000048  -0.005500   0.001350  -0.000072   0.000011   0.000005
    16  H    0.004595  -0.000356   0.000916  -0.000113   0.000139  -0.000000
    17  H   -0.000228  -0.000051  -0.000173   0.000000   0.000001   0.000000
    18  H   -0.009061   0.007990   0.000568   0.004339   0.000019  -0.000070
    19  H    0.440909  -0.000622  -0.000034  -0.000563  -0.000166  -0.000004
    20  H   -0.000622   0.580279  -0.013321   0.014350  -0.001453  -0.000614
    21  H   -0.000034  -0.013321   0.432388  -0.001373  -0.000036   0.000089
    22  H   -0.000563   0.014350  -0.001373   0.633474  -0.013653  -0.019520
    23  H   -0.000166  -0.001453  -0.000036  -0.013653   0.423483   0.000413
    24  H   -0.000004  -0.000614   0.000089  -0.019520   0.000413   0.626213
    25  H    0.000004   0.008522  -0.000471   0.015613  -0.001088  -0.070171
    26  H    0.000000  -0.000083  -0.000047  -0.000425   0.000024  -0.004442
              25         26
     1  O    0.000000  -0.000000
     2  C    0.000185   0.000002
     3  C   -0.000540   0.000000
     4  O   -0.000001   0.000000
     5  C    0.002714   0.000127
     6  O    0.000050  -0.000001
     7  C   -0.054522   0.000697
     8  O    0.001064   0.001257
     9  C    0.022552   0.014368
    10  O   -0.000849  -0.000279
    11  C    0.369639  -0.035567
    12  O   -0.063030   0.294821
    13  H    0.000000   0.000000
    14  H    0.000009  -0.000000
    15  H   -0.000097  -0.000001
    16  H   -0.000005   0.000000
    17  H   -0.000000  -0.000000
    18  H    0.000046   0.000001
    19  H    0.000004   0.000000
    20  H    0.008522  -0.000083
    21  H   -0.000471  -0.000047
    22  H    0.015613  -0.000425
    23  H   -0.001088   0.000024
    24  H   -0.070171  -0.004442
    25  H    0.646768  -0.006469
    26  H   -0.006469   0.445001
 Mulliken charges:
               1
     1  O   -0.389954
     2  C   -0.258338
     3  C   -0.124517
     4  O   -0.360573
     5  C   -0.132154
     6  O   -0.342393
     7  C   -0.074201
     8  O   -0.348663
     9  C   -0.029758
    10  O   -0.382451
    11  C   -0.196999
    12  O   -0.373810
    13  H    0.304943
    14  H    0.140365
    15  H    0.159767
    16  H    0.173158
    17  H    0.297125
    18  H    0.182653
    19  H    0.291616
    20  H    0.167779
    21  H    0.282034
    22  H    0.148487
    23  H    0.303616
    24  H    0.141173
    25  H    0.130077
    26  H    0.291017
 Sum of Mulliken charges =  -0.00000
 Mulliken charges with hydrogens summed into heavy atoms:
               1
     1  O   -0.085011
     2  C    0.041794
     3  C    0.048642
     4  O   -0.063448
     5  C    0.050499
     6  O   -0.050776
     7  C    0.093578
     8  O   -0.066629
     9  C    0.118729
    10  O   -0.078834
    11  C    0.074250
    12  O   -0.082794
 Electronic spatial extent (au):  <R**2>=           2709.8693
 Charge=              0.0000 electrons
 Dipole moment (field-independent basis, Debye):
    X=              3.6195    Y=              1.3493    Z=             -5.2194  Tot=              6.4933
 Quadrupole moment (field-independent basis, Debye-Ang):
   XX=            -63.0979   YY=            -64.6541   ZZ=            -75.8315
   XY=              4.0087   XZ=             -0.6542   YZ=              9.6390
 Traceless Quadrupole moment (field-independent basis, Debye-Ang):
   XX=              4.7633   YY=              3.2071   ZZ=             -7.9703
   XY=              4.0087   XZ=             -0.6542   YZ=              9.6390
 Octapole moment (field-independent basis, Debye-Ang**2):
  XXX=            -25.6944  YYY=              8.2510  ZZZ=            -14.6338  XYY=              9.4498
  XXY=            -37.3922  XXZ=            -24.3643  XZZ=             34.5320  YZZ=             -7.9796
  YYZ=              1.7352  XYZ=             -3.9082
 Hexadecapole moment (field-independent basis, Debye-Ang**3):
 XXXX=          -2119.1607 YYYY=           -435.4781 ZZZZ=           -434.4336 XXXY=             77.4006
 XXXZ=             -0.0576 YYYX=             34.3726 YYYZ=             21.7553 ZZZX=            -56.6914
 ZZZY=             27.9710 XXYY=           -406.0354 XXZZ=           -386.4069 YYZZ=           -149.1753
 XXYZ=             84.8438 YYXZ=              9.1420 ZZXY=             -9.2093
 N-N= 8.116003749523D+02 E-N=-3.241642443622D+03  KE= 6.857995921814D+02
 No NMR shielding tensors so no spin-rotation constants.
 Leave Link  601 at Mon Feb 22 20:59:49 2021, MaxMem=   104857600 cpu:               4.6 elap:               0.2
 (Enter /sw/arch/RedHatEnterpriseServer7/EB_production/2019/software/Gaussian/g16.c01/l701.exe)
 ... and contract with generalized density number  0.
 Compute integral first derivatives.
 R6Disp: Adding Grimme-D3 dispersion energy 1st derivatives to the gradient.
 PrsmSu:  requested number of processors reduced to:  28 ShMem   1 Linda.
 D1PCM: PCM CHGder 1st derivatives, ID1Alg=3 FixD1E=F DoIter=F DoCFld=F I1PDM=0.
 GePol: Maximum number of non-zero 1st derivatives   =     180
 CoulSu:  requested number of processors reduced to:  28 ShMem   1 Linda.
 CoulSu:  requested number of processors reduced to:  29 ShMem   1 Linda.
 Leave Link  701 at Mon Feb 22 20:59:50 2021, MaxMem=   104857600 cpu:              28.1 elap:               0.9
 (Enter /sw/arch/RedHatEnterpriseServer7/EB_production/2019/software/Gaussian/g16.c01/l702.exe)
 L702 exits ... SP integral derivatives will be done elsewhere.
 Leave Link  702 at Mon Feb 22 20:59:51 2021, MaxMem=   104857600 cpu:               0.7 elap:               0.1
 (Enter /sw/arch/RedHatEnterpriseServer7/EB_production/2019/software/Gaussian/g16.c01/l703.exe)
 Integral derivatives from FoFJK, PRISM(SPDF).
 Compute integral first derivatives, UseDBF=F ICtDFT=           0.
 Calling FoFJK, ICntrl=      2527 FMM=F ISym2X=0 I1Cent= 0 IOpClX= 0 NMat=1 NMatS=1 NMatT=0.
 FoFJK:  IHMeth= 1 ICntrl=    2527 DoSepK=F KAlg= 0 I1Cent=           0 FoldK=F
 IRaf=         0 NMat=       1 IRICut=       1 DoRegI=T DoRafI=F ISym2E= 0 IDoP0=0 IntGTp=1.
 FoFCou: FMM=F IPFlag=           0 FMFlag=      100000 FMFlg1=         800
         NFxFlg=           0 DoJE=F BraDBF=F KetDBF=F FulRan=T
         wScrn=  0.000000 ICntrl=      2527 IOpCl=  0 I1Cent=           0 NGrid=           0
         NMat0=    1 NMatS0=      1 NMatT0=    0 NMatD0=    1 NMtDS0=    0 NMtDT0=    0
 Symmetry not used in FoFCou.
 Leave Link  703 at Mon Feb 22 20:59:54 2021, MaxMem=   104857600 cpu:              98.1 elap:               3.1
 (Enter /sw/arch/RedHatEnterpriseServer7/EB_production/2019/software/Gaussian/g16.c01/l716.exe)
 Dipole        = 1.42400634D+00 5.30852313D-01-2.05347223D+00
 ***** Axes restored to original set *****
 -------------------------------------------------------------------
 Center     Atomic                   Forces (Hartrees/Bohr)
 Number     Number              X              Y              Z
 -------------------------------------------------------------------
      1        8          -0.002334982    0.001202648    0.012118022
      2        6           0.001768061    0.006908572   -0.010141098
      3        6           0.007885319   -0.017149435    0.003877835
      4        8          -0.010445736   -0.003162697    0.003209514
      5        6          -0.001963361   -0.004389657    0.002404486
      6        8          -0.001656647    0.008494738   -0.002567105
      7        6          -0.006317302    0.008897530    0.003005020
      8        8          -0.005072042   -0.003388645    0.000921761
      9        6          -0.010838193   -0.004314605    0.003273264
     10        8           0.006666801    0.001333730    0.003883377
     11        6           0.002110063    0.004232068    0.005436580
     12        8          -0.011630812   -0.004725557   -0.004039945
     13        1          -0.004223982    0.006074519    0.001772817
     14        1           0.007961878    0.001234683   -0.008554789
     15        1          -0.004961578   -0.006442677   -0.009444254
     16        1           0.009726923    0.007793797    0.001056508
     17        1          -0.001239380   -0.002026334   -0.004600885
     18        1           0.010353828   -0.006110548    0.003996502
     19        1          -0.004515855   -0.002001983   -0.005935463
     20        1           0.011299765   -0.004254125    0.002722209
     21        1          -0.003337642    0.004990188   -0.001740772
     22        1          -0.009432822    0.003563645    0.000420239
     23        1           0.002362984   -0.004054124   -0.004708833
     24        1           0.010505872    0.005553897   -0.005225751
     25        1           0.009109696   -0.004433099    0.005354098
     26        1          -0.001780856    0.006173472    0.003506662
 -------------------------------------------------------------------
 Cartesian Forces:  Max     0.017149435 RMS     0.006165604
 Leave Link  716 at Mon Feb 22 20:59:54 2021, MaxMem=   104857600 cpu:               0.8 elap:               0.1
 (Enter /sw/arch/RedHatEnterpriseServer7/EB_production/2019/software/Gaussian/g16.c01/l103.exe)

 GradGradGradGradGradGradGradGradGradGradGradGradGradGradGradGradGradGrad
 Berny optimization.
 FormGI is forming the generalized inverse of G from B-inverse, IUseBI=4.
 Internal  Forces:  Max     0.017098886 RMS     0.005836042
 Search for a local minimum.
 Step number   1 out of a maximum of  140
 All quantities printed in internal units (Hartrees-Bohrs-Radians)
 RMS Force = .58360D-02 SwitMx=.10000D-02 MixMth= 1
 Mixed Optimization -- RFO/linear search
 Second derivative matrix not updated -- first step.
 ITU=  0
     Eigenvalues ---    0.00230   0.00230   0.00230   0.00230   0.00230
     Eigenvalues ---    0.01304   0.01306   0.01310   0.01333   0.01370
     Eigenvalues ---    0.01372   0.03704   0.03773   0.03998   0.04058
     Eigenvalues ---    0.04624   0.04665   0.04685   0.04712   0.04822
     Eigenvalues ---    0.05018   0.05611   0.05687   0.07494   0.07516
     Eigenvalues ---    0.07567   0.07855   0.11501   0.11623   0.13788
     Eigenvalues ---    0.13915   0.16000   0.16000   0.16000   0.16000
     Eigenvalues ---    0.16000   0.16000   0.16859   0.17153   0.17590
     Eigenvalues ---    0.17663   0.19746   0.19894   0.19915   0.20272
     Eigenvalues ---    0.22045   0.22056   0.26596   0.26639   0.26763
     Eigenvalues ---    0.27635   0.27694   0.34384   0.34401   0.34506
     Eigenvalues ---    0.34551   0.34566   0.34633   0.34673   0.34863
     Eigenvalues ---    0.41085   0.41109   0.41157   0.41409   0.41815
     Eigenvalues ---    0.41842   0.51044   0.51239   0.51280   0.51437
     Eigenvalues ---    0.51492   0.51588
 RFO step:  Lambda=-2.24307042D-02 EMin= 2.30000000D-03
 Linear search not attempted -- first point.
 Iteration  1 RMS(Cart)=  0.10591106 RMS(Int)=  0.00316687
 Iteration  2 RMS(Cart)=  0.00493920 RMS(Int)=  0.00069939
 Iteration  3 RMS(Cart)=  0.00000985 RMS(Int)=  0.00069934
 Iteration  4 RMS(Cart)=  0.00000001 RMS(Int)=  0.00069934
 ITry= 1 IFail=0 DXMaxC= 3.82D-01 DCOld= 1.00D+10 DXMaxT= 3.00D-01 DXLimC= 3.00D+00 Rises=F
 Variable       Old X    -DE/DX   Delta X   Delta X   Delta X     New X
                                 (Linear)    (Quad)   (Total)
    R1        2.69159   0.01479   0.00000   0.03357   0.03357   2.72516
    R2        1.85143  -0.00627   0.00000  -0.01168  -0.01168   1.83975
    R3        2.92813  -0.01392   0.00000  -0.04648  -0.04648   2.88165
    R4        2.06210   0.00962   0.00000   0.02607   0.02607   2.08817
    R5        2.05897   0.01050   0.00000   0.02831   0.02831   2.08728
    R6        2.69683   0.01124   0.00000   0.02575   0.02575   2.72258
    R7        2.94926  -0.01072   0.00000  -0.03697  -0.03697   2.91229
    R8        2.06485   0.01043   0.00000   0.02839   0.02839   2.09323
    R9        1.85296  -0.00457   0.00000  -0.00854  -0.00854   1.84442
   R10        2.70073   0.01091   0.00000   0.02516   0.02516   2.72590
   R11        2.95215  -0.01271   0.00000  -0.04401  -0.04401   2.90813
   R12        2.06687   0.00884   0.00000   0.02412   0.02412   2.09100
   R13        1.85526  -0.00652   0.00000  -0.01224  -0.01224   1.84302
   R14        2.70011   0.00796   0.00000   0.01834   0.01834   2.71845
   R15        2.95315  -0.00792   0.00000  -0.02747  -0.02747   2.92568
   R16        2.06385   0.00960   0.00000   0.02609   0.02609   2.08994
   R17        1.84996  -0.00271   0.00000  -0.00503  -0.00503   1.84493
   R18        2.70105   0.00854   0.00000   0.01971   0.01971   2.72076
   R19        2.92944  -0.01030   0.00000  -0.03448  -0.03448   2.89497
   R20        2.06658   0.00725   0.00000   0.01977   0.01977   2.08636
   R21        1.85089  -0.00507   0.00000  -0.00943  -0.00943   1.84146
   R22        2.69125   0.01309   0.00000   0.02970   0.02970   2.72095
   R23        2.06276   0.00887   0.00000   0.02405   0.02405   2.08681
   R24        2.06411   0.00954   0.00000   0.02594   0.02594   2.09005
   R25        1.85335  -0.00677   0.00000  -0.01266  -0.01266   1.84069
    A1        1.83678   0.00788   0.00000   0.04319   0.04319   1.87997
    A2        1.92322  -0.01710   0.00000  -0.06938  -0.06929   1.85392
    A3        1.88967   0.01006   0.00000   0.06126   0.06018   1.94985
    A4        1.88720   0.00992   0.00000   0.05293   0.05104   1.93824
    A5        1.92567  -0.00003   0.00000  -0.01352  -0.01281   1.91286
    A6        1.93537  -0.00168   0.00000  -0.02845  -0.02812   1.90725
    A7        1.90164  -0.00054   0.00000   0.00124  -0.00067   1.90097
    A8        1.92235   0.00246   0.00000   0.00467   0.00378   1.92613
    A9        2.00035  -0.00539   0.00000  -0.04024  -0.04072   1.95963
   A10        1.87236   0.00040   0.00000   0.00022  -0.00042   1.87194
   A11        1.93319  -0.00068   0.00000  -0.01228  -0.01266   1.92052
   A12        1.85642   0.00324   0.00000   0.05939   0.05937   1.91579
   A13        1.87181   0.00060   0.00000  -0.00353  -0.00375   1.86806
   A14        1.83931   0.00291   0.00000   0.01594   0.01594   1.85525
   A15        1.88995   0.01242   0.00000   0.06611   0.06568   1.95563
   A16        2.03488  -0.00919   0.00000  -0.05217  -0.05256   1.98232
   A17        1.87139  -0.00260   0.00000  -0.03057  -0.03272   1.83867
   A18        1.90342  -0.00551   0.00000  -0.02417  -0.02293   1.88050
   A19        1.86665   0.00166   0.00000   0.04930   0.04942   1.91608
   A20        1.89065   0.00405   0.00000   0.00010  -0.00152   1.88913
   A21        1.83634   0.00763   0.00000   0.04184   0.04184   1.87818
   A22        1.91371   0.00534   0.00000   0.02743   0.02751   1.94122
   A23        1.98877  -0.00721   0.00000  -0.04573  -0.04632   1.94244
   A24        1.90448  -0.00285   0.00000  -0.03843  -0.03956   1.86492
   A25        1.90326  -0.00038   0.00000   0.00084   0.00114   1.90440
   A26        1.88091   0.00260   0.00000   0.05708   0.05732   1.93823
   A27        1.86941   0.00291   0.00000   0.00400   0.00201   1.87142
   A28        1.83879   0.00597   0.00000   0.03271   0.03271   1.87149
   A29        1.92947  -0.00098   0.00000  -0.01489  -0.01480   1.91467
   A30        1.97856   0.00809   0.00000   0.02635   0.02580   2.00436
   A31        1.91535  -0.00333   0.00000  -0.00580  -0.00602   1.90933
   A32        1.86909  -0.00848   0.00000  -0.05399  -0.05380   1.81530
   A33        1.87763   0.00499   0.00000   0.04149   0.04166   1.91929
   A34        1.89038  -0.00039   0.00000   0.00779   0.00798   1.89836
   A35        1.84173   0.00712   0.00000   0.03902   0.03902   1.88075
   A36        1.95241  -0.00272   0.00000  -0.00695  -0.00668   1.94573
   A37        1.91393  -0.00742   0.00000  -0.05993  -0.06046   1.85347
   A38        1.92620  -0.00353   0.00000  -0.02710  -0.02763   1.89857
   A39        1.87936   0.00640   0.00000   0.04334   0.04274   1.92210
   A40        1.90071   0.00610   0.00000   0.05365   0.05341   1.95412
   A41        1.88960   0.00159   0.00000  -0.00061  -0.00344   1.88616
   A42        1.83214   0.00499   0.00000   0.02736   0.02736   1.85950
    D1        3.08555  -0.00108   0.00000  -0.01812  -0.01810   3.06745
    D2       -1.09015  -0.00515   0.00000  -0.03825  -0.04050  -1.13065
    D3        0.96772   0.00511   0.00000   0.02557   0.02780   0.99552
    D4       -1.06855  -0.00239   0.00000  -0.03410  -0.03429  -1.10284
    D5        3.02098   0.00070   0.00000   0.01001   0.00981   3.03079
    D6        0.94495   0.00294   0.00000   0.03879   0.03852   0.98347
    D7        3.12887  -0.00400   0.00000  -0.05752  -0.05762   3.07125
    D8        0.93522  -0.00091   0.00000  -0.01342  -0.01353   0.92170
    D9       -1.14081   0.00134   0.00000   0.01537   0.01518  -1.12563
   D10        1.02032  -0.00219   0.00000  -0.03133  -0.03095   0.98937
   D11       -1.17333   0.00090   0.00000   0.01278   0.01315  -1.16019
   D12        3.03382   0.00315   0.00000   0.04156   0.04186   3.07568
   D13        1.02693   0.00196   0.00000   0.00034   0.00077   1.02770
   D14       -3.02501  -0.00374   0.00000  -0.05817  -0.05832  -3.08333
   D15       -0.99660  -0.00154   0.00000  -0.03498  -0.03526  -1.03186
   D16       -3.08341  -0.00277   0.00000  -0.01351  -0.01357  -3.09698
   D17        1.04665   0.00110   0.00000   0.00253   0.00361   1.05026
   D18       -1.07485   0.00401   0.00000   0.06117   0.06057  -1.01427
   D19        1.01179  -0.00128   0.00000   0.02215   0.02172   1.03351
   D20       -1.14134   0.00258   0.00000   0.03819   0.03889  -1.10244
   D21        3.02035   0.00550   0.00000   0.09684   0.09586   3.11621
   D22       -1.00707  -0.00513   0.00000  -0.04017  -0.04028  -1.04735
   D23        3.12299  -0.00126   0.00000  -0.02414  -0.02310   3.09989
   D24        1.00149   0.00165   0.00000   0.03451   0.03387   1.03536
   D25        0.97743   0.00384   0.00000   0.02727   0.02858   1.00601
[...]
                 (A) (A) (A) (A) (A) (A) (A) (A) (A) (A) (A) (A)
                 (A) (A) (A) (A) (A) (A) (A) (A) (A) (A) (A) (A)
                 (A) (A) (A) (A) (A) (A) (A) (A) (A) (A) (A) (A)
                 (A) (A) (A) (A) (A) (A) (A) (A) (A) (A) (A) (A)
                 (A) (A) (A) (A) (A) (A) (A) (A) (A) (A) (A) (A)
                 (A) (A) (A) (A) (A) (A) (A) (A) (A) (A) (A) (A)
                 (A) (A) (A) (A) (A) (A) (A) (A) (A) (A) (A) (A)
                 (A) (A) (A) (A) (A) (A) (A) (A) (A) (A) (A) (A)
                 (A) (A) (A) (A) (A) (A) (A) (A) (A) (A) (A) (A)
                 (A) (A) (A) (A) (A) (A) (A) (A) (A) (A) (A) (A)
                 (A) (A) (A) (A) (A) (A) (A) (A) (A) (A) (A) (A)
                 (A) (A) (A) (A) (A) (A) (A) (A) (A) (A) (A) (A)
                 (A) (A) (A) (A) (A) (A) (A) (A) (A) (A) (A) (A)
                 (A) (A) (A) (A) (A) (A) (A) (A) (A) (A) (A) (A)
                 (A) (A) (A) (A) (A) (A) (A) (A) (A) (A) (A) (A)
                 (A) (A) (A) (A) (A) (A) (A) (A) (A) (A) (A) (A)
                 (A) (A) (A) (A) (A) (A) (A) (A) (A) (A) (A)
 The electronic state is 1-A.
 Alpha  occ. eigenvalues --  -18.78961 -18.78704 -18.78366 -18.77575 -18.76514
 Alpha  occ. eigenvalues --  -18.76411  -9.96374  -9.96031  -9.95367  -9.95086
 Alpha  occ. eigenvalues --   -9.95016  -9.94247  -0.96969  -0.95432  -0.94085
 Alpha  occ. eigenvalues --   -0.93530  -0.93226  -0.92163  -0.72399  -0.68853
 Alpha  occ. eigenvalues --   -0.63841  -0.59842  -0.55845  -0.52070  -0.49836
 Alpha  occ. eigenvalues --   -0.49226  -0.47318  -0.46446  -0.44813  -0.43194
 Alpha  occ. eigenvalues --   -0.42181  -0.41197  -0.39628  -0.38270  -0.37981
 Alpha  occ. eigenvalues --   -0.37089  -0.34539  -0.33969  -0.33336  -0.32325
 Alpha  occ. eigenvalues --   -0.31574  -0.30729  -0.27659  -0.25891  -0.24670
 Alpha  occ. eigenvalues --   -0.24443  -0.23720  -0.23556  -0.22939
 Alpha virt. eigenvalues --    0.00287   0.01430   0.01784   0.04383   0.04619
 Alpha virt. eigenvalues --    0.05372   0.06487   0.07265   0.08555   0.08951
 Alpha virt. eigenvalues --    0.09773   0.10699   0.11216   0.12175   0.13291
 Alpha virt. eigenvalues --    0.13925   0.14537   0.15218   0.15900   0.16568
 Alpha virt. eigenvalues --    0.17287   0.19082   0.20006   0.21265   0.21302
 Alpha virt. eigenvalues --    0.23618   0.24523   0.25746   0.27683   0.28353
 Alpha virt. eigenvalues --    0.28805   0.29271   0.29627   0.30051   0.30901
 Alpha virt. eigenvalues --    0.31572   0.32004   0.33880   0.34342   0.34393
 Alpha virt. eigenvalues --    0.35729   0.36583   0.37301   0.37763   0.38619
 Alpha virt. eigenvalues --    0.39142   0.39731   0.40591   0.41768   0.42048
 Alpha virt. eigenvalues --    0.42357   0.43226   0.44008   0.45847   0.46336
 Alpha virt. eigenvalues --    0.47126   0.47890   0.49283   0.49722   0.50606
 Alpha virt. eigenvalues --    0.51107   0.52256   0.52718   0.53715   0.55087
 Alpha virt. eigenvalues --    0.55737   0.56504   0.57447   0.58821   0.61081
 Alpha virt. eigenvalues --    0.61976   0.62969   0.65484   0.66913   0.67612
 Alpha virt. eigenvalues --    0.69658   0.70907   0.74787   0.76663   0.76941
 Alpha virt. eigenvalues --    0.81639   0.83895   0.84473   0.86623   0.90235
 Alpha virt. eigenvalues --    0.94590   0.95439   1.10324   1.13213   1.18884
 Alpha virt. eigenvalues --    1.19661   1.20635   1.21624   1.22341   1.23641
 Alpha virt. eigenvalues --    1.24717   1.25841   1.26695   1.28039   1.29071
 Alpha virt. eigenvalues --    1.30301   1.31604   1.33984   1.34777   1.36423
 Alpha virt. eigenvalues --    1.37541   1.38299   1.39777   1.41014   1.41598
 Alpha virt. eigenvalues --    1.42456   1.43966   1.46345   1.47647   1.48222
 Alpha virt. eigenvalues --    1.49688   1.50091   1.51525   1.53977   1.55212
 Alpha virt. eigenvalues --    1.56490   1.58514   1.60722   1.62697   1.64050
 Alpha virt. eigenvalues --    1.64597   1.65665   1.65866   1.69758   1.70441
 Alpha virt. eigenvalues --    1.71723   1.72590   1.73664   1.74331   1.75299
 Alpha virt. eigenvalues --    1.79693   1.81094   1.81818   1.84025   1.84397
 Alpha virt. eigenvalues --    1.86683   1.87588   1.89565   1.90824   1.92477
 Alpha virt. eigenvalues --    1.92757   1.94756   1.94975   1.98253   1.98705
 Alpha virt. eigenvalues --    2.00198   2.00876   2.01631   2.02763   2.04943
 Alpha virt. eigenvalues --    2.06148   2.08928   2.12243   2.14676   2.15960
 Alpha virt. eigenvalues --    2.18202   2.19115   2.21184   2.22673   2.22742
 Alpha virt. eigenvalues --    2.25088   2.27126   2.30533   2.31945   2.36151
 Alpha virt. eigenvalues --    2.36809   2.40004   2.43926   2.44922   2.45891
 Alpha virt. eigenvalues --    2.47448   2.49007   2.50938   2.52242   2.54001
 Alpha virt. eigenvalues --    2.56315   2.57460   2.58489   2.59015   2.60069
 Alpha virt. eigenvalues --    2.61046   2.61605   2.62827   2.64097   2.64801
 Alpha virt. eigenvalues --    2.65997   2.68200   2.69685   2.70621   2.72985
 Alpha virt. eigenvalues --    2.73264   2.76077   2.77049   2.82536   2.83612
 Alpha virt. eigenvalues --    2.84385   2.85407   2.85967   2.87049   2.87202
 Alpha virt. eigenvalues --    2.87941   2.89172   2.90405   2.91149   2.92048
 Alpha virt. eigenvalues --    2.93345   2.93745   2.94675   2.95238   2.96971
 Alpha virt. eigenvalues --    2.99816   3.00550   3.02134   3.05156   3.06603
 Alpha virt. eigenvalues --    3.07491   3.08465   3.10269   3.11532   3.13751
 Alpha virt. eigenvalues --    3.16194   3.18635   3.20109   3.20983   3.21650
 Alpha virt. eigenvalues --    3.25899   3.27483   3.29964   3.31729   3.34899
 Alpha virt. eigenvalues --    3.38404   3.40515   3.44594   3.48580   3.83869
 Alpha virt. eigenvalues --    3.85448   3.89353   3.90771   3.92091   3.95035
 Alpha virt. eigenvalues --    4.15984   4.17241   4.17522   4.18228   4.20322
 Alpha virt. eigenvalues --    4.21552  21.62054  21.64737  21.72017  21.74734
 Alpha virt. eigenvalues --   21.78084  21.82119  43.12127  43.13698  43.22159
 Alpha virt. eigenvalues --   43.26753  43.32465  43.35483
          Condensed to atoms (all electrons):
               1          2          3          4          5          6
     1  O    8.015898   0.283263  -0.135499  -0.004460   0.022947  -0.000150
     2  C    0.283263   5.264378  -0.049945  -0.021357  -0.008975   0.014718
     3  C   -0.135499  -0.049945   6.055258   0.184577  -0.259733  -0.005126
     4  O   -0.004460  -0.021357   0.184577   8.063472  -0.067444  -0.005388
     5  C    0.022947  -0.008975  -0.259733  -0.067444   6.582419   0.102490
     6  O   -0.000150   0.014718  -0.005126  -0.005388   0.102490   8.091174
     7  C   -0.001847   0.013996   0.001158  -0.000469  -0.561812  -0.055690
     8  O    0.000047  -0.008575  -0.020036  -0.033117   0.053463  -0.010078
     9  C    0.000027  -0.008175   0.032487  -0.002507   0.085686   0.034574
    10  O    0.000000   0.000294  -0.001103   0.000028  -0.039327  -0.028074
    11  C   -0.000006   0.002333  -0.007151   0.000519  -0.026491  -0.022354
    12  O    0.000002   0.002417  -0.003014  -0.000003  -0.012061   0.000742
    13  H    0.302894  -0.024887   0.010774  -0.000070  -0.001869   0.000017
    14  H   -0.044494   0.410055  -0.072708   0.008895   0.008119  -0.000251
    15  H   -0.049012   0.394768  -0.023965  -0.006444  -0.013853  -0.000324
    16  H    0.008594  -0.023827   0.360895  -0.048587  -0.065845  -0.002449
    17  H    0.034256  -0.002509  -0.055593   0.304203   0.011875  -0.000795
    18  H   -0.000108   0.006193  -0.025743   0.005074   0.393705  -0.042632
    19  H   -0.000023  -0.000336  -0.000402  -0.000123  -0.016760   0.302823
    20  H   -0.000199   0.009223  -0.015036  -0.000853  -0.056689   0.004196
    21  H    0.000252   0.001622  -0.011461   0.046837  -0.004413   0.000439
    22  H   -0.000002  -0.000104  -0.000160   0.000009   0.026161  -0.000997
    23  H    0.000001  -0.000092  -0.000477  -0.000139  -0.004144   0.032039
    24  H   -0.000000   0.000045  -0.000100   0.000001  -0.004017   0.000107
    25  H    0.000000  -0.000954   0.001261  -0.000060   0.028334   0.005229
    26  H    0.000000   0.000035  -0.000029  -0.000000   0.000753   0.000010
               7          8          9         10         11         12
     1  O   -0.001847   0.000047   0.000027   0.000000  -0.000006   0.000002
     2  C    0.013996  -0.008575  -0.008175   0.000294   0.002333   0.002417
     3  C    0.001158  -0.020036   0.032487  -0.001103  -0.007151  -0.003014
     4  O   -0.000469  -0.033117  -0.002507   0.000028   0.000519  -0.000003
     5  C   -0.561812   0.053463   0.085686  -0.039327  -0.026491  -0.012061
     6  O   -0.055690  -0.010078   0.034574  -0.028074  -0.022354   0.000742
     7  C    6.598544   0.180550  -0.351451   0.043892   0.119783  -0.004651
     8  O    0.180550   8.031574  -0.099031  -0.004764   0.014647  -0.000081
     9  C   -0.351451  -0.099031   6.100977   0.178561  -0.170952  -0.082609
    10  O    0.043892  -0.004764   0.178561   8.014447  -0.050506   0.005164
    11  C    0.119783   0.014647  -0.170952  -0.050506   5.432727   0.252034
    12  O   -0.004651  -0.000081  -0.082609   0.005164   0.252034   8.016115
    13  H   -0.000048   0.000003  -0.000020   0.000000   0.000001   0.000001
    14  H   -0.006617   0.000264   0.000070  -0.000004   0.000192   0.000454
    15  H    0.019827   0.000379   0.001766  -0.000038   0.000061  -0.000569
    16  H    0.027911  -0.001058  -0.001152   0.000018   0.000638  -0.000032
    17  H    0.000513   0.000986   0.000333  -0.000007  -0.000026   0.000001
    18  H   -0.040118   0.005875  -0.029558   0.001663   0.009149   0.005411
    19  H    0.003590  -0.001111   0.001226   0.000899   0.000366   0.000044
    20  H    0.449621  -0.046880  -0.099411   0.007644   0.006612   0.020801
    21  H   -0.049118   0.311680   0.010447  -0.001577  -0.001255   0.000029
    22  H   -0.137666   0.009878   0.445141  -0.045476  -0.049799   0.013588
    23  H   -0.018010   0.003360  -0.031100   0.310900  -0.005069  -0.000124
    24  H    0.024217  -0.000327  -0.047300   0.009664   0.388974  -0.038979
    25  H   -0.074677   0.000146   0.000457   0.006852   0.371634  -0.049774
    26  H    0.000783  -0.000001   0.009658  -0.000340  -0.021626   0.295663
              13         14         15         16         17         18
     1  O    0.302894  -0.044494  -0.049012   0.008594   0.034256  -0.000108
     2  C   -0.024887   0.410055   0.394768  -0.023827  -0.002509   0.006193
     3  C    0.010774  -0.072708  -0.023965   0.360895  -0.055593  -0.025743
     4  O   -0.000070   0.008895  -0.006444  -0.048587   0.304203   0.005074
     5  C   -0.001869   0.008119  -0.013853  -0.065845   0.011875   0.393705
     6  O    0.000017  -0.000251  -0.000324  -0.002449  -0.000795  -0.042632
     7  C   -0.000048  -0.006617   0.019827   0.027911   0.000513  -0.040118
     8  O    0.000003   0.000264   0.000379  -0.001058   0.000986   0.005875
     9  C   -0.000020   0.000070   0.001766  -0.001152   0.000333  -0.029558
    10  O    0.000000  -0.000004  -0.000038   0.000018  -0.000007   0.001663
    11  C    0.000001   0.000192   0.000061   0.000638  -0.000026   0.009149
    12  O    0.000001   0.000454  -0.000569  -0.000032   0.000001   0.005411
    13  H    0.394709   0.001519  -0.009085  -0.000955  -0.001345   0.000016
    14  H    0.001519   0.595192  -0.048566  -0.008793   0.002928   0.004251
    15  H   -0.009085  -0.048566   0.548348   0.008859  -0.003195  -0.000705
    16  H   -0.000955  -0.008793   0.008859   0.567971  -0.001615  -0.002371
    17  H   -0.001345   0.002928  -0.003195  -0.001615   0.401844  -0.000404
    18  H    0.000016   0.004251  -0.000705  -0.002371  -0.000404   0.495559
    19  H    0.000002   0.000091  -0.000030   0.003558   0.000011  -0.008246
    20  H    0.000043  -0.001257  -0.001058   0.000267  -0.000197   0.003456
    21  H    0.000002   0.000083   0.000260   0.000740  -0.000533   0.001626
    22  H   -0.000000  -0.000002   0.000021   0.000040  -0.000002  -0.000932
    23  H   -0.000000   0.000006   0.000001   0.000020   0.000010   0.001193
    24  H   -0.000000   0.000009   0.000000  -0.000001   0.000000   0.001111
    25  H   -0.000001  -0.000043   0.000009   0.000000   0.000004  -0.011940
    26  H    0.000000   0.000004  -0.000009  -0.000003  -0.000000  -0.000370
              19         20         21         22         23         24
     1  O   -0.000023  -0.000199   0.000252  -0.000002   0.000001  -0.000000
     2  C   -0.000336   0.009223   0.001622  -0.000104  -0.000092   0.000045
     3  C   -0.000402  -0.015036  -0.011461  -0.000160  -0.000477  -0.000100
     4  O   -0.000123  -0.000853   0.046837   0.000009  -0.000139   0.000001
     5  C   -0.016760  -0.056689  -0.004413   0.026161  -0.004144  -0.004017
     6  O    0.302823   0.004196   0.000439  -0.000997   0.032039   0.000107
     7  C    0.003590   0.449621  -0.049118  -0.137666  -0.018010   0.024217
     8  O   -0.001111  -0.046880   0.311680   0.009878   0.003360  -0.000327
     9  C    0.001226  -0.099411   0.010447   0.445141  -0.031100  -0.047300
    10  O    0.000899   0.007644  -0.001577  -0.045476   0.310900   0.009664
    11  C    0.000366   0.006612  -0.001255  -0.049799  -0.005069   0.388974
    12  O    0.000044   0.020801   0.000029   0.013588  -0.000124  -0.038979
    13  H    0.000002   0.000043   0.000002  -0.000000  -0.000000  -0.000000
    14  H    0.000091  -0.001257   0.000083  -0.000002   0.000006   0.000009
    15  H   -0.000030  -0.001058   0.000260   0.000021   0.000001   0.000000
    16  H    0.003558   0.000267   0.000740   0.000040   0.000020  -0.000001
    17  H    0.000011  -0.000197  -0.000533  -0.000002   0.000010   0.000000
    18  H   -0.008246   0.003456   0.001626  -0.000932   0.001193   0.001111
    19  H    0.385906  -0.000501  -0.000090   0.000116  -0.000267   0.000019
    20  H   -0.000501   0.534868  -0.001018  -0.002745   0.001721   0.000869
    21  H   -0.000090  -0.001018   0.397290   0.000281  -0.000115   0.000023
    22  H    0.000116  -0.002745   0.000281   0.579600   0.006393  -0.016728
    23  H   -0.000267   0.001721  -0.000115   0.006393   0.399854  -0.000329
    24  H    0.000019   0.000869   0.000023  -0.016728  -0.000329   0.591427
    25  H    0.000161   0.001387   0.000055   0.012577   0.003801  -0.055779
    26  H   -0.000012  -0.000677  -0.000004  -0.000906   0.000006  -0.004331
              25         26
     1  O    0.000000   0.000000
     2  C   -0.000954   0.000035
     3  C    0.001261  -0.000029
     4  O   -0.000060  -0.000000
     5  C    0.028334   0.000753
     6  O    0.005229   0.000010
     7  C   -0.074677   0.000783
     8  O    0.000146  -0.000001
     9  C    0.000457   0.009658
    10  O    0.006852  -0.000340
    11  C    0.371634  -0.021626
    12  O   -0.049774   0.295663
    13  H   -0.000001   0.000000
    14  H   -0.000043   0.000004
    15  H    0.000009  -0.000009
    16  H    0.000000  -0.000003
    17  H    0.000004  -0.000000
    18  H   -0.011940  -0.000370
    19  H    0.000161  -0.000012
    20  H    0.001387  -0.000677
    21  H    0.000055  -0.000004
    22  H    0.012577  -0.000906
    23  H    0.003801   0.000006
    24  H   -0.055779  -0.004331
    25  H    0.609908  -0.004937
    26  H   -0.004937   0.409493
 Mulliken charges:
               1
     1  O   -0.432382
     2  C   -0.253604
     3  C    0.040872
     4  O   -0.422596
     5  C   -0.172519
     6  O   -0.414252
     7  C   -0.182209
     8  O   -0.387795
     9  C    0.021855
    10  O   -0.408809
    11  C   -0.244436
    12  O   -0.420572
    13  H    0.328299
    14  H    0.150602
    15  H    0.182555
    16  H    0.177175
    17  H    0.309258
    18  H    0.228844
    19  H    0.329090
    20  H    0.185815
    21  H    0.297916
    22  H    0.161716
    23  H    0.300562
    24  H    0.151425
    25  H    0.156350
    26  H    0.316840
 Sum of Mulliken charges =  -0.00000
 Mulliken charges with hydrogens summed into heavy atoms:
               1
     1  O   -0.104083
     2  C    0.079554
     3  C    0.218047
     4  O   -0.113338
     5  C    0.056325
     6  O   -0.085163
     7  C    0.003606
     8  O   -0.089879
     9  C    0.183571
    10  O   -0.108247
    11  C    0.063339
    12  O   -0.103732
 Electronic spatial extent (au):  <R**2>=           2439.5236
 Charge=             -0.0000 electrons
 Dipole moment (field-independent basis, Debye):
    X=              4.1359    Y=             -7.3073    Z=             -4.5592  Tot=              9.5546
 Quadrupole moment (field-independent basis, Debye-Ang):
   XX=            -71.1172   YY=            -74.2698   ZZ=            -67.1176
   XY=              4.8779   XZ=             11.4537   YZ=             -3.1379
 Traceless Quadrupole moment (field-independent basis, Debye-Ang):
   XX=             -0.2824   YY=             -3.4349   ZZ=              3.7173
   XY=              4.8779   XZ=             11.4537   YZ=             -3.1379
 Octapole moment (field-independent basis, Debye-Ang**2):
  XXX=             38.5998  YYY=            -40.1280  ZZZ=            -29.1876  XYY=             10.6601
  XXY=            -51.2987  XXZ=             19.6397  XZZ=             10.9888  YZZ=              1.6796
  YYZ=            -14.6061  XYZ=            -12.8273
 Hexadecapole moment (field-independent basis, Debye-Ang**3):
 XXXX=          -1890.1120 YYYY=           -619.3629 ZZZZ=           -306.0989 XXXY=             47.1589
 XXXZ=            139.2555 YYYX=             35.2633 YYYZ=             14.5046 ZZZX=             15.3638
 ZZZY=            -38.2555 XXYY=           -363.4043 XXZZ=           -353.3572 YYZZ=           -162.4720
 XXYZ=            -16.1517 YYXZ=             61.2893 ZZXY=              1.8507
 N-N= 8.310027672596D+02 E-N=-3.279965049644D+03  KE= 6.856816019239D+02
 Unable to Open any file for archive entry.
 1\1\GINC-TCN1626\SP\RBP86\TZVP\C6H14O6\ELENAA\22-Feb-2021\0\\# BP86/TZ
 VP SCRF=COSMORS geom=CHECKPOINT guess=CHECKPOINT\\COSMO-file for #FBPF
 ZTCFMRRESA-BXKVDMCESA-N\\0,1\O,0,-5.6448696147,15.7141099238,9.4583561
 433\C,0,-5.5938704537,15.5324709524,8.0265471157\C,0,-5.4958990126,16.
 9372596109,7.4355425064\O,0,-6.6185617671,17.7349703033,7.8821156149\C
 ,0,-5.4357861501,16.9416536491,5.9003243878\O,0,-5.153252434,18.276724
 0212,5.4048764912\C,0,-6.7164615196,16.4352935868,5.2099523464\O,0,-7.
 8779377116,17.2098767945,5.5418642439\C,0,-6.606696744,16.3962234888,3
 .672095735\O,0,-6.4721393036,17.6966485786,3.0765021904\C,0,-5.4552240
 763,15.5099499377,3.1811897364\O,0,-5.583628273,14.200380275,3.7678507
 882\H,0,-6.0484629557,14.9206322739,9.8509302507\H,0,-4.716272554,14.9
 322656907,7.7282865839\H,0,-6.509779457,15.0329165807,7.6681004254\H,0
 ,-4.5603878737,17.3995646517,7.8082939958\H,0,-6.7749225257,17.4597256
 718,8.8096641049\H,0,-4.618550061,16.2539198186,5.6163116148\H,0,-4.21
 87564757,18.4806938828,5.5911201868\H,0,-6.8453605375,15.3838264277,5.
 5322611537\H,0,-7.7636919031,17.4646575531,6.4879483208\H,0,-7.5587071
 383,15.9785379432,3.3024528691\H,0,-5.8851850113,18.1973274651,3.68940
 08854\H,0,-5.505834192,15.4666031826,2.0788171749\H,0,-4.4915425717,15
 .9820776546,3.4541021169\H,0,-4.8695896826,13.6444500812,3.4096930174\
 \Version=ES64L-G16RevC.01\State=1-A\HF=-688.6761227\RMSD=9.587e-09\Dip
 ole=2.6128152,-2.1498061,1.6376822\Quadrupole=0.3739672,-0.7054177,0.3
 314505,3.0401401,-9.3696213,0.8971463\PG=C01 [X(C6H14O6)]\\@
 The archive entry for this job was punched.


 IT IS A CAPITAL MISTAKE TO THEORIZE BEFORE ONE HAS
 DATA.  INSENSIBLY ONE BEGINS TO TWIST FACTS TO SUIT
 THEORIES RATHER THAN THEORIES TO SUIT FACTS.

                                         -- SHERLOCK HOLMES
 Job cpu time:       0 days  0 hours  8 minutes 51.5 seconds.
 Elapsed time:       0 days  0 hours  0 minutes 17.2 seconds.
 File lengths (MBytes):  RWF=     75 Int=      0 D2E=      0 Chk=     12 Scr=      1
 Normal termination of Gaussian 16 at Mon Feb 22 21:16:19 2021.
