 Entering Gaussian System, Link 0=g16
 Input=FBPFZTCFMRRESA-JGWLITMVSA-N.gjf
 Output=FBPFZTCFMRRESA-JGWLITMVSA-N.log
 Initial command:
 /sw/arch/RedHatEnterpriseServer7/EB_production/2019/software/Gaussian/g16.c01/l1.exe "/scratch-local/elenaa.9715202/Gau-9113.inp" -scrdir="/scratch-local/elenaa.9715202/"
 Entering Link 1 = /sw/arch/RedHatEnterpriseServer7/EB_production/2019/software/Gaussian/g16.c01/l1.exe PID=      9114.
  
 Copyright (c) 1988-2019, Gaussian, Inc.  All Rights Reserved.
  
 This is part of the Gaussian(R) 16 program.  It is based on
 the Gaussian(R) 09 system (copyright 2009, Gaussian, Inc.),
 the Gaussian(R) 03 system (copyright 2003, Gaussian, Inc.),
 the Gaussian(R) 98 system (copyright 1998, Gaussian, Inc.),
 the Gaussian(R) 94 system (copyright 1995, Gaussian, Inc.),
 the Gaussian 92(TM) system (copyright 1992, Gaussian, Inc.),
 the Gaussian 90(TM) system (copyright 1990, Gaussian, Inc.),
 the Gaussian 88(TM) system (copyright 1988, Gaussian, Inc.),
 the Gaussian 86(TM) system (copyright 1986, Carnegie Mellon
 University), and the Gaussian 82(TM) system (copyright 1983,
 Carnegie Mellon University). Gaussian is a federally registered
 trademark of Gaussian, Inc.
  
 This software contains proprietary and confidential information,
 including trade secrets, belonging to Gaussian, Inc.
  
 This software is provided under written license and may be
 used, copied, transmitted, or stored only in accord with that
 written license.
  
 The following legend is applicable only to US Government
 contracts under FAR:
  
                    RESTRICTED RIGHTS LEGEND
  
 Use, reproduction and disclosure by the US Government is
 subject to restrictions as set forth in subparagraphs (a)
 and (c) of the Commercial Computer Software - Restricted
 Rights clause in FAR 52.227-19.
  
 Gaussian, Inc.
 340 Quinnipiac St., Bldg. 40, Wallingford CT 06492
  
  
 ---------------------------------------------------------------
 Warning -- This program may not be used in any manner that
 competes with the business of Gaussian, Inc. or will provide
 assistance to any competitor of Gaussian, Inc.  The licensee
 of this program is prohibited from giving any competitor of
 Gaussian, Inc. access to this program.  By using this program,
 the user acknowledges that Gaussian, Inc. is engaged in the
 business of creating and licensing software in the field of
 computational chemistry and represents and warrants to the
 licensee that it is not a competitor of Gaussian, Inc. and that
 it will not use this program in any manner prohibited above.
 ---------------------------------------------------------------
  

 Cite this work as:
 Gaussian 16, Revision C.01,
 M. J. Frisch, G. W. Trucks, H. B. Schlegel, G. E. Scuseria, 
 M. A. Robb, J. R. Cheeseman, G. Scalmani, V. Barone, 
 G. A. Petersson, H. Nakatsuji, X. Li, M. Caricato, A. V. Marenich, 
 J. Bloino, B. G. Janesko, R. Gomperts, B. Mennucci, H. P. Hratchian, 
 J. V. Ortiz, A. F. Izmaylov, J. L. Sonnenberg, D. Williams-Young, 
 F. Ding, F. Lipparini, F. Egidi, J. Goings, B. Peng, A. Petrone, 
 T. Henderson, D. Ranasinghe, V. G. Zakrzewski, J. Gao, N. Rega, 
 G. Zheng, W. Liang, M. Hada, M. Ehara, K. Toyota, R. Fukuda, 
 J. Hasegawa, M. Ishida, T. Nakajima, Y. Honda, O. Kitao, H. Nakai, 
 T. Vreven, K. Throssell, J. A. Montgomery, Jr., J. E. Peralta, 
 F. Ogliaro, M. J. Bearpark, J. J. Heyd, E. N. Brothers, K. N. Kudin, 
 V. N. Staroverov, T. A. Keith, R. Kobayashi, J. Normand, 
 K. Raghavachari, A. P. Rendell, J. C. Burant, S. S. Iyengar, 
 J. Tomasi, M. Cossi, J. M. Millam, M. Klene, C. Adamo, R. Cammi, 
 J. W. Ochterski, R. L. Martin, K. Morokuma, O. Farkas, 
 J. B. Foresman, and D. J. Fox, Gaussian, Inc., Wallingford CT, 2019.
 
 ******************************************
 Gaussian 16:  ES64L-G16RevC.01  3-Jul-2019
                22-Feb-2021 
 ******************************************
 %chk=FBPFZTCFMRRESA-JGWLITMVSA-N.chk
 %NProcShared=32
 Will use up to   32 processors via shared memory.
 -------------------------------------------------------------
 #P BP86/TZVP EmpiricalDispersion=GD3 SCRF=(Solvent=Water) Opt
 -------------------------------------------------------------
 1/18=20,19=15,26=3,38=1/1,3;
 2/9=110,12=2,17=6,18=5,40=1/2;
 3/5=19,7=101,11=2,25=1,30=1,70=2201,71=1,72=1,74=404,124=31/1,2,3;
 4//1;
 5/5=2,38=5,53=1/2;
 6/7=2,8=2,9=2,10=2,28=1/1;
 7//1,2,3,16;
 1/18=20,19=15,26=3/3(2);
 2/9=110/2;
 99//99;
 2/9=110/2;
 3/5=19,7=101,11=2,25=1,30=1,70=2205,71=1,72=1,74=404,124=31/1,2,3;
 4/5=5,16=3,69=1/1;
 5/5=2,38=5,53=1/2;
 7//1,2,3,16;
 1/18=20,19=15,26=3/3(-5);
 2/9=110/2;
 6/7=2,8=2,9=2,10=2,19=2,28=1/1;
 99/9=1/99;
 Leave Link    1 at Mon Feb 22 20:59:34 2021, MaxMem=           0 cpu:               1.8 elap:               0.1
 (Enter /sw/arch/RedHatEnterpriseServer7/EB_production/2019/software/Gaussian/g16.c01/l101.exe)
 -------------------------------------
 Particle #FBPFZTCFMRRESA-JGWLITMVSA-N
 -------------------------------------
 Symbolic Z-matrix:
 Charge =  0 Multiplicity = 1
 O                    -3.66255  -68.6748   34.93514 
 C                    -2.43163  -67.95722   34.93362 
 C                    -1.22893  -68.93406   34.98822 
 O                    -1.37719  -69.7714   36.13556 
 C                     0.16804  -68.24249   35.06865 
 O                     1.16336  -69.25778   35.21667 
 C                     0.53908  -67.33385   33.85345 
 O                     0.50472  -68.10998   32.65426 
 C                     1.93296  -66.64187   33.98687 
 O                     2.00433  -65.88402   35.19548 
 C                     2.25161  -65.67091   32.82086 
 O                     2.37254  -66.3569   31.57851 
 H                    -4.35786  -67.98397   34.89009 
 H                    -2.39738  -67.35817   34.02353 
 H                    -2.41618  -67.29039   35.79749 
 H                    -1.26146  -69.58284   34.10916 
 H                    -2.22297  -70.24777   36.00407 
 H                     0.18714  -67.63854   35.97937 
 H                     1.08315  -69.81228   34.41215 
 H                    -0.2088   -66.54353   33.75996 
 H                    -0.42888  -68.38796   32.55171 
 H                     2.71752  -67.40228   34.02403 
 H                     1.97949  -66.54562   35.91828 
 H                     1.46784  -64.91609   32.73368 
 H                     3.19757  -65.1628   33.0176 
 H                     2.552    -65.65293   30.92033 
 
 ITRead=  0  0  0  0  0  0  0  0  0  0  0  0  0  0  0  0  0  0  0  0
 ITRead=  0  0  0  0  0  0
 MicOpt= -1 -1 -1 -1 -1 -1 -1 -1 -1 -1 -1 -1 -1 -1 -1 -1 -1 -1 -1 -1
 MicOpt= -1 -1 -1 -1 -1 -1
 NAtoms=     26 NQM=       26 NQMF=       0 NMMI=      0 NMMIF=      0
                NMic=       0 NMicF=      0.
                    Isotopes and Nuclear Properties:
 (Nuclear quadrupole moments (NQMom) in fm**2, nuclear magnetic moments (NMagM)
  in nuclear magnetons)

  Atom         1           2           3           4           5           6           7           8           9          10
 IAtWgt=          16          12          12          16          12          16          12          16          12          16
 AtmWgt=  15.9949146  12.0000000  12.0000000  15.9949146  12.0000000  15.9949146  12.0000000  15.9949146  12.0000000  15.9949146
 NucSpn=           0           0           0           0           0           0           0           0           0           0
 AtZEff=  -0.0000000  -0.0000000  -0.0000000  -0.0000000  -0.0000000  -0.0000000  -0.0000000  -0.0000000  -0.0000000  -0.0000000
 NQMom=    0.0000000   0.0000000   0.0000000   0.0000000   0.0000000   0.0000000   0.0000000   0.0000000   0.0000000   0.0000000
 NMagM=    0.0000000   0.0000000   0.0000000   0.0000000   0.0000000   0.0000000   0.0000000   0.0000000   0.0000000   0.0000000
 AtZNuc=   8.0000000   6.0000000   6.0000000   8.0000000   6.0000000   8.0000000   6.0000000   8.0000000   6.0000000   8.0000000

  Atom        11          12          13          14          15          16          17          18          19          20
 IAtWgt=          12          16           1           1           1           1           1           1           1           1
 AtmWgt=  12.0000000  15.9949146   1.0078250   1.0078250   1.0078250   1.0078250   1.0078250   1.0078250   1.0078250   1.0078250
 NucSpn=           0           0           1           1           1           1           1           1           1           1
 AtZEff=  -0.0000000  -0.0000000  -0.0000000  -0.0000000  -0.0000000  -0.0000000  -0.0000000  -0.0000000  -0.0000000  -0.0000000
 NQMom=    0.0000000   0.0000000   0.0000000   0.0000000   0.0000000   0.0000000   0.0000000   0.0000000   0.0000000   0.0000000
 NMagM=    0.0000000   0.0000000   2.7928460   2.7928460   2.7928460   2.7928460   2.7928460   2.7928460   2.7928460   2.7928460
 AtZNuc=   6.0000000   8.0000000   1.0000000   1.0000000   1.0000000   1.0000000   1.0000000   1.0000000   1.0000000   1.0000000

  Atom        21          22          23          24          25          26
 IAtWgt=           1           1           1           1           1           1
 AtmWgt=   1.0078250   1.0078250   1.0078250   1.0078250   1.0078250   1.0078250
 NucSpn=           1           1           1           1           1           1
 AtZEff=  -0.0000000  -0.0000000  -0.0000000  -0.0000000  -0.0000000  -0.0000000
 NQMom=    0.0000000   0.0000000   0.0000000   0.0000000   0.0000000   0.0000000
 NMagM=    2.7928460   2.7928460   2.7928460   2.7928460   2.7928460   2.7928460
 AtZNuc=   1.0000000   1.0000000   1.0000000   1.0000000   1.0000000   1.0000000
 Leave Link  101 at Mon Feb 22 20:59:35 2021, MaxMem=   104857600 cpu:               4.4 elap:               0.2
 (Enter /sw/arch/RedHatEnterpriseServer7/EB_production/2019/software/Gaussian/g16.c01/l103.exe)

 GradGradGradGradGradGradGradGradGradGradGradGradGradGradGradGradGradGrad
 Berny optimization.
 Initialization pass.
                           ----------------------------
                           !    Initial Parameters    !
                           ! (Angstroms and Degrees)  !
 --------------------------                            --------------------------
 ! Name  Definition              Value          Derivative Info.                !
 --------------------------------------------------------------------------------
 ! R1    R(1,2)                  1.4248         estimate D2E/DX2                !
 ! R2    R(1,13)                 0.9812         estimate D2E/DX2                !
 ! R3    R(2,3)                  1.5504         estimate D2E/DX2                !
 ! R4    R(2,14)                 1.0901         estimate D2E/DX2                !
 ! R5    R(2,15)                 1.0914         estimate D2E/DX2                !
 ! R6    R(3,4)                  1.4281         estimate D2E/DX2                !
 ! R7    R(3,5)                  1.5609         estimate D2E/DX2                !
 ! R8    R(3,16)                 1.093          estimate D2E/DX2                !
 ! R9    R(4,17)                 0.9796         estimate D2E/DX2                !
 ! R10   R(5,6)                  1.4295         estimate D2E/DX2                !
 ! R11   R(5,7)                  1.5621         estimate D2E/DX2                !
 ! R12   R(5,18)                 1.0929         estimate D2E/DX2                !
 ! R13   R(6,19)                 0.9804         estimate D2E/DX2                !
 ! R14   R(7,8)                  1.4289         estimate D2E/DX2                !
 ! R15   R(7,9)                  1.5619         estimate D2E/DX2                !
 ! R16   R(7,20)                 1.0921         estimate D2E/DX2                !
 ! R17   R(8,21)                 0.9795         estimate D2E/DX2                !
 ! R18   R(9,10)                 1.4283         estimate D2E/DX2                !
 ! R19   R(9,11)                 1.5504         estimate D2E/DX2                !
 ! R20   R(9,22)                 1.0932         estimate D2E/DX2                !
 ! R21   R(10,23)                0.9802         estimate D2E/DX2                !
 ! R22   R(11,12)                1.4243         estimate D2E/DX2                !
 ! R23   R(11,24)                1.0916         estimate D2E/DX2                !
 ! R24   R(11,25)                1.0917         estimate D2E/DX2                !
 ! R25   R(12,26)                0.9803         estimate D2E/DX2                !
 ! A1    A(2,1,13)             104.9256         estimate D2E/DX2                !
 ! A2    A(1,2,3)              110.66           estimate D2E/DX2                !
 ! A3    A(1,2,14)             107.7462         estimate D2E/DX2                !
 ! A4    A(1,2,15)             108.6082         estimate D2E/DX2                !
 ! A5    A(3,2,14)             110.5653         estimate D2E/DX2                !
 ! A6    A(3,2,15)             110.249          estimate D2E/DX2                !
 ! A7    A(14,2,15)            108.9423         estimate D2E/DX2                !
 ! A8    A(2,3,4)              108.4926         estimate D2E/DX2                !
 ! A9    A(2,3,5)              114.6419         estimate D2E/DX2                !
 ! A10   A(2,3,16)             108.8184         estimate D2E/DX2                !
 ! A11   A(4,3,5)              108.1376         estimate D2E/DX2                !
 ! A12   A(4,3,16)             107.1583         estimate D2E/DX2                !
 ! A13   A(5,3,16)             109.3336         estimate D2E/DX2                !
 ! A14   A(3,4,17)             105.4815         estimate D2E/DX2                !
 ! A15   A(3,5,6)              108.2896         estimate D2E/DX2                !
 ! A16   A(3,5,7)              115.4827         estimate D2E/DX2                !
 ! A17   A(3,5,18)             107.6629         estimate D2E/DX2                !
 ! A18   A(6,5,7)              109.1667         estimate D2E/DX2                !
 ! A19   A(6,5,18)             107.0992         estimate D2E/DX2                !
 ! A20   A(7,5,18)             108.8235         estimate D2E/DX2                !
 ! A21   A(5,6,19)             105.0568         estimate D2E/DX2                !
 ! A22   A(5,7,8)              109.3434         estimate D2E/DX2                !
 ! A23   A(5,7,9)              113.7809         estimate D2E/DX2                !
 ! A24   A(5,7,20)             108.9589         estimate D2E/DX2                !
 ! A25   A(8,7,9)              109.4997         estimate D2E/DX2                !
 ! A26   A(8,7,20)             107.7446         estimate D2E/DX2                !
 ! A27   A(9,7,20)             107.328          estimate D2E/DX2                !
 ! A28   A(7,8,21)             105.3638         estimate D2E/DX2                !
 ! A29   A(7,9,10)             110.6059         estimate D2E/DX2                !
 ! A30   A(7,9,11)             113.3671         estimate D2E/DX2                !
 ! A31   A(7,9,22)             109.5845         estimate D2E/DX2                !
 ! A32   A(10,9,11)            107.0863         estimate D2E/DX2                !
 ! A33   A(10,9,22)            107.724          estimate D2E/DX2                !
 ! A34   A(11,9,22)            108.2802         estimate D2E/DX2                !
 ! A35   A(9,10,23)            105.3417         estimate D2E/DX2                !
 ! A36   A(9,11,12)            111.827          estimate D2E/DX2                !
 ! A37   A(9,11,24)            110.2139         estimate D2E/DX2                !
 ! A38   A(9,11,25)            109.5142         estimate D2E/DX2                !
 ! A39   A(12,11,24)           108.925          estimate D2E/DX2                !
 ! A40   A(12,11,25)           107.9267         estimate D2E/DX2                !
 ! A41   A(24,11,25)           108.3433         estimate D2E/DX2                !
 ! A42   A(11,12,26)           104.792          estimate D2E/DX2                !
 ! D1    D(13,1,2,3)          -179.4402         estimate D2E/DX2                !
 ! D2    D(13,1,2,14)          -58.4529         estimate D2E/DX2                !
 ! D3    D(13,1,2,15)           59.4119         estimate D2E/DX2                !
 ! D4    D(1,2,3,4)            -55.8806         estimate D2E/DX2                !
 ! D5    D(1,2,3,5)           -176.8486         estimate D2E/DX2                !
 ! D6    D(1,2,3,16)            60.3905         estimate D2E/DX2                !
 ! D7    D(14,2,3,4)          -175.1813         estimate D2E/DX2                !
 ! D8    D(14,2,3,5)            63.8507         estimate D2E/DX2                !
 ! D9    D(14,2,3,16)          -58.9101         estimate D2E/DX2                !
 ! D10   D(15,2,3,4)            64.291          estimate D2E/DX2                !
 ! D11   D(15,2,3,5)           -56.6769         estimate D2E/DX2                !
 ! D12   D(15,2,3,16)         -179.4378         estimate D2E/DX2                !
 ! D13   D(2,3,4,17)            60.3034         estimate D2E/DX2                !
 ! D14   D(5,3,4,17)          -174.7933         estimate D2E/DX2                !
 ! D15   D(16,3,4,17)          -57.0347         estimate D2E/DX2                !
 ! D16   D(2,3,5,6)            175.5795         estimate D2E/DX2                !
 ! D17   D(2,3,5,7)            -61.6975         estimate D2E/DX2                !
 ! D18   D(2,3,5,18)            60.0969         estimate D2E/DX2                !
 ! D19   D(4,3,5,6)             54.4166         estimate D2E/DX2                !
 ! D20   D(4,3,5,7)            177.1395         estimate D2E/DX2                !
 ! D21   D(4,3,5,18)           -61.066          estimate D2E/DX2                !
 ! D22   D(16,3,5,6)           -61.9379         estimate D2E/DX2                !
 ! D23   D(16,3,5,7)            60.7851         estimate D2E/DX2                !
 ! D24   D(16,3,5,18)         -177.4205         estimate D2E/DX2                !
 ! D25   D(3,5,6,19)            60.7771         estimate D2E/DX2                !
 ! D26   D(7,5,6,19)           -65.7074         estimate D2E/DX2                !
 ! D27   D(18,5,6,19)          176.6268         estimate D2E/DX2                !
 ! D28   D(3,5,7,8)            -58.2705         estimate D2E/DX2                !
 ! D29   D(3,5,7,9)            178.9582         estimate D2E/DX2                !
 ! D30   D(3,5,7,20)            59.254          estimate D2E/DX2                !
 ! D31   D(6,5,7,8)             63.9855         estimate D2E/DX2                !
 ! D32   D(6,5,7,9)            -58.7858         estimate D2E/DX2                !
 ! D33   D(6,5,7,20)          -178.49           estimate D2E/DX2                !
 ! D34   D(18,5,7,8)          -179.4402         estimate D2E/DX2                !
 ! D35   D(18,5,7,9)            57.7885         estimate D2E/DX2                !
 ! D36   D(18,5,7,20)          -61.9157         estimate D2E/DX2                !
 ! D37   D(5,7,8,21)            64.0731         estimate D2E/DX2                !
 ! D38   D(9,7,8,21)          -170.6395         estimate D2E/DX2                !
 ! D39   D(20,7,8,21)          -54.2121         estimate D2E/DX2                !
 ! D40   D(5,7,9,10)           -55.943          estimate D2E/DX2                !
 ! D41   D(5,7,9,11)          -176.2338         estimate D2E/DX2                !
 ! D42   D(5,7,9,22)            62.6759         estimate D2E/DX2                !
 ! D43   D(8,7,9,10)          -178.6285         estimate D2E/DX2                !
 ! D44   D(8,7,9,11)            61.0806         estimate D2E/DX2                !
 ! D45   D(8,7,9,22)           -60.0096         estimate D2E/DX2                !
 ! D46   D(20,7,9,10)           64.6807         estimate D2E/DX2                !
 ! D47   D(20,7,9,11)          -55.6101         estimate D2E/DX2                !
 ! D48   D(20,7,9,22)         -176.7004         estimate D2E/DX2                !
 ! D49   D(7,9,10,23)           67.0637         estimate D2E/DX2                !
 ! D50   D(11,9,10,23)        -168.9587         estimate D2E/DX2                !
 ! D51   D(22,9,10,23)         -52.68           estimate D2E/DX2                !
 ! D52   D(7,9,11,12)          -65.0415         estimate D2E/DX2                !
 ! D53   D(7,9,11,24)           56.276          estimate D2E/DX2                !
 ! D54   D(7,9,11,25)          175.3732         estimate D2E/DX2                !
 ! D55   D(10,9,11,12)         172.6898         estimate D2E/DX2                !
 ! D56   D(10,9,11,24)         -65.9927         estimate D2E/DX2                !
 ! D57   D(10,9,11,25)          53.1046         estimate D2E/DX2                !
 ! D58   D(22,9,11,12)          56.7801         estimate D2E/DX2                !
 ! D59   D(22,9,11,24)         178.0976         estimate D2E/DX2                !
 ! D60   D(22,9,11,25)         -62.8052         estimate D2E/DX2                !
 ! D61   D(9,11,12,26)         178.8041         estimate D2E/DX2                !
 ! D62   D(24,11,12,26)         56.7444         estimate D2E/DX2                !
 ! D63   D(25,11,12,26)        -60.6807         estimate D2E/DX2                !
 --------------------------------------------------------------------------------
 Trust Radius=3.00D-01 FncErr=1.00D-07 GrdErr=1.00D-06 EigMax=2.50D+02 EigMin=1.00D-04
 Number of steps in this run=    140 maximum allowed number of steps=    156.
 GradGradGradGradGradGradGradGradGradGradGradGradGradGradGradGradGradGrad

 Leave Link  103 at Mon Feb 22 20:59:35 2021, MaxMem=   104857600 cpu:               0.8 elap:               0.1
 (Enter /sw/arch/RedHatEnterpriseServer7/EB_production/2019/software/Gaussian/g16.c01/l202.exe)
                          Input orientation:                          
 ---------------------------------------------------------------------
 Center     Atomic      Atomic             Coordinates (Angstroms)
 Number     Number       Type             X           Y           Z
 ---------------------------------------------------------------------
      1          8           0       -3.662550  -68.674800   34.935140
      2          6           0       -2.431630  -67.957220   34.933620
      3          6           0       -1.228930  -68.934060   34.988220
      4          8           0       -1.377190  -69.771400   36.135560
      5          6           0        0.168040  -68.242490   35.068650
      6          8           0        1.163360  -69.257780   35.216670
      7          6           0        0.539080  -67.333850   33.853450
      8          8           0        0.504720  -68.109980   32.654260
      9          6           0        1.932960  -66.641870   33.986870
     10          8           0        2.004330  -65.884020   35.195480
     11          6           0        2.251610  -65.670910   32.820860
     12          8           0        2.372540  -66.356900   31.578510
     13          1           0       -4.357860  -67.983970   34.890090
     14          1           0       -2.397380  -67.358170   34.023530
     15          1           0       -2.416180  -67.290390   35.797490
     16          1           0       -1.261460  -69.582840   34.109160
     17          1           0       -2.222970  -70.247770   36.004070
     18          1           0        0.187140  -67.638540   35.979370
     19          1           0        1.083150  -69.812280   34.412150
     20          1           0       -0.208800  -66.543530   33.759960
     21          1           0       -0.428880  -68.387960   32.551710
     22          1           0        2.717520  -67.402280   34.024030
     23          1           0        1.979490  -66.545620   35.918280
     24          1           0        1.467840  -64.916090   32.733680
     25          1           0        3.197570  -65.162800   33.017600
     26          1           0        2.552000  -65.652930   30.920330
 ---------------------------------------------------------------------
                    Distance matrix (angstroms):
                    1          2          3          4          5
     1  O    0.000000
     2  C    1.424811   0.000000
     3  C    2.447966   1.550382   0.000000
     4  O    2.804712   2.418213   1.428114   0.000000
     5  C    3.857219   2.618759   1.560853   2.421487   0.000000
     6  O    4.869141   3.833474   2.424878   2.750011   1.429470
     7  C    4.541134   3.221874   2.640878   3.849905   1.562053
     8  O    4.784096   3.720345   3.021923   4.292010   2.441350
     9  C    6.028412   4.655763   4.031673   5.036658   2.616711
    10  O    6.322164   4.903516   4.449682   5.237380   2.991727
    11  C    6.962099   5.623496   5.240206   6.400738   4.000856
    12  O    7.284362   6.074359   5.589138   6.818064   4.538320
    13  H    0.981189   1.926907   3.271468   3.691950   4.536793
    14  H    2.040883   1.090091   2.186168   3.365284   2.907865
    15  H    2.052724   1.091408   2.183147   2.710941   2.848841
    16  H    2.696667   2.166027   1.093033   2.038442   2.181887
    17  H    2.385212   2.536932   1.935433   0.979572   3.257773
    18  H    4.121209   2.837800   2.160094   2.649644   1.092946
    19  H    4.908059   4.008348   2.539457   3.004178   1.932009
    20  H    4.225133   2.883916   2.874704   4.174656   2.177417
    21  H    4.027361   3.141662   2.622000   3.956915   2.590842
    22  H    6.569225   5.258237   4.341714   5.180535   2.880457
    23  H    6.110040   4.734992   4.106533   4.660490   2.623469
    24  H    6.730173   5.412400   5.338502   6.575790   4.266908
    25  H    7.941810   6.570221   6.140004   7.203423   4.782191
    26  H    7.991935   6.800942   6.450502   7.720036   5.440372
                    6          7          8          9         10
     6  O    0.000000
     7  C    2.439180   0.000000
     8  O    2.883955   1.428851   0.000000
     9  C    2.991267   1.561902   2.443576   0.000000
    10  O    3.477059   2.459677   3.696150   1.428345   0.000000
    11  C    4.448576   2.600840   3.004737   1.550445   2.396953
    12  O    4.807643   3.080805   2.778359   2.464678   3.666288
    13  H    5.675660   5.047504   5.353457   6.495495   6.706751
    14  H    4.208440   2.941482   3.295801   4.389336   4.787655
    15  H    4.125661   3.537618   4.368441   4.755412   4.677735
    16  H    2.685516   2.892281   2.721294   4.343798   5.052400
    17  H    3.614873   4.554670   4.819924   5.860321   6.129127
    18  H    2.038788   2.176289   3.373347   2.830423   2.644807
    19  H    0.980386   2.598225   2.514475   3.309764   4.110159
    20  H    3.372237   1.092095   2.045837   2.155990   2.719120
    21  H    3.223946   1.934586   0.979489   3.269068   4.379469
    22  H    2.698274   2.186180   2.696960   1.093224   2.045984
    23  H    2.917899   2.638107   3.908452   1.934366   0.980189
    24  H    5.010810   2.821709   3.336891   2.182920   2.699105
    25  H    5.073734   3.532658   4.008657   2.174022   2.585951
    26  H    5.777699   3.934531   3.637989   3.280988   4.316278
                   11         12         13         14         15
    11  C    0.000000
    12  O    1.424303   0.000000
    13  H    7.301853   7.675429   0.000000
    14  H    5.089830   5.452779   2.232943   0.000000
    15  H    5.768128   6.450041   2.252676   1.775354   0.000000
    16  H    5.413370   5.478762   3.571264   2.499361   3.072322
    17  H    7.148590   7.472828   3.305071   3.507527   2.970876
    18  H    4.255560   5.078006   4.686457   3.253254   2.632786
    19  H    4.587859   4.650988   5.759838   4.276420   4.530387
    20  H    2.774345   3.384800   4.535059   2.350104   3.095457
    21  H    3.826203   3.594479   4.590001   2.664904   3.960948
    22  H    2.159243   2.681865   7.151883   5.115090   5.432546
    23  H    3.230043   4.361617   6.579364   4.838110   4.459954
    24  H    1.091627   2.056413   6.928259   4.750515   5.487244
    25  H    1.091661   2.043901   8.279477   6.093850   6.615785
    26  H    1.924207   0.980296   8.302946   6.085561   7.151977
                   16         17         18         19         20
    16  H    0.000000
    17  H    2.226503   0.000000
    18  H    3.062096   3.552087   0.000000
    19  H    2.375214   3.695171   2.825625   0.000000
    20  H    3.235342   4.776432   2.506311   3.574803   0.000000
    21  H    2.132271   4.312359   3.562298   2.788577   2.215903
    22  H    4.538102   6.035380   3.206555   2.937670   3.061133
    23  H    4.795975   5.601245   2.100173   3.707145   3.073591
    24  H    5.578493   7.262530   4.425656   5.190176   2.552045
    25  H    6.372692   8.009880   4.895310   5.294639   3.749783
    26  H    6.336821   8.352084   5.926980   5.625879   4.059394
                   21         22         23         24         25
    21  H    0.000000
    22  H    3.610973   0.000000
    23  H    4.530812   2.206068   0.000000
    24  H    3.960371   3.067221   3.613700   0.000000
    25  H    4.875433   2.501723   3.436547   1.770153   0.000000
    26  H    4.362045   3.566592   5.109224   2.237538   2.248450
                   26
    26  H    0.000000
 Stoichiometry    C6H14O6
 Framework group  C1[X(C6H14O6)]
 Deg. of freedom    72
 Full point group                 C1      NOp   1
 Largest Abelian subgroup         C1      NOp   1
 Largest concise Abelian subgroup C1      NOp   1
                         Standard orientation:                         
 ---------------------------------------------------------------------
 Center     Atomic      Atomic             Coordinates (Angstroms)
 Number     Number       Type             X           Y           Z
 ---------------------------------------------------------------------
      1          8           0        3.700043   -1.420766    0.466074
      2          6           0        2.399281   -0.923488    0.767435
      3          6           0        1.947097    0.107185   -0.298833
      4          8           0        2.928779    1.141683   -0.373816
      5          6           0        0.562688    0.770586   -0.016744
      6          8           0        0.328626    1.763425   -1.018179
      7          6           0       -0.654258   -0.207612    0.029940
      8          8           0       -0.749491   -0.904259   -1.213937
      9          6           0       -2.014794    0.494046    0.340032
     10          8           0       -1.935899    1.224751    1.564783
     11          6           0       -3.200341   -0.495874    0.475737
     12          8           0       -3.477053   -1.162242   -0.752279
     13          1           0        3.896145   -2.064590    1.180054
     14          1           0        1.716483   -1.772867    0.792750
     15          1           0        2.424047   -0.459274    1.754889
     16          1           0        1.920880   -0.383843   -1.275012
     17          1           0        3.760464    0.694532   -0.634425
     18          1           0        0.633579    1.291252    0.941594
     19          1           0        0.325338    1.273054   -1.867109
     20          1           0       -0.484149   -0.948398    0.814140
     21          1           0        0.068407   -1.439742   -1.274757
     22          1           0       -2.250712    1.204431   -0.456733
     23          1           0       -1.307321    1.956328    1.390265
     24          1           0       -2.982831   -1.242046    1.242266
     25          1           0       -4.098526    0.049287    0.772024
     26          1           0       -4.219879   -1.767925   -0.546515
 ---------------------------------------------------------------------
 Rotational constants (GHZ):           1.5094289           0.4458091           0.4145669
 Leave Link  202 at Mon Feb 22 20:59:35 2021, MaxMem=   104857600 cpu:               0.5 elap:               0.0
 (Enter /sw/arch/RedHatEnterpriseServer7/EB_production/2019/software/Gaussian/g16.c01/l301.exe)
 Standard basis: TZVP (5D, 7F)
 Ernie: Thresh=  0.10000D-02 Tol=  0.10000D-05 Strict=F.
 There are   324 symmetry adapted cartesian basis functions of A   symmetry.
 There are   312 symmetry adapted basis functions of A   symmetry.
   312 basis functions,   532 primitive gaussians,   324 cartesian basis functions
    49 alpha electrons       49 beta electrons
       nuclear repulsion energy       806.4532422075 Hartrees.
 IExCor=  404 DFT=T Ex=B Corr=P86 ExCW=0 ScaHFX=  0.000000
 ScaDFX=  1.000000  1.000000  1.000000  1.000000 ScalE2=  1.000000  1.000000
 IRadAn=      5 IRanWt=     -1 IRanGd=            0 ICorTp=0 IEmpDi=131
 NAtoms=   26 NActive=   26 NUniq=   26 SFac= 1.00D+00 NAtFMM=   60 NAOKFM=F Big=F
 Integral buffers will be    131072 words long.
 Raffenetti 2 integral format.
 Two-electron integral symmetry is turned on.
 R6Disp:  Grimme-D3 Dispersion energy=       -0.0305185609 Hartrees.
 Nuclear repulsion after empirical dispersion term =      806.4227236466 Hartrees.
 ------------------------------------------------------------------------------
 Polarizable Continuum Model (PCM)
 =================================
 Model                : PCM.
 Atomic radii         : UFF (Universal Force Field).
 Polarization charges : Total charges.
 Charge compensation  : None.
 Solution method      : On-the-fly selection.
 Cavity type          : Scaled VdW (van der Waals Surface) (Alpha=1.100).
 Cavity algorithm     : GePol (No added spheres)
                        Default sphere list used, NSphG=   26.
                        Lebedev-Laikov grids with approx.  5.0 points / Ang**2.
                        Smoothing algorithm: York/Karplus (Gamma=1.0000).
                        Polarization charges: spherical gaussians, with
                                              point-specific exponents (IZeta= 3).
                        Self-potential: point-specific (ISelfS= 7).
                        Self-field    : sphere-specific E.n sum rule (ISelfD= 2).
 1st derivatives      : Analytical E(r).r(x)/FMM algorithm (CHGder, D1EAlg=3).
                        Cavity 1st derivative terms included.
 Solvent              : Water, Eps=  78.355300 Eps(inf)=   1.777849
 ------------------------------------------------------------------------------
 GePol: Number of generator spheres                  =      26
 GePol: Total number of spheres                      =      26
 GePol: Number of exposed spheres                    =      26 (100.00%)
 GePol: Number of points                             =    1869
 GePol: Average weight of points                     =       0.13
 GePol: Minimum weight of points                     =   0.30D-10
 GePol: Maximum weight of points                     =    0.20577
 GePol: Number of points with low weight             =     122
 GePol: Fraction of low-weight points (<1% of avg)   =       6.53%
 GePol: Cavity surface area                          =    247.429 Ang**2
 GePol: Cavity volume                                =    254.306 Ang**3
 Leave Link  301 at Mon Feb 22 20:59:35 2021, MaxMem=   104857600 cpu:               1.9 elap:               0.1
 (Enter /sw/arch/RedHatEnterpriseServer7/EB_production/2019/software/Gaussian/g16.c01/l302.exe)
 NPDir=0 NMtPBC=     1 NCelOv=     1 NCel=       1 NClECP=     1 NCelD=      1
         NCelK=      1 NCelE2=     1 NClLst=     1 CellRange=     0.0.
 One-electron integrals computed using PRISM.
 One-electron integral symmetry used in STVInt
 PrsmSu:  requested number of processors reduced to:  27 ShMem   1 Linda.
 NBasis=   312 RedAO= T EigKep=  1.04D-04  NBF=   312
 NBsUse=   312 1.00D-06 EigRej= -1.00D+00 NBFU=   312
 Precomputing XC quadrature grid using
 IXCGrd= 4 IRadAn=           5 IRanWt=          -1 IRanGd=           0 AccXCQ= 0.00D+00.
 Generated NRdTot=       0 NPtTot=           0 NUsed=           0 NTot=          32
 NSgBfM=   320   320   320   320   320 MxSgAt=    26 MxSgA2=    26.
 Leave Link  302 at Mon Feb 22 20:59:35 2021, MaxMem=   104857600 cpu:              10.1 elap:               0.4
 (Enter /sw/arch/RedHatEnterpriseServer7/EB_production/2019/software/Gaussian/g16.c01/l303.exe)
 DipDrv:  MaxL=1.
 Leave Link  303 at Mon Feb 22 20:59:36 2021, MaxMem=   104857600 cpu:               1.3 elap:               0.1
 (Enter /sw/arch/RedHatEnterpriseServer7/EB_production/2019/software/Gaussian/g16.c01/l401.exe)
 ExpMin= 9.52D-02 ExpMax= 2.70D+04 ExpMxC= 9.22D+02 IAcc=3 IRadAn=         5 AccDes= 0.00D+00
 Harris functional with IExCor=  404 and IRadAn=       5 diagonalized for initial guess.
 HarFok:  IExCor=  404 AccDes= 0.00D+00 IRadAn=         5 IDoV= 1 UseB2=F ITyADJ=14
 ICtDFT=  3500011 ScaDFX=  1.000000  1.000000  1.000000  1.000000
 FoFCou: FMM=F IPFlag=           0 FMFlag=      100000 FMFlg1=           0
         NFxFlg=           0 DoJE=T BraDBF=F KetDBF=T FulRan=T
         wScrn=  0.000000 ICntrl=       500 IOpCl=  0 I1Cent=   200000004 NGrid=           0
         NMat0=    1 NMatS0=      1 NMatT0=    0 NMatD0=    1 NMtDS0=    0 NMtDT0=    0
 Petite list used in FoFCou.
 Harris En= -688.845873706951    
 JPrj=0 DoOrth=F DoCkMO=F.
 Leave Link  401 at Mon Feb 22 20:59:36 2021, MaxMem=   104857600 cpu:              16.4 elap:               0.6
 (Enter /sw/arch/RedHatEnterpriseServer7/EB_production/2019/software/Gaussian/g16.c01/l502.exe)
 Integral symmetry usage will be decided dynamically.
 Closed shell SCF:
 Using DIIS extrapolation, IDIIS=  1040.
 NGot=   104857600 LenX=   104633290 LenY=   104527873
 Requested convergence on RMS density matrix=1.00D-08 within 128 cycles.
 Requested convergence on MAX density matrix=1.00D-06.
 Requested convergence on             energy=1.00D-06.
 No special actions if energy rises.
 Fock matrices will be formed incrementally for  20 cycles.

 Cycle   1  Pass 1  IDiag  1:
 FoFJK:  IHMeth= 1 ICntrl=     500 DoSepK=F KAlg= 0 I1Cent=           0 FoldK=F
 IRaf= 870000000 NMat=       1 IRICut=       1 DoRegI=T DoRafI=F ISym2E= 0 IDoP0=0 IntGTp=1.
 FoFCou: FMM=F IPFlag=           0 FMFlag=      100000 FMFlg1=           0
         NFxFlg=           0 DoJE=T BraDBF=F KetDBF=F FulRan=T
         wScrn=  0.000000 ICntrl=       500 IOpCl=  0 I1Cent=           0 NGrid=           0
         NMat0=    1 NMatS0=      1 NMatT0=    0 NMatD0=    1 NMtDS0=    0 NMtDT0=    0
 Symmetry not used in FoFCou.
 Inv3:  Mode=1 IEnd=    10479483.
 Iteration    1 A*A^-1 deviation from unit magnitude is 3.77D-15 for   1458.
 Iteration    1 A*A^-1 deviation from orthogonality  is 1.70D-15 for   1528    723.
 Iteration    1 A^-1*A deviation from unit magnitude is 4.22D-15 for   1458.
 Iteration    1 A^-1*A deviation from orthogonality  is 8.35D-15 for   1599   1528.
 E= -688.374990369743    
 DIIS: error= 2.21D-02 at cycle   1 NSaved=   1.
 NSaved= 1 IEnMin= 1 EnMin= -688.374990369743     IErMin= 1 ErrMin= 2.21D-02
 ErrMax= 2.21D-02  0.00D+00 EMaxC= 1.00D-01 BMatC= 3.76D-01 BMatP= 3.76D-01
 IDIUse=3 WtCom= 7.79D-01 WtEn= 2.21D-01
 Coeff-Com:  0.100D+01
 Coeff-En:   0.100D+01
 Coeff:      0.100D+01
 Gap=     0.167 Goal=   None    Shift=    0.000
 GapD=    0.167 DampG=1.000 DampE=0.500 DampFc=0.5000 IDamp=-1.
 Damping current iteration by 5.00D-01
 RMSDP=1.36D-02 MaxDP=1.50D+00              OVMax= 1.84D-01

 Cycle   2  Pass 1  IDiag  1:
 RMSU=  6.57D-03    CP:  1.14D+00
 E= -688.410059999456     Delta-E=       -0.035069629713 Rises=F Damp=T
 DIIS: error= 1.20D-02 at cycle   2 NSaved=   2.
 NSaved= 2 IEnMin= 2 EnMin= -688.410059999456     IErMin= 2 ErrMin= 1.20D-02
 ErrMax= 1.20D-02  0.00D+00 EMaxC= 1.00D-01 BMatC= 8.88D-02 BMatP= 3.76D-01
 IDIUse=3 WtCom= 8.80D-01 WtEn= 1.20D-01
 Coeff-Com:  0.306D+00 0.694D+00
 Coeff-En:   0.450D+00 0.550D+00
 Coeff:      0.323D+00 0.677D+00
 Gap=     0.220 Goal=   None    Shift=    0.000
 RMSDP=3.76D-03 MaxDP=4.40D-01 DE=-3.51D-02 OVMax= 1.18D-01

 Cycle   3  Pass 1  IDiag  1:
 RMSU=  1.07D-03    CP:  1.06D+00  4.71D-01
 E= -688.657422314999     Delta-E=       -0.247362315543 Rises=F Damp=F
 DIIS: error= 4.00D-03 at cycle   3 NSaved=   3.
 NSaved= 3 IEnMin= 3 EnMin= -688.657422314999     IErMin= 3 ErrMin= 4.00D-03
 ErrMax= 4.00D-03  0.00D+00 EMaxC= 1.00D-01 BMatC= 1.19D-02 BMatP= 8.88D-02
 IDIUse=3 WtCom= 9.60D-01 WtEn= 4.00D-02
 Coeff-Com:  0.117D+00 0.304D+00 0.579D+00
 Coeff-En:   0.000D+00 0.000D+00 0.100D+01
 Coeff:      0.113D+00 0.292D+00 0.596D+00
 Gap=     0.219 Goal=   None    Shift=    0.000
 RMSDP=6.50D-04 MaxDP=2.99D-02 DE=-2.47D-01 OVMax= 2.08D-02

 Cycle   4  Pass 1  IDiag  1:
 RMSU=  5.04D-04    CP:  1.07D+00  4.99D-01  6.82D-01
 E= -688.665493546104     Delta-E=       -0.008071231105 Rises=F Damp=F
 DIIS: error= 2.35D-03 at cycle   4 NSaved=   4.
 NSaved= 4 IEnMin= 4 EnMin= -688.665493546104     IErMin= 4 ErrMin= 2.35D-03
 ErrMax= 2.35D-03  0.00D+00 EMaxC= 1.00D-01 BMatC= 3.73D-03 BMatP= 1.19D-02
 IDIUse=3 WtCom= 9.76D-01 WtEn= 2.35D-02
 Coeff-Com:  0.352D-01 0.796D-01 0.362D+00 0.524D+00
 Coeff-En:   0.000D+00 0.000D+00 0.246D+00 0.754D+00
 Coeff:      0.343D-01 0.777D-01 0.359D+00 0.529D+00
 Gap=     0.217 Goal=   None    Shift=    0.000
 RMSDP=3.11D-04 MaxDP=2.27D-02 DE=-8.07D-03 OVMax= 7.58D-03

 Cycle   5  Pass 1  IDiag  1:
 RMSU=  1.45D-04    CP:  1.07D+00  4.80D-01  7.82D-01  5.98D-01
 E= -688.668781427326     Delta-E=       -0.003287881222 Rises=F Damp=F
 DIIS: error= 4.37D-04 at cycle   5 NSaved=   5.
 NSaved= 5 IEnMin= 5 EnMin= -688.668781427326     IErMin= 5 ErrMin= 4.37D-04
 ErrMax= 4.37D-04  0.00D+00 EMaxC= 1.00D-01 BMatC= 7.97D-05 BMatP= 3.73D-03
 IDIUse=3 WtCom= 9.96D-01 WtEn= 4.37D-03
 Coeff-Com:  0.916D-02 0.133D-01 0.118D+00 0.215D+00 0.644D+00
 Coeff-En:   0.000D+00 0.000D+00 0.000D+00 0.000D+00 0.100D+01
 Coeff:      0.912D-02 0.132D-01 0.117D+00 0.214D+00 0.646D+00
 Gap=     0.217 Goal=   None    Shift=    0.000
 RMSDP=5.41D-05 MaxDP=1.11D-03 DE=-3.29D-03 OVMax= 1.49D-03

 Cycle   6  Pass 1  IDiag  1:
 RMSU=  3.60D-05    CP:  1.07D+00  4.79D-01  7.85D-01  6.07D-01  7.32D-01
 E= -688.668818246938     Delta-E=       -0.000036819612 Rises=F Damp=F
 DIIS: error= 2.57D-04 at cycle   6 NSaved=   6.
 NSaved= 6 IEnMin= 6 EnMin= -688.668818246938     IErMin= 6 ErrMin= 2.57D-04
 ErrMax= 2.57D-04  0.00D+00 EMaxC= 1.00D-01 BMatC= 3.15D-05 BMatP= 7.97D-05
 IDIUse=3 WtCom= 9.97D-01 WtEn= 2.57D-03
 Coeff-Com:  0.376D-02 0.250D-02 0.527D-01 0.106D+00 0.436D+00 0.400D+00
 Coeff-En:   0.000D+00 0.000D+00 0.000D+00 0.000D+00 0.251D+00 0.749D+00
 Coeff:      0.375D-02 0.249D-02 0.525D-01 0.105D+00 0.435D+00 0.401D+00
 Gap=     0.217 Goal=   None    Shift=    0.000
 RMSDP=2.14D-05 MaxDP=1.10D-03 DE=-3.68D-05 OVMax= 6.87D-04

 Cycle   7  Pass 1  IDiag  1:
 RMSU=  9.41D-06    CP:  1.07D+00  4.79D-01  7.84D-01  6.07D-01  7.50D-01
                    CP:  4.76D-01
 E= -688.668839093425     Delta-E=       -0.000020846487 Rises=F Damp=F
 DIIS: error= 3.05D-05 at cycle   7 NSaved=   7.
 NSaved= 7 IEnMin= 7 EnMin= -688.668839093425     IErMin= 7 ErrMin= 3.05D-05
 ErrMax= 3.05D-05  0.00D+00 EMaxC= 1.00D-01 BMatC= 3.68D-07 BMatP= 3.15D-05
 IDIUse=1 WtCom= 1.00D+00 WtEn= 0.00D+00
 Coeff-Com:  0.109D-02 0.388D-04 0.132D-01 0.270D-01 0.123D+00 0.156D+00
 Coeff-Com:  0.680D+00
 Coeff:      0.109D-02 0.388D-04 0.132D-01 0.270D-01 0.123D+00 0.156D+00
 Coeff:      0.680D+00
 Gap=     0.217 Goal=   None    Shift=    0.000
 RMSDP=4.28D-06 MaxDP=2.57D-04 DE=-2.08D-05 OVMax= 8.74D-05

 Cycle   8  Pass 1  IDiag  1:
 RMSU=  2.13D-06    CP:  1.07D+00  4.79D-01  7.84D-01  6.10D-01  7.59D-01
                    CP:  4.98D-01  7.05D-01
 E= -688.668839400585     Delta-E=       -0.000000307160 Rises=F Damp=F
 DIIS: error= 7.08D-06 at cycle   8 NSaved=   8.
 NSaved= 8 IEnMin= 8 EnMin= -688.668839400585     IErMin= 8 ErrMin= 7.08D-06
 ErrMax= 7.08D-06  0.00D+00 EMaxC= 1.00D-01 BMatC= 3.03D-08 BMatP= 3.68D-07
 IDIUse=1 WtCom= 1.00D+00 WtEn= 0.00D+00
 Coeff-Com:  0.307D-03-0.156D-03 0.284D-02 0.569D-02 0.277D-01 0.433D-01
 Coeff-Com:  0.296D+00 0.624D+00
 Coeff:      0.307D-03-0.156D-03 0.284D-02 0.569D-02 0.277D-01 0.433D-01
 Coeff:      0.296D+00 0.624D+00
 Gap=     0.217 Goal=   None    Shift=    0.000
 RMSDP=9.84D-07 MaxDP=2.64D-05 DE=-3.07D-07 OVMax= 3.54D-05

 Cycle   9  Pass 1  IDiag  1:
 RMSU=  8.01D-07    CP:  1.07D+00  4.79D-01  7.84D-01  6.09D-01  7.58D-01
                    CP:  5.02D-01  7.23D-01  8.03D-01
 E= -688.668839397455     Delta-E=        0.000000003130 Rises=F Damp=F
 DIIS: error= 3.58D-06 at cycle   9 NSaved=   9.
 NSaved= 9 IEnMin= 8 EnMin= -688.668839400585     IErMin= 9 ErrMin= 3.58D-06
 ErrMax= 3.58D-06  0.00D+00 EMaxC= 1.00D-01 BMatC= 8.50D-09 BMatP= 3.03D-08
 IDIUse=1 WtCom= 1.00D+00 WtEn= 0.00D+00
 Coeff-Com:  0.560D-04-0.105D-03 0.692D-04 0.272D-04 0.956D-03 0.596D-02
 Coeff-Com:  0.939D-01 0.392D+00 0.507D+00
 Coeff:      0.560D-04-0.105D-03 0.692D-04 0.272D-04 0.956D-03 0.596D-02
 Coeff:      0.939D-01 0.392D+00 0.507D+00
 Gap=     0.217 Goal=   None    Shift=    0.000
 RMSDP=5.58D-07 MaxDP=5.69D-05 DE= 3.13D-09 OVMax= 1.27D-05

 Cycle  10  Pass 1  IDiag  1:
 RMSU=  2.08D-07    CP:  1.07D+00  4.78D-01  7.84D-01  6.09D-01  7.58D-01
                    CP:  5.01D-01  7.38D-01  8.43D-01  5.91D-01
 E= -688.668839404191     Delta-E=       -0.000000006736 Rises=F Damp=F
 DIIS: error= 7.48D-07 at cycle  10 NSaved=  10.
 NSaved=10 IEnMin=10 EnMin= -688.668839404191     IErMin=10 ErrMin= 7.48D-07
 ErrMax= 7.48D-07  0.00D+00 EMaxC= 1.00D-01 BMatC= 3.26D-10 BMatP= 8.50D-09
 IDIUse=1 WtCom= 1.00D+00 WtEn= 0.00D+00
 Coeff-Com:  0.193D-04-0.503D-04-0.586D-04-0.177D-03-0.465D-03 0.160D-02
 Coeff-Com:  0.397D-01 0.190D+00 0.278D+00 0.491D+00
 Coeff:      0.193D-04-0.503D-04-0.586D-04-0.177D-03-0.465D-03 0.160D-02
 Coeff:      0.397D-01 0.190D+00 0.278D+00 0.491D+00
 Gap=     0.217 Goal=   None    Shift=    0.000
 RMSDP=1.05D-07 MaxDP=8.13D-06 DE=-6.74D-09 OVMax= 2.86D-06

 Cycle  11  Pass 1  IDiag  1:
 RMSU=  6.36D-08    CP:  1.07D+00  4.78D-01  7.84D-01  6.09D-01  7.58D-01
                    CP:  5.01D-01  7.39D-01  8.44D-01  6.31D-01  6.76D-01
 E= -688.668839404388     Delta-E=       -0.000000000197 Rises=F Damp=F
 DIIS: error= 3.38D-07 at cycle  11 NSaved=  11.
 NSaved=11 IEnMin=11 EnMin= -688.668839404388     IErMin=11 ErrMin= 3.38D-07
 ErrMax= 3.38D-07  0.00D+00 EMaxC= 1.00D-01 BMatC= 5.26D-11 BMatP= 3.26D-10
 IDIUse=1 WtCom= 1.00D+00 WtEn= 0.00D+00
 Coeff-Com:  0.293D-05-0.143D-04-0.464D-04-0.111D-03-0.438D-03 0.502D-04
 Coeff-Com:  0.987D-02 0.550D-01 0.914D-01 0.308D+00 0.536D+00
 Coeff:      0.293D-05-0.143D-04-0.464D-04-0.111D-03-0.438D-03 0.502D-04
 Coeff:      0.987D-02 0.550D-01 0.914D-01 0.308D+00 0.536D+00
 Gap=     0.217 Goal=   None    Shift=    0.000
 RMSDP=3.96D-08 MaxDP=2.11D-06 DE=-1.97D-10 OVMax= 9.21D-07

 Cycle  12  Pass 1  IDiag  1:
 RMSU=  1.56D-08    CP:  1.07D+00  4.78D-01  7.84D-01  6.09D-01  7.58D-01
                    CP:  5.01D-01  7.38D-01  8.48D-01  6.25D-01  7.12D-01
                    CP:  5.61D-01
 E= -688.668839404418     Delta-E=       -0.000000000030 Rises=F Damp=F
 DIIS: error= 3.41D-08 at cycle  12 NSaved=  12.
 NSaved=12 IEnMin=12 EnMin= -688.668839404418     IErMin=12 ErrMin= 3.41D-08
 ErrMax= 3.41D-08  0.00D+00 EMaxC= 1.00D-01 BMatC= 8.89D-13 BMatP= 5.26D-11
 IDIUse=1 WtCom= 1.00D+00 WtEn= 0.00D+00
 Coeff-Com:  0.298D-06-0.343D-05-0.143D-04-0.333D-04-0.140D-03-0.401D-04
 Coeff-Com:  0.214D-02 0.130D-01 0.231D-01 0.979D-01 0.213D+00 0.652D+00
 Coeff:      0.298D-06-0.343D-05-0.143D-04-0.333D-04-0.140D-03-0.401D-04
 Coeff:      0.214D-02 0.130D-01 0.231D-01 0.979D-01 0.213D+00 0.652D+00
 Gap=     0.217 Goal=   None    Shift=    0.000
 RMSDP=6.14D-09 MaxDP=2.37D-07 DE=-2.99D-11 OVMax= 1.77D-07

 Error on total polarization charges =  0.01092
 SCF Done:  E(RB-P86) =  -688.668839404     A.U. after   12 cycles
            NFock= 12  Conv=0.61D-08     -V/T= 2.0042
 KE= 6.857947449564D+02 PE=-3.230653913931D+03 EE= 1.049767605924D+03
 Leave Link  502 at Mon Feb 22 20:59:56 2021, MaxMem=   104857600 cpu:             603.1 elap:              19.3
 (Enter /sw/arch/RedHatEnterpriseServer7/EB_production/2019/software/Gaussian/g16.c01/l601.exe)
 Copying SCF densities to generalized density rwf, IOpCl= 0 IROHF=0.

 **********************************************************************

            Population analysis using the SCF Density.

 **********************************************************************

 Orbital symmetries:
       Occupied  (A) (A) (A) (A) (A) (A) (A) (A) (A) (A) (A) (A)
                 (A) (A) (A) (A) (A) (A) (A) (A) (A) (A) (A) (A)
                 (A) (A) (A) (A) (A) (A) (A) (A) (A) (A) (A) (A)
                 (A) (A) (A) (A) (A) (A) (A) (A) (A) (A) (A) (A)
                 (A)
       Virtual   (A) (A) (A) (A) (A) (A) (A) (A) (A) (A) (A) (A)
                 (A) (A) (A) (A) (A) (A) (A) (A) (A) (A) (A) (A)
                 (A) (A) (A) (A) (A) (A) (A) (A) (A) (A) (A) (A)
                 (A) (A) (A) (A) (A) (A) (A) (A) (A) (A) (A) (A)
                 (A) (A) (A) (A) (A) (A) (A) (A) (A) (A) (A) (A)
                 (A) (A) (A) (A) (A) (A) (A) (A) (A) (A) (A) (A)
                 (A) (A) (A) (A) (A) (A) (A) (A) (A) (A) (A) (A)
                 (A) (A) (A) (A) (A) (A) (A) (A) (A) (A) (A) (A)
                 (A) (A) (A) (A) (A) (A) (A) (A) (A) (A) (A) (A)
                 (A) (A) (A) (A) (A) (A) (A) (A) (A) (A) (A) (A)
                 (A) (A) (A) (A) (A) (A) (A) (A) (A) (A) (A) (A)
                 (A) (A) (A) (A) (A) (A) (A) (A) (A) (A) (A) (A)
                 (A) (A) (A) (A) (A) (A) (A) (A) (A) (A) (A) (A)
                 (A) (A) (A) (A) (A) (A) (A) (A) (A) (A) (A) (A)
                 (A) (A) (A) (A) (A) (A) (A) (A) (A) (A) (A) (A)
                 (A) (A) (A) (A) (A) (A) (A) (A) (A) (A) (A) (A)
                 (A) (A) (A) (A) (A) (A) (A) (A) (A) (A) (A) (A)
                 (A) (A) (A) (A) (A) (A) (A) (A) (A) (A) (A) (A)
                 (A) (A) (A) (A) (A) (A) (A) (A) (A) (A) (A) (A)
                 (A) (A) (A) (A) (A) (A) (A) (A) (A) (A) (A) (A)
                 (A) (A) (A) (A) (A) (A) (A) (A) (A) (A) (A) (A)
                 (A) (A) (A) (A) (A) (A) (A) (A) (A) (A) (A)
 The electronic state is 1-A.
 Alpha  occ. eigenvalues --  -18.78667 -18.78383 -18.78277 -18.78113 -18.77857
 Alpha  occ. eigenvalues --  -18.77172  -9.96544  -9.96536  -9.96138  -9.96080
 Alpha  occ. eigenvalues --   -9.95002  -9.94561  -0.97083  -0.96009  -0.95229
 Alpha  occ. eigenvalues --   -0.94458  -0.93951  -0.93365  -0.71355  -0.69074
 Alpha  occ. eigenvalues --   -0.64361  -0.59842  -0.55237  -0.53515  -0.50531
 Alpha  occ. eigenvalues --   -0.49145  -0.47991  -0.46539  -0.45095  -0.44352
 Alpha  occ. eigenvalues --   -0.42872  -0.41728  -0.41134  -0.39914  -0.37811
 Alpha  occ. eigenvalues --   -0.37433  -0.36195  -0.33397  -0.32646  -0.32219
 Alpha  occ. eigenvalues --   -0.31828  -0.29509  -0.28752  -0.26172  -0.24841
 Alpha  occ. eigenvalues --   -0.24387  -0.24237  -0.23676  -0.22434
 Alpha virt. eigenvalues --   -0.00702   0.00156   0.00856   0.02364   0.02553
 Alpha virt. eigenvalues --    0.04603   0.05666   0.06452   0.07706   0.07958
 Alpha virt. eigenvalues --    0.09092   0.09987   0.10837   0.11439   0.12350
 Alpha virt. eigenvalues --    0.13332   0.13847   0.15060   0.16064   0.16269
 Alpha virt. eigenvalues --    0.17250   0.17330   0.17874   0.20741   0.21563
 Alpha virt. eigenvalues --    0.23918   0.24973   0.25480   0.26179   0.27587
 Alpha virt. eigenvalues --    0.28578   0.28909   0.30067   0.30555   0.31136
 Alpha virt. eigenvalues --    0.31384   0.32016   0.32534   0.33681   0.34425
 Alpha virt. eigenvalues --    0.35061   0.35342   0.36386   0.37277   0.37463
 Alpha virt. eigenvalues --    0.38512   0.39859   0.40310   0.41238   0.42047
 Alpha virt. eigenvalues --    0.42547   0.42996   0.43603   0.44052   0.44356
 Alpha virt. eigenvalues --    0.44684   0.46375   0.46756   0.48688   0.49336
 Alpha virt. eigenvalues --    0.50049   0.50955   0.52233   0.52990   0.53446
 Alpha virt. eigenvalues --    0.54427   0.54760   0.55185   0.58242   0.58611
 Alpha virt. eigenvalues --    0.59625   0.61559   0.64264   0.65857   0.66667
 Alpha virt. eigenvalues --    0.68541   0.69450   0.72295   0.72670   0.77073
 Alpha virt. eigenvalues --    0.79107   0.80579   0.83641   0.85897   0.86798
 Alpha virt. eigenvalues --    0.90537   0.98554   1.11510   1.12680   1.14525
 Alpha virt. eigenvalues --    1.18921   1.19804   1.20555   1.22501   1.23186
 Alpha virt. eigenvalues --    1.23959   1.24635   1.24913   1.27734   1.28324
 Alpha virt. eigenvalues --    1.28859   1.31099   1.31659   1.33447   1.34695
 Alpha virt. eigenvalues --    1.34977   1.36404   1.37910   1.37969   1.40057
 Alpha virt. eigenvalues --    1.40614   1.43041   1.43797   1.44398   1.46298
 Alpha virt. eigenvalues --    1.47441   1.48946   1.50484   1.51213   1.53023
 Alpha virt. eigenvalues --    1.53663   1.57450   1.58610   1.60041   1.61088
 Alpha virt. eigenvalues --    1.62701   1.64399   1.65297   1.67061   1.68725
 Alpha virt. eigenvalues --    1.70473   1.72440   1.72777   1.75913   1.78051
 Alpha virt. eigenvalues --    1.78624   1.80140   1.82109   1.83505   1.84695
 Alpha virt. eigenvalues --    1.85213   1.87374   1.88655   1.88951   1.90560
 Alpha virt. eigenvalues --    1.92344   1.93631   1.94972   1.95611   1.97322
 Alpha virt. eigenvalues --    1.97797   1.99261   2.00712   2.01448   2.02662
 Alpha virt. eigenvalues --    2.02701   2.05036   2.06255   2.09173   2.11294
 Alpha virt. eigenvalues --    2.15613   2.19257   2.20808   2.22713   2.24458
 Alpha virt. eigenvalues --    2.25493   2.27298   2.30686   2.34905   2.35696
 Alpha virt. eigenvalues --    2.36019   2.40970   2.43037   2.44946   2.45614
 Alpha virt. eigenvalues --    2.47834   2.49433   2.51105   2.51371   2.53964
 Alpha virt. eigenvalues --    2.55257   2.56258   2.57822   2.58394   2.59014
 Alpha virt. eigenvalues --    2.60001   2.61510   2.61812   2.62779   2.63916
 Alpha virt. eigenvalues --    2.63992   2.64905   2.66537   2.67624   2.68103
 Alpha virt. eigenvalues --    2.72338   2.75320   2.79323   2.81388   2.83507
 Alpha virt. eigenvalues --    2.83893   2.84723   2.85366   2.86122   2.87247
 Alpha virt. eigenvalues --    2.87832   2.88171   2.89972   2.91018   2.91796
 Alpha virt. eigenvalues --    2.92662   2.93749   2.94131   2.95884   2.97352
 Alpha virt. eigenvalues --    2.98200   3.00627   3.02427   3.05380   3.05769
 Alpha virt. eigenvalues --    3.07264   3.09744   3.12385   3.13208   3.13970
 Alpha virt. eigenvalues --    3.14943   3.16615   3.18947   3.19091   3.20895
 Alpha virt. eigenvalues --    3.23429   3.28280   3.30844   3.33509   3.35687
 Alpha virt. eigenvalues --    3.36197   3.40830   3.45521   3.46719   3.84528
 Alpha virt. eigenvalues --    3.86801   3.88382   3.89546   3.94153   3.95621
 Alpha virt. eigenvalues --    4.14514   4.15681   4.16978   4.17711   4.18323
 Alpha virt. eigenvalues --    4.19137  21.62863  21.67956  21.68685  21.74803
 Alpha virt. eigenvalues --   21.75915  21.83418  43.09196  43.13539  43.18800
 Alpha virt. eigenvalues --   43.21345  43.25979  43.30070
          Condensed to atoms (all electrons):
               1          2          3          4          5          6
     1  O    7.973214   0.301599  -0.112316  -0.001542   0.019174  -0.000134
     2  C    0.301599   5.267220  -0.031744  -0.022731   0.026796   0.016112
     3  C   -0.112316  -0.031744   6.368841   0.241192  -0.670107  -0.008257
     4  O   -0.001542  -0.022731   0.241192   7.977708  -0.114384  -0.001222
     5  C    0.019174   0.026796  -0.670107  -0.114384   7.031462   0.094556
     6  O   -0.000134   0.016112  -0.008257  -0.001222   0.094556   7.986741
     7  C   -0.002653   0.027416   0.188792   0.022348  -0.658639   0.042957
     8  O    0.000061  -0.011367  -0.015286   0.000166   0.040566  -0.026541
     9  C    0.000016   0.004280  -0.014350  -0.000274   0.095283  -0.031492
    10  O    0.000000  -0.000656   0.005801   0.000013   0.006360  -0.003911
    11  C   -0.000003  -0.000556   0.003454   0.000016  -0.005139   0.000098
    12  O    0.000000  -0.000058   0.000279  -0.000000  -0.003779   0.000014
    13  H    0.303459  -0.033618   0.015028  -0.000290  -0.002060   0.000019
    14  H   -0.056591   0.389353  -0.034471   0.009536  -0.029856  -0.000432
    15  H   -0.059351   0.374966  -0.030435  -0.007802   0.024120  -0.000679
    16  H    0.012709  -0.075575   0.310920  -0.057724   0.048033  -0.018615
    17  H    0.016493  -0.009081  -0.054751   0.306754   0.022421  -0.001025
    18  H   -0.000695  -0.021470   0.010265   0.011220   0.304760  -0.051211
    19  H   -0.000024   0.000425   0.008019   0.001694  -0.065455   0.301911
    20  H    0.000073   0.004685  -0.028502   0.000066  -0.070236   0.009641
    21  H    0.000222  -0.005493   0.013592  -0.000541   0.000900  -0.001197
    22  H    0.000001  -0.000134  -0.002481   0.000045  -0.035001   0.030779
    23  H    0.000001  -0.000020  -0.001471  -0.000009   0.019333   0.002029
    24  H    0.000000   0.000176  -0.000718   0.000000   0.003059   0.000033
    25  H    0.000000  -0.000011   0.000100  -0.000000  -0.002658   0.000047
    26  H   -0.000000   0.000002  -0.000001   0.000000   0.000097  -0.000002
               7          8          9         10         11         12
     1  O   -0.002653   0.000061   0.000016   0.000000  -0.000003   0.000000
     2  C    0.027416  -0.011367   0.004280  -0.000656  -0.000556  -0.000058
     3  C    0.188792  -0.015286  -0.014350   0.005801   0.003454   0.000279
     4  O    0.022348   0.000166  -0.000274   0.000013   0.000016  -0.000000
     5  C   -0.658639   0.040566   0.095283   0.006360  -0.005139  -0.003779
     6  O    0.042957  -0.026541  -0.031492  -0.003911   0.000098   0.000014
     7  C    6.592271   0.160734  -0.303937  -0.032468  -0.016191   0.008117
     8  O    0.160734   7.956629  -0.069868   0.004957   0.008175  -0.005845
     9  C   -0.303937  -0.069868   5.906858   0.189736   0.079153  -0.109921
    10  O   -0.032468   0.004957   0.189736   7.956952  -0.044219   0.003305
    11  C   -0.016191   0.008175   0.079153  -0.044219   5.160696   0.326664
    12  O    0.008117  -0.005845  -0.109921   0.003305   0.326664   7.963128
    13  H    0.000251  -0.000001  -0.000006  -0.000000  -0.000000  -0.000000
    14  H    0.024175  -0.000466   0.000999  -0.000048   0.000331   0.000008
    15  H   -0.019383   0.000558  -0.000775   0.000140  -0.000041   0.000001
    16  H   -0.053018   0.014861  -0.002803  -0.000079  -0.000210   0.000004
    17  H   -0.001485   0.000085   0.000120  -0.000001  -0.000002   0.000000
    18  H   -0.045957   0.010583  -0.037982   0.015882  -0.000085   0.000036
    19  H    0.004720   0.013762  -0.013300  -0.000032  -0.000514   0.000065
    20  H    0.377123  -0.054410  -0.020926   0.009140  -0.021779   0.000105
    21  H   -0.041501   0.301751   0.006427  -0.000265   0.000336   0.001814
    22  H   -0.083294   0.002831   0.391216  -0.054079  -0.049824   0.010285
    23  H   -0.017075   0.000076  -0.034804   0.308813   0.009363  -0.000221
    24  H   -0.055355   0.001304   0.024544  -0.000759   0.368328  -0.063110
    25  H    0.033300  -0.000919  -0.078506   0.013853   0.414711  -0.051332
    26  H    0.000318   0.001023   0.015108  -0.000291  -0.035797   0.295648
              13         14         15         16         17         18
     1  O    0.303459  -0.056591  -0.059351   0.012709   0.016493  -0.000695
     2  C   -0.033618   0.389353   0.374966  -0.075575  -0.009081  -0.021470
     3  C    0.015028  -0.034471  -0.030435   0.310920  -0.054751   0.010265
     4  O   -0.000290   0.009536  -0.007802  -0.057724   0.306754   0.011220
     5  C   -0.002060  -0.029856   0.024120   0.048033   0.022421   0.304760
     6  O    0.000019  -0.000432  -0.000679  -0.018615  -0.001025  -0.051211
     7  C    0.000251   0.024175  -0.019383  -0.053018  -0.001485  -0.045957
     8  O   -0.000001  -0.000466   0.000558   0.014861   0.000085   0.010583
     9  C   -0.000006   0.000999  -0.000775  -0.002803   0.000120  -0.037982
    10  O   -0.000000  -0.000048   0.000140  -0.000079  -0.000001   0.015882
    11  C   -0.000000   0.000331  -0.000041  -0.000210  -0.000002  -0.000085
    12  O   -0.000000   0.000008   0.000001   0.000004   0.000000   0.000036
    13  H    0.421654  -0.004824  -0.004484  -0.000648  -0.000633  -0.000015
    14  H   -0.004824   0.620436  -0.059500  -0.006715   0.001955   0.002399
    15  H   -0.004484  -0.059500   0.619544   0.013622  -0.002116   0.007824
    16  H   -0.000648  -0.006715   0.013622   0.620883  -0.005413   0.014637
    17  H   -0.000633   0.001955  -0.002116  -0.005413   0.430417  -0.000372
    18  H   -0.000015   0.002399   0.007824   0.014637  -0.000372   0.595686
    19  H    0.000004  -0.000004  -0.000062   0.003505  -0.000189   0.008766
    20  H   -0.000022  -0.003193   0.000141   0.004405   0.000030   0.009924
    21  H   -0.000028   0.001151   0.000446   0.008902   0.000016   0.001001
    22  H   -0.000000  -0.000068   0.000008   0.000337   0.000002   0.003012
    23  H   -0.000000  -0.000011  -0.000007   0.000055   0.000003   0.001899
    24  H    0.000000  -0.000078   0.000004   0.000001  -0.000000   0.000016
    25  H   -0.000000   0.000005  -0.000001  -0.000000   0.000000  -0.000062
    26  H   -0.000000  -0.000001   0.000000  -0.000001  -0.000000   0.000000
              19         20         21         22         23         24
     1  O   -0.000024   0.000073   0.000222   0.000001   0.000001   0.000000
     2  C    0.000425   0.004685  -0.005493  -0.000134  -0.000020   0.000176
     3  C    0.008019  -0.028502   0.013592  -0.002481  -0.001471  -0.000718
     4  O    0.001694   0.000066  -0.000541   0.000045  -0.000009   0.000000
     5  C   -0.065455  -0.070236   0.000900  -0.035001   0.019333   0.003059
     6  O    0.301911   0.009641  -0.001197   0.030779   0.002029   0.000033
     7  C    0.004720   0.377123  -0.041501  -0.083294  -0.017075  -0.055355
     8  O    0.013762  -0.054410   0.301751   0.002831   0.000076   0.001304
     9  C   -0.013300  -0.020926   0.006427   0.391216  -0.034804   0.024544
    10  O   -0.000032   0.009140  -0.000265  -0.054079   0.308813  -0.000759
    11  C   -0.000514  -0.021779   0.000336  -0.049824   0.009363   0.368328
    12  O    0.000065   0.000105   0.001814   0.010285  -0.000221  -0.063110
    13  H    0.000004  -0.000022  -0.000028  -0.000000  -0.000000   0.000000
    14  H   -0.000004  -0.003193   0.001151  -0.000068  -0.000011  -0.000078
    15  H   -0.000062   0.000141   0.000446   0.000008  -0.000007   0.000004
    16  H    0.003505   0.004405   0.008902   0.000337   0.000055   0.000001
    17  H   -0.000189   0.000030   0.000016   0.000002   0.000003  -0.000000
    18  H    0.008766   0.009924   0.001001   0.003012   0.001899   0.000016
    19  H    0.443492   0.002245  -0.000705   0.003227   0.000019   0.000006
    20  H    0.002245   0.611230  -0.014018   0.017185  -0.001041   0.008036
    21  H   -0.000705  -0.014018   0.439624  -0.001602  -0.000046  -0.000390
    22  H    0.003227   0.017185  -0.001602   0.643989  -0.012114   0.015125
    23  H    0.000019  -0.001041  -0.000046  -0.012114   0.421444  -0.001070
    24  H    0.000006   0.008036  -0.000390   0.015125  -0.001070   0.645174
    25  H    0.000012  -0.000485   0.000098  -0.019160   0.000407  -0.069456
    26  H   -0.000003  -0.000103  -0.000068  -0.000405   0.000025  -0.006420
              25         26
     1  O    0.000000  -0.000000
     2  C   -0.000011   0.000002
     3  C    0.000100  -0.000001
     4  O   -0.000000   0.000000
     5  C   -0.002658   0.000097
     6  O    0.000047  -0.000002
     7  C    0.033300   0.000318
     8  O   -0.000919   0.001023
     9  C   -0.078506   0.015108
    10  O    0.013853  -0.000291
    11  C    0.414711  -0.035797
    12  O   -0.051332   0.295648
    13  H   -0.000000  -0.000000
    14  H    0.000005  -0.000001
    15  H   -0.000001   0.000000
    16  H   -0.000000  -0.000001
    17  H    0.000000  -0.000000
    18  H   -0.000062   0.000000
    19  H    0.000012  -0.000003
    20  H   -0.000485  -0.000103
    21  H    0.000098  -0.000068
    22  H   -0.019160  -0.000405
    23  H    0.000407   0.000025
    24  H   -0.069456  -0.006420
    25  H    0.621848  -0.004223
    26  H   -0.004223   0.442532
 Mulliken charges:
               1
     1  O   -0.393713
     2  C   -0.200517
     3  C   -0.161392
     4  O   -0.364238
     5  C   -0.079607
     6  O   -0.340219
     7  C   -0.151565
     8  O   -0.333418
     9  C    0.005204
    10  O   -0.378142
    11  C   -0.196965
    12  O   -0.375208
    13  H    0.306213
    14  H    0.145907
    15  H    0.143263
    16  H    0.167926
    17  H    0.296772
    18  H    0.159937
    19  H    0.288418
    20  H    0.160687
    21  H    0.289571
    22  H    0.140120
    23  H    0.304424
    24  H    0.131548
    25  H    0.142431
    26  H    0.292562
 Sum of Mulliken charges =  -0.00000
 Mulliken charges with hydrogens summed into heavy atoms:
               1
     1  O   -0.087500
     2  C    0.088653
     3  C    0.006535
     4  O   -0.067466
     5  C    0.080330
     6  O   -0.051801
     7  C    0.009121
     8  O   -0.043847
     9  C    0.145324
    10  O   -0.073718
    11  C    0.077015
    12  O   -0.082646
 Electronic spatial extent (au):  <R**2>=           2798.6099
 Charge=             -0.0000 electrons
 Dipole moment (field-independent basis, Debye):
    X=              1.0188    Y=             -4.7151    Z=              2.2819  Tot=              5.3364
 Quadrupole moment (field-independent basis, Debye-Ang):
   XX=            -67.6221   YY=            -71.6238   ZZ=            -73.5927
   XY=             -4.4795   XZ=              0.7022   YZ=             -3.8639
 Traceless Quadrupole moment (field-independent basis, Debye-Ang):
   XX=              3.3241   YY=             -0.6776   ZZ=             -2.6465
   XY=             -4.4795   XZ=              0.7022   YZ=             -3.8639
 Octapole moment (field-independent basis, Debye-Ang**2):
  XXX=            -37.5955  YYY=            -28.6941  ZZZ=            -13.2660  XYY=             -8.7000
  XXY=            -50.2716  XXZ=             17.3559  XZZ=             33.3142  YZZ=             -4.7196
  YYZ=             15.6610  XYZ=             -3.1595
 Hexadecapole moment (field-independent basis, Debye-Ang**3):
 XXXX=          -2124.5418 YYYY=           -534.8734 ZZZZ=           -368.3555 XXXY=             96.0249
 XXXZ=             26.5409 YYYX=            -35.7492 YYYZ=             13.0575 ZZZX=             24.0995
 ZZZY=            -20.1009 XXYY=           -427.2106 XXZZ=           -473.9181 YYZZ=           -138.0781
 XXYZ=            -75.3457 YYXZ=             40.6641 ZZXY=            -17.8987
 N-N= 8.064227236466D+02 E-N=-3.230653916982D+03  KE= 6.857947449564D+02
 No NMR shielding tensors so no spin-rotation constants.
 Leave Link  601 at Mon Feb 22 20:59:56 2021, MaxMem=   104857600 cpu:               7.4 elap:               0.3
 (Enter /sw/arch/RedHatEnterpriseServer7/EB_production/2019/software/Gaussian/g16.c01/l701.exe)
 ... and contract with generalized density number  0.
 Compute integral first derivatives.
 R6Disp: Adding Grimme-D3 dispersion energy 1st derivatives to the gradient.
 PrsmSu:  requested number of processors reduced to:  28 ShMem   1 Linda.
 D1PCM: PCM CHGder 1st derivatives, ID1Alg=3 FixD1E=F DoIter=F DoCFld=F I1PDM=0.
 GePol: Maximum number of non-zero 1st derivatives   =     188
 CoulSu:  requested number of processors reduced to:  28 ShMem   1 Linda.
 CoulSu:  requested number of processors reduced to:  29 ShMem   1 Linda.
 Leave Link  701 at Mon Feb 22 20:59:57 2021, MaxMem=   104857600 cpu:              30.0 elap:               1.0
 (Enter /sw/arch/RedHatEnterpriseServer7/EB_production/2019/software/Gaussian/g16.c01/l702.exe)
 L702 exits ... SP integral derivatives will be done elsewhere.
 Leave Link  702 at Mon Feb 22 20:59:57 2021, MaxMem=   104857600 cpu:               0.6 elap:               0.1
 (Enter /sw/arch/RedHatEnterpriseServer7/EB_production/2019/software/Gaussian/g16.c01/l703.exe)
 Integral derivatives from FoFJK, PRISM(SPDF).
 Compute integral first derivatives, UseDBF=F ICtDFT=           0.
 Calling FoFJK, ICntrl=      2527 FMM=F ISym2X=0 I1Cent= 0 IOpClX= 0 NMat=1 NMatS=1 NMatT=0.
 FoFJK:  IHMeth= 1 ICntrl=    2527 DoSepK=F KAlg= 0 I1Cent=           0 FoldK=F
 IRaf=         0 NMat=       1 IRICut=       1 DoRegI=T DoRafI=F ISym2E= 0 IDoP0=0 IntGTp=1.
 FoFCou: FMM=F IPFlag=           0 FMFlag=      100000 FMFlg1=         800
         NFxFlg=           0 DoJE=F BraDBF=F KetDBF=F FulRan=T
         wScrn=  0.000000 ICntrl=      2527 IOpCl=  0 I1Cent=           0 NGrid=           0
         NMat0=    1 NMatS0=      1 NMatT0=    0 NMatD0=    1 NMtDS0=    0 NMtDT0=    0
 Symmetry not used in FoFCou.
 Leave Link  703 at Mon Feb 22 21:00:01 2021, MaxMem=   104857600 cpu:             100.6 elap:               3.2
 (Enter /sw/arch/RedHatEnterpriseServer7/EB_production/2019/software/Gaussian/g16.c01/l716.exe)
 Dipole        = 4.00832302D-01-1.85505840D+00 8.97773247D-01
 ***** Axes restored to original set *****
 -------------------------------------------------------------------
 Center     Atomic                   Forces (Hartrees/Bohr)
 Number     Number              X              Y              Z
 -------------------------------------------------------------------
      1        8          -0.009998814   -0.005873692   -0.000284746
      2        6           0.012107339    0.001666380   -0.004681837
      3        6          -0.012733452    0.014492950    0.004036537
      4        8           0.000457402   -0.005366188    0.006554804
      5        6          -0.001801865   -0.001877138   -0.005037454
      6        8           0.003242349   -0.003335934   -0.000449564
      7        6          -0.005586925    0.000597702    0.003944970
      8        8          -0.002515747   -0.009729832   -0.003194406
      9        6          -0.002849011   -0.004927024   -0.012001184
     10        8          -0.004581286    0.000258188    0.006643254
     11        6          -0.003519664   -0.004208310    0.005652996
     12        8           0.002946158   -0.001967368   -0.011762380
     13        1           0.002099910   -0.008586612    0.000952978
     14        1           0.006252608    0.007400152   -0.007654484
     15        1           0.006548409    0.005682914    0.006883660
     16        1           0.000959540   -0.002598764   -0.011350762
     17        1           0.002602605    0.002570787    0.002448519
     18        1          -0.000050487    0.001653132    0.005984110
     19        1           0.003893369    0.001488249    0.001772396
     20        1          -0.004996131    0.009827015    0.004178345
     21        1           0.005330615    0.000318375   -0.004095380
     22        1           0.002535138   -0.008398080   -0.004954311
     23        1           0.002406535    0.006755810   -0.001331458
     24        1          -0.007874617    0.006693828    0.005305917
     25        1           0.005603707    0.004219930    0.010304859
     26        1          -0.000477687   -0.006756469    0.002134619
 -------------------------------------------------------------------
 Cartesian Forces:  Max     0.014492950 RMS     0.005863821
 Leave Link  716 at Mon Feb 22 21:00:01 2021, MaxMem=   104857600 cpu:               0.9 elap:               0.1
 (Enter /sw/arch/RedHatEnterpriseServer7/EB_production/2019/software/Gaussian/g16.c01/l103.exe)

 GradGradGradGradGradGradGradGradGradGradGradGradGradGradGradGradGradGrad
 Berny optimization.
 FormGI is forming the generalized inverse of G from B-inverse, IUseBI=4.
 GSVD:  received Info=                   1 from GESDD.
 Internal  Forces:  Max     0.018302015 RMS     0.005594058
 Search for a local minimum.
 Step number   1 out of a maximum of  140
 All quantities printed in internal units (Hartrees-Bohrs-Radians)
 RMS Force = .55941D-02 SwitMx=.10000D-02 MixMth= 1
 Mixed Optimization -- RFO/linear search
 Second derivative matrix not updated -- first step.
 ITU=  0
     Eigenvalues ---    0.00230   0.00230   0.00230   0.00230   0.00230
     Eigenvalues ---    0.01302   0.01310   0.01317   0.01320   0.01364
     Eigenvalues ---    0.01370   0.03826   0.03907   0.04012   0.04066
     Eigenvalues ---    0.04652   0.04690   0.04712   0.04719   0.04834
     Eigenvalues ---    0.04973   0.05633   0.05710   0.07471   0.07506
     Eigenvalues ---    0.07695   0.07738   0.11529   0.11600   0.13820
     Eigenvalues ---    0.13909   0.16000   0.16000   0.16000   0.16000
     Eigenvalues ---    0.16000   0.16000   0.16864   0.17102   0.17128
     Eigenvalues ---    0.17397   0.19656   0.19759   0.19831   0.19923
     Eigenvalues ---    0.22056   0.22061   0.26651   0.26664   0.26749
     Eigenvalues ---    0.27613   0.27619   0.34443   0.34465   0.34474
     Eigenvalues ---    0.34572   0.34621   0.34625   0.34650   0.34802
     Eigenvalues ---    0.41065   0.41155   0.41228   0.41262   0.41744
     Eigenvalues ---    0.41819   0.51155   0.51310   0.51327   0.51348
     Eigenvalues ---    0.51468   0.51484
 RFO step:  Lambda=-1.96805734D-02 EMin= 2.30000000D-03
 Linear search not attempted -- first point.
 Iteration  1 RMS(Cart)=  0.09673949 RMS(Int)=  0.00261328
 Iteration  2 RMS(Cart)=  0.00431571 RMS(Int)=  0.00058279
 Iteration  3 RMS(Cart)=  0.00000966 RMS(Int)=  0.00058273
 Iteration  4 RMS(Cart)=  0.00000001 RMS(Int)=  0.00058273
 ITry= 1 IFail=0 DXMaxC= 3.27D-01 DCOld= 1.00D+10 DXMaxT= 3.00D-01 DXLimC= 3.00D+00 Rises=F
 Variable       Old X    -DE/DX   Delta X   Delta X   Delta X     New X
                                 (Linear)    (Quad)   (Total)
    R1        2.69250   0.01410   0.00000   0.03226   0.03226   2.72477
    R2        1.85418  -0.00757   0.00000  -0.01426  -0.01426   1.83992
    R3        2.92980  -0.01283   0.00000  -0.04337  -0.04337   2.88643
    R4        2.05997   0.01065   0.00000   0.02897   0.02897   2.08895
    R5        2.06246   0.00902   0.00000   0.02463   0.02463   2.08709
    R6        2.69874   0.00856   0.00000   0.01979   0.01979   2.71854
    R7        2.94959  -0.01144   0.00000  -0.03982  -0.03982   2.90976
    R8        2.06553   0.01064   0.00000   0.02920   0.02920   2.09474
    R9        1.85112  -0.00383   0.00000  -0.00716  -0.00716   1.84396
   R10        2.70131   0.00642   0.00000   0.01491   0.01491   2.71622
   R11        2.95185  -0.00812   0.00000  -0.02838  -0.02838   2.92348
   R12        2.06537   0.00590   0.00000   0.01619   0.01619   2.08156
   R13        1.85266  -0.00261   0.00000  -0.00491  -0.00491   1.84775
   R14        2.70014   0.01116   0.00000   0.02589   0.02589   2.72602
   R15        2.95157  -0.00888   0.00000  -0.03102  -0.03102   2.92055
   R16        2.06376   0.01017   0.00000   0.02785   0.02785   2.09161
   R17        1.85097  -0.00474   0.00000  -0.00887  -0.00887   1.84210
   R18        2.69918   0.00810   0.00000   0.01876   0.01876   2.71794
   R19        2.92992  -0.01070   0.00000  -0.03616  -0.03616   2.89375
   R20        2.06589   0.00749   0.00000   0.02058   0.02058   2.08648
   R21        1.85229  -0.00560   0.00000  -0.01051  -0.01051   1.84178
   R22        2.69154   0.01282   0.00000   0.02928   0.02928   2.72082
   R23        2.06288   0.00986   0.00000   0.02693   0.02693   2.08981
   R24        2.06294   0.00868   0.00000   0.02371   0.02371   2.08665
   R25        1.85249  -0.00637   0.00000  -0.01196  -0.01196   1.84053
    A1        1.83130   0.00856   0.00000   0.04762   0.04762   1.87892
    A2        1.93138  -0.01830   0.00000  -0.07551  -0.07544   1.85595
    A3        1.88053   0.00998   0.00000   0.06011   0.05910   1.93963
    A4        1.89557   0.01020   0.00000   0.05376   0.05174   1.94731
    A5        1.92973   0.00093   0.00000  -0.00767  -0.00686   1.92287
    A6        1.92421  -0.00127   0.00000  -0.02699  -0.02660   1.89761
    A7        1.90140  -0.00093   0.00000   0.00020  -0.00153   1.89987
    A8        1.89355   0.00613   0.00000   0.03112   0.03054   1.92409
    A9        2.00088  -0.00599   0.00000  -0.03882  -0.03900   1.96187
   A10        1.89924  -0.00042   0.00000  -0.00758  -0.00860   1.89064
   A11        1.88736  -0.00279   0.00000  -0.01783  -0.01740   1.86996
   A12        1.87027   0.00162   0.00000   0.04167   0.04152   1.91179
   A13        1.90823   0.00194   0.00000  -0.00267  -0.00308   1.90515
   A14        1.84100   0.00233   0.00000   0.01296   0.01296   1.85396
   A15        1.89001   0.00882   0.00000   0.05213   0.05258   1.94259
   A16        2.01555  -0.01102   0.00000  -0.04766  -0.04809   1.96746
   A17        1.87907   0.00043   0.00000  -0.01331  -0.01367   1.86540
   A18        1.90532   0.00151   0.00000   0.01572   0.01634   1.92166
   A19        1.86923  -0.00354   0.00000  -0.01494  -0.01486   1.85438
   A20        1.89933   0.00413   0.00000   0.00922   0.00843   1.90775
   A21        1.83359   0.00483   0.00000   0.02686   0.02686   1.86045
   A22        1.90840   0.00431   0.00000   0.01469   0.01349   1.92189
   A23        1.98585  -0.00874   0.00000  -0.05766  -0.05817   1.92768
   A24        1.90169   0.00104   0.00000   0.00249   0.00139   1.90308
   A25        1.91113  -0.00018   0.00000  -0.01118  -0.01142   1.89972
   A26        1.88050   0.00224   0.00000   0.05845   0.05825   1.93874
   A27        1.87323   0.00181   0.00000  -0.00053  -0.00095   1.87228
   A28        1.83894   0.00843   0.00000   0.04692   0.04692   1.88586
   A29        1.93044  -0.00104   0.00000  -0.01633  -0.01640   1.91403
   A30        1.97863   0.00709   0.00000   0.02116   0.02056   1.99919
   A31        1.91261  -0.00306   0.00000  -0.00517  -0.00533   1.90728
   A32        1.86901  -0.00771   0.00000  -0.05134  -0.05123   1.81778
   A33        1.88014   0.00482   0.00000   0.04356   0.04379   1.92393
   A34        1.88985  -0.00015   0.00000   0.00963   0.00987   1.89971
   A35        1.83856   0.00780   0.00000   0.04338   0.04338   1.88194
   A36        1.95175  -0.00387   0.00000  -0.01222  -0.01198   1.93977
   A37        1.92360  -0.00308   0.00000  -0.02533  -0.02572   1.89788
   A38        1.91138  -0.00673   0.00000  -0.05695  -0.05738   1.85400
   A39        1.90110   0.00624   0.00000   0.05391   0.05361   1.95471
   A40        1.88368   0.00651   0.00000   0.04363   0.04288   1.92656
   A41        1.89095   0.00132   0.00000  -0.00094  -0.00359   1.88736
   A42        1.82897   0.00572   0.00000   0.03183   0.03183   1.86080
    D1       -3.13182  -0.00127   0.00000  -0.01947  -0.01951   3.13185
    D2       -1.02020  -0.00480   0.00000  -0.03616  -0.03839  -1.05859
    D3        1.03693   0.00509   0.00000   0.02617   0.02844   1.06537
    D4       -0.97530  -0.00243   0.00000  -0.02853  -0.02897  -1.00427
    D5       -3.08659   0.00063   0.00000  -0.00267  -0.00266  -3.08925
    D6        1.05401   0.00260   0.00000   0.03380   0.03336   1.08738
    D7       -3.05749  -0.00373   0.00000  -0.05007  -0.05038  -3.10787
    D8        1.11441  -0.00066   0.00000  -0.02421  -0.02407   1.09034
    D9       -1.02818   0.00131   0.00000   0.01226   0.01196  -1.01622
   D10        1.12209  -0.00234   0.00000  -0.02772  -0.02743   1.09466
   D11       -0.98920   0.00072   0.00000  -0.00186  -0.00112  -0.99032
   D12       -3.13178   0.00270   0.00000   0.03461   0.03491  -3.09687
   D13        1.05249   0.00188   0.00000  -0.00926  -0.00862   1.04387
   D14       -3.05072  -0.00338   0.00000  -0.04865  -0.04867  -3.09939
   D15       -0.99544  -0.00169   0.00000  -0.03888  -0.03950  -1.03495
   D16        3.06444   0.00215   0.00000   0.03326   0.03358   3.09803
   D17       -1.07682   0.00329   0.00000   0.06113   0.06083  -1.01599
   D18        1.04889   0.00158   0.00000   0.03104   0.03146   1.08035
   D19        0.94975   0.00028   0.00000   0.03205   0.03202   0.98177
   D20        3.09167   0.00143   0.00000   0.05993   0.05927  -3.13225
   D21       -1.06580  -0.00029   0.00000   0.02983   0.02990  -1.03590
   D22       -1.08102  -0.00114   0.00000  -0.00619  -0.00596  -1.08698
   D23        1.06090   0.00000   0.00000   0.02168   0.02129   1.08219
   D24       -3.09657  -0.00171   0.00000  -0.00841  -0.00808  -3.10465
[...]
                 (A) (A) (A) (A) (A) (A) (A) (A) (A) (A) (A) (A)
                 (A) (A) (A) (A) (A) (A) (A) (A) (A) (A) (A) (A)
                 (A) (A) (A) (A) (A) (A) (A) (A) (A) (A) (A) (A)
                 (A) (A) (A) (A) (A) (A) (A) (A) (A) (A) (A) (A)
                 (A) (A) (A) (A) (A) (A) (A) (A) (A) (A) (A) (A)
                 (A) (A) (A) (A) (A) (A) (A) (A) (A) (A) (A) (A)
                 (A) (A) (A) (A) (A) (A) (A) (A) (A) (A) (A) (A)
                 (A) (A) (A) (A) (A) (A) (A) (A) (A) (A) (A) (A)
                 (A) (A) (A) (A) (A) (A) (A) (A) (A) (A) (A) (A)
                 (A) (A) (A) (A) (A) (A) (A) (A) (A) (A) (A) (A)
                 (A) (A) (A) (A) (A) (A) (A) (A) (A) (A) (A) (A)
                 (A) (A) (A) (A) (A) (A) (A) (A) (A) (A) (A) (A)
                 (A) (A) (A) (A) (A) (A) (A) (A) (A) (A) (A) (A)
                 (A) (A) (A) (A) (A) (A) (A) (A) (A) (A) (A) (A)
                 (A) (A) (A) (A) (A) (A) (A) (A) (A) (A) (A) (A)
                 (A) (A) (A) (A) (A) (A) (A) (A) (A) (A) (A) (A)
                 (A) (A) (A) (A) (A) (A) (A) (A) (A) (A) (A) (A)
                 (A) (A) (A) (A) (A) (A) (A) (A) (A) (A) (A)
 The electronic state is 1-A.
 Alpha  occ. eigenvalues --  -18.78824 -18.78354 -18.78329 -18.77653 -18.77287
 Alpha  occ. eigenvalues --  -18.76821  -9.95947  -9.95852  -9.95499  -9.95288
 Alpha  occ. eigenvalues --   -9.94946  -9.94327  -0.96929  -0.95562  -0.94169
 Alpha  occ. eigenvalues --   -0.93748  -0.92966  -0.92610  -0.72282  -0.68820
 Alpha  occ. eigenvalues --   -0.63657  -0.60157  -0.55445  -0.53042  -0.49078
 Alpha  occ. eigenvalues --   -0.48488  -0.48068  -0.46059  -0.44328  -0.43826
 Alpha  occ. eigenvalues --   -0.43096  -0.40699  -0.40320  -0.38538  -0.38246
 Alpha  occ. eigenvalues --   -0.35782  -0.35307  -0.33793  -0.32360  -0.31692
 Alpha  occ. eigenvalues --   -0.31199  -0.30061  -0.29119  -0.26443  -0.24997
 Alpha  occ. eigenvalues --   -0.24565  -0.23849  -0.23818  -0.22853
 Alpha virt. eigenvalues --    0.00065   0.01236   0.01778   0.03553   0.04782
 Alpha virt. eigenvalues --    0.05234   0.06466   0.06990   0.07867   0.08848
 Alpha virt. eigenvalues --    0.09887   0.11353   0.11826   0.12503   0.13349
 Alpha virt. eigenvalues --    0.13467   0.14115   0.14838   0.15725   0.16596
 Alpha virt. eigenvalues --    0.17978   0.18257   0.19557   0.19962   0.22139
 Alpha virt. eigenvalues --    0.23649   0.25357   0.25636   0.26685   0.27727
 Alpha virt. eigenvalues --    0.27872   0.29296   0.29607   0.30671   0.31927
 Alpha virt. eigenvalues --    0.32206   0.32901   0.33785   0.33948   0.34684
 Alpha virt. eigenvalues --    0.35755   0.36297   0.37789   0.37967   0.38124
 Alpha virt. eigenvalues --    0.39919   0.40136   0.40278   0.41087   0.41574
 Alpha virt. eigenvalues --    0.42637   0.42875   0.43781   0.44707   0.45786
 Alpha virt. eigenvalues --    0.46603   0.47279   0.48299   0.49955   0.50558
 Alpha virt. eigenvalues --    0.51743   0.52456   0.53167   0.53752   0.54921
 Alpha virt. eigenvalues --    0.55764   0.57218   0.57729   0.58498   0.59916
 Alpha virt. eigenvalues --    0.60793   0.63280   0.64305   0.66682   0.68578
 Alpha virt. eigenvalues --    0.69536   0.70300   0.72149   0.75972   0.76337
 Alpha virt. eigenvalues --    0.79720   0.80821   0.84498   0.86337   0.91032
 Alpha virt. eigenvalues --    0.91815   0.95861   1.11409   1.12621   1.17282
 Alpha virt. eigenvalues --    1.20081   1.21034   1.21853   1.22855   1.23598
 Alpha virt. eigenvalues --    1.24627   1.26559   1.27164   1.28654   1.29169
 Alpha virt. eigenvalues --    1.30503   1.31491   1.33304   1.34561   1.35723
 Alpha virt. eigenvalues --    1.36420   1.37767   1.39118   1.40154   1.40466
 Alpha virt. eigenvalues --    1.43387   1.44644   1.45011   1.47206   1.48637
 Alpha virt. eigenvalues --    1.49432   1.49925   1.50918   1.53230   1.54882
 Alpha virt. eigenvalues --    1.55286   1.56687   1.59772   1.62042   1.62577
 Alpha virt. eigenvalues --    1.64480   1.65495   1.67262   1.69328   1.70871
 Alpha virt. eigenvalues --    1.71385   1.72354   1.74160   1.76674   1.77222
 Alpha virt. eigenvalues --    1.78890   1.80934   1.81803   1.83768   1.85133
 Alpha virt. eigenvalues --    1.87298   1.88766   1.89389   1.91114   1.92358
 Alpha virt. eigenvalues --    1.93236   1.94582   1.96346   1.96819   1.97457
 Alpha virt. eigenvalues --    1.99435   2.00517   2.01611   2.02974   2.04301
 Alpha virt. eigenvalues --    2.04447   2.06645   2.07058   2.09908   2.13561
 Alpha virt. eigenvalues --    2.18561   2.19320   2.20858   2.21669   2.23983
 Alpha virt. eigenvalues --    2.26890   2.28846   2.32211   2.34520   2.37786
 Alpha virt. eigenvalues --    2.38803   2.42074   2.42784   2.45280   2.47247
 Alpha virt. eigenvalues --    2.48233   2.49710   2.50453   2.53057   2.55764
 Alpha virt. eigenvalues --    2.57163   2.57611   2.57755   2.59121   2.60152
 Alpha virt. eigenvalues --    2.61243   2.62251   2.62873   2.63817   2.64000
 Alpha virt. eigenvalues --    2.65024   2.66409   2.68170   2.70312   2.70875
 Alpha virt. eigenvalues --    2.73572   2.75075   2.78183   2.82910   2.83576
 Alpha virt. eigenvalues --    2.83952   2.84829   2.85252   2.86728   2.88000
 Alpha virt. eigenvalues --    2.88076   2.89269   2.89638   2.90729   2.92191
 Alpha virt. eigenvalues --    2.92898   2.93299   2.94423   2.95801   2.96331
 Alpha virt. eigenvalues --    2.97514   3.00966   3.04033   3.06151   3.06582
 Alpha virt. eigenvalues --    3.07718   3.09664   3.10697   3.11082   3.13491
 Alpha virt. eigenvalues --    3.14855   3.17008   3.18925   3.18952   3.20491
 Alpha virt. eigenvalues --    3.22129   3.28294   3.32164   3.33633   3.36609
 Alpha virt. eigenvalues --    3.39779   3.41350   3.46703   3.46961   3.83435
 Alpha virt. eigenvalues --    3.85251   3.89771   3.92039   3.92921   3.95245
 Alpha virt. eigenvalues --    4.15487   4.17303   4.17571   4.18395   4.18985
 Alpha virt. eigenvalues --    4.21561  21.61470  21.67066  21.72178  21.77107
 Alpha virt. eigenvalues --   21.80263  21.82965  43.10410  43.13518  43.21006
 Alpha virt. eigenvalues --   43.23812  43.29413  43.32025
          Condensed to atoms (all electrons):
               1          2          3          4          5          6
     1  O    8.020385   0.287584  -0.135487  -0.008427   0.019205  -0.000143
     2  C    0.287584   5.305975  -0.032216  -0.029715   0.014973   0.010876
     3  C   -0.135487  -0.032216   5.972031   0.292868  -0.396089  -0.016985
     4  O   -0.008427  -0.029715   0.292868   7.983131  -0.134854  -0.001195
     5  C    0.019205   0.014973  -0.396089  -0.134854   6.986153   0.102831
     6  O   -0.000143   0.010876  -0.016985  -0.001195   0.102831   8.039586
     7  C    0.000039   0.016574   0.148068   0.023145  -0.820247   0.068804
     8  O    0.000013  -0.014631  -0.002934  -0.000211   0.009493  -0.030653
     9  C    0.000005  -0.001780  -0.000692  -0.000758   0.104428  -0.029965
    10  O    0.000000   0.000298   0.000183  -0.000005  -0.011881  -0.031584
    11  C   -0.000012  -0.001394   0.002153   0.000401  -0.031226  -0.007847
    12  O    0.000007   0.001896  -0.000972  -0.000004   0.008089   0.000153
    13  H    0.305130  -0.027038   0.011647   0.000003  -0.002241   0.000018
    14  H   -0.045336   0.406059  -0.053508   0.007388  -0.032922  -0.000325
    15  H   -0.050006   0.376313  -0.033933  -0.004094   0.030522  -0.000408
    16  H    0.008243  -0.062407   0.375025  -0.056193  -0.025950  -0.010489
    17  H    0.037187  -0.012064  -0.068643   0.309688   0.019537  -0.000946
    18  H   -0.000594  -0.016241  -0.011406   0.021152   0.287487  -0.043588
    19  H   -0.000009  -0.000265  -0.004585  -0.000043  -0.049746   0.296780
    20  H    0.000051   0.010918  -0.014753   0.000215  -0.086035   0.007062
    21  H    0.000037  -0.003144   0.007802  -0.000144   0.004397  -0.000758
    22  H   -0.000001   0.000294  -0.001151   0.000012   0.031244  -0.000767
    23  H    0.000002  -0.000176   0.000637   0.000058  -0.004698   0.050149
    24  H   -0.000001  -0.000297   0.000296  -0.000289   0.018263   0.001387
    25  H    0.000000  -0.000000   0.000085  -0.000001  -0.000071   0.000051
    26  H   -0.000000   0.000082  -0.000141  -0.000002   0.000022   0.000019
               7          8          9         10         11         12
     1  O    0.000039   0.000013   0.000005   0.000000  -0.000012   0.000007
     2  C    0.016574  -0.014631  -0.001780   0.000298  -0.001394   0.001896
     3  C    0.148068  -0.002934  -0.000692   0.000183   0.002153  -0.000972
     4  O    0.023145  -0.000211  -0.000758  -0.000005   0.000401  -0.000004
     5  C   -0.820247   0.009493   0.104428  -0.011881  -0.031226   0.008089
     6  O    0.068804  -0.030653  -0.029965  -0.031584  -0.007847   0.000153
     7  C    6.866088   0.104503  -0.324037   0.005722   0.060096  -0.014876
     8  O    0.104503   8.053253  -0.058263  -0.009943   0.012219  -0.000171
     9  C   -0.324037  -0.058263   5.876269   0.222077  -0.033842  -0.102604
    10  O    0.005722  -0.009943   0.222077   8.005990  -0.063694   0.005579
    11  C    0.060096   0.012219  -0.033842  -0.063694   5.310612   0.263872
    12  O   -0.014876  -0.000171  -0.102604   0.005579   0.263872   8.021336
    13  H    0.000231  -0.000003  -0.000012   0.000000   0.000001   0.000006
    14  H    0.018711   0.000763   0.002729  -0.000043   0.000002  -0.000680
    15  H   -0.020296   0.000657  -0.001938   0.000011   0.000713   0.002751
    16  H   -0.027314   0.014743  -0.000212  -0.000032   0.000182  -0.000001
    17  H   -0.001363   0.000049   0.000162  -0.000002  -0.000030   0.000002
    18  H   -0.038252   0.008958   0.006498   0.000731   0.007388  -0.003785
    19  H   -0.002438   0.021915  -0.003893   0.002937   0.000204  -0.000031
    20  H    0.431292  -0.045774  -0.058180   0.005836  -0.007937   0.026834
    21  H   -0.041184   0.310214   0.009135  -0.000860  -0.000967   0.000106
    22  H   -0.141103   0.018758   0.431671  -0.040401  -0.036100   0.012659
    23  H   -0.003121  -0.001115  -0.036889   0.304741  -0.004218   0.000054
    24  H   -0.064608   0.000144   0.006416   0.005827   0.369551  -0.051799
    25  H    0.023682  -0.000339  -0.059737   0.010999   0.399818  -0.038820
    26  H    0.000888  -0.000011   0.011603  -0.000364  -0.023388   0.297015
              13         14         15         16         17         18
     1  O    0.305130  -0.045336  -0.050006   0.008243   0.037187  -0.000594
     2  C   -0.027038   0.406059   0.376313  -0.062407  -0.012064  -0.016241
     3  C    0.011647  -0.053508  -0.033933   0.375025  -0.068643  -0.011406
     4  O    0.000003   0.007388  -0.004094  -0.056193   0.309688   0.021152
     5  C   -0.002241  -0.032922   0.030522  -0.025950   0.019537   0.287487
     6  O    0.000018  -0.000325  -0.000408  -0.010489  -0.000946  -0.043588
     7  C    0.000231   0.018711  -0.020296  -0.027314  -0.001363  -0.038252
     8  O   -0.000003   0.000763   0.000657   0.014743   0.000049   0.008958
     9  C   -0.000012   0.002729  -0.001938  -0.000212   0.000162   0.006498
    10  O    0.000000  -0.000043   0.000011  -0.000032  -0.000002   0.000731
    11  C    0.000001   0.000002   0.000713   0.000182  -0.000030   0.007388
    12  O    0.000006  -0.000680   0.002751  -0.000001   0.000002  -0.003785
    13  H    0.392999   0.001687  -0.009501  -0.001060  -0.001317  -0.000038
    14  H    0.001687   0.583629  -0.050514  -0.004722   0.003177   0.003184
    15  H   -0.009501  -0.050514   0.579186   0.011348  -0.002894   0.004861
    16  H   -0.001060  -0.004722   0.011348   0.595945  -0.000578   0.015554
    17  H   -0.001317   0.003177  -0.002894  -0.000578   0.419092   0.000615
    18  H   -0.000038   0.003184   0.004861   0.015554   0.000615   0.574012
    19  H    0.000003   0.000062  -0.000029   0.004497  -0.000050   0.008808
    20  H    0.000006  -0.000777   0.001490   0.003104   0.000045   0.004626
    21  H   -0.000008   0.000376   0.000281   0.002847   0.000007   0.000322
    22  H   -0.000000  -0.000032  -0.000079  -0.000020  -0.000002   0.000079
    23  H   -0.000000  -0.000007   0.000003  -0.000108   0.000012  -0.005458
    24  H   -0.000001  -0.000121  -0.000462  -0.000062  -0.000004  -0.003573
    25  H    0.000000  -0.000001   0.000058   0.000002   0.000000  -0.000062
    26  H   -0.000000  -0.000010  -0.000031  -0.000000   0.000000  -0.000232
              19         20         21         22         23         24
     1  O   -0.000009   0.000051   0.000037  -0.000001   0.000002  -0.000001
     2  C   -0.000265   0.010918  -0.003144   0.000294  -0.000176  -0.000297
     3  C   -0.004585  -0.014753   0.007802  -0.001151   0.000637   0.000296
     4  O   -0.000043   0.000215  -0.000144   0.000012   0.000058  -0.000289
     5  C   -0.049746  -0.086035   0.004397   0.031244  -0.004698   0.018263
     6  O    0.296780   0.007062  -0.000758  -0.000767   0.050149   0.001387
     7  C   -0.002438   0.431292  -0.041184  -0.141103  -0.003121  -0.064608
     8  O    0.021915  -0.045774   0.310214   0.018758  -0.001115   0.000144
     9  C   -0.003893  -0.058180   0.009135   0.431671  -0.036889   0.006416
    10  O    0.002937   0.005836  -0.000860  -0.040401   0.304741   0.005827
    11  C    0.000204  -0.007937  -0.000967  -0.036100  -0.004218   0.369551
    12  O   -0.000031   0.026834   0.000106   0.012659   0.000054  -0.051799
    13  H    0.000003   0.000006  -0.000008  -0.000000  -0.000000  -0.000001
    14  H    0.000062  -0.000777   0.000376  -0.000032  -0.000007  -0.000121
    15  H   -0.000029   0.001490   0.000281  -0.000079   0.000003  -0.000462
    16  H    0.004497   0.003104   0.002847  -0.000020  -0.000108  -0.000062
    17  H   -0.000050   0.000045   0.000007  -0.000002   0.000012  -0.000004
    18  H    0.008808   0.004626   0.000322   0.000079  -0.005458  -0.003573
    19  H    0.414245   0.001762  -0.001009  -0.000227  -0.004341  -0.000092
    20  H    0.001762   0.517190  -0.008578  -0.004481   0.001366   0.001019
    21  H   -0.001009  -0.008578   0.394139   0.000288  -0.000265  -0.000001
    22  H   -0.000227  -0.004481   0.000288   0.565379   0.005111   0.012721
    23  H   -0.004341   0.001366  -0.000265   0.005111   0.403880   0.003255
    24  H   -0.000092   0.001019  -0.000001   0.012721   0.003255   0.615089
    25  H    0.000014   0.001758   0.000033  -0.020065  -0.000054  -0.056641
    26  H    0.000002  -0.000830  -0.000010  -0.000627   0.000002  -0.005040
              25         26
     1  O    0.000000  -0.000000
     2  C   -0.000000   0.000082
     3  C    0.000085  -0.000141
     4  O   -0.000001  -0.000002
     5  C   -0.000071   0.000022
     6  O    0.000051   0.000019
     7  C    0.023682   0.000888
     8  O   -0.000339  -0.000011
     9  C   -0.059737   0.011603
    10  O    0.010999  -0.000364
    11  C    0.399818  -0.023388
    12  O   -0.038820   0.297015
    13  H    0.000000  -0.000000
    14  H   -0.000001  -0.000010
    15  H    0.000058  -0.000031
    16  H    0.000002  -0.000000
    17  H    0.000000   0.000000
    18  H   -0.000062  -0.000232
    19  H    0.000014   0.000002
    20  H    0.001758  -0.000830
    21  H    0.000033  -0.000010
    22  H   -0.020065  -0.000627
    23  H   -0.000054   0.000002
    24  H   -0.056641  -0.005040
    25  H    0.589898  -0.003051
    26  H   -0.003051   0.405841
 Mulliken charges:
               1
     1  O   -0.437871
     2  C   -0.230473
     3  C   -0.037300
     4  O   -0.402127
     5  C   -0.040684
     6  O   -0.402063
     7  C   -0.269004
     8  O   -0.391634
     9  C    0.041812
    10  O   -0.412121
    11  C   -0.216557
    12  O   -0.426615
    13  H    0.329488
    14  H    0.161231
    15  H    0.165992
    16  H    0.157657
    17  H    0.298319
    18  H    0.178953
    19  H    0.315528
    20  H    0.212772
    21  H    0.326943
    22  H    0.166841
    23  H    0.291183
    24  H    0.149022
    25  H    0.152444
    26  H    0.318263
 Sum of Mulliken charges =  -0.00000
 Mulliken charges with hydrogens summed into heavy atoms:
               1
     1  O   -0.108382
     2  C    0.096750
     3  C    0.120357
     4  O   -0.103808
     5  C    0.138269
     6  O   -0.086535
     7  C   -0.056232
     8  O   -0.064691
     9  C    0.208653
    10  O   -0.120938
    11  C    0.084910
    12  O   -0.108352
 Electronic spatial extent (au):  <R**2>=           2485.3034
 Charge=              0.0000 electrons
 Dipole moment (field-independent basis, Debye):
    X=              3.1886    Y=             -6.4075    Z=             -1.1344  Tot=              7.2464
 Quadrupole moment (field-independent basis, Debye-Ang):
   XX=            -78.4709   YY=            -67.7579   ZZ=            -72.9172
   XY=             -0.3811   XZ=             -8.5013   YZ=             -8.6902
 Traceless Quadrupole moment (field-independent basis, Debye-Ang):
   XX=             -5.4222   YY=              5.2907   ZZ=              0.1314
   XY=             -0.3811   XZ=             -8.5013   YZ=             -8.6902
 Octapole moment (field-independent basis, Debye-Ang**2):
  XXX=             45.8155  YYY=            -28.8933  ZZZ=            -12.5826  XYY=             17.2111
  XXY=            -58.9709  XXZ=             14.7134  XZZ=             -1.4520  YZZ=            -13.2723
  YYZ=              7.6707  XYZ=              0.7901
 Hexadecapole moment (field-independent basis, Debye-Ang**3):
 XXXX=          -1904.4774 YYYY=           -592.7180 ZZZZ=           -357.0436 XXXY=            -28.1498
 XXXZ=             40.6217 YYYX=            -17.1838 YYYZ=            -63.0826 ZZZX=            -29.0088
 ZZZY=            -15.2728 XXYY=           -363.5910 XXZZ=           -394.3233 YYZZ=           -183.6393
 XXYZ=            -32.6407 YYXZ=            -54.8157 ZZXY=             12.2040
 N-N= 8.240916339466D+02 E-N=-3.265630705807D+03  KE= 6.856798969359D+02
 Unable to Open any file for archive entry.
 1\1\GINC-TCN1681\SP\RBP86\TZVP\C6H14O6\ELENAA\22-Feb-2021\0\\# BP86/TZ
 VP SCRF=COSMORS geom=CHECKPOINT guess=CHECKPOINT\\COSMO-file for #FBPF
 ZTCFMRRESA-JGWLITMVSA-N\\0,1\O,0,-3.4993231858,-68.4692421854,34.51948
 20528\C,0,-2.2127669526,-67.9230533669,34.1556535607\C,0,-1.1911739993
 ,-68.5919276196,35.0819934804\O,0,-1.620355782,-68.4522890971,36.44613
 08335\C,0,0.205925106,-67.967713365,34.9754595403\O,0,1.1338245336,-68
 .6456678247,35.8599418355\C,0,0.7865167671,-67.9586429645,33.54500149\
 O,0,1.1267636827,-69.3127453949,33.1574904796\C,0,2.0618399259,-67.107
 4896859,33.4129592777\O,0,3.1202919694,-67.5065640665,34.2993582186\C,
 0,1.7862953803,-65.6113897373,33.6124589488\O,0,0.7646575798,-65.20197
 92382,32.6839475246\H,0,-4.1856732209,-67.8320200452,34.2565816648\H,0
 ,-1.9906212626,-68.1418113424,33.0971201957\H,0,-2.1895210474,-66.8295
 607671,34.3087666807\H,0,-1.1267677099,-69.6692029998,34.8213099793\H,
 0,-2.5919968909,-68.5772791952,36.4086909498\H,0,0.135771061,-66.93779
 12547,35.3578983591\H,0,1.2925760276,-69.5191683629,35.4432400712\H,0,
 0.0556760358,-67.5224012708,32.8457003014\H,0,0.3250142645,-69.7417945
 917,32.8096578198\H,0,2.431869234,-67.2603939868,32.385069229\H,0,2.68
 1924486,-67.8355320879,35.1182642382\H,0,1.4784690987,-65.4268505786,3
 4.6592569092\H,0,2.7328932777,-65.0696112366,33.4398672432\H,0,0.61541
 16211,-64.2483277345,32.807439116\\Version=ES64L-G16RevC.01\State=1-A\
 HF=-688.6738721\RMSD=3.027e-09\Dipole=-2.2867863,1.1219245,-1.2805897\
 Quadrupole=-1.926596,9.6455356,-7.7189396,-0.8792255,4.0291997,1.57087
 42\PG=C01 [X(C6H14O6)]\\@
 The archive entry for this job was punched.


 SILVERMAN'S PARADOX - IF MURPHY'S LAW CAN GO WRONG, IT WILL.
 Job cpu time:       0 days  0 hours  9 minutes 30.4 seconds.
 Elapsed time:       0 days  0 hours  0 minutes 18.4 seconds.
 File lengths (MBytes):  RWF=     75 Int=      0 D2E=      0 Chk=     11 Scr=      1
 Normal termination of Gaussian 16 at Mon Feb 22 21:15:22 2021.
