 Entering Gaussian System, Link 0=g16
 Input=GHMLBKRAJCXXBS-UHFFFAOYSA-N.gjf
 Output=GHMLBKRAJCXXBS-UHFFFAOYSA-N.log
 Initial command:
 /sw/arch/RedHatEnterpriseServer7/EB_production/2019/software/Gaussian/g16.c01/l1.exe "/scratch-local/elenaa.9715208/Gau-19408.inp" -scrdir="/scratch-local/elenaa.9715208/"
 Entering Link 1 = /sw/arch/RedHatEnterpriseServer7/EB_production/2019/software/Gaussian/g16.c01/l1.exe PID=     19409.
  
 Copyright (c) 1988-2019, Gaussian, Inc.  All Rights Reserved.
  
 This is part of the Gaussian(R) 16 program.  It is based on
 the Gaussian(R) 09 system (copyright 2009, Gaussian, Inc.),
 the Gaussian(R) 03 system (copyright 2003, Gaussian, Inc.),
 the Gaussian(R) 98 system (copyright 1998, Gaussian, Inc.),
 the Gaussian(R) 94 system (copyright 1995, Gaussian, Inc.),
 the Gaussian 92(TM) system (copyright 1992, Gaussian, Inc.),
 the Gaussian 90(TM) system (copyright 1990, Gaussian, Inc.),
 the Gaussian 88(TM) system (copyright 1988, Gaussian, Inc.),
 the Gaussian 86(TM) system (copyright 1986, Carnegie Mellon
 University), and the Gaussian 82(TM) system (copyright 1983,
 Carnegie Mellon University). Gaussian is a federally registered
 trademark of Gaussian, Inc.
  
 This software contains proprietary and confidential information,
 including trade secrets, belonging to Gaussian, Inc.
  
 This software is provided under written license and may be
 used, copied, transmitted, or stored only in accord with that
 written license.
  
 The following legend is applicable only to US Government
 contracts under FAR:
  
                    RESTRICTED RIGHTS LEGEND
  
 Use, reproduction and disclosure by the US Government is
 subject to restrictions as set forth in subparagraphs (a)
 and (c) of the Commercial Computer Software - Restricted
 Rights clause in FAR 52.227-19.
  
 Gaussian, Inc.
 340 Quinnipiac St., Bldg. 40, Wallingford CT 06492
  
  
 ---------------------------------------------------------------
 Warning -- This program may not be used in any manner that
 competes with the business of Gaussian, Inc. or will provide
 assistance to any competitor of Gaussian, Inc.  The licensee
 of this program is prohibited from giving any competitor of
 Gaussian, Inc. access to this program.  By using this program,
 the user acknowledges that Gaussian, Inc. is engaged in the
 business of creating and licensing software in the field of
 computational chemistry and represents and warrants to the
 licensee that it is not a competitor of Gaussian, Inc. and that
 it will not use this program in any manner prohibited above.
 ---------------------------------------------------------------
  

 Cite this work as:
 Gaussian 16, Revision C.01,
 M. J. Frisch, G. W. Trucks, H. B. Schlegel, G. E. Scuseria, 
 M. A. Robb, J. R. Cheeseman, G. Scalmani, V. Barone, 
 G. A. Petersson, H. Nakatsuji, X. Li, M. Caricato, A. V. Marenich, 
 J. Bloino, B. G. Janesko, R. Gomperts, B. Mennucci, H. P. Hratchian, 
 J. V. Ortiz, A. F. Izmaylov, J. L. Sonnenberg, D. Williams-Young, 
 F. Ding, F. Lipparini, F. Egidi, J. Goings, B. Peng, A. Petrone, 
 T. Henderson, D. Ranasinghe, V. G. Zakrzewski, J. Gao, N. Rega, 
 G. Zheng, W. Liang, M. Hada, M. Ehara, K. Toyota, R. Fukuda, 
 J. Hasegawa, M. Ishida, T. Nakajima, Y. Honda, O. Kitao, H. Nakai, 
 T. Vreven, K. Throssell, J. A. Montgomery, Jr., J. E. Peralta, 
 F. Ogliaro, M. J. Bearpark, J. J. Heyd, E. N. Brothers, K. N. Kudin, 
 V. N. Staroverov, T. A. Keith, R. Kobayashi, J. Normand, 
 K. Raghavachari, A. P. Rendell, J. C. Burant, S. S. Iyengar, 
 J. Tomasi, M. Cossi, J. M. Millam, M. Klene, C. Adamo, R. Cammi, 
 J. W. Ochterski, R. L. Martin, K. Morokuma, O. Farkas, 
 J. B. Foresman, and D. J. Fox, Gaussian, Inc., Wallingford CT, 2019.
 
 ******************************************
 Gaussian 16:  ES64L-G16RevC.01  3-Jul-2019
                22-Feb-2021 
 ******************************************
 %chk=GHMLBKRAJCXXBS-UHFFFAOYSA-N.chk
 %NProcShared=32
 Will use up to   32 processors via shared memory.
 -------------------------------------------------------------
 #P BP86/TZVP EmpiricalDispersion=GD3 SCRF=(Solvent=Water) Opt
 -------------------------------------------------------------
 1/18=20,19=15,26=3,38=1/1,3;
 2/9=110,12=2,17=6,18=5,40=1/2;
 3/5=19,7=101,11=2,25=1,30=1,70=2201,71=1,72=1,74=404,124=31/1,2,3;
 4//1;
 5/5=2,38=5,53=1/2;
 6/7=2,8=2,9=2,10=2,28=1/1;
 7//1,2,3,16;
 1/18=20,19=15,26=3/3(2);
 2/9=110/2;
 99//99;
 2/9=110/2;
 3/5=19,7=101,11=2,25=1,30=1,70=2205,71=1,72=1,74=404,124=31/1,2,3;
 4/5=5,16=3,69=1/1;
 5/5=2,38=5,53=1/2;
 7//1,2,3,16;
 1/18=20,19=15,26=3/3(-5);
 2/9=110/2;
 6/7=2,8=2,9=2,10=2,19=2,28=1/1;
 99/9=1/99;
 Leave Link    1 at Mon Feb 22 21:03:13 2021, MaxMem=           0 cpu:               1.4 elap:               0.1
 (Enter /sw/arch/RedHatEnterpriseServer7/EB_production/2019/software/Gaussian/g16.c01/l101.exe)
 -------------------------------------
 Particle #GHMLBKRAJCXXBS-UHFFFAOYSA-N
 -------------------------------------
 Symbolic Z-matrix:
 Charge =  0 Multiplicity = 1
 O                    -1.44137   3.1734    3.75591 
 C                    -1.55985   2.37411   2.66644 
 C                    -2.71774   1.58851   2.50429 
 C                    -2.85432   0.75646   1.37759 
 C                    -1.83354   0.70638   0.41016 
 C                    -0.67214   1.48782   0.56718 
 O                     0.30526   1.42896  -0.37147 
 C                    -0.53799   2.3215    1.69636 
 H                    -0.56858   3.61335   3.6736 
 H                    -3.46329   1.62279   3.20296 
 H                    -3.6966    0.18736   1.26168 
 H                    -1.93688   0.09854  -0.40532 
 H                     1.00314   2.05024  -0.07302 
 H                     0.30406   2.89043   1.81223 
 
 ITRead=  0  0  0  0  0  0  0  0  0  0  0  0  0  0
 MicOpt= -1 -1 -1 -1 -1 -1 -1 -1 -1 -1 -1 -1 -1 -1
 NAtoms=     14 NQM=       14 NQMF=       0 NMMI=      0 NMMIF=      0
                NMic=       0 NMicF=      0.
                    Isotopes and Nuclear Properties:
 (Nuclear quadrupole moments (NQMom) in fm**2, nuclear magnetic moments (NMagM)
  in nuclear magnetons)

  Atom         1           2           3           4           5           6           7           8           9          10
 IAtWgt=          16          12          12          12          12          12          16          12           1           1
 AtmWgt=  15.9949146  12.0000000  12.0000000  12.0000000  12.0000000  12.0000000  15.9949146  12.0000000   1.0078250   1.0078250
 NucSpn=           0           0           0           0           0           0           0           0           1           1
 AtZEff=  -0.0000000  -0.0000000  -0.0000000  -0.0000000  -0.0000000  -0.0000000  -0.0000000  -0.0000000  -0.0000000  -0.0000000
 NQMom=    0.0000000   0.0000000   0.0000000   0.0000000   0.0000000   0.0000000   0.0000000   0.0000000   0.0000000   0.0000000
 NMagM=    0.0000000   0.0000000   0.0000000   0.0000000   0.0000000   0.0000000   0.0000000   0.0000000   2.7928460   2.7928460
 AtZNuc=   8.0000000   6.0000000   6.0000000   6.0000000   6.0000000   6.0000000   8.0000000   6.0000000   1.0000000   1.0000000

  Atom        11          12          13          14
 IAtWgt=           1           1           1           1
 AtmWgt=   1.0078250   1.0078250   1.0078250   1.0078250
 NucSpn=           1           1           1           1
 AtZEff=  -0.0000000  -0.0000000  -0.0000000  -0.0000000
 NQMom=    0.0000000   0.0000000   0.0000000   0.0000000
 NMagM=    2.7928460   2.7928460   2.7928460   2.7928460
 AtZNuc=   1.0000000   1.0000000   1.0000000   1.0000000
 Leave Link  101 at Mon Feb 22 21:03:13 2021, MaxMem=   104857600 cpu:               2.4 elap:               0.1
 (Enter /sw/arch/RedHatEnterpriseServer7/EB_production/2019/software/Gaussian/g16.c01/l103.exe)

 GradGradGradGradGradGradGradGradGradGradGradGradGradGradGradGradGradGrad
 Berny optimization.
 Initialization pass.
                           ----------------------------
                           !    Initial Parameters    !
                           ! (Angstroms and Degrees)  !
 --------------------------                            --------------------------
 ! Name  Definition              Value          Derivative Info.                !
 --------------------------------------------------------------------------------
 ! R1    R(1,2)                  1.3564         estimate D2E/DX2                !
 ! R2    R(1,9)                  0.9809         estimate D2E/DX2                !
 ! R3    R(2,3)                  1.4086         estimate D2E/DX2                !
 ! R4    R(2,8)                  1.41           estimate D2E/DX2                !
 ! R5    R(3,4)                  1.4073         estimate D2E/DX2                !
 ! R6    R(3,10)                 1.0223         estimate D2E/DX2                !
 ! R7    R(4,5)                  1.4073         estimate D2E/DX2                !
 ! R8    R(4,11)                 1.0231         estimate D2E/DX2                !
 ! R9    R(5,6)                  1.4086         estimate D2E/DX2                !
 ! R10   R(5,12)                 1.0223         estimate D2E/DX2                !
 ! R11   R(6,7)                  1.3564         estimate D2E/DX2                !
 ! R12   R(6,8)                  1.41           estimate D2E/DX2                !
 ! R13   R(7,13)                 0.9809         estimate D2E/DX2                !
 ! R14   R(8,14)                 1.0228         estimate D2E/DX2                !
 ! A1    A(2,1,9)              105.9399         estimate D2E/DX2                !
 ! A2    A(1,2,3)              119.5317         estimate D2E/DX2                !
 ! A3    A(1,2,8)              120.7502         estimate D2E/DX2                !
 ! A4    A(3,2,8)              119.7181         estimate D2E/DX2                !
 ! A5    A(2,3,4)              120.1119         estimate D2E/DX2                !
 ! A6    A(2,3,10)             120.1386         estimate D2E/DX2                !
 ! A7    A(4,3,10)             119.7492         estimate D2E/DX2                !
 ! A8    A(3,4,5)              120.0684         estimate D2E/DX2                !
 ! A9    A(3,4,11)             119.966          estimate D2E/DX2                !
 ! A10   A(5,4,11)             119.9656         estimate D2E/DX2                !
 ! A11   A(4,5,6)              120.1119         estimate D2E/DX2                !
 ! A12   A(4,5,12)             119.7485         estimate D2E/DX2                !
 ! A13   A(6,5,12)             120.1393         estimate D2E/DX2                !
 ! A14   A(5,6,7)              119.532          estimate D2E/DX2                !
 ! A15   A(5,6,8)              119.718          estimate D2E/DX2                !
 ! A16   A(7,6,8)              120.75           estimate D2E/DX2                !
 ! A17   A(6,7,13)             105.9407         estimate D2E/DX2                !
 ! A18   A(2,8,6)              120.2716         estimate D2E/DX2                !
 ! A19   A(2,8,14)             119.8648         estimate D2E/DX2                !
 ! A20   A(6,8,14)             119.8636         estimate D2E/DX2                !
 ! D1    D(9,1,2,3)            179.3116         estimate D2E/DX2                !
 ! D2    D(9,1,2,8)             -0.6881         estimate D2E/DX2                !
 ! D3    D(1,2,3,4)            179.9026         estimate D2E/DX2                !
 ! D4    D(1,2,3,10)             0.0968         estimate D2E/DX2                !
 ! D5    D(8,2,3,4)             -0.0976         estimate D2E/DX2                !
 ! D6    D(8,2,3,10)          -179.9034         estimate D2E/DX2                !
 ! D7    D(1,2,8,6)           -179.9515         estimate D2E/DX2                !
 ! D8    D(1,2,8,14)             0.0483         estimate D2E/DX2                !
 ! D9    D(3,2,8,6)              0.0488         estimate D2E/DX2                !
 ! D10   D(3,2,8,14)          -179.9514         estimate D2E/DX2                !
 ! D11   D(2,3,4,5)              0.0492         estimate D2E/DX2                !
 ! D12   D(2,3,4,11)          -179.9515         estimate D2E/DX2                !
 ! D13   D(10,3,4,5)           179.8557         estimate D2E/DX2                !
 ! D14   D(10,3,4,11)           -0.145          estimate D2E/DX2                !
 ! D15   D(3,4,5,6)              0.0488         estimate D2E/DX2                !
 ! D16   D(3,4,5,12)           179.855          estimate D2E/DX2                !
 ! D17   D(11,4,5,6)          -179.9506         estimate D2E/DX2                !
 ! D18   D(11,4,5,12)           -0.1443         estimate D2E/DX2                !
 ! D19   D(4,5,6,7)            179.9023         estimate D2E/DX2                !
 ! D20   D(4,5,6,8)             -0.0973         estimate D2E/DX2                !
 ! D21   D(12,5,6,7)             0.0968         estimate D2E/DX2                !
 ! D22   D(12,5,6,8)          -179.9028         estimate D2E/DX2                !
 ! D23   D(5,6,7,13)           179.3115         estimate D2E/DX2                !
 ! D24   D(8,6,7,13)            -0.6889         estimate D2E/DX2                !
 ! D25   D(5,6,8,2)              0.0485         estimate D2E/DX2                !
 ! D26   D(5,6,8,14)          -179.9513         estimate D2E/DX2                !
 ! D27   D(7,6,8,2)           -179.9511         estimate D2E/DX2                !
 ! D28   D(7,6,8,14)             0.049          estimate D2E/DX2                !
 --------------------------------------------------------------------------------
 Trust Radius=3.00D-01 FncErr=1.00D-07 GrdErr=1.00D-06 EigMax=2.50D+02 EigMin=1.00D-04
 Number of steps in this run=     72 maximum allowed number of steps=    100.
 GradGradGradGradGradGradGradGradGradGradGradGradGradGradGradGradGradGrad

 Leave Link  103 at Mon Feb 22 21:03:13 2021, MaxMem=   104857600 cpu:               0.3 elap:               0.0
 (Enter /sw/arch/RedHatEnterpriseServer7/EB_production/2019/software/Gaussian/g16.c01/l202.exe)
                          Input orientation:                          
 ---------------------------------------------------------------------
 Center     Atomic      Atomic             Coordinates (Angstroms)
 Number     Number       Type             X           Y           Z
 ---------------------------------------------------------------------
      1          8           0       -1.441370    3.173400    3.755910
      2          6           0       -1.559850    2.374110    2.666440
      3          6           0       -2.717740    1.588510    2.504290
      4          6           0       -2.854320    0.756460    1.377590
      5          6           0       -1.833540    0.706380    0.410160
      6          6           0       -0.672140    1.487820    0.567180
      7          8           0        0.305260    1.428960   -0.371470
      8          6           0       -0.537990    2.321500    1.696360
      9          1           0       -0.568580    3.613350    3.673600
     10          1           0       -3.463290    1.622790    3.202960
     11          1           0       -3.696600    0.187360    1.261680
     12          1           0       -1.936880    0.098540   -0.405320
     13          1           0        1.003140    2.050240   -0.073020
     14          1           0        0.304060    2.890430    1.812230
 ---------------------------------------------------------------------
                    Distance matrix (angstroms):
                    1          2          3          4          5
     1  O    0.000000
     2  C    1.356410   0.000000
     3  C    2.389048   1.408605   0.000000
     4  C    3.673477   2.439996   1.407272   0.000000
     5  C    4.175408   2.819048   2.438307   1.407274   0.000000
     6  C    3.687939   2.445492   2.819045   2.439992   1.408600
     7  O    4.809267   3.687932   4.175402   3.673474   2.389044
     8  C    2.404906   1.409972   2.437485   2.813601   2.437493
     9  H    0.980864   1.879549   3.175870   4.319501   4.549795
    10  H    2.607356   2.115519   1.022331   2.110296   3.360896
    11  H    4.497075   3.364658   2.113165   1.023106   2.113164
    12  H    5.197704   3.841364   3.360890   2.110290   1.022329
    13  H    4.679511   3.765428   4.549799   4.319506   3.175874
    14  H    2.627640   2.114337   3.362323   3.836418   3.362322
                    6          7          8          9         10
     6  C    0.000000
     7  O    1.356407   0.000000
     8  C    1.409988   2.404916   0.000000
     9  H    3.765428   4.679503   2.362052   0.000000
    10  H    3.841363   5.197700   3.363840   3.544457   0.000000
    11  H    3.364652   4.497069   3.836707   5.228697   2.425585
    12  H    2.115519   2.607366   3.363852   5.555513   4.203921
    13  H    1.879557   0.980866   2.362069   4.353249   5.555516
    14  H    2.114339   2.627630   1.022817   2.179177   4.211172
                   11         12         13         14
    11  H    0.000000
    12  H    2.425571   0.000000
    13  H    5.228700   3.544471   0.000000
    14  H    4.859524   4.211174   2.179174   0.000000
 Stoichiometry    C6H6O2
 Framework group  C1[X(C6H6O2)]
 Deg. of freedom    36
 Full point group                 C1      NOp   1
 Largest Abelian subgroup         C1      NOp   1
 Largest concise Abelian subgroup C1      NOp   1
                         Standard orientation:                         
 ---------------------------------------------------------------------
 Center     Atomic      Atomic             Coordinates (Angstroms)
 Number     Number       Type             X           Y           Z
 ---------------------------------------------------------------------
      1          8           0        2.404636   -0.954007   -0.001276
      2          6           0        1.222745   -0.288441   -0.000149
      3          6           0        1.219149    1.120160    0.000892
      4          6           0       -0.000004    1.823067   -0.000002
      5          6           0       -1.219157    1.120155   -0.000892
      6          6           0       -1.222747   -0.288440    0.000144
      7          8           0       -2.404630   -0.954015    0.001281
      8          6           0        0.000008   -0.990534   -0.000001
      9          1           0        2.176605   -1.907935    0.009475
     10          1           0        2.101959    1.635722   -0.000698
     11          1           0       -0.000009    2.846172    0.000007
     12          1           0       -2.101961    1.635723    0.000706
     13          1           0       -2.176603   -1.907947   -0.009476
     14          1           0        0.000000   -2.013352   -0.000003
 ---------------------------------------------------------------------
 Rotational constants (GHZ):           3.6658293           1.8378527           1.2241373
 Leave Link  202 at Mon Feb 22 21:03:14 2021, MaxMem=   104857600 cpu:               0.2 elap:               0.0
 (Enter /sw/arch/RedHatEnterpriseServer7/EB_production/2019/software/Gaussian/g16.c01/l301.exe)
 Standard basis: TZVP (5D, 7F)
 Ernie: Thresh=  0.10000D-02 Tol=  0.10000D-05 Strict=F.
 There are   196 symmetry adapted cartesian basis functions of A   symmetry.
 There are   188 symmetry adapted basis functions of A   symmetry.
   188 basis functions,   328 primitive gaussians,   196 cartesian basis functions
    29 alpha electrons       29 beta electrons
       nuclear repulsion energy       345.4959174658 Hartrees.
 IExCor=  404 DFT=T Ex=B Corr=P86 ExCW=0 ScaHFX=  0.000000
 ScaDFX=  1.000000  1.000000  1.000000  1.000000 ScalE2=  1.000000  1.000000
 IRadAn=      5 IRanWt=     -1 IRanGd=            0 ICorTp=0 IEmpDi=131
 NAtoms=   14 NActive=   14 NUniq=   14 SFac= 1.00D+00 NAtFMM=   60 NAOKFM=F Big=F
 Integral buffers will be    131072 words long.
 Raffenetti 2 integral format.
 Two-electron integral symmetry is turned on.
 R6Disp:  Grimme-D3 Dispersion energy=       -0.0091758650 Hartrees.
 Nuclear repulsion after empirical dispersion term =      345.4867416008 Hartrees.
 ------------------------------------------------------------------------------
 Polarizable Continuum Model (PCM)
 =================================
 Model                : PCM.
 Atomic radii         : UFF (Universal Force Field).
 Polarization charges : Total charges.
 Charge compensation  : None.
 Solution method      : On-the-fly selection.
 Cavity type          : Scaled VdW (van der Waals Surface) (Alpha=1.100).
 Cavity algorithm     : GePol (No added spheres)
                        Default sphere list used, NSphG=   14.
                        Lebedev-Laikov grids with approx.  5.0 points / Ang**2.
                        Smoothing algorithm: York/Karplus (Gamma=1.0000).
                        Polarization charges: spherical gaussians, with
                                              point-specific exponents (IZeta= 3).
                        Self-potential: point-specific (ISelfS= 7).
                        Self-field    : sphere-specific E.n sum rule (ISelfD= 2).
 1st derivatives      : Analytical E(r).r(x)/FMM algorithm (CHGder, D1EAlg=3).
                        Cavity 1st derivative terms included.
 Solvent              : Water, Eps=  78.355300 Eps(inf)=   1.777849
 ------------------------------------------------------------------------------
 Spheres list:
 ISph  on   Nord     Re0    Alpha      Xe            Ye            Ze
    1   O      1    1.7500  1.100      2.404636     -0.954007     -0.001276
    2   C      2    1.9255  1.100      1.222745     -0.288441     -0.000149
    3   C      3    1.9255  1.100      1.219149      1.120160      0.000892
    4   C      4    1.9255  1.100     -0.000004      1.823067     -0.000002
    5   C      5    1.9255  1.100     -1.219157      1.120155     -0.000892
    6   C      6    1.9255  1.100     -1.222747     -0.288440      0.000144
    7   O      7    1.7500  1.100     -2.404630     -0.954015      0.001281
    8   C      8    1.9255  1.100      0.000008     -0.990534     -0.000001
    9   H      9    1.4430  1.100      2.176605     -1.907935      0.009475
   10   H     10    1.4430  1.100      2.101959      1.635722     -0.000698
   11   H     11    1.4430  1.100     -0.000009      2.846172      0.000007
   12   H     12    1.4430  1.100     -2.101961      1.635723      0.000706
   13   H     13    1.4430  1.100     -2.176603     -1.907947     -0.009476
   14   H     14    1.4430  1.100      0.000000     -2.013352     -0.000003
 ------------------------------------------------------------------------------
 GePol: Number of generator spheres                  =      14
 GePol: Total number of spheres                      =      14
 GePol: Number of exposed spheres                    =      14 (100.00%)
 GePol: Number of points                             =    1244
 GePol: Average weight of points                     =       0.13
 GePol: Minimum weight of points                     =   0.34D-10
 GePol: Maximum weight of points                     =    0.20577
 GePol: Number of points with low weight             =      66
 GePol: Fraction of low-weight points (<1% of avg)   =       5.31%
 GePol: Cavity surface area                          =    162.893 Ang**2
 GePol: Cavity volume                                =    157.376 Ang**3
 Leave Link  301 at Mon Feb 22 21:03:14 2021, MaxMem=   104857600 cpu:               1.7 elap:               0.1
 (Enter /sw/arch/RedHatEnterpriseServer7/EB_production/2019/software/Gaussian/g16.c01/l302.exe)
 NPDir=0 NMtPBC=     1 NCelOv=     1 NCel=       1 NClECP=     1 NCelD=      1
         NCelK=      1 NCelE2=     1 NClLst=     1 CellRange=     0.0.
 One-electron integrals computed using PRISM.
 One-electron integral symmetry used in STVInt
 PrsmSu:  requested number of processors reduced to:  29 ShMem   1 Linda.
 NBasis=   188 RedAO= T EigKep=  1.29D-05  NBF=   188
 NBsUse=   188 1.00D-06 EigRej= -1.00D+00 NBFU=   188
 Precomputing XC quadrature grid using
 IXCGrd= 4 IRadAn=           5 IRanWt=          -1 IRanGd=           0 AccXCQ= 0.00D+00.
 Generated NRdTot=       0 NPtTot=           0 NUsed=           0 NTot=          32
 NSgBfM=   195   195   195   195   195 MxSgAt=    14 MxSgA2=    14.
 Leave Link  302 at Mon Feb 22 21:03:14 2021, MaxMem=   104857600 cpu:               5.4 elap:               0.2
 (Enter /sw/arch/RedHatEnterpriseServer7/EB_production/2019/software/Gaussian/g16.c01/l303.exe)
 DipDrv:  MaxL=1.
 Leave Link  303 at Mon Feb 22 21:03:14 2021, MaxMem=   104857600 cpu:               1.6 elap:               0.1
 (Enter /sw/arch/RedHatEnterpriseServer7/EB_production/2019/software/Gaussian/g16.c01/l401.exe)
 ExpMin= 9.52D-02 ExpMax= 2.70D+04 ExpMxC= 9.22D+02 IAcc=3 IRadAn=         5 AccDes= 0.00D+00
 Harris functional with IExCor=  404 and IRadAn=       5 diagonalized for initial guess.
 HarFok:  IExCor=  404 AccDes= 0.00D+00 IRadAn=         5 IDoV= 1 UseB2=F ITyADJ=14
 ICtDFT=  3500011 ScaDFX=  1.000000  1.000000  1.000000  1.000000
 FoFCou: FMM=F IPFlag=           0 FMFlag=      100000 FMFlg1=           0
         NFxFlg=           0 DoJE=T BraDBF=F KetDBF=T FulRan=T
         wScrn=  0.000000 ICntrl=       500 IOpCl=  0 I1Cent=   200000004 NGrid=           0
         NMat0=    1 NMatS0=      1 NMatT0=    0 NMatD0=    1 NMtDS0=    0 NMtDT0=    0
 Petite list used in FoFCou.
 Harris En= -382.972519682180    
 JPrj=0 DoOrth=F DoCkMO=F.
 Leave Link  401 at Mon Feb 22 21:03:15 2021, MaxMem=   104857600 cpu:               8.7 elap:               0.3
 (Enter /sw/arch/RedHatEnterpriseServer7/EB_production/2019/software/Gaussian/g16.c01/l502.exe)
 Integral symmetry usage will be decided dynamically.
 Closed shell SCF:
 Using DIIS extrapolation, IDIIS=  1040.
 NGot=   104857600 LenX=   104772142 LenY=   104733285
 Requested convergence on RMS density matrix=1.00D-08 within 128 cycles.
 Requested convergence on MAX density matrix=1.00D-06.
 Requested convergence on             energy=1.00D-06.
 No special actions if energy rises.
 Fock matrices will be formed incrementally for  20 cycles.

 Cycle   1  Pass 1  IDiag  1:
 FoFJK:  IHMeth= 1 ICntrl=     500 DoSepK=F KAlg= 0 I1Cent=           0 FoldK=F
 IRaf= 950000000 NMat=       1 IRICut=       1 DoRegI=T DoRafI=F ISym2E= 0 IDoP0=0 IntGTp=1.
 FoFCou: FMM=F IPFlag=           0 FMFlag=      100000 FMFlg1=           0
         NFxFlg=           0 DoJE=T BraDBF=F KetDBF=F FulRan=T
         wScrn=  0.000000 ICntrl=       500 IOpCl=  0 I1Cent=           0 NGrid=           0
         NMat0=    1 NMatS0=      1 NMatT0=    0 NMatD0=    1 NMtDS0=    0 NMtDT0=    0
 Symmetry not used in FoFCou.
 Inv3:  Mode=1 IEnd=     4642608.
 Iteration    1 A*A^-1 deviation from unit magnitude is 3.11D-15 for    740.
 Iteration    1 A*A^-1 deviation from orthogonality  is 1.86D-15 for   1108    307.
 Iteration    1 A^-1*A deviation from unit magnitude is 3.00D-15 for    441.
 Iteration    1 A^-1*A deviation from orthogonality  is 1.44D-15 for    783    496.
 E= -382.642682316467    
 DIIS: error= 3.43D-02 at cycle   1 NSaved=   1.
 NSaved= 1 IEnMin= 1 EnMin= -382.642682316467     IErMin= 1 ErrMin= 3.43D-02
 ErrMax= 3.43D-02  0.00D+00 EMaxC= 1.00D-01 BMatC= 2.06D-01 BMatP= 2.06D-01
 IDIUse=3 WtCom= 6.57D-01 WtEn= 3.43D-01
 Coeff-Com:  0.100D+01
 Coeff-En:   0.100D+01
 Coeff:      0.100D+01
 Gap=     0.150 Goal=   None    Shift=    0.000
 GapD=    0.150 DampG=1.000 DampE=0.500 DampFc=0.5000 IDamp=-1.
 Damping current iteration by 5.00D-01
 RMSDP=1.40D-02 MaxDP=9.90D-01              OVMax= 2.58D-01

 Cycle   2  Pass 1  IDiag  1:
 RMSU=  7.01D-03    CP:  1.01D+00
 E= -382.708938467504     Delta-E=       -0.066256151038 Rises=F Damp=T
 DIIS: error= 8.86D-03 at cycle   2 NSaved=   2.
 NSaved= 2 IEnMin= 2 EnMin= -382.708938467504     IErMin= 2 ErrMin= 8.86D-03
 ErrMax= 8.86D-03  0.00D+00 EMaxC= 1.00D-01 BMatC= 1.87D-02 BMatP= 2.06D-01
 IDIUse=3 WtCom= 9.11D-01 WtEn= 8.86D-02
 Coeff-Com:  0.175D+00 0.825D+00
 Coeff-En:   0.281D+00 0.719D+00
 Coeff:      0.185D+00 0.815D+00
 Gap=     0.158 Goal=   None    Shift=    0.000
 RMSDP=3.35D-03 MaxDP=1.97D-01 DE=-6.63D-02 OVMax= 2.05D-01

 Cycle   3  Pass 1  IDiag  1:
 RMSU=  2.00D-03    CP:  9.87D-01  6.21D-01
 E= -382.823691813828     Delta-E=       -0.114753346323 Rises=F Damp=F
 DIIS: error= 1.12D-02 at cycle   3 NSaved=   3.
 NSaved= 3 IEnMin= 3 EnMin= -382.823691813828     IErMin= 2 ErrMin= 8.86D-03
 ErrMax= 1.12D-02  0.00D+00 EMaxC= 1.00D-01 BMatC= 8.95D-03 BMatP= 1.87D-02
 IDIUse=3 WtCom= 8.88D-01 WtEn= 1.12D-01
 Coeff-Com:  0.586D-01 0.416D+00 0.526D+00
 Coeff-En:   0.000D+00 0.000D+00 0.100D+01
 Coeff:      0.521D-01 0.369D+00 0.579D+00
 Gap=     0.152 Goal=   None    Shift=    0.000
 RMSDP=8.81D-04 MaxDP=1.57D-02 DE=-1.15D-01 OVMax= 6.21D-02

 Cycle   4  Pass 1  IDiag  1:
 RMSU=  7.86D-04    CP:  9.93D-01  5.88D-01  8.44D-01
 E= -382.828432272664     Delta-E=       -0.004740458836 Rises=F Damp=F
 DIIS: error= 7.54D-03 at cycle   4 NSaved=   4.
 NSaved= 4 IEnMin= 4 EnMin= -382.828432272664     IErMin= 4 ErrMin= 7.54D-03
 ErrMax= 7.54D-03  0.00D+00 EMaxC= 1.00D-01 BMatC= 4.09D-03 BMatP= 8.95D-03
 IDIUse=3 WtCom= 9.25D-01 WtEn= 7.54D-02
 Coeff-Com:  0.146D-01 0.112D+00 0.400D+00 0.474D+00
 Coeff-En:   0.000D+00 0.000D+00 0.361D+00 0.639D+00
 Coeff:      0.135D-01 0.104D+00 0.397D+00 0.486D+00
 Gap=     0.153 Goal=   None    Shift=    0.000
 RMSDP=4.30D-04 MaxDP=8.32D-03 DE=-4.74D-03 OVMax= 3.49D-02

 Cycle   5  Pass 1  IDiag  1:
 RMSU=  1.69D-04    CP:  9.89D-01  5.85D-01  9.13D-01  5.35D-01
 E= -382.832690182964     Delta-E=       -0.004257910300 Rises=F Damp=F
 DIIS: error= 1.76D-03 at cycle   5 NSaved=   5.
 NSaved= 5 IEnMin= 5 EnMin= -382.832690182964     IErMin= 5 ErrMin= 1.76D-03
 ErrMax= 1.76D-03  0.00D+00 EMaxC= 1.00D-01 BMatC= 1.87D-04 BMatP= 4.09D-03
 IDIUse=3 WtCom= 9.82D-01 WtEn= 1.76D-02
 Coeff-Com:  0.539D-02 0.371D-01 0.202D+00 0.290D+00 0.465D+00
 Coeff-En:   0.000D+00 0.000D+00 0.000D+00 0.000D+00 0.100D+01
 Coeff:      0.530D-02 0.365D-01 0.199D+00 0.285D+00 0.474D+00
 Gap=     0.153 Goal=   None    Shift=    0.000
 RMSDP=8.57D-05 MaxDP=2.40D-03 DE=-4.26D-03 OVMax= 1.04D-02

 Cycle   6  Pass 1  IDiag  1:
 RMSU=  6.71D-05    CP:  9.89D-01  5.88D-01  9.02D-01  5.73D-01  8.25D-01
 E= -382.832872155435     Delta-E=       -0.000181972471 Rises=F Damp=F
 DIIS: error= 4.75D-04 at cycle   6 NSaved=   6.
 NSaved= 6 IEnMin= 6 EnMin= -382.832872155435     IErMin= 6 ErrMin= 4.75D-04
 ErrMax= 4.75D-04  0.00D+00 EMaxC= 1.00D-01 BMatC= 1.92D-05 BMatP= 1.87D-04
 IDIUse=3 WtCom= 9.95D-01 WtEn= 4.75D-03
 Coeff-Com:  0.115D-02 0.668D-02 0.610D-01 0.987D-01 0.284D+00 0.549D+00
 Coeff-En:   0.000D+00 0.000D+00 0.000D+00 0.000D+00 0.820D-01 0.918D+00
 Coeff:      0.114D-02 0.665D-02 0.607D-01 0.982D-01 0.283D+00 0.551D+00
 Gap=     0.153 Goal=   None    Shift=    0.000
 RMSDP=2.49D-05 MaxDP=5.30D-04 DE=-1.82D-04 OVMax= 2.27D-03

 Cycle   7  Pass 1  IDiag  1:
 RMSU=  1.45D-05    CP:  9.89D-01  5.88D-01  9.02D-01  5.72D-01  8.05D-01
                    CP:  7.03D-01
 E= -382.832891374493     Delta-E=       -0.000019219058 Rises=F Damp=F
 DIIS: error= 5.00D-05 at cycle   7 NSaved=   7.
 NSaved= 7 IEnMin= 7 EnMin= -382.832891374493     IErMin= 7 ErrMin= 5.00D-05
 ErrMax= 5.00D-05  0.00D+00 EMaxC= 1.00D-01 BMatC= 1.97D-07 BMatP= 1.92D-05
 IDIUse=1 WtCom= 1.00D+00 WtEn= 0.00D+00
 Coeff-Com:  0.399D-03 0.217D-02 0.211D-01 0.340D-01 0.104D+00 0.223D+00
 Coeff-Com:  0.615D+00
 Coeff:      0.399D-03 0.217D-02 0.211D-01 0.340D-01 0.104D+00 0.223D+00
 Coeff:      0.615D+00
 Gap=     0.153 Goal=   None    Shift=    0.000
 RMSDP=6.87D-06 MaxDP=4.70D-04 DE=-1.92D-05 OVMax= 4.11D-04

 Cycle   8  Pass 1  IDiag  1:
 RMSU=  4.78D-06    CP:  9.89D-01  5.89D-01  9.03D-01  5.72D-01  8.05D-01
                    CP:  6.88D-01  9.55D-01
 E= -382.832891396552     Delta-E=       -0.000000022059 Rises=F Damp=F
 DIIS: error= 3.89D-05 at cycle   8 NSaved=   8.
 NSaved= 8 IEnMin= 8 EnMin= -382.832891396552     IErMin= 8 ErrMin= 3.89D-05
 ErrMax= 3.89D-05  0.00D+00 EMaxC= 1.00D-01 BMatC= 1.35D-07 BMatP= 1.97D-07
 IDIUse=1 WtCom= 1.00D+00 WtEn= 0.00D+00
 Coeff-Com:  0.108D-03 0.377D-03 0.567D-02 0.930D-02 0.320D-01 0.775D-01
 Coeff-Com:  0.442D+00 0.433D+00
 Coeff:      0.108D-03 0.377D-03 0.567D-02 0.930D-02 0.320D-01 0.775D-01
 Coeff:      0.442D+00 0.433D+00
 Gap=     0.153 Goal=   None    Shift=    0.000
 RMSDP=3.73D-06 MaxDP=2.71D-04 DE=-2.21D-08 OVMax= 1.83D-04

 Cycle   9  Pass 1  IDiag  1:
 RMSU=  1.18D-06    CP:  9.89D-01  5.89D-01  9.03D-01  5.72D-01  8.09D-01
                    CP:  7.03D-01  9.89D-01  6.64D-01
 E= -382.832891506278     Delta-E=       -0.000000109726 Rises=F Damp=F
 DIIS: error= 6.02D-06 at cycle   9 NSaved=   9.
 NSaved= 9 IEnMin= 9 EnMin= -382.832891506278     IErMin= 9 ErrMin= 6.02D-06
 ErrMax= 6.02D-06  0.00D+00 EMaxC= 1.00D-01 BMatC= 3.74D-09 BMatP= 1.35D-07
 IDIUse=1 WtCom= 1.00D+00 WtEn= 0.00D+00
 Coeff-Com:  0.130D-04 0.523D-05 0.469D-03 0.744D-03 0.352D-02 0.120D-01
 Coeff-Com:  0.141D+00 0.199D+00 0.643D+00
 Coeff:      0.130D-04 0.523D-05 0.469D-03 0.744D-03 0.352D-02 0.120D-01
 Coeff:      0.141D+00 0.199D+00 0.643D+00
 Gap=     0.153 Goal=   None    Shift=    0.000
 RMSDP=6.84D-07 MaxDP=3.49D-05 DE=-1.10D-07 OVMax= 2.24D-05

 Cycle  10  Pass 1  IDiag  1:
 RMSU=  3.05D-07    CP:  9.89D-01  5.89D-01  9.03D-01  5.72D-01  8.09D-01
                    CP:  7.02D-01  9.96D-01  7.19D-01  8.12D-01
 E= -382.832891508167     Delta-E=       -0.000000001889 Rises=F Damp=F
 DIIS: error= 3.27D-06 at cycle  10 NSaved=  10.
 NSaved=10 IEnMin=10 EnMin= -382.832891508167     IErMin=10 ErrMin= 3.27D-06
 ErrMax= 3.27D-06  0.00D+00 EMaxC= 1.00D-01 BMatC= 1.21D-09 BMatP= 3.74D-09
 IDIUse=1 WtCom= 1.00D+00 WtEn= 0.00D+00
 Coeff-Com:  0.127D-05-0.274D-04-0.803D-04-0.143D-03 0.137D-03 0.270D-02
 Coeff-Com:  0.615D-01 0.982D-01 0.434D+00 0.404D+00
 Coeff:      0.127D-05-0.274D-04-0.803D-04-0.143D-03 0.137D-03 0.270D-02
 Coeff:      0.615D-01 0.982D-01 0.434D+00 0.404D+00
 Gap=     0.153 Goal=   None    Shift=    0.000
 RMSDP=2.66D-07 MaxDP=1.76D-05 DE=-1.89D-09 OVMax= 1.36D-05

 Cycle  11  Pass 1  IDiag  1:
 RMSU=  9.77D-08    CP:  9.89D-01  5.89D-01  9.03D-01  5.72D-01  8.09D-01
                    CP:  7.03D-01  1.00D+00  7.05D-01  8.41D-01  6.24D-01
 E= -382.832891509288     Delta-E=       -0.000000001121 Rises=F Damp=F
 DIIS: error= 2.91D-07 at cycle  11 NSaved=  11.
 NSaved=11 IEnMin=11 EnMin= -382.832891509288     IErMin=11 ErrMin= 2.91D-07
 ErrMax= 2.91D-07  0.00D+00 EMaxC= 1.00D-01 BMatC= 9.28D-12 BMatP= 1.21D-09
 IDIUse=1 WtCom= 1.00D+00 WtEn= 0.00D+00
 Coeff-Com: -0.175D-06-0.604D-05-0.461D-04-0.867D-04-0.215D-03-0.693D-04
 Coeff-Com:  0.764D-02 0.108D-01 0.788D-01 0.112D+00 0.791D+00
 Coeff:     -0.175D-06-0.604D-05-0.461D-04-0.867D-04-0.215D-03-0.693D-04
 Coeff:      0.764D-02 0.108D-01 0.788D-01 0.112D+00 0.791D+00
 Gap=     0.153 Goal=   None    Shift=    0.000
 RMSDP=3.32D-08 MaxDP=6.36D-07 DE=-1.12D-09 OVMax= 7.54D-07

 Cycle  12  Pass 1  IDiag  1:
 RMSU=  1.29D-08    CP:  9.89D-01  5.89D-01  9.03D-01  5.72D-01  8.09D-01
                    CP:  7.04D-01  1.00D+00  7.08D-01  8.51D-01  6.30D-01
                    CP:  8.78D-01
 E= -382.832891509296     Delta-E=       -0.000000000008 Rises=F Damp=F
 DIIS: error= 2.40D-08 at cycle  12 NSaved=  12.
 NSaved=12 IEnMin=12 EnMin= -382.832891509296     IErMin=12 ErrMin= 2.40D-08
 ErrMax= 2.40D-08  0.00D+00 EMaxC= 1.00D-01 BMatC= 1.05D-13 BMatP= 9.28D-12
 IDIUse=1 WtCom= 1.00D+00 WtEn= 0.00D+00
 Coeff-Com: -0.793D-07-0.761D-06-0.735D-05-0.135D-04-0.376D-04-0.791D-04
 Coeff-Com:  0.312D-03-0.107D-03 0.549D-02 0.958D-02 0.130D+00 0.855D+00
 Coeff:     -0.793D-07-0.761D-06-0.735D-05-0.135D-04-0.376D-04-0.791D-04
 Coeff:      0.312D-03-0.107D-03 0.549D-02 0.958D-02 0.130D+00 0.855D+00
 Gap=     0.153 Goal=   None    Shift=    0.000
 RMSDP=5.34D-09 MaxDP=1.99D-07 DE=-8.19D-12 OVMax= 1.80D-07

 Error on total polarization charges =  0.01180
 SCF Done:  E(RB-P86) =  -382.832891509     A.U. after   12 cycles
            NFock= 12  Conv=0.53D-08     -V/T= 2.0034
 KE= 3.815386334887D+02 PE=-1.585981261585D+03 EE= 4.761229949865D+02
 Leave Link  502 at Mon Feb 22 21:03:22 2021, MaxMem=   104857600 cpu:             226.3 elap:               7.3
 (Enter /sw/arch/RedHatEnterpriseServer7/EB_production/2019/software/Gaussian/g16.c01/l601.exe)
 Copying SCF densities to generalized density rwf, IOpCl= 0 IROHF=0.

 **********************************************************************

            Population analysis using the SCF Density.

 **********************************************************************

 Orbital symmetries:
       Occupied  (A) (A) (A) (A) (A) (A) (A) (A) (A) (A) (A) (A)
                 (A) (A) (A) (A) (A) (A) (A) (A) (A) (A) (A) (A)
                 (A) (A) (A) (A) (A)
       Virtual   (A) (A) (A) (A) (A) (A) (A) (A) (A) (A) (A) (A)
                 (A) (A) (A) (A) (A) (A) (A) (A) (A) (A) (A) (A)
                 (A) (A) (A) (A) (A) (A) (A) (A) (A) (A) (A) (A)
                 (A) (A) (A) (A) (A) (A) (A) (A) (A) (A) (A) (A)
                 (A) (A) (A) (A) (A) (A) (A) (A) (A) (A) (A) (A)
                 (A) (A) (A) (A) (A) (A) (A) (A) (A) (A) (A) (A)
                 (A) (A) (A) (A) (A) (A) (A) (A) (A) (A) (A) (A)
                 (A) (A) (A) (A) (A) (A) (A) (A) (A) (A) (A) (A)
                 (A) (A) (A) (A) (A) (A) (A) (A) (A) (A) (A) (A)
                 (A) (A) (A) (A) (A) (A) (A) (A) (A) (A) (A) (A)
                 (A) (A) (A) (A) (A) (A) (A) (A) (A) (A) (A) (A)
                 (A) (A) (A) (A) (A) (A) (A) (A) (A) (A) (A) (A)
                 (A) (A) (A) (A) (A) (A) (A) (A) (A) (A) (A) (A)
                 (A) (A) (A)
 The electronic state is 1-A.
 Alpha  occ. eigenvalues --  -18.81163 -18.81163  -9.97007  -9.97006  -9.90459
 Alpha  occ. eigenvalues --   -9.89991  -9.89174  -9.89173  -0.99280  -0.99082
 Alpha  occ. eigenvalues --   -0.77673  -0.68554  -0.67880  -0.59163  -0.55596
 Alpha  occ. eigenvalues --   -0.50932  -0.49847  -0.46348  -0.42078  -0.40007
 Alpha  occ. eigenvalues --   -0.38619  -0.37752  -0.35646  -0.35198  -0.32748
 Alpha  occ. eigenvalues --   -0.31783  -0.28663  -0.22065  -0.20023
 Alpha virt. eigenvalues --   -0.04718  -0.02926   0.01850   0.02191   0.05846
 Alpha virt. eigenvalues --    0.08330   0.09485   0.09573   0.11823   0.12679
 Alpha virt. eigenvalues --    0.15115   0.16500   0.18276   0.18298   0.20027
 Alpha virt. eigenvalues --    0.20705   0.21217   0.22487   0.23327   0.23695
 Alpha virt. eigenvalues --    0.27853   0.29550   0.30076   0.30152   0.30228
 Alpha virt. eigenvalues --    0.31239   0.31596   0.33787   0.34207   0.37871
 Alpha virt. eigenvalues --    0.38560   0.41078   0.41500   0.43085   0.44323
 Alpha virt. eigenvalues --    0.44473   0.45438   0.46031   0.46531   0.47712
 Alpha virt. eigenvalues --    0.48864   0.52308   0.52832   0.56060   0.58631
 Alpha virt. eigenvalues --    0.60728   0.62600   0.63760   0.67655   0.70136
 Alpha virt. eigenvalues --    0.73242   0.73505   0.82383   0.83139   0.84369
 Alpha virt. eigenvalues --    1.11269   1.14435   1.16375   1.17090   1.17812
 Alpha virt. eigenvalues --    1.18332   1.20845   1.24026   1.25629   1.27679
 Alpha virt. eigenvalues --    1.29688   1.30255   1.32940   1.33140   1.35230
 Alpha virt. eigenvalues --    1.37132   1.37910   1.38168   1.39395   1.40247
 Alpha virt. eigenvalues --    1.41173   1.43372   1.44880   1.45152   1.45963
 Alpha virt. eigenvalues --    1.46841   1.47177   1.49276   1.55224   1.69102
 Alpha virt. eigenvalues --    1.71338   1.71683   1.73319   1.73598   1.74468
 Alpha virt. eigenvalues --    1.80148   1.82018   1.83184   1.84821   1.87529
 Alpha virt. eigenvalues --    1.90771   1.91160   1.92788   1.97168   1.97663
 Alpha virt. eigenvalues --    2.09722   2.10502   2.13593   2.14113   2.20125
 Alpha virt. eigenvalues --    2.20570   2.20745   2.20844   2.22746   2.24102
 Alpha virt. eigenvalues --    2.24269   2.30203   2.31751   2.43388   2.45217
 Alpha virt. eigenvalues --    2.48075   2.48979   2.49069   2.49749   2.54308
 Alpha virt. eigenvalues --    2.54767   2.59842   2.63588   2.64934   2.70875
 Alpha virt. eigenvalues --    2.73228   2.82461   2.83345   2.84364   2.87223
 Alpha virt. eigenvalues --    2.87750   2.90337   2.91164   2.94469   2.99894
 Alpha virt. eigenvalues --    3.04781   3.05773   3.09563   3.11145   3.12898
 Alpha virt. eigenvalues --    3.18942   3.19775   3.23383   3.26258   3.31164
 Alpha virt. eigenvalues --    3.45753   3.55993   3.87070   4.00067   4.15670
 Alpha virt. eigenvalues --    4.23025  21.12038  21.64162  21.65056  21.82565
 Alpha virt. eigenvalues --   21.83186  21.96140  43.14163  43.14806
          Condensed to atoms (all electrons):
               1          2          3          4          5          6
     1  O    7.773360   0.340448  -0.062160   0.004482   0.002282   0.010978
     2  C    0.340448   5.138837   0.402946  -0.010324  -0.093334   0.202319
     3  C   -0.062160   0.402946   5.337498   0.422207   0.026837  -0.093335
     4  C    0.004482  -0.010324   0.422207   4.912422   0.422200  -0.010323
     5  C    0.002282  -0.093334   0.026837   0.422200   5.337501   0.402943
     6  C    0.010978   0.202319  -0.093335  -0.010323   0.402943   5.138818
     7  O   -0.000164   0.010978   0.002283   0.004482  -0.062160   0.340449
     8  C   -0.089407  -0.060739  -0.106297  -0.064765  -0.106293  -0.060719
     9  H    0.303615  -0.026992   0.012207  -0.001104  -0.000090   0.006565
    10  H    0.003920  -0.070392   0.421156  -0.042329   0.013622  -0.003388
    11  H   -0.000158   0.023585  -0.083136   0.468657  -0.083136   0.023586
    12  H    0.000029  -0.003388   0.013622  -0.042330   0.421157  -0.070391
    13  H   -0.000066   0.006565  -0.000090  -0.001104   0.012207  -0.026994
    14  H   -0.004865  -0.018645   0.008251   0.001919   0.008251  -0.018647
               7          8          9         10         11         12
     1  O   -0.000164  -0.089407   0.303615   0.003920  -0.000158   0.000029
     2  C    0.010978  -0.060739  -0.026992  -0.070392   0.023585  -0.003388
     3  C    0.002283  -0.106297   0.012207   0.421156  -0.083136   0.013622
     4  C    0.004482  -0.064765  -0.001104  -0.042329   0.468657  -0.042330
     5  C   -0.062160  -0.106293  -0.000090   0.013622  -0.083136   0.421157
     6  C    0.340449  -0.060719   0.006565  -0.003388   0.023586  -0.070391
     7  O    7.773359  -0.089407  -0.000066   0.000029  -0.000158   0.003920
     8  C   -0.089407   6.536053  -0.027009   0.021351  -0.004975   0.021351
     9  H   -0.000066  -0.027009   0.424755  -0.000769   0.000030  -0.000004
    10  H    0.000029   0.021351  -0.000769   0.507521  -0.007978  -0.000245
    11  H   -0.000158  -0.004975   0.000030  -0.007978   0.529181  -0.007978
    12  H    0.003920   0.021351  -0.000004  -0.000245  -0.007978   0.507521
    13  H    0.303615  -0.027008   0.000004  -0.000004   0.000030  -0.000769
    14  H   -0.004865   0.375202   0.001645  -0.000215  -0.000036  -0.000215
              13         14
     1  O   -0.000066  -0.004865
     2  C    0.006565  -0.018645
     3  C   -0.000090   0.008251
     4  C   -0.001104   0.001919
     5  C    0.012207   0.008251
     6  C   -0.026994  -0.018647
     7  O    0.303615  -0.004865
     8  C   -0.027008   0.375202
     9  H    0.000004   0.001645
    10  H   -0.000004  -0.000215
    11  H    0.000030  -0.000036
    12  H   -0.000769  -0.000215
    13  H    0.424754   0.001646
    14  H    0.001646   0.489211
 Mulliken charges:
               1
     1  O   -0.282295
     2  C    0.158135
     3  C   -0.301988
     4  C   -0.064090
     5  C   -0.301988
     6  C    0.158138
     7  O   -0.282295
     8  C   -0.317336
     9  H    0.307212
    10  H    0.157721
    11  H    0.142485
    12  H    0.157721
    13  H    0.307214
    14  H    0.161365
 Sum of Mulliken charges =  -0.00000
 Mulliken charges with hydrogens summed into heavy atoms:
               1
     1  O    0.024917
     2  C    0.158135
     3  C   -0.144267
     4  C    0.078395
     5  C   -0.144267
     6  C    0.158138
     7  O    0.024919
     8  C   -0.155971
 Electronic spatial extent (au):  <R**2>=            913.8994
 Charge=              0.0000 electrons
 Dipole moment (field-independent basis, Debye):
    X=             -0.0000    Y=             -3.1374    Z=              0.0000  Tot=              3.1374
 Quadrupole moment (field-independent basis, Debye-Ang):
   XX=            -52.4052   YY=            -31.8227   ZZ=            -50.6490
   XY=              0.0000   XZ=              0.0836   YZ=              0.0001
 Traceless Quadrupole moment (field-independent basis, Debye-Ang):
   XX=             -7.4463   YY=             13.1363   ZZ=             -5.6900
   XY=              0.0000   XZ=              0.0836   YZ=              0.0001
 Octapole moment (field-independent basis, Debye-Ang**2):
  XXX=             -0.0003  YYY=            -29.2144  ZZZ=              0.0001  XYY=             -0.0003
  XXY=             -7.8142  XXZ=             -0.0000  XZZ=             -0.0000  YZZ=             -5.7643
  YYZ=              0.0001  XYZ=             -0.2102
 Hexadecapole moment (field-independent basis, Debye-Ang**3):
 XXXX=           -769.7830 YYYY=           -323.6534 ZZZZ=            -55.7825 XXXY=              0.0003
 XXXZ=              0.4443 YYYX=              0.0003 YYYZ=              0.0003 ZZZX=              0.0211
 ZZZY=              0.0000 XXYY=           -130.8564 XXZZ=           -131.1650 YYZZ=            -86.3796
 XXYZ=              0.0002 YYXZ=              0.3612 ZZXY=              0.0000
 N-N= 3.454867416008D+02 E-N=-1.585981262857D+03  KE= 3.815386334887D+02
 No NMR shielding tensors so no spin-rotation constants.
 Leave Link  601 at Mon Feb 22 21:03:23 2021, MaxMem=   104857600 cpu:               7.5 elap:               0.3
 (Enter /sw/arch/RedHatEnterpriseServer7/EB_production/2019/software/Gaussian/g16.c01/l701.exe)
 ... and contract with generalized density number  0.
 Compute integral first derivatives.
 R6Disp: Adding Grimme-D3 dispersion energy 1st derivatives to the gradient.
 PrsmSu:  requested number of processors reduced to:  29 ShMem   1 Linda.
 D1PCM: PCM CHGder 1st derivatives, ID1Alg=3 FixD1E=F DoIter=F DoCFld=F I1PDM=0.
 GePol: Maximum number of non-zero 1st derivatives   =     195
 CoulSu:  requested number of processors reduced to:  29 ShMem   1 Linda.
 CoulSu:  requested number of processors reduced to:  30 ShMem   1 Linda.
 Leave Link  701 at Mon Feb 22 21:03:23 2021, MaxMem=   104857600 cpu:              16.1 elap:               0.5
 (Enter /sw/arch/RedHatEnterpriseServer7/EB_production/2019/software/Gaussian/g16.c01/l702.exe)
 L702 exits ... SP integral derivatives will be done elsewhere.
 Leave Link  702 at Mon Feb 22 21:03:23 2021, MaxMem=   104857600 cpu:               0.9 elap:               0.1
 (Enter /sw/arch/RedHatEnterpriseServer7/EB_production/2019/software/Gaussian/g16.c01/l703.exe)
 Integral derivatives from FoFJK, PRISM(SPDF).
 Compute integral first derivatives, UseDBF=F ICtDFT=           0.
 Calling FoFJK, ICntrl=      2527 FMM=F ISym2X=0 I1Cent= 0 IOpClX= 0 NMat=1 NMatS=1 NMatT=0.
 FoFJK:  IHMeth= 1 ICntrl=    2527 DoSepK=F KAlg= 0 I1Cent=           0 FoldK=F
 IRaf=         0 NMat=       1 IRICut=       1 DoRegI=T DoRafI=F ISym2E= 0 IDoP0=0 IntGTp=1.
 FoFCou: FMM=F IPFlag=           0 FMFlag=      100000 FMFlg1=         800
         NFxFlg=           0 DoJE=F BraDBF=F KetDBF=F FulRan=T
         wScrn=  0.000000 ICntrl=      2527 IOpCl=  0 I1Cent=           0 NGrid=           0
         NMat0=    1 NMatS0=      1 NMatT0=    0 NMatD0=    1 NMtDS0=    0 NMtDT0=    0
 Symmetry not used in FoFCou.
 Leave Link  703 at Mon Feb 22 21:03:24 2021, MaxMem=   104857600 cpu:              29.3 elap:               1.0
 (Enter /sw/arch/RedHatEnterpriseServer7/EB_production/2019/software/Gaussian/g16.c01/l716.exe)
 Dipole        =-1.83319408D-05-1.23436690D+00 9.87031854D-07
 ***** Axes restored to original set *****
 -------------------------------------------------------------------
 Center     Atomic                   Forces (Hartrees/Bohr)
 Number     Number              X              Y              Z
 -------------------------------------------------------------------
      1        8           0.006230803    0.008060156    0.007039158
      2        6          -0.001590974   -0.014849098   -0.020757559
      3        6           0.034853392   -0.003265489   -0.035635602
      4        6           0.058353975    0.039427230    0.008030868
      5        6           0.002751242    0.028674646    0.040811991
      6        6          -0.018035248    0.001593355    0.018064579
      7        8           0.010912497    0.003522163   -0.004681619
      8        6          -0.048949361   -0.033077815   -0.006744068
      9        1          -0.005098170    0.001479741    0.006320545
     10        1          -0.038892779    0.003148676    0.038660058
     11        1          -0.044236495   -0.029888582   -0.006087427
     12        1          -0.003731440   -0.031949094   -0.044527215
     13        1           0.000719510   -0.004437907   -0.006922398
     14        1           0.046713048    0.031562018    0.006428691
 -------------------------------------------------------------------
 Cartesian Forces:  Max     0.058353975 RMS     0.025561781
 Leave Link  716 at Mon Feb 22 21:03:25 2021, MaxMem=   104857600 cpu:               1.2 elap:               0.1
 (Enter /sw/arch/RedHatEnterpriseServer7/EB_production/2019/software/Gaussian/g16.c01/l103.exe)

 GradGradGradGradGradGradGradGradGradGradGradGradGradGradGradGradGradGrad
 Berny optimization.
 FormGI is forming the generalized inverse of G from B-inverse, IUseBI=4.
 Internal  Forces:  Max     0.056741501 RMS     0.014775119
 Search for a local minimum.
 Step number   1 out of a maximum of   72
 All quantities printed in internal units (Hartrees-Bohrs-Radians)
 RMS Force = .14775D-01 SwitMx=.10000D-02 MixMth= 1
 Mixed Optimization -- RFO/linear search
 Second derivative matrix not updated -- first step.
 ITU=  0
     Eigenvalues ---    0.01957   0.01962   0.01972   0.01982   0.01984
     Eigenvalues ---    0.01988   0.01993   0.02020   0.02025   0.02268
     Eigenvalues ---    0.02268   0.16000   0.16000   0.16000   0.16000
     Eigenvalues ---    0.16000   0.16000   0.22000   0.23473   0.23491
     Eigenvalues ---    0.25000   0.25000   0.40413   0.40633   0.43846
     Eigenvalues ---    0.43892   0.43968   0.43969   0.44047   0.44224
     Eigenvalues ---    0.44231   0.44399   0.51217   0.51217   0.53680
     Eigenvalues ---    0.53681
 RFO step:  Lambda=-3.02405901D-02 EMin= 1.95674011D-02
 Linear search not attempted -- first point.
 Iteration  1 RMS(Cart)=  0.04903151 RMS(Int)=  0.00142101
 Iteration  2 RMS(Cart)=  0.00148911 RMS(Int)=  0.00001038
 Iteration  3 RMS(Cart)=  0.00000010 RMS(Int)=  0.00001037
 ITry= 1 IFail=0 DXMaxC= 1.84D-01 DCOld= 1.00D+10 DXMaxT= 3.00D-01 DXLimC= 3.00D+00 Rises=F
 Variable       Old X    -DE/DX   Delta X   Delta X   Delta X     New X
                                 (Linear)    (Quad)   (Total)
    R1        2.56324   0.01645   0.00000   0.02901   0.02901   2.59225
    R2        1.85356  -0.00440   0.00000  -0.00812  -0.00812   1.84545
    R3        2.66188  -0.00554   0.00000  -0.01173  -0.01173   2.65015
    R4        2.66446  -0.00284   0.00000  -0.00567  -0.00569   2.65877
    R5        2.65936  -0.00567   0.00000  -0.01230  -0.01228   2.64708
    R6        1.93192   0.05489   0.00000   0.11680   0.11680   2.04873
    R7        2.65936  -0.00566   0.00000  -0.01229  -0.01228   2.64708
    R8        1.93339   0.05373   0.00000   0.11464   0.11464   2.04803
    R9        2.66187  -0.00554   0.00000  -0.01172  -0.01172   2.65014
   R10        1.93192   0.05489   0.00000   0.11681   0.11681   2.04873
   R11        2.56324   0.01645   0.00000   0.02901   0.02901   2.59225
   R12        2.66449  -0.00285   0.00000  -0.00569  -0.00571   2.65878
   R13        1.85357  -0.00441   0.00000  -0.00812  -0.00812   1.84545
   R14        1.93284   0.05674   0.00000   0.12094   0.12094   2.05379
    A1        1.84900   0.01294   0.00000   0.06802   0.06802   1.91702
    A2        2.08622  -0.00813   0.00000  -0.02949  -0.02948   2.05674
    A3        2.10749   0.00575   0.00000   0.02004   0.02005   2.12753
    A4        2.08948   0.00238   0.00000   0.00945   0.00943   2.09891
    A5        2.09635  -0.00427   0.00000  -0.01739  -0.01738   2.07897
    A6        2.09681   0.00013   0.00000  -0.00185  -0.00185   2.09496
    A7        2.09002   0.00414   0.00000   0.01924   0.01923   2.10925
    A8        2.09559   0.00615   0.00000   0.02354   0.02358   2.11917
    A9        2.09380  -0.00307   0.00000  -0.01177  -0.01179   2.08201
   A10        2.09380  -0.00307   0.00000  -0.01177  -0.01179   2.08201
   A11        2.09635  -0.00427   0.00000  -0.01739  -0.01738   2.07897
   A12        2.09001   0.00414   0.00000   0.01925   0.01924   2.10924
   A13        2.09683   0.00013   0.00000  -0.00185  -0.00186   2.09497
   A14        2.08623  -0.00813   0.00000  -0.02949  -0.02948   2.05675
   A15        2.08947   0.00238   0.00000   0.00945   0.00943   2.09891
   A16        2.10749   0.00575   0.00000   0.02004   0.02004   2.12753
   A17        1.84901   0.01294   0.00000   0.06801   0.06801   1.91702
   A18        2.09914  -0.00236   0.00000  -0.00766  -0.00769   2.09144
   A19        2.09204   0.00118   0.00000   0.00383   0.00384   2.09588
   A20        2.09201   0.00118   0.00000   0.00383   0.00385   2.09586
    D1        3.12958   0.00009   0.00000   0.00174   0.00174   3.13132
    D2       -0.01201   0.00007   0.00000   0.00138   0.00138  -0.01063
    D3        3.13989   0.00002   0.00000   0.00027   0.00027   3.14016
    D4        0.00169  -0.00005   0.00000  -0.00089  -0.00088   0.00081
    D5       -0.00170   0.00003   0.00000   0.00062   0.00062  -0.00109
    D6       -3.13991  -0.00003   0.00000  -0.00054  -0.00053  -3.14044
    D7       -3.14075   0.00000   0.00000   0.00006   0.00006  -3.14068
    D8        0.00084   0.00000   0.00000   0.00006   0.00006   0.00091
    D9        0.00085  -0.00001   0.00000  -0.00030  -0.00030   0.00055
   D10       -3.14074  -0.00001   0.00000  -0.00030  -0.00030  -3.14105
   D11        0.00086  -0.00002   0.00000  -0.00032  -0.00032   0.00054
   D12       -3.14075  -0.00002   0.00000  -0.00031  -0.00031  -3.14106
   D13        3.13907   0.00004   0.00000   0.00080   0.00080   3.13988
   D14       -0.00253   0.00004   0.00000   0.00080   0.00081  -0.00172
   D15        0.00085  -0.00002   0.00000  -0.00032  -0.00031   0.00054
   D16        3.13906   0.00004   0.00000   0.00080   0.00081   3.13987
   D17       -3.14073  -0.00002   0.00000  -0.00032  -0.00032  -3.14105
   D18       -0.00252   0.00004   0.00000   0.00080   0.00081  -0.00171
   D19        3.13989   0.00002   0.00000   0.00027   0.00027   3.14016
   D20       -0.00170   0.00003   0.00000   0.00062   0.00062  -0.00108
   D21        0.00169  -0.00005   0.00000  -0.00089  -0.00088   0.00081
   D22       -3.13990  -0.00003   0.00000  -0.00054  -0.00054  -3.14043
   D23        3.12958   0.00009   0.00000   0.00174   0.00174   3.13131
   D24       -0.01202   0.00007   0.00000   0.00139   0.00139  -0.01064
   D25        0.00085  -0.00001   0.00000  -0.00030  -0.00030   0.00055
   D26       -3.14074  -0.00001   0.00000  -0.00030  -0.00030  -3.14104
   D27       -3.14074   0.00000   0.00000   0.00006   0.00006  -3.14068
   D28        0.00086   0.00000   0.00000   0.00006   0.00006   0.00092
         Item               Value     Threshold  Converged?
 Maximum Force            0.056742     0.000450     NO 
 RMS     Force            0.014775     0.000300     NO 
 Maximum Displacement     0.183592     0.001800     NO 
 RMS     Displacement     0.049223     0.001200     NO 
 Predicted change in Energy=-1.620562D-02
 Lowest energy point so far.  Saving SCF results.
 GradGradGradGradGradGradGradGradGradGradGradGradGradGradGradGradGradGrad

 Leave Link  103 at Mon Feb 22 21:03:26 2021, MaxMem=   104857600 cpu:               3.2 elap:               0.1
 (Enter /sw/arch/RedHatEnterpriseServer7/EB_production/2019/software/Gaussian/g16.c01/l202.exe)
                          Input orientation:                          
 ---------------------------------------------------------------------
 Center     Atomic      Atomic             Coordinates (Angstroms)
 Number     Number       Type             X           Y           Z
 ---------------------------------------------------------------------
      1          8           0       -1.465680    3.170769    3.774463
      2          6           0       -1.556250    2.372936    2.662262
      3          6           0       -2.712043    1.593915    2.507371
      4          6           0       -2.833207    0.770724    1.380497
      5          6           0       -1.825989    0.709925    0.408905
      6          6           0       -0.672711    1.491037    0.571775
      7          8           0        0.297670    1.410039   -0.394416
      8          6           0       -0.533850    2.324292    1.696925
      9          1           0       -0.615553    3.651333    3.769237
     10          1           0       -3.498054    1.635045    3.252929
     11          1           0       -3.725433    0.167882    1.257714
     12          1           0       -1.928691    0.068331   -0.458949
     13          1           0        1.039062    2.004797   -0.170173
     14          1           0        0.360888    2.928823    1.820048
 ---------------------------------------------------------------------
                    Distance matrix (angstroms):
                    1          2          3          4          5
     1  O    0.000000
     2  C    1.371762   0.000000
     3  C    2.376008   1.402399   0.000000
     4  C    3.655327   2.416738   1.400774   0.000000
     5  C    4.184801   2.813536   2.443376   1.400777   0.000000
     6  C    3.702366   2.434856   2.813537   2.416739   1.402396
     7  O    4.856864   3.702361   4.184800   3.655329   2.376007
     8  C    2.429196   1.406963   2.436144   2.792981   2.436145
     9  H    0.976568   1.935098   3.196960   4.349940   4.626972
    10  H    2.600191   2.159623   1.084141   2.166811   3.426386
    11  H    4.523035   3.397112   2.149923   1.083772   2.149924
    12  H    5.268898   3.897676   3.426383   2.166810   1.084141
    13  H    4.815950   3.859256   4.626970   4.349940   3.196958
    14  H    2.686005   2.166507   3.420131   3.879799   3.420127
                    6          7          8          9         10
     6  C    0.000000
     7  O    1.371760   0.000000
     8  C    1.406968   2.429196   0.000000
     9  H    3.859263   4.815951   2.462152   0.000000
    10  H    3.897677   5.268897   3.417998   3.555391   0.000000
    11  H    3.397111   4.523035   3.876753   5.302220   2.486996
    12  H    2.159623   2.600198   3.418002   5.695595   4.323832
    13  H    1.935097   0.976568   2.462150   4.579059   5.695591
    14  H    2.166505   2.685993   1.086818   2.296692   4.314909
                   11         12         13         14
    11  H    0.000000
    12  H    2.486990   0.000000
    13  H    5.302219   3.555398   0.000000
    14  H    4.963571   4.314907   2.296677   0.000000
 Stoichiometry    C6H6O2
 Framework group  C1[X(C6H6O2)]
 Deg. of freedom    36
 Full point group                 C1      NOp   1
 RotChk:  IX=3 Diff= 2.77D-04
 Largest Abelian subgroup         C1      NOp   1
 Largest concise Abelian subgroup C1      NOp   1
                         Standard orientation:                         
 ---------------------------------------------------------------------
 Center     Atomic      Atomic             Coordinates (Angstroms)
 Number     Number       Type             X           Y           Z
 ---------------------------------------------------------------------
      1          8           0        2.428432   -0.934965   -0.001115
      2          6           0        1.217427   -0.290609   -0.000028
      3          6           0        1.221688    1.111783    0.000637
      4          6           0        0.000001    1.797093   -0.000001
      5          6           0       -1.221688    1.111783   -0.000638
      6          6           0       -1.217430   -0.290606    0.000026
      7          8           0       -2.428431   -0.934966    0.001117
      8          6           0        0.000001   -0.995888    0.000000
      9          1           0        2.289517   -1.901560    0.007954
     10          1           0        2.161918    1.651531   -0.000468
     11          1           0        0.000000    2.880865    0.000004
     12          1           0       -2.161914    1.651537    0.000472
     13          1           0       -2.289514   -1.901560   -0.007957
     14          1           0       -0.000006   -2.082706   -0.000002
 ---------------------------------------------------------------------
 Rotational constants (GHZ):           3.7205569           1.8047216           1.2152464
 Leave Link  202 at Mon Feb 22 21:03:26 2021, MaxMem=   104857600 cpu:               1.0 elap:               0.1
 (Enter /sw/arch/RedHatEnterpriseServer7/EB_production/2019/software/Gaussian/g16.c01/l301.exe)
 Standard basis: TZVP (5D, 7F)
 Ernie: Thresh=  0.10000D-02 Tol=  0.10000D-05 Strict=F.
 There are   196 symmetry adapted cartesian basis functions of A   symmetry.
 There are   188 symmetry adapted basis functions of A   symmetry.
   188 basis functions,   328 primitive gaussians,   196 cartesian basis functions
    29 alpha electrons       29 beta electrons
       nuclear repulsion energy       343.8624007586 Hartrees.
 IExCor=  404 DFT=T Ex=B Corr=P86 ExCW=0 ScaHFX=  0.000000
 ScaDFX=  1.000000  1.000000  1.000000  1.000000 ScalE2=  1.000000  1.000000
 IRadAn=      5 IRanWt=     -1 IRanGd=            0 ICorTp=0 IEmpDi=131
 NAtoms=   14 NActive=   14 NUniq=   14 SFac= 1.00D+00 NAtFMM=   60 NAOKFM=F Big=F
 Integral buffers will be    131072 words long.
 Raffenetti 2 integral format.
 Two-electron integral symmetry is turned on.
 R6Disp:  Grimme-D3 Dispersion energy=       -0.0092288869 Hartrees.
 Nuclear repulsion after empirical dispersion term =      343.8531718717 Hartrees.
 ------------------------------------------------------------------------------
 Polarizable Continuum Model (PCM)
 =================================
 Model                : PCM.
 Atomic radii         : UFF (Universal Force Field).
 Polarization charges : Total charges.
 Charge compensation  : None.
 Solution method      : On-the-fly selection.
 Cavity type          : Scaled VdW (van der Waals Surface) (Alpha=1.100).
 Cavity algorithm     : GePol (No added spheres)
                        Default sphere list used, NSphG=   14.
                        Lebedev-Laikov grids with approx.  5.0 points / Ang**2.
                        Smoothing algorithm: York/Karplus (Gamma=1.0000).
                        Polarization charges: spherical gaussians, with
                                              point-specific exponents (IZeta= 3).
                        Self-potential: point-specific (ISelfS= 7).
                        Self-field    : sphere-specific E.n sum rule (ISelfD= 2).
 1st derivatives      : Analytical E(r).r(x)/FMM algorithm (CHGder, D1EAlg=3).
                        Cavity 1st derivative terms included.
 Solvent              : Water, Eps=  78.355300 Eps(inf)=   1.777849
 ------------------------------------------------------------------------------
 Spheres list:
 ISph  on   Nord     Re0    Alpha      Xe            Ye            Ze
    1   O      1    1.7500  1.100      2.428432     -0.934965     -0.001115
    2   C      2    1.9255  1.100      1.217427     -0.290609     -0.000028
    3   C      3    1.9255  1.100      1.221688      1.111783      0.000637
    4   C      4    1.9255  1.100      0.000001      1.797093     -0.000001
    5   C      5    1.9255  1.100     -1.221688      1.111783     -0.000638
    6   C      6    1.9255  1.100     -1.217430     -0.290606      0.000026
    7   O      7    1.7500  1.100     -2.428431     -0.934966      0.001117
    8   C      8    1.9255  1.100      0.000001     -0.995888      0.000000
    9   H      9    1.4430  1.100      2.289517     -1.901560      0.007954
   10   H     10    1.4430  1.100      2.161918      1.651531     -0.000468
   11   H     11    1.4430  1.100      0.000000      2.880865      0.000004
   12   H     12    1.4430  1.100     -2.161914      1.651537      0.000472
   13   H     13    1.4430  1.100     -2.289514     -1.901560     -0.007957
   14   H     14    1.4430  1.100     -0.000006     -2.082706     -0.000002
 ------------------------------------------------------------------------------
 GePol: Number of generator spheres                  =      14
 GePol: Total number of spheres                      =      14
 GePol: Number of exposed spheres                    =      14 (100.00%)
 GePol: Number of points                             =    1244
 GePol: Average weight of points                     =       0.13
 GePol: Minimum weight of points                     =   0.11D-06
 GePol: Maximum weight of points                     =    0.20577
 GePol: Number of points with low weight             =      58
 GePol: Fraction of low-weight points (<1% of avg)   =       4.66%
 GePol: Cavity surface area                          =    165.955 Ang**2
 GePol: Cavity volume                                =    159.874 Ang**3
 Leave Link  301 at Mon Feb 22 21:03:26 2021, MaxMem=   104857600 cpu:               1.8 elap:               0.1
 (Enter /sw/arch/RedHatEnterpriseServer7/EB_production/2019/software/Gaussian/g16.c01/l302.exe)
 NPDir=0 NMtPBC=     1 NCelOv=     1 NCel=       1 NClECP=     1 NCelD=      1
         NCelK=      1 NCelE2=     1 NClLst=     1 CellRange=     0.0.
 One-electron integrals computed using PRISM.
 One-electron integral symmetry used in STVInt
 PrsmSu:  requested number of processors reduced to:  29 ShMem   1 Linda.
 NBasis=   188 RedAO= T EigKep=  1.24D-05  NBF=   188
 NBsUse=   188 1.00D-06 EigRej= -1.00D+00 NBFU=   188
 Precomputing XC quadrature grid using
 IXCGrd= 4 IRadAn=           5 IRanWt=          -1 IRanGd=           0 AccXCQ= 0.00D+00.
 Generated NRdTot=       0 NPtTot=           0 NUsed=           0 NTot=          32
 NSgBfM=   195   195   195   195   195 MxSgAt=    14 MxSgA2=    14.
 Leave Link  302 at Mon Feb 22 21:03:26 2021, MaxMem=   104857600 cpu:               5.2 elap:               0.2
 (Enter /sw/arch/RedHatEnterpriseServer7/EB_production/2019/software/Gaussian/g16.c01/l303.exe)
 DipDrv:  MaxL=1.
 Leave Link  303 at Mon Feb 22 21:03:26 2021, MaxMem=   104857600 cpu:               3.8 elap:               0.2
 (Enter /sw/arch/RedHatEnterpriseServer7/EB_production/2019/software/Gaussian/g16.c01/l401.exe)
 Initial guess from the checkpoint file:  "GHMLBKRAJCXXBS-UHFFFAOYSA-N.chk"
 B after Tr=    -0.000000    0.000000    0.000000
         Rot=    1.000000    0.000000   -0.000010    0.000001 Ang=   0.00 deg.
 Guess basis will be translated and rotated to current coordinates.
 JPrj=2 DoOrth=T DoCkMO=T.
 Generating alternative initial guess.
 ExpMin= 9.52D-02 ExpMax= 2.70D+04 ExpMxC= 9.22D+02 IAcc=3 IRadAn=         5 AccDes= 0.00D+00
 Harris functional with IExCor=  404 and IRadAn=       5 diagonalized for initial guess.
 HarFok:  IExCor=  404 AccDes= 0.00D+00 IRadAn=         5 IDoV= 1 UseB2=F ITyADJ=14
 ICtDFT=  3500011 ScaDFX=  1.000000  1.000000  1.000000  1.000000
 FoFCou: FMM=F IPFlag=           0 FMFlag=      100000 FMFlg1=           0
         NFxFlg=           0 DoJE=T BraDBF=F KetDBF=T FulRan=T
         wScrn=  0.000000 ICntrl=       500 IOpCl=  0 I1Cent=   200000004 NGrid=           0
         NMat0=    1 NMatS0=      1 NMatT0=    0 NMatD0=    1 NMtDS0=    0 NMtDT0=    0
 Petite list used in FoFCou.
 Harris En= -382.971729028393    
 Leave Link  401 at Mon Feb 22 21:03:27 2021, MaxMem=   104857600 cpu:              10.8 elap:               0.4
 (Enter /sw/arch/RedHatEnterpriseServer7/EB_production/2019/software/Gaussian/g16.c01/l502.exe)
 Integral symmetry usage will be decided dynamically.
 Closed shell SCF:
 Using DIIS extrapolation, IDIIS=  1040.
 NGot=   104857600 LenX=   104772142 LenY=   104733285
 Requested convergence on RMS density matrix=1.00D-08 within 128 cycles.
 Requested convergence on MAX density matrix=1.00D-06.
 Requested convergence on             energy=1.00D-06.
 No special actions if energy rises.
 Fock matrices will be formed incrementally for  20 cycles.

 Cycle   1  Pass 1  IDiag  1:
 FoFJK:  IHMeth= 1 ICntrl=     500 DoSepK=F KAlg= 0 I1Cent=           0 FoldK=F
 IRaf= 950000000 NMat=       1 IRICut=       1 DoRegI=T DoRafI=F ISym2E= 0 IDoP0=0 IntGTp=1.
 FoFCou: FMM=F IPFlag=           0 FMFlag=      100000 FMFlg1=           0
         NFxFlg=           0 DoJE=T BraDBF=F KetDBF=F FulRan=T
         wScrn=  0.000000 ICntrl=       500 IOpCl=  0 I1Cent=           0 NGrid=           0
         NMat0=    1 NMatS0=      1 NMatT0=    0 NMatD0=    1 NMtDS0=    0 NMtDT0=    0
 Symmetry not used in FoFCou.
 Inv3:  Mode=1 IEnd=     4642608.
 Iteration    1 A*A^-1 deviation from unit magnitude is 2.66D-15 for     17.
 Iteration    1 A*A^-1 deviation from orthogonality  is 2.00D-15 for    960    192.
 Iteration    1 A^-1*A deviation from unit magnitude is 2.66D-15 for     63.
 Iteration    1 A^-1*A deviation from orthogonality  is 2.44D-15 for    978    570.
 E= -382.843900334157    
 DIIS: error= 6.03D-03 at cycle   1 NSaved=   1.
 NSaved= 1 IEnMin= 1 EnMin= -382.843900334157     IErMin= 1 ErrMin= 6.03D-03
 ErrMax= 6.03D-03  0.00D+00 EMaxC= 1.00D-01 BMatC= 4.53D-03 BMatP= 4.53D-03
 IDIUse=3 WtCom= 9.40D-01 WtEn= 6.03D-02
 Coeff-Com:  0.100D+01
 Coeff-En:   0.100D+01
 Coeff:      0.100D+01
 Gap=     0.609 Goal=   None    Shift=    0.000
 GapD=    0.609 DampG=2.000 DampE=1.000 DampFc=2.0000 IDamp=-1.
 RMSDP=9.05D-04 MaxDP=2.24D-02              OVMax= 1.81D-02

 Cycle   2  Pass 1  IDiag  1:
 RMSU=  9.05D-04    CP:  9.98D-01
 E= -382.848145151905     Delta-E=       -0.004244817748 Rises=F Damp=F
 DIIS: error= 1.63D-03 at cycle   2 NSaved=   2.
 NSaved= 2 IEnMin= 2 EnMin= -382.848145151905     IErMin= 2 ErrMin= 1.63D-03
 ErrMax= 1.63D-03  0.00D+00 EMaxC= 1.00D-01 BMatC= 4.77D-04 BMatP= 4.53D-03
 IDIUse=3 WtCom= 9.84D-01 WtEn= 1.63D-02
 Coeff-Com:  0.162D+00 0.838D+00
 Coeff-En:   0.000D+00 0.100D+01
 Coeff:      0.159D+00 0.841D+00
 Gap=     0.155 Goal=   None    Shift=    0.000
 RMSDP=2.66D-04 MaxDP=5.00D-03 DE=-4.24D-03 OVMax= 1.90D-02

 Cycle   3  Pass 1  IDiag  1:
 RMSU=  2.60D-04    CP:  9.96D-01  1.05D+00
 E= -382.847992683710     Delta-E=        0.000152468195 Rises=F Damp=F
 DIIS: error= 2.53D-03 at cycle   3 NSaved=   3.
 NSaved= 3 IEnMin= 2 EnMin= -382.848145151905     IErMin= 2 ErrMin= 1.63D-03
 ErrMax= 2.53D-03  0.00D+00 EMaxC= 1.00D-01 BMatC= 6.57D-04 BMatP= 4.77D-04
 IDIUse=3 WtCom= 1.66D-01 WtEn= 8.34D-01
 Coeff-Com:  0.409D-01 0.535D+00 0.424D+00
 Coeff-En:   0.000D+00 0.560D+00 0.440D+00
 Coeff:      0.679D-02 0.556D+00 0.437D+00
 Gap=     0.156 Goal=   None    Shift=    0.000
 RMSDP=1.25D-04 MaxDP=2.98D-03 DE= 1.52D-04 OVMax= 1.33D-02

 Cycle   4  Pass 1  IDiag  1:
 RMSU=  7.43D-05    CP:  9.97D-01  1.05D+00  6.22D-01
 E= -382.848602115217     Delta-E=       -0.000609431507 Rises=F Damp=F
 DIIS: error= 4.69D-04 at cycle   4 NSaved=   4.
 NSaved= 4 IEnMin= 4 EnMin= -382.848602115217     IErMin= 4 ErrMin= 4.69D-04
 ErrMax= 4.69D-04  0.00D+00 EMaxC= 1.00D-01 BMatC= 2.67D-05 BMatP= 4.77D-04
 IDIUse=3 WtCom= 9.95D-01 WtEn= 4.69D-03
 Coeff-Com:  0.469D-02 0.227D+00 0.221D+00 0.548D+00
 Coeff-En:   0.000D+00 0.000D+00 0.000D+00 0.100D+01
 Coeff:      0.467D-02 0.226D+00 0.220D+00 0.550D+00
 Gap=     0.156 Goal=   None    Shift=    0.000
 RMSDP=5.84D-05 MaxDP=2.97D-03 DE=-6.09D-04 OVMax= 3.05D-03

 Cycle   5  Pass 1  IDiag  1:
 RMSU=  3.92D-05    CP:  9.98D-01  1.03D+00  5.61D-01  5.24D-01
 E= -382.848623558039     Delta-E=       -0.000021442822 Rises=F Damp=F
 DIIS: error= 2.24D-04 at cycle   5 NSaved=   5.
 NSaved= 5 IEnMin= 5 EnMin= -382.848623558039     IErMin= 5 ErrMin= 2.24D-04
 ErrMax= 2.24D-04  0.00D+00 EMaxC= 1.00D-01 BMatC= 4.98D-06 BMatP= 2.67D-05
 IDIUse=3 WtCom= 9.98D-01 WtEn= 2.24D-03
 Coeff-Com:  0.375D-03 0.108D+00 0.113D+00 0.359D+00 0.419D+00
 Coeff-En:   0.000D+00 0.000D+00 0.000D+00 0.125D+00 0.875D+00
 Coeff:      0.374D-03 0.108D+00 0.113D+00 0.359D+00 0.420D+00
 Gap=     0.156 Goal=   None    Shift=    0.000
 RMSDP=2.22D-05 MaxDP=1.61D-03 DE=-2.14D-05 OVMax= 1.19D-03

 Cycle   6  Pass 1  IDiag  1:
 RMSU=  7.43D-06    CP:  9.98D-01  1.03D+00  5.68D-01  6.13D-01  5.17D-01
 E= -382.848628359337     Delta-E=       -0.000004801299 Rises=F Damp=F
 DIIS: error= 5.01D-05 at cycle   6 NSaved=   6.
 NSaved= 6 IEnMin= 6 EnMin= -382.848628359337     IErMin= 6 ErrMin= 5.01D-05
 ErrMax= 5.01D-05  0.00D+00 EMaxC= 1.00D-01 BMatC= 2.46D-07 BMatP= 4.98D-06
 IDIUse=1 WtCom= 1.00D+00 WtEn= 0.00D+00
 Coeff-Com: -0.258D-03 0.321D-01 0.351D-01 0.123D+00 0.230D+00 0.580D+00
 Coeff:     -0.258D-03 0.321D-01 0.351D-01 0.123D+00 0.230D+00 0.580D+00
 Gap=     0.156 Goal=   None    Shift=    0.000
 RMSDP=4.35D-06 MaxDP=1.90D-04 DE=-4.80D-06 OVMax= 1.86D-04

 Cycle   7  Pass 1  IDiag  1:
 RMSU=  2.96D-06    CP:  9.98D-01  1.03D+00  5.70D-01  6.01D-01  5.74D-01
                    CP:  7.33D-01
 E= -382.848628554816     Delta-E=       -0.000000195479 Rises=F Damp=F
 DIIS: error= 9.80D-06 at cycle   7 NSaved=   7.
 NSaved= 7 IEnMin= 7 EnMin= -382.848628554816     IErMin= 7 ErrMin= 9.80D-06
 ErrMax= 9.80D-06  0.00D+00 EMaxC= 1.00D-01 BMatC= 1.53D-08 BMatP= 2.46D-07
 IDIUse=1 WtCom= 1.00D+00 WtEn= 0.00D+00
 Coeff-Com: -0.161D-03 0.970D-02 0.114D-01 0.418D-01 0.966D-01 0.305D+00
 Coeff-Com:  0.536D+00
 Coeff:     -0.161D-03 0.970D-02 0.114D-01 0.418D-01 0.966D-01 0.305D+00
 Coeff:      0.536D+00
 Gap=     0.156 Goal=   None    Shift=    0.000
 RMSDP=1.02D-06 MaxDP=4.57D-05 DE=-1.95D-07 OVMax= 3.19D-05

 Cycle   8  Pass 1  IDiag  1:
 RMSU=  6.80D-07    CP:  9.98D-01  1.03D+00  5.69D-01  5.98D-01  5.87D-01
                    CP:  7.58D-01  8.56D-01
 E= -382.848628570344     Delta-E=       -0.000000015528 Rises=F Damp=F
 DIIS: error= 1.53D-06 at cycle   8 NSaved=   8.
 NSaved= 8 IEnMin= 8 EnMin= -382.848628570344     IErMin= 8 ErrMin= 1.53D-06
 ErrMax= 1.53D-06  0.00D+00 EMaxC= 1.00D-01 BMatC= 5.47D-10 BMatP= 1.53D-08
 IDIUse=1 WtCom= 1.00D+00 WtEn= 0.00D+00
 Coeff-Com: -0.483D-04 0.130D-02 0.175D-02 0.643D-02 0.197D-01 0.682D-01
 Coeff-Com:  0.204D+00 0.698D+00
 Coeff:     -0.483D-04 0.130D-02 0.175D-02 0.643D-02 0.197D-01 0.682D-01
 Coeff:      0.204D+00 0.698D+00
 Gap=     0.156 Goal=   None    Shift=    0.000
 RMSDP=2.73D-07 MaxDP=1.47D-05 DE=-1.55D-08 OVMax= 9.97D-06

 Cycle   9  Pass 1  IDiag  1:
 RMSU=  1.62D-07    CP:  9.98D-01  1.03D+00  5.69D-01  5.98D-01  5.91D-01
                    CP:  7.59D-01  8.97D-01  9.89D-01
 E= -382.848628570688     Delta-E=       -0.000000000344 Rises=F Damp=F
 DIIS: error= 1.20D-06 at cycle   9 NSaved=   9.
 NSaved= 9 IEnMin= 9 EnMin= -382.848628570688     IErMin= 9 ErrMin= 1.20D-06
 ErrMax= 1.20D-06  0.00D+00 EMaxC= 1.00D-01 BMatC= 2.02D-10 BMatP= 5.47D-10
 IDIUse=1 WtCom= 1.00D+00 WtEn= 0.00D+00
 Coeff-Com: -0.233D-04 0.383D-03 0.614D-03 0.225D-02 0.825D-02 0.298D-01
 Coeff-Com:  0.107D+00 0.453D+00 0.398D+00
 Coeff:     -0.233D-04 0.383D-03 0.614D-03 0.225D-02 0.825D-02 0.298D-01
 Coeff:      0.107D+00 0.453D+00 0.398D+00
 Gap=     0.156 Goal=   None    Shift=    0.000
 RMSDP=1.06D-07 MaxDP=7.68D-06 DE=-3.44D-10 OVMax= 5.08D-06

 Cycle  10  Pass 1  IDiag  1:
 RMSU=  4.62D-08    CP:  9.98D-01  1.03D+00  5.69D-01  5.98D-01  5.90D-01
                    CP:  7.62D-01  9.01D-01  9.74D-01  6.36D-01
 E= -382.848628570866     Delta-E=       -0.000000000178 Rises=F Damp=F
 DIIS: error= 1.88D-07 at cycle  10 NSaved=  10.
 NSaved=10 IEnMin=10 EnMin= -382.848628570866     IErMin=10 ErrMin= 1.88D-07
 ErrMax= 1.88D-07  0.00D+00 EMaxC= 1.00D-01 BMatC= 5.46D-12 BMatP= 2.02D-10
 IDIUse=1 WtCom= 1.00D+00 WtEn= 0.00D+00
 Coeff-Com: -0.143D-05-0.602D-04-0.265D-04-0.136D-03 0.331D-03 0.242D-02
 Coeff-Com:  0.179D-01 0.105D+00 0.169D+00 0.705D+00
 Coeff:     -0.143D-05-0.602D-04-0.265D-04-0.136D-03 0.331D-03 0.242D-02
 Coeff:      0.179D-01 0.105D+00 0.169D+00 0.705D+00
 Gap=     0.156 Goal=   None    Shift=    0.000
 RMSDP=4.01D-08 MaxDP=3.01D-06 DE=-1.78D-10 OVMax= 1.82D-06

 Cycle  11  Pass 1  IDiag  1:
 RMSU=  1.44D-08    CP:  9.98D-01  1.03D+00  5.69D-01  5.98D-01  5.91D-01
                    CP:  7.62D-01  9.04D-01  9.85D-01  7.00D-01  7.57D-01
 E= -382.848628570869     Delta-E=       -0.000000000003 Rises=F Damp=F
 DIIS: error= 1.57D-07 at cycle  11 NSaved=  11.
 NSaved=11 IEnMin=11 EnMin= -382.848628570869     IErMin=11 ErrMin= 1.57D-07
 ErrMax= 1.57D-07  0.00D+00 EMaxC= 1.00D-01 BMatC= 2.72D-12 BMatP= 5.46D-12
 IDIUse=1 WtCom= 1.00D+00 WtEn= 0.00D+00
 Coeff-Com:  0.392D-06-0.656D-04-0.554D-04-0.221D-03-0.301D-03-0.169D-03
 Coeff-Com:  0.531D-02 0.401D-01 0.864D-01 0.500D+00 0.369D+00
 Coeff:      0.392D-06-0.656D-04-0.554D-04-0.221D-03-0.301D-03-0.169D-03
 Coeff:      0.531D-02 0.401D-01 0.864D-01 0.500D+00 0.369D+00
 Gap=     0.156 Goal=   None    Shift=    0.000
 RMSDP=1.08D-08 MaxDP=6.81D-07 DE=-2.50D-12 OVMax= 7.60D-07

 Cycle  12  Pass 1  IDiag  1:
 RMSU=  4.11D-09    CP:  9.98D-01  1.03D+00  5.69D-01  5.98D-01  5.90D-01
                    CP:  7.63D-01  9.04D-01  9.86D-01  6.88D-01  8.35D-01
                    CP:  6.13D-01
 E= -382.848628570871     Delta-E=       -0.000000000002 Rises=F Damp=F
 DIIS: error= 1.35D-08 at cycle  12 NSaved=  12.
 NSaved=12 IEnMin=12 EnMin= -382.848628570871     IErMin=12 ErrMin= 1.35D-08
 ErrMax= 1.35D-08  0.00D+00 EMaxC= 1.00D-01 BMatC= 2.38D-14 BMatP= 2.72D-12
 IDIUse=1 WtCom= 1.00D+00 WtEn= 0.00D+00
 Coeff-Com:  0.119D-06-0.180D-04-0.186D-04-0.673D-04-0.171D-03-0.361D-03
 Coeff-Com: -0.901D-04 0.214D-02 0.109D-01 0.109D+00 0.118D+00 0.761D+00
 Coeff:      0.119D-06-0.180D-04-0.186D-04-0.673D-04-0.171D-03-0.361D-03
 Coeff:     -0.901D-04 0.214D-02 0.109D-01 0.109D+00 0.118D+00 0.761D+00
 Gap=     0.156 Goal=   None    Shift=    0.000
 RMSDP=2.21D-09 MaxDP=1.12D-07 DE=-1.65D-12 OVMax= 4.97D-08

 Error on total polarization charges =  0.01200
 SCF Done:  E(RB-P86) =  -382.848628571     A.U. after   12 cycles
            NFock= 12  Conv=0.22D-08     -V/T= 2.0044
 KE= 3.811689765066D+02 PE=-1.582565488181D+03 EE= 4.746947112315D+02
 Leave Link  502 at Mon Feb 22 21:03:34 2021, MaxMem=   104857600 cpu:             226.9 elap:               7.3
 (Enter /sw/arch/RedHatEnterpriseServer7/EB_production/2019/software/Gaussian/g16.c01/l701.exe)
 ... and contract with generalized density number  0.
 Compute integral first derivatives.
 R6Disp: Adding Grimme-D3 dispersion energy 1st derivatives to the gradient.
 PrsmSu:  requested number of processors reduced to:  29 ShMem   1 Linda.
 D1PCM: PCM CHGder 1st derivatives, ID1Alg=3 FixD1E=F DoIter=F DoCFld=F I1PDM=0.
 GePol: Maximum number of non-zero 1st derivatives   =     193
 CoulSu:  requested number of processors reduced to:  29 ShMem   1 Linda.
 CoulSu:  requested number of processors reduced to:  30 ShMem   1 Linda.
 Leave Link  701 at Mon Feb 22 21:03:35 2021, MaxMem=   104857600 cpu:              18.9 elap:               0.7
 (Enter /sw/arch/RedHatEnterpriseServer7/EB_production/2019/software/Gaussian/g16.c01/l702.exe)
 L702 exits ... SP integral derivatives will be done elsewhere.
 Leave Link  702 at Mon Feb 22 21:03:35 2021, MaxMem=   104857600 cpu:               0.5 elap:               0.0
 (Enter /sw/arch/RedHatEnterpriseServer7/EB_production/2019/software/Gaussian/g16.c01/l703.exe)
 Integral derivatives from FoFJK, PRISM(SPDF).
 Compute integral first derivatives, UseDBF=F ICtDFT=           0.
 Calling FoFJK, ICntrl=      2527 FMM=F ISym2X=0 I1Cent= 0 IOpClX= 0 NMat=1 NMatS=1 NMatT=0.
 FoFJK:  IHMeth= 1 ICntrl=    2527 DoSepK=F KAlg= 0 I1Cent=           0 FoldK=F
[...]
    14  H    2.697082   2.171651   3.429649   3.888663   3.429649
                    6          7          8          9         10
     6  C    0.000000
     7  O    1.376068   0.000000
     8  C    1.403439   2.433032   0.000000
     9  H    3.858306   4.827815   2.465996   0.000000
    10  H    3.898165   5.273463   3.421156   3.539323   0.000000
    11  H    3.401766   4.523980   3.886705   5.304520   2.503178
    12  H    2.160233   2.584042   3.421156   5.700575   4.344661
    13  H    1.935820   0.975339   2.465996   4.596387   5.700574
    14  H    2.171651   2.697081   1.094094   2.306878   4.322576
                   11         12         13         14
    11  H    0.000000
    12  H    2.503177   0.000000
    13  H    5.304519   3.539323   0.000000
    14  H    4.980799   4.322577   2.306878   0.000000
 Stoichiometry    C6H6O2
 Framework group  C1[X(C6H6O2)]
 Deg. of freedom    36
 Full point group                 C1      NOp   1
 Largest Abelian subgroup         C1      NOp   1
 Largest concise Abelian subgroup C1      NOp   1
                         Standard orientation:                         
 ---------------------------------------------------------------------
 Center     Atomic      Atomic             Coordinates (Angstroms)
 Number     Number       Type             X           Y           Z
 ---------------------------------------------------------------------
      1          8           0        2.431966   -0.928704   -0.000320
      2          6           0        1.211726   -0.292641    0.000060
      3          6           0        1.220052    1.110499    0.000107
      4          6           0        0.000000    1.793859   -0.000000
      5          6           0       -1.220052    1.110499   -0.000107
      6          6           0       -1.211726   -0.292641   -0.000059
      7          8           0       -2.431966   -0.928704    0.000320
      8          6           0        0.000000   -1.000709    0.000000
      9          1           0        2.298193   -1.894823    0.001929
     10          1           0        2.172331    1.642261    0.000261
     11          1           0       -0.000000    2.885996   -0.000000
     12          1           0       -2.172331    1.642261   -0.000261
     13          1           0       -2.298193   -1.894823   -0.001931
     14          1           0       -0.000000   -2.094803    0.000000
 ---------------------------------------------------------------------
 Rotational constants (GHZ):           3.7334630           1.8028394           1.2157636
 Standard basis: TZVP (5D, 7F)
 There are   196 symmetry adapted cartesian basis functions of A   symmetry.
 There are   188 symmetry adapted basis functions of A   symmetry.
   188 basis functions,   328 primitive gaussians,   196 cartesian basis functions
    29 alpha electrons       29 beta electrons
       nuclear repulsion energy       343.8409815944 Hartrees.
 NAtoms=   14 NActive=   14 NUniq=   14 SFac= 1.00D+00 NAtFMM=   60 NAOKFM=F Big=F
 Integral buffers will be    131072 words long.
 Raffenetti 2 integral format.
 Two-electron integral symmetry is turned on.
 Warning! Using old PCM defaults because the COSMOthermo output has been requested.
 These settings can be overridden by following keywords.
 ------------------------------------------------------------------------------
 Polarizable Continuum Model (PCM)
 =================================
 Model                : C-PCM.
 Atomic radii         : Klamt.
 XCosmo               : -1.000 (infinite dielectric limit)
 Polarization charges : Electronic and nuclear charges.
 Charge compensation  : Type 3 (Electronic density weighted correction).
 Solution method      : On-the-fly selection.
 Cavity type          : VdW (van der Waals Surface) (Alpha=1.000).
 Cavity algorithm     : GePol (No added spheres)
                        Default sphere list used, NSphG=   14.
                        Tesserae with average area of 0.200 Ang**2.
                        Smoothing algorithm: None.
                        Polarization charges: point-like.
                        Self-potential: constant (ISelfS= 1).
                        Self-field    : global E.n sum rule (ISelfD= 3).
 Solvent              : Water, Eps=  78.355300 Eps(inf)=   1.777849
 ------------------------------------------------------------------------------
 Spheres list:
 ISph  on   Nord     Re0    Alpha      Xe            Ye            Ze
    1   O      1    1.7200  1.000      2.431966     -0.928704     -0.000320
    2   C      2    2.0000  1.000      1.211726     -0.292641      0.000060
    3   C      3    2.0000  1.000      1.220052      1.110499      0.000107
    4   C      4    2.0000  1.000      0.000000      1.793859     -0.000000
    5   C      5    2.0000  1.000     -1.220052      1.110499     -0.000107
    6   C      6    2.0000  1.000     -1.211726     -0.292641     -0.000059
    7   O      7    1.7200  1.000     -2.431966     -0.928704      0.000320
    8   C      8    2.0000  1.000     -0.000000     -1.000709      0.000000
    9   H      9    1.3000  1.000      2.298193     -1.894823      0.001929
   10   H     10    1.3000  1.000      2.172331      1.642261      0.000261
   11   H     11    1.3000  1.000     -0.000000      2.885996     -0.000000
   12   H     12    1.3000  1.000     -2.172331      1.642261     -0.000261
   13   H     13    1.3000  1.000     -2.298193     -1.894823     -0.001931
   14   H     14    1.3000  1.000     -0.000000     -2.094803      0.000000
 ------------------------------------------------------------------------------
 One-electron integrals computed using PRISM.
 PrsmSu:  requested number of processors reduced to:  29 ShMem   1 Linda.
 NBasis=   188 RedAO= T EigKep=  1.23D-05  NBF=   188
 NBsUse=   188 1.00D-06 EigRej= -1.00D+00 NBFU=   188
 Initial guess from the checkpoint file:  "GHMLBKRAJCXXBS-UHFFFAOYSA-N.chk"
 B after Tr=    -0.000000    0.000000    0.000000
         Rot=    1.000000    0.000000   -0.000000   -0.000000 Ang=   0.00 deg.
 Requested convergence on RMS density matrix=1.00D-08 within 128 cycles.
 Requested convergence on MAX density matrix=1.00D-06.
 Requested convergence on             energy=1.00D-06.
 No special actions if energy rises.
 Inv3:  Mode=1 IEnd=     3054243.
 Iteration    1 A*A^-1 deviation from unit magnitude is 3.33D-15 for    243.
 Iteration    1 A*A^-1 deviation from orthogonality  is 1.55D-15 for    557    532.
 Iteration    1 A^-1*A deviation from unit magnitude is 3.33D-15 for    243.
 Iteration    1 A^-1*A deviation from orthogonality  is 1.63D-15 for    564    359.
 Error on nuclear    polarization charges =  0.02670
 Error on electronic polarization charges = -0.05222
 SCF Done:  E(RB-P86) =  -382.847223610     A.U. after   10 cycles
            NFock= 10  Conv=0.58D-08     -V/T= 2.0045
 --------------------------------------------------------------------
 Variational C-PCM results
 =========================
 <psi(f)|   H    |psi(f)>                     (a.u.) =    -382.824756
 <psi(f)|H+V(f)/2|psi(f)>                     (a.u.) =    -382.847224
 Total free energy in solution:
 - with all non electrostatic terms           (a.u.) =    -382.838390
 --------------------------------------------------------------------
 (Polarized solute)-Solvent               (kcal/mol) =     -14.10
 --------------------------------------------------------------------
 Cavitation energy                        (kcal/mol) =      18.15
 Dispersion energy                        (kcal/mol) =     -13.75
 Repulsion energy                         (kcal/mol) =       1.15
 Total non electrostatic                  (kcal/mol) =       5.54
 --------------------------------------------------------------------
 Partition over spheres:
 Sphere  on Atom  Surface  Charge   GEl     GCav    GDR
    1      O1      16.15   0.132   -1.71    2.01   -1.49
    2      C2       7.90   0.019   -0.21    0.93   -0.53
    3      C3      13.77   0.050   -0.47    1.62   -1.00
    4      C4      13.85   0.042   -0.42    1.63   -1.00
    5      C5      13.77   0.050   -0.47    1.62   -1.00
    6      C6       7.90   0.019   -0.21    0.93   -0.53
    7      O7      16.15   0.132   -1.72    2.01   -1.49
    8      C8      12.74   0.011   -0.68    1.50   -0.98
    9      H9       8.11  -0.142   -3.34    1.14   -0.82
   10      H10      6.42  -0.040   -0.08    0.91   -0.76
   11      H11      6.44  -0.040   -0.19    0.91   -0.80
   12      H12      6.42  -0.040   -0.08    0.91   -0.76
   13      H13      8.11  -0.142   -3.34    1.14   -0.82
   14      H14      6.46  -0.052   -1.17    0.91   -0.63
 --------------------------------------------------------------------
 - cavitation energy not included in the total energy.
 - dispersion energy not included in the total energy.
 - repulsion  energy not included in the total energy.
 After PCM corrections, the energy is  -382.847223610     a.u.
 --------------------------------------------------------------------
 Writing COSMO formatted file "GHMLBKRAJCXXBS-UHFFFAOYSA-N.cosmo"
 Recomputed dielectric energy= -0.022533 old= -0.022467 diff=-6.57D-05

 **********************************************************************

            Population analysis using the SCF Density.

 **********************************************************************

 Orbital symmetries:
       Occupied  (A) (A) (A) (A) (A) (A) (A) (A) (A) (A) (A) (A)
                 (A) (A) (A) (A) (A) (A) (A) (A) (A) (A) (A) (A)
                 (A) (A) (A) (A) (A)
       Virtual   (A) (A) (A) (A) (A) (A) (A) (A) (A) (A) (A) (A)
                 (A) (A) (A) (A) (A) (A) (A) (A) (A) (A) (A) (A)
                 (A) (A) (A) (A) (A) (A) (A) (A) (A) (A) (A) (A)
                 (A) (A) (A) (A) (A) (A) (A) (A) (A) (A) (A) (A)
                 (A) (A) (A) (A) (A) (A) (A) (A) (A) (A) (A) (A)
                 (A) (A) (A) (A) (A) (A) (A) (A) (A) (A) (A) (A)
                 (A) (A) (A) (A) (A) (A) (A) (A) (A) (A) (A) (A)
                 (A) (A) (A) (A) (A) (A) (A) (A) (A) (A) (A) (A)
                 (A) (A) (A) (A) (A) (A) (A) (A) (A) (A) (A) (A)
                 (A) (A) (A) (A) (A) (A) (A) (A) (A) (A) (A) (A)
                 (A) (A) (A) (A) (A) (A) (A) (A) (A) (A) (A) (A)
                 (A) (A) (A) (A) (A) (A) (A) (A) (A) (A) (A) (A)
                 (A) (A) (A) (A) (A) (A) (A) (A) (A) (A) (A) (A)
                 (A) (A) (A)
 The electronic state is 1-A.
 Alpha  occ. eigenvalues --  -18.80411 -18.80411  -9.96787  -9.96786  -9.90788
 Alpha  occ. eigenvalues --   -9.90388  -9.89624  -9.89623  -0.97878  -0.97680
 Alpha  occ. eigenvalues --   -0.77849  -0.68015  -0.67709  -0.58311  -0.55079
 Alpha  occ. eigenvalues --   -0.50038  -0.49030  -0.44513  -0.41472  -0.38647
 Alpha  occ. eigenvalues --   -0.38149  -0.36552  -0.34867  -0.34703  -0.31671
 Alpha  occ. eigenvalues --   -0.31534  -0.28498  -0.22042  -0.19999
 Alpha virt. eigenvalues --   -0.04299  -0.02902   0.03136   0.03294   0.04573
 Alpha virt. eigenvalues --    0.07904   0.08975   0.09960   0.11283   0.12124
 Alpha virt. eigenvalues --    0.15291   0.16542   0.17904   0.18247   0.19869
 Alpha virt. eigenvalues --    0.20570   0.21870   0.22533   0.23309   0.23487
 Alpha virt. eigenvalues --    0.27835   0.29789   0.29875   0.30270   0.30275
 Alpha virt. eigenvalues --    0.31447   0.31591   0.33946   0.33954   0.37664
 Alpha virt. eigenvalues --    0.37675   0.40070   0.42120   0.42283   0.43193
 Alpha virt. eigenvalues --    0.44269   0.45237   0.45276   0.46103   0.47061
 Alpha virt. eigenvalues --    0.49578   0.52045   0.53530   0.56606   0.57955
 Alpha virt. eigenvalues --    0.61759   0.62128   0.63591   0.67158   0.68444
 Alpha virt. eigenvalues --    0.72680   0.72901   0.82313   0.82496   0.84635
 Alpha virt. eigenvalues --    1.09162   1.14969   1.16749   1.17759   1.19025
 Alpha virt. eigenvalues --    1.19393   1.20738   1.25880   1.27508   1.28614
 Alpha virt. eigenvalues --    1.30290   1.31065   1.32737   1.35453   1.35612
 Alpha virt. eigenvalues --    1.36696   1.36805   1.37640   1.37745   1.39870
 Alpha virt. eigenvalues --    1.42304   1.43681   1.45266   1.46268   1.46496
 Alpha virt. eigenvalues --    1.47677   1.48462   1.49156   1.55957   1.67315
 Alpha virt. eigenvalues --    1.69430   1.70356   1.70725   1.70930   1.74265
 Alpha virt. eigenvalues --    1.78778   1.80119   1.80373   1.82788   1.85464
 Alpha virt. eigenvalues --    1.91390   1.91862   1.91910   1.94063   1.97474
 Alpha virt. eigenvalues --    2.10462   2.11569   2.13718   2.14924   2.17556
 Alpha virt. eigenvalues --    2.20358   2.20935   2.21321   2.21556   2.22718
 Alpha virt. eigenvalues --    2.24261   2.29731   2.32227   2.40198   2.42401
 Alpha virt. eigenvalues --    2.45178   2.49452   2.49527   2.50081   2.50177
 Alpha virt. eigenvalues --    2.55711   2.57566   2.61281   2.62890   2.69305
 Alpha virt. eigenvalues --    2.70578   2.82109   2.82486   2.83048   2.86553
 Alpha virt. eigenvalues --    2.87815   2.90001   2.90173   2.93817   2.96192
 Alpha virt. eigenvalues --    2.99342   3.05778   3.07343   3.07796   3.08770
 Alpha virt. eigenvalues --    3.13553   3.14531   3.23470   3.24010   3.28051
 Alpha virt. eigenvalues --    3.45382   3.50039   3.84385   3.98626   4.16697
 Alpha virt. eigenvalues --    4.22738  21.06832  21.57377  21.60381  21.79359
 Alpha virt. eigenvalues --   21.79878  21.93638  43.14218  43.14228
          Condensed to atoms (all electrons):
               1          2          3          4          5          6
     1  O    7.811120   0.336271  -0.062994   0.005131   0.002036   0.013980
     2  C    0.336271   5.199692   0.379986  -0.000603  -0.096871   0.224363
     3  C   -0.062994   0.379986   5.343271   0.396692   0.012612  -0.096865
     4  C    0.005131  -0.000603   0.396692   5.013986   0.396695  -0.000605
     5  C    0.002036  -0.096871   0.012612   0.396695   5.343264   0.379990
     6  C    0.013980   0.224363  -0.096865  -0.000605   0.379990   5.199659
     7  O   -0.000148   0.013982   0.002035   0.005131  -0.062989   0.336275
     8  C   -0.087018  -0.084828  -0.087301  -0.065718  -0.087292  -0.084818
     9  H    0.308042  -0.027812   0.009533  -0.001131  -0.000062   0.005433
    10  H    0.004908  -0.078332   0.426511  -0.044016   0.015266  -0.004925
    11  H   -0.000166   0.023170  -0.080988   0.460824  -0.080987   0.023169
    12  H    0.000021  -0.004925   0.015266  -0.044016   0.426512  -0.078336
    13  H   -0.000043   0.005433  -0.000062  -0.001131   0.009532  -0.027812
    14  H   -0.004902  -0.026451   0.007105   0.001408   0.007106  -0.026449
               7          8          9         10         11         12
     1  O   -0.000148  -0.087018   0.308042   0.004908  -0.000166   0.000021
     2  C    0.013982  -0.084828  -0.027812  -0.078332   0.023170  -0.004925
     3  C    0.002035  -0.087301   0.009533   0.426511  -0.080988   0.015266
     4  C    0.005131  -0.065718  -0.001131  -0.044016   0.460824  -0.044016
     5  C   -0.062989  -0.087292  -0.000062   0.015266  -0.080987   0.426512
     6  C    0.336275  -0.084818   0.005433  -0.004925   0.023169  -0.078336
     7  O    7.811106  -0.087021  -0.000043   0.000021  -0.000166   0.004908
     8  C   -0.087021   6.463802  -0.019788   0.020999  -0.005193   0.021000
     9  H   -0.000043  -0.019788   0.395415  -0.000660   0.000026  -0.000004
    10  H    0.000021   0.020999  -0.000660   0.512460  -0.008523  -0.000113
    11  H   -0.000166  -0.005193   0.000026  -0.008523   0.530776  -0.008523
    12  H    0.004908   0.021000  -0.000004  -0.000113  -0.008523   0.512464
    13  H    0.308042  -0.019788   0.000001  -0.000004   0.000026  -0.000660
    14  H   -0.004902   0.387681   0.001229  -0.000164  -0.000010  -0.000164
              13         14
     1  O   -0.000043  -0.004902
     2  C    0.005433  -0.026451
     3  C   -0.000062   0.007105
     4  C   -0.001131   0.001408
     5  C    0.009532   0.007106
     6  C   -0.027812  -0.026449
     7  O    0.308042  -0.004902
     8  C   -0.019788   0.387681
     9  H    0.000001   0.001229
    10  H   -0.000004  -0.000164
    11  H    0.000026  -0.000010
    12  H   -0.000660  -0.000164
    13  H    0.395410   0.001229
    14  H    0.001229   0.481066
 Mulliken charges:
               1
     1  O   -0.326237
     2  C    0.136927
     3  C   -0.264801
     4  C   -0.122647
     5  C   -0.264811
     6  C    0.136940
     7  O   -0.326230
     8  C   -0.264716
     9  H    0.329822
    10  H    0.156573
    11  H    0.146566
    12  H    0.156570
    13  H    0.329828
    14  H    0.176218
 Sum of Mulliken charges =  -0.00000
 Mulliken charges with hydrogens summed into heavy atoms:
               1
     1  O    0.003585
     2  C    0.136927
     3  C   -0.108228
     4  C    0.023919
     5  C   -0.108242
     6  C    0.136940
     7  O    0.003597
     8  C   -0.088498
 Electronic spatial extent (au):  <R**2>=            922.1808
 Charge=             -0.0000 electrons
 Dipole moment (field-independent basis, Debye):
    X=             -0.0001    Y=             -3.5342    Z=             -0.0004  Tot=              3.5342
 Quadrupole moment (field-independent basis, Debye-Ang):
   XX=            -51.9863   YY=            -30.9506   ZZ=            -51.0167
   XY=              0.0002   XZ=              0.0225   YZ=              0.0005
 Traceless Quadrupole moment (field-independent basis, Debye-Ang):
   XX=             -7.3351   YY=             13.7006   ZZ=             -6.3655
   XY=              0.0002   XZ=              0.0225   YZ=              0.0005
 Octapole moment (field-independent basis, Debye-Ang**2):
  XXX=             -0.0008  YYY=            -31.6893  ZZZ=             -0.0005  XYY=             -0.0003
  XXY=            -11.6617  XXZ=             -0.0026  XZZ=             -0.0001  YZZ=             -5.9414
  YYZ=             -0.0007  XYZ=             -0.0435
 Hexadecapole moment (field-independent basis, Debye-Ang**3):
 XXXX=           -781.0938 YYYY=           -316.6799 ZZZZ=            -56.3325 XXXY=              0.0013
 XXXZ=              0.1318 YYYX=              0.0006 YYYZ=              0.0012 ZZZX=              0.0074
 ZZZY=              0.0007 XXYY=           -121.1705 XXZZ=           -135.1205 YYZZ=            -86.6865
 XXYZ=              0.0032 YYXZ=              0.0866 ZZXY=              0.0001
 N-N= 3.438409815944D+02 E-N=-1.582591383250D+03  KE= 3.811400486575D+02
 Unable to Open any file for archive entry.
 1\1\GINC-TCN1789\SP\RBP86\TZVP\C6H6O2\ELENAA\22-Feb-2021\0\\# BP86/TZV
 P SCRF=COSMORS geom=CHECKPOINT guess=CHECKPOINT\\COSMO-file for #GHMLB
 KRAJCXXBS-UHFFFAOYSA-N\\0,1\O,0,-1.471989295,3.1663551598,3.7777740093
 \C,0,-1.5529990739,2.3708478985,2.657877749\C,0,-2.7111500164,1.593339
 6476,2.5060856132\C,0,-2.8313790404,0.771956371,1.3807493535\C,0,-1.82
 64387614,0.7107982692,0.4102534501\C,0,-0.6742840234,1.4942584946,0.57
 63941625\O,0,0.2919988382,1.4063599172,-0.3993789571\C,0,-0.530715807,
 2.3264093002,1.6973555393\H,0,-0.6271298549,3.6536751917,3.7734586348\
 H,0,-3.4941675235,1.6419224941,3.2637981871\H,0,-3.7304936307,0.164465
 4799,1.2570174868\H,0,-1.9189797891,0.0706412986,-0.4679494154\H,0,1.0
 378776036,1.9938313709,-0.1761547241\H,0,0.3700103724,2.9349891081,1.8
 213089141\\Version=ES64L-G16RevC.01\State=1-A\HF=-382.8472236\RMSD=5.8
 32e-09\Dipole=1.1446828,0.7735267,0.1574156\Quadrupole=5.2784072,-0.21
 98597,-5.0585476,6.9336087,1.6189673,0.7083079\PG=C01 [X(C6H6O2)]\\@
 The archive entry for this job was punched.


 HIGGLEDY-PIGGLEDY
 NIC'LAUS COPERNICUS
 LOOKED AT THE UNIVERSE,
 SPOKE TO THE THRONG;
 GIVE UP YOUR PTOLOMY,
 RISE UP AND FOLLOW ME,
 HELIOCENTRICALLY
 PTOLEMY'S WRONG.
   -- NANCY L. STARK
 Job cpu time:       0 days  0 hours  3 minutes 23.2 seconds.
 Elapsed time:       0 days  0 hours  0 minutes  6.7 seconds.
 File lengths (MBytes):  RWF=     31 Int=      0 D2E=      0 Chk=      6 Scr=      1
 Normal termination of Gaussian 16 at Mon Feb 22 21:04:07 2021.
