 Entering Gaussian System, Link 0=g16
 Input=GJSGYPDDPQRWPK-UHFFFAOYSA-N.gjf
 Output=GJSGYPDDPQRWPK-UHFFFAOYSA-N.log
 Initial command:
 /sw/arch/RedHatEnterpriseServer7/EB_production/2019/software/Gaussian/g16.c01/l1.exe "/scratch-local/elenaa.9715939/Gau-719.inp" -scrdir="/scratch-local/elenaa.9715939/"
 Entering Link 1 = /sw/arch/RedHatEnterpriseServer7/EB_production/2019/software/Gaussian/g16.c01/l1.exe PID=       721.
  
 Copyright (c) 1988-2019, Gaussian, Inc.  All Rights Reserved.
  
 This is part of the Gaussian(R) 16 program.  It is based on
 the Gaussian(R) 09 system (copyright 2009, Gaussian, Inc.),
 the Gaussian(R) 03 system (copyright 2003, Gaussian, Inc.),
 the Gaussian(R) 98 system (copyright 1998, Gaussian, Inc.),
 the Gaussian(R) 94 system (copyright 1995, Gaussian, Inc.),
 the Gaussian 92(TM) system (copyright 1992, Gaussian, Inc.),
 the Gaussian 90(TM) system (copyright 1990, Gaussian, Inc.),
 the Gaussian 88(TM) system (copyright 1988, Gaussian, Inc.),
 the Gaussian 86(TM) system (copyright 1986, Carnegie Mellon
 University), and the Gaussian 82(TM) system (copyright 1983,
 Carnegie Mellon University). Gaussian is a federally registered
 trademark of Gaussian, Inc.
  
 This software contains proprietary and confidential information,
 including trade secrets, belonging to Gaussian, Inc.
  
 This software is provided under written license and may be
 used, copied, transmitted, or stored only in accord with that
 written license.
  
 The following legend is applicable only to US Government
 contracts under FAR:
  
                    RESTRICTED RIGHTS LEGEND
  
 Use, reproduction and disclosure by the US Government is
 subject to restrictions as set forth in subparagraphs (a)
 and (c) of the Commercial Computer Software - Restricted
 Rights clause in FAR 52.227-19.
  
 Gaussian, Inc.
 340 Quinnipiac St., Bldg. 40, Wallingford CT 06492
  
  
 ---------------------------------------------------------------
 Warning -- This program may not be used in any manner that
 competes with the business of Gaussian, Inc. or will provide
 assistance to any competitor of Gaussian, Inc.  The licensee
 of this program is prohibited from giving any competitor of
 Gaussian, Inc. access to this program.  By using this program,
 the user acknowledges that Gaussian, Inc. is engaged in the
 business of creating and licensing software in the field of
 computational chemistry and represents and warrants to the
 licensee that it is not a competitor of Gaussian, Inc. and that
 it will not use this program in any manner prohibited above.
 ---------------------------------------------------------------
  

 Cite this work as:
 Gaussian 16, Revision C.01,
 M. J. Frisch, G. W. Trucks, H. B. Schlegel, G. E. Scuseria, 
 M. A. Robb, J. R. Cheeseman, G. Scalmani, V. Barone, 
 G. A. Petersson, H. Nakatsuji, X. Li, M. Caricato, A. V. Marenich, 
 J. Bloino, B. G. Janesko, R. Gomperts, B. Mennucci, H. P. Hratchian, 
 J. V. Ortiz, A. F. Izmaylov, J. L. Sonnenberg, D. Williams-Young, 
 F. Ding, F. Lipparini, F. Egidi, J. Goings, B. Peng, A. Petrone, 
 T. Henderson, D. Ranasinghe, V. G. Zakrzewski, J. Gao, N. Rega, 
 G. Zheng, W. Liang, M. Hada, M. Ehara, K. Toyota, R. Fukuda, 
 J. Hasegawa, M. Ishida, T. Nakajima, Y. Honda, O. Kitao, H. Nakai, 
 T. Vreven, K. Throssell, J. A. Montgomery, Jr., J. E. Peralta, 
 F. Ogliaro, M. J. Bearpark, J. J. Heyd, E. N. Brothers, K. N. Kudin, 
 V. N. Staroverov, T. A. Keith, R. Kobayashi, J. Normand, 
 K. Raghavachari, A. P. Rendell, J. C. Burant, S. S. Iyengar, 
 J. Tomasi, M. Cossi, J. M. Millam, M. Klene, C. Adamo, R. Cammi, 
 J. W. Ochterski, R. L. Martin, K. Morokuma, O. Farkas, 
 J. B. Foresman, and D. J. Fox, Gaussian, Inc., Wallingford CT, 2019.
 
 ******************************************
 Gaussian 16:  ES64L-G16RevC.01  3-Jul-2019
                23-Feb-2021 
 ******************************************
 %chk=GJSGYPDDPQRWPK-UHFFFAOYSA-N.chk
 %NProcShared=32
 Will use up to   32 processors via shared memory.
 -------------------------------------------------------------
 #P BP86/TZVP EmpiricalDispersion=GD3 SCRF=(Solvent=Water) Opt
 -------------------------------------------------------------
 1/18=20,19=15,26=3,38=1/1,3;
 2/9=110,12=2,17=6,18=5,40=1/2;
 3/5=19,7=101,11=2,25=1,30=1,70=2201,71=1,72=1,74=404,124=31/1,2,3;
 4//1;
 5/5=2,38=5,53=1/2;
 6/7=2,8=2,9=2,10=2,28=1/1;
 7//1,2,3,16;
 1/18=20,19=15,26=3/3(2);
 2/9=110/2;
 99//99;
 2/9=110/2;
 3/5=19,7=101,11=2,25=1,30=1,70=2205,71=1,72=1,74=404,124=31/1,2,3;
 4/5=5,16=3,69=1/1;
 5/5=2,38=5,53=1/2;
 7//1,2,3,16;
 1/18=20,19=15,26=3/3(-5);
 2/9=110/2;
 6/7=2,8=2,9=2,10=2,19=2,28=1/1;
 99/9=1/99;
 Leave Link    1 at Tue Feb 23 00:11:08 2021, MaxMem=           0 cpu:               4.0 elap:               0.1
 (Enter /sw/arch/RedHatEnterpriseServer7/EB_production/2019/software/Gaussian/g16.c01/l101.exe)
 -------------------------------------
 Particle #GJSGYPDDPQRWPK-UHFFFAOYSA-N
 -------------------------------------
 Symbolic Z-matrix:
 Charge =  1 Multiplicity = 1
 C                    -0.94591   7.18603  -2.54636 
 C                    -1.0373    6.3554   -1.24615 
 C                    -0.07079   5.13895  -1.24779 
 C                    -0.12492   4.32156   0.07326 
 C                     0.84575   3.0969    0.09412 
 N                     0.82086   2.20519   1.39491 
 C                     1.8763    1.07109   1.09878 
 C                     2.07455  -0.00205   2.21747 
 C                     3.10571  -1.10527   1.84891 
 C                     3.29359  -2.15808   2.97595 
 C                     4.35117  -3.22673   2.61765 
 C                     1.18609   3.00844   2.63994 
 C                     2.56637   3.73416   2.68745 
 C                     2.79407   4.50823   4.01472 
 C                     4.1661    5.23094   4.0646 
 C                     4.37563   5.99522   5.3908 
 C                    -0.61704   1.60645   1.66254 
 C                    -1.22044   0.73196   0.51818 
 C                    -2.63432   0.17279   0.84096 
 C                    -3.21532  -0.6934   -0.30965 
 C                    -4.62173  -1.24684   0.01704 
 H                     0.06322   7.58176  -2.67524 
 H                    -1.19953   6.56729  -3.41012 
 H                    -1.64452   8.02384  -2.50069 
 H                    -0.80179   7.00611  -0.39974 
 H                    -2.06491   6.00039  -1.1261 
 H                     0.95055   5.49797  -1.4016 
 H                    -0.33014   4.4829   -2.0834 
 H                    -1.15015   3.97517   0.2099 
 H                     0.12651   4.99687   0.893 
 H                     1.85411   3.52593  -0.13656 
 H                     0.61204   2.53399  -0.84443 
 H                     2.90526   1.45963   0.88819 
 H                     1.65708   0.47969   0.17436 
 H                     2.42123   0.48601   3.13007 
 H                     1.12193  -0.49118   2.4249 
 H                     4.07008  -0.63426   1.63956 
 H                     2.77218  -1.6155    0.94099 
 H                     3.60425  -1.65509   3.89562 
 H                     2.33915  -2.65692   3.16733 
 H                     4.44401  -3.94474   3.4349 
 H                     4.05606  -3.76392   1.71345 
 H                     5.32398  -2.75961   2.45337 
 H                     1.13956   2.35897   3.51921 
 H                     0.42159   3.77033   2.81927 
 H                     3.36815   3.00219   2.57985 
 H                     2.63353   4.44627   1.86368 
 H                     2.73265   3.80623   4.84982 
 H                     1.99909   5.24822   4.13469 
 H                     4.23384   5.93953   3.23568 
 H                     4.96762   4.49712   3.95102 
 H                     5.3481    6.4883    5.38751 
 H                     4.33824   5.30574   6.23622 
 H                     3.60143   6.75415   5.51791 
 H                    -1.39424   2.38242   1.87183 
 H                    -0.67241   0.9635    2.57552 
 H                    -1.29969   1.32654  -0.39297 
 H                    -0.56488  -0.11791   0.32338 
 H                    -3.31263   1.00932   1.03173 
 H                    -2.57767  -0.43544   1.74823 
 H                    -2.54497  -1.53584  -0.50461 
 H                    -3.27978  -0.09137  -1.22097 
 H                    -4.98581  -1.84712  -0.81991 
 H                    -5.3223   -0.42617   0.18885 
 H                    -4.58405  -1.87739   0.90855 
 
 ITRead=  0  0  0  0  0  0  0  0  0  0  0  0  0  0  0  0  0  0  0  0
 ITRead=  0  0  0  0  0  0  0  0  0  0  0  0  0  0  0  0  0  0  0  0
 ITRead=  0  0  0  0  0  0  0  0  0  0  0  0  0  0  0  0  0  0  0  0
 ITRead=  0  0  0  0  0
 MicOpt= -1 -1 -1 -1 -1 -1 -1 -1 -1 -1 -1 -1 -1 -1 -1 -1 -1 -1 -1 -1
 MicOpt= -1 -1 -1 -1 -1 -1 -1 -1 -1 -1 -1 -1 -1 -1 -1 -1 -1 -1 -1 -1
 MicOpt= -1 -1 -1 -1 -1 -1 -1 -1 -1 -1 -1 -1 -1 -1 -1 -1 -1 -1 -1 -1
 MicOpt= -1 -1 -1 -1 -1
 NAtoms=     65 NQM=       65 NQMF=       0 NMMI=      0 NMMIF=      0
                NMic=       0 NMicF=      0.
                    Isotopes and Nuclear Properties:
 (Nuclear quadrupole moments (NQMom) in fm**2, nuclear magnetic moments (NMagM)
  in nuclear magnetons)

  Atom         1           2           3           4           5           6           7           8           9          10
 IAtWgt=          12          12          12          12          12          14          12          12          12          12
 AtmWgt=  12.0000000  12.0000000  12.0000000  12.0000000  12.0000000  14.0030740  12.0000000  12.0000000  12.0000000  12.0000000
 NucSpn=           0           0           0           0           0           2           0           0           0           0
 AtZEff=  -0.0000000  -0.0000000  -0.0000000  -0.0000000  -0.0000000  -0.0000000  -0.0000000  -0.0000000  -0.0000000  -0.0000000
 NQMom=    0.0000000   0.0000000   0.0000000   0.0000000   0.0000000   2.0440000   0.0000000   0.0000000   0.0000000   0.0000000
 NMagM=    0.0000000   0.0000000   0.0000000   0.0000000   0.0000000   0.4037610   0.0000000   0.0000000   0.0000000   0.0000000
 AtZNuc=   6.0000000   6.0000000   6.0000000   6.0000000   6.0000000   7.0000000   6.0000000   6.0000000   6.0000000   6.0000000

  Atom        11          12          13          14          15          16          17          18          19          20
 IAtWgt=          12          12          12          12          12          12          12          12          12          12
 AtmWgt=  12.0000000  12.0000000  12.0000000  12.0000000  12.0000000  12.0000000  12.0000000  12.0000000  12.0000000  12.0000000
 NucSpn=           0           0           0           0           0           0           0           0           0           0
 AtZEff=  -0.0000000  -0.0000000  -0.0000000  -0.0000000  -0.0000000  -0.0000000  -0.0000000  -0.0000000  -0.0000000  -0.0000000
 NQMom=    0.0000000   0.0000000   0.0000000   0.0000000   0.0000000   0.0000000   0.0000000   0.0000000   0.0000000   0.0000000
 NMagM=    0.0000000   0.0000000   0.0000000   0.0000000   0.0000000   0.0000000   0.0000000   0.0000000   0.0000000   0.0000000
 AtZNuc=   6.0000000   6.0000000   6.0000000   6.0000000   6.0000000   6.0000000   6.0000000   6.0000000   6.0000000   6.0000000

  Atom        21          22          23          24          25          26          27          28          29          30
 IAtWgt=          12           1           1           1           1           1           1           1           1           1
 AtmWgt=  12.0000000   1.0078250   1.0078250   1.0078250   1.0078250   1.0078250   1.0078250   1.0078250   1.0078250   1.0078250
 NucSpn=           0           1           1           1           1           1           1           1           1           1
 AtZEff=  -0.0000000  -0.0000000  -0.0000000  -0.0000000  -0.0000000  -0.0000000  -0.0000000  -0.0000000  -0.0000000  -0.0000000
 NQMom=    0.0000000   0.0000000   0.0000000   0.0000000   0.0000000   0.0000000   0.0000000   0.0000000   0.0000000   0.0000000
 NMagM=    0.0000000   2.7928460   2.7928460   2.7928460   2.7928460   2.7928460   2.7928460   2.7928460   2.7928460   2.7928460
 AtZNuc=   6.0000000   1.0000000   1.0000000   1.0000000   1.0000000   1.0000000   1.0000000   1.0000000   1.0000000   1.0000000

  Atom        31          32          33          34          35          36          37          38          39          40
 IAtWgt=           1           1           1           1           1           1           1           1           1           1
 AtmWgt=   1.0078250   1.0078250   1.0078250   1.0078250   1.0078250   1.0078250   1.0078250   1.0078250   1.0078250   1.0078250
 NucSpn=           1           1           1           1           1           1           1           1           1           1
 AtZEff=  -0.0000000  -0.0000000  -0.0000000  -0.0000000  -0.0000000  -0.0000000  -0.0000000  -0.0000000  -0.0000000  -0.0000000
 NQMom=    0.0000000   0.0000000   0.0000000   0.0000000   0.0000000   0.0000000   0.0000000   0.0000000   0.0000000   0.0000000
 NMagM=    2.7928460   2.7928460   2.7928460   2.7928460   2.7928460   2.7928460   2.7928460   2.7928460   2.7928460   2.7928460
 AtZNuc=   1.0000000   1.0000000   1.0000000   1.0000000   1.0000000   1.0000000   1.0000000   1.0000000   1.0000000   1.0000000

  Atom        41          42          43          44          45          46          47          48          49          50
 IAtWgt=           1           1           1           1           1           1           1           1           1           1
 AtmWgt=   1.0078250   1.0078250   1.0078250   1.0078250   1.0078250   1.0078250   1.0078250   1.0078250   1.0078250   1.0078250
 NucSpn=           1           1           1           1           1           1           1           1           1           1
 AtZEff=  -0.0000000  -0.0000000  -0.0000000  -0.0000000  -0.0000000  -0.0000000  -0.0000000  -0.0000000  -0.0000000  -0.0000000
 NQMom=    0.0000000   0.0000000   0.0000000   0.0000000   0.0000000   0.0000000   0.0000000   0.0000000   0.0000000   0.0000000
 NMagM=    2.7928460   2.7928460   2.7928460   2.7928460   2.7928460   2.7928460   2.7928460   2.7928460   2.7928460   2.7928460
 AtZNuc=   1.0000000   1.0000000   1.0000000   1.0000000   1.0000000   1.0000000   1.0000000   1.0000000   1.0000000   1.0000000

  Atom        51          52          53          54          55          56          57          58          59          60
 IAtWgt=           1           1           1           1           1           1           1           1           1           1
 AtmWgt=   1.0078250   1.0078250   1.0078250   1.0078250   1.0078250   1.0078250   1.0078250   1.0078250   1.0078250   1.0078250
 NucSpn=           1           1           1           1           1           1           1           1           1           1
 AtZEff=  -0.0000000  -0.0000000  -0.0000000  -0.0000000  -0.0000000  -0.0000000  -0.0000000  -0.0000000  -0.0000000  -0.0000000
 NQMom=    0.0000000   0.0000000   0.0000000   0.0000000   0.0000000   0.0000000   0.0000000   0.0000000   0.0000000   0.0000000
 NMagM=    2.7928460   2.7928460   2.7928460   2.7928460   2.7928460   2.7928460   2.7928460   2.7928460   2.7928460   2.7928460
 AtZNuc=   1.0000000   1.0000000   1.0000000   1.0000000   1.0000000   1.0000000   1.0000000   1.0000000   1.0000000   1.0000000

  Atom        61          62          63          64          65
 IAtWgt=           1           1           1           1           1
 AtmWgt=   1.0078250   1.0078250   1.0078250   1.0078250   1.0078250
 NucSpn=           1           1           1           1           1
 AtZEff=  -0.0000000  -0.0000000  -0.0000000  -0.0000000  -0.0000000
 NQMom=    0.0000000   0.0000000   0.0000000   0.0000000   0.0000000
 NMagM=    2.7928460   2.7928460   2.7928460   2.7928460   2.7928460
 AtZNuc=   1.0000000   1.0000000   1.0000000   1.0000000   1.0000000
 Leave Link  101 at Tue Feb 23 00:11:09 2021, MaxMem=   104857600 cpu:               2.9 elap:               0.1
 (Enter /sw/arch/RedHatEnterpriseServer7/EB_production/2019/software/Gaussian/g16.c01/l103.exe)

 GradGradGradGradGradGradGradGradGradGradGradGradGradGradGradGradGradGrad
 Berny optimization.
 Initialization pass.
                           ----------------------------
                           !    Initial Parameters    !
                           ! (Angstroms and Degrees)  !
 --------------------------                            --------------------------
 ! Name  Definition              Value          Derivative Info.                !
 --------------------------------------------------------------------------------
 ! R1    R(1,2)                  1.5456         estimate D2E/DX2                !
 ! R2    R(1,22)                 1.0916         estimate D2E/DX2                !
 ! R3    R(1,23)                 1.0924         estimate D2E/DX2                !
 ! R4    R(1,24)                 1.0918         estimate D2E/DX2                !
 ! R5    R(2,3)                  1.5537         estimate D2E/DX2                !
 ! R6    R(2,25)                 1.0933         estimate D2E/DX2                !
 ! R7    R(2,26)                 1.0938         estimate D2E/DX2                !
 ! R8    R(3,4)                  1.5544         estimate D2E/DX2                !
 ! R9    R(3,27)                 1.0935         estimate D2E/DX2                !
 ! R10   R(3,28)                 1.0936         estimate D2E/DX2                !
 ! R11   R(4,5)                  1.5628         estimate D2E/DX2                !
 ! R12   R(4,29)                 1.0908         estimate D2E/DX2                !
 ! R13   R(4,30)                 1.0914         estimate D2E/DX2                !
 ! R14   R(5,6)                  1.5773         estimate D2E/DX2                !
 ! R15   R(5,31)                 1.1199         estimate D2E/DX2                !
 ! R16   R(5,32)                 1.1191         estimate D2E/DX2                !
 ! R17   R(6,7)                  1.5773         estimate D2E/DX2                !
 ! R18   R(6,12)                 1.526          estimate D2E/DX2                !
 ! R19   R(6,17)                 1.5804         estimate D2E/DX2                !
 ! R20   R(7,8)                  1.5628         estimate D2E/DX2                !
 ! R21   R(7,33)                 1.1199         estimate D2E/DX2                !
 ! R22   R(7,34)                 1.1191         estimate D2E/DX2                !
 ! R23   R(8,9)                  1.5544         estimate D2E/DX2                !
 ! R24   R(8,35)                 1.0914         estimate D2E/DX2                !
 ! R25   R(8,36)                 1.0908         estimate D2E/DX2                !
 ! R26   R(9,10)                 1.5537         estimate D2E/DX2                !
 ! R27   R(9,37)                 1.0935         estimate D2E/DX2                !
 ! R28   R(9,38)                 1.0936         estimate D2E/DX2                !
 ! R29   R(10,11)                1.5456         estimate D2E/DX2                !
 ! R30   R(10,39)                1.0933         estimate D2E/DX2                !
 ! R31   R(10,40)                1.0938         estimate D2E/DX2                !
 ! R32   R(11,41)                1.0918         estimate D2E/DX2                !
 ! R33   R(11,42)                1.0924         estimate D2E/DX2                !
 ! R34   R(11,43)                1.0916         estimate D2E/DX2                !
 ! R35   R(12,13)                1.5602         estimate D2E/DX2                !
 ! R36   R(12,44)                1.0941         estimate D2E/DX2                !
 ! R37   R(12,45)                1.0941         estimate D2E/DX2                !
 ! R38   R(13,14)                1.5533         estimate D2E/DX2                !
 ! R39   R(13,46)                1.091          estimate D2E/DX2                !
 ! R40   R(13,47)                1.091          estimate D2E/DX2                !
 ! R41   R(14,15)                1.5515         estimate D2E/DX2                !
 ! R42   R(14,48)                1.0927         estimate D2E/DX2                !
 ! R43   R(14,49)                1.0927         estimate D2E/DX2                !
 ! R44   R(15,16)                1.5449         estimate D2E/DX2                !
 ! R45   R(15,50)                1.0926         estimate D2E/DX2                !
 ! R46   R(15,51)                1.0926         estimate D2E/DX2                !
 ! R47   R(16,52)                1.0903         estimate D2E/DX2                !
 ! R48   R(16,53)                1.0916         estimate D2E/DX2                !
 ! R49   R(16,54)                1.0916         estimate D2E/DX2                !
 ! R50   R(17,18)                1.5615         estimate D2E/DX2                !
 ! R51   R(17,55)                1.118          estimate D2E/DX2                !
 ! R52   R(17,56)                1.118          estimate D2E/DX2                !
 ! R53   R(18,19)                1.5543         estimate D2E/DX2                !
 ! R54   R(18,57)                1.0909         estimate D2E/DX2                !
 ! R55   R(18,58)                1.0909         estimate D2E/DX2                !
 ! R56   R(19,20)                1.553          estimate D2E/DX2                !
 ! R57   R(19,59)                1.0937         estimate D2E/DX2                !
 ! R58   R(19,60)                1.0938         estimate D2E/DX2                !
 ! R59   R(20,21)                1.5463         estimate D2E/DX2                !
 ! R60   R(20,61)                1.0941         estimate D2E/DX2                !
 ! R61   R(20,62)                1.0941         estimate D2E/DX2                !
 ! R62   R(21,63)                1.0924         estimate D2E/DX2                !
 ! R63   R(21,64)                1.0926         estimate D2E/DX2                !
 ! R64   R(21,65)                1.0926         estimate D2E/DX2                !
 ! A1    A(2,1,22)             110.4149         estimate D2E/DX2                !
 ! A2    A(2,1,23)             110.3074         estimate D2E/DX2                !
 ! A3    A(2,1,24)             109.8384         estimate D2E/DX2                !
 ! A4    A(22,1,23)            109.0641         estimate D2E/DX2                !
 ! A5    A(22,1,24)            108.5588         estimate D2E/DX2                !
 ! A6    A(23,1,24)            108.6124         estimate D2E/DX2                !
 ! A7    A(1,2,3)              112.526          estimate D2E/DX2                !
 ! A8    A(1,2,25)             108.5826         estimate D2E/DX2                !
 ! A9    A(1,2,26)             108.8024         estimate D2E/DX2                !
 ! A10   A(3,2,25)             109.4395         estimate D2E/DX2                !
 ! A11   A(3,2,26)             109.2948         estimate D2E/DX2                !
 ! A12   A(25,2,26)            108.0941         estimate D2E/DX2                !
 ! A13   A(2,3,4)              112.9019         estimate D2E/DX2                !
 ! A14   A(2,3,27)             108.9126         estimate D2E/DX2                !
 ! A15   A(2,3,28)             108.8431         estimate D2E/DX2                !
 ! A16   A(4,3,27)             108.9487         estimate D2E/DX2                !
 ! A17   A(4,3,28)             109.006          estimate D2E/DX2                !
 ! A18   A(27,3,28)            108.1196         estimate D2E/DX2                !
 ! A19   A(3,4,5)              113.6895         estimate D2E/DX2                !
 ! A20   A(3,4,29)             107.8296         estimate D2E/DX2                !
 ! A21   A(3,4,30)             107.7534         estimate D2E/DX2                !
 ! A22   A(5,4,29)             109.4669         estimate D2E/DX2                !
 ! A23   A(5,4,30)             109.3748         estimate D2E/DX2                !
 ! A24   A(29,4,30)            108.5983         estimate D2E/DX2                !
 ! A25   A(4,5,6)              116.3736         estimate D2E/DX2                !
 ! A26   A(4,5,31)             104.8505         estimate D2E/DX2                !
 ! A27   A(4,5,32)             104.6706         estimate D2E/DX2                !
 ! A28   A(6,5,31)             113.6208         estimate D2E/DX2                !
 ! A29   A(6,5,32)             113.8277         estimate D2E/DX2                !
 ! A30   A(31,5,32)            102.005          estimate D2E/DX2                !
 ! A31   A(5,6,7)              103.9515         estimate D2E/DX2                !
 ! A32   A(5,6,12)             111.8078         estimate D2E/DX2                !
 ! A33   A(5,6,17)             111.6045         estimate D2E/DX2                !
 ! A34   A(7,6,12)             111.808          estimate D2E/DX2                !
 ! A35   A(7,6,17)             111.6049         estimate D2E/DX2                !
 ! A36   A(12,6,17)            106.2012         estimate D2E/DX2                !
 ! A37   A(6,7,8)              116.3736         estimate D2E/DX2                !
 ! A38   A(6,7,33)             113.6204         estimate D2E/DX2                !
 ! A39   A(6,7,34)             113.8275         estimate D2E/DX2                !
 ! A40   A(8,7,33)             104.8504         estimate D2E/DX2                !
 ! A41   A(8,7,34)             104.6708         estimate D2E/DX2                !
 ! A42   A(33,7,34)            102.0056         estimate D2E/DX2                !
 ! A43   A(7,8,9)              113.6895         estimate D2E/DX2                !
 ! A44   A(7,8,35)             109.3757         estimate D2E/DX2                !
 ! A45   A(7,8,36)             109.4669         estimate D2E/DX2                !
 ! A46   A(9,8,35)             107.7531         estimate D2E/DX2                !
 ! A47   A(9,8,36)             107.8294         estimate D2E/DX2                !
 ! A48   A(35,8,36)            108.5979         estimate D2E/DX2                !
 ! A49   A(8,9,10)             112.9018         estimate D2E/DX2                !
 ! A50   A(8,9,37)             108.9492         estimate D2E/DX2                !
 ! A51   A(8,9,38)             109.0062         estimate D2E/DX2                !
 ! A52   A(10,9,37)            108.912          estimate D2E/DX2                !
 ! A53   A(10,9,38)            108.8428         estimate D2E/DX2                !
 ! A54   A(37,9,38)            108.1198         estimate D2E/DX2                !
 ! A55   A(9,10,11)            112.5259         estimate D2E/DX2                !
 ! A56   A(9,10,39)            109.4392         estimate D2E/DX2                !
 ! A57   A(9,10,40)            109.2953         estimate D2E/DX2                !
 ! A58   A(11,10,39)           108.5826         estimate D2E/DX2                !
 ! A59   A(11,10,40)           108.8023         estimate D2E/DX2                !
 ! A60   A(39,10,40)           108.0942         estimate D2E/DX2                !
 ! A61   A(10,11,41)           109.8377         estimate D2E/DX2                !
 ! A62   A(10,11,42)           110.3071         estimate D2E/DX2                !
 ! A63   A(10,11,43)           110.4148         estimate D2E/DX2                !
 ! A64   A(41,11,42)           108.6122         estimate D2E/DX2                !
 ! A65   A(41,11,43)           108.5596         estimate D2E/DX2                !
 ! A66   A(42,11,43)           109.0646         estimate D2E/DX2                !
 ! A67   A(6,12,13)            118.7791         estimate D2E/DX2                !
 ! A68   A(6,12,44)            109.4527         estimate D2E/DX2                !
 ! A69   A(6,12,45)            109.4529         estimate D2E/DX2                !
 ! A70   A(13,12,44)           106.8143         estimate D2E/DX2                !
 ! A71   A(13,12,45)           106.8143         estimate D2E/DX2                !
 ! A72   A(44,12,45)           104.5912         estimate D2E/DX2                !
 ! A73   A(12,13,14)           112.8004         estimate D2E/DX2                !
 ! A74   A(12,13,46)           109.5785         estimate D2E/DX2                !
 ! A75   A(12,13,47)           109.5782         estimate D2E/DX2                !
 ! A76   A(14,13,46)           108.1135         estimate D2E/DX2                !
 ! A77   A(14,13,47)           108.1137         estimate D2E/DX2                !
 ! A78   A(46,13,47)           108.5558         estimate D2E/DX2                !
 ! A79   A(13,14,15)           112.9069         estimate D2E/DX2                !
 ! A80   A(13,14,48)           108.9447         estimate D2E/DX2                !
 ! A81   A(13,14,49)           108.9446         estimate D2E/DX2                !
 ! A82   A(15,14,48)           108.9288         estimate D2E/DX2                !
 ! A83   A(15,14,49)           108.9286         estimate D2E/DX2                !
 ! A84   A(48,14,49)           108.0758         estimate D2E/DX2                !
 ! A85   A(14,15,16)           112.2075         estimate D2E/DX2                !
 ! A86   A(14,15,50)           109.4219         estimate D2E/DX2                !
 ! A87   A(14,15,51)           109.4219         estimate D2E/DX2                !
 ! A88   A(16,15,50)           108.7846         estimate D2E/DX2                !
 ! A89   A(16,15,51)           108.7833         estimate D2E/DX2                !
 ! A90   A(50,15,51)           108.1326         estimate D2E/DX2                !
 ! A91   A(15,16,52)           110.0042         estimate D2E/DX2                !
 ! A92   A(15,16,53)           110.3483         estimate D2E/DX2                !
 ! A93   A(15,16,54)           110.3477         estimate D2E/DX2                !
 ! A94   A(52,16,53)           108.5743         estimate D2E/DX2                !
 ! A95   A(52,16,54)           108.5733         estimate D2E/DX2                !
 ! A96   A(53,16,54)           108.946          estimate D2E/DX2                !
 ! A97   A(6,17,18)            116.0807         estimate D2E/DX2                !
 ! A98   A(6,17,55)            113.6551         estimate D2E/DX2                !
 ! A99   A(6,17,56)            113.6541         estimate D2E/DX2                !
 ! A100  A(18,17,55)           104.9071         estimate D2E/DX2                !
 ! A101  A(18,17,56)           104.9069         estimate D2E/DX2                !
 ! A102  A(55,17,56)           102.2304         estimate D2E/DX2                !
 ! A103  A(17,18,19)           113.6271         estimate D2E/DX2                !
 ! A104  A(17,18,57)           109.5689         estimate D2E/DX2                !
 ! A105  A(17,18,58)           109.5694         estimate D2E/DX2                !
 ! A106  A(19,18,57)           107.6651         estimate D2E/DX2                !
 ! A107  A(19,18,58)           107.6658         estimate D2E/DX2                !
 ! A108  A(57,18,58)           108.6111         estimate D2E/DX2                !
 ! A109  A(18,19,20)           112.7748         estimate D2E/DX2                !
 ! A110  A(18,19,59)           108.9781         estimate D2E/DX2                !
 ! A111  A(18,19,60)           108.9778         estimate D2E/DX2                !
 ! A112  A(20,19,59)           108.893          estimate D2E/DX2                !
 ! A113  A(20,19,60)           108.8924         estimate D2E/DX2                !
 ! A114  A(59,19,60)           108.2256         estimate D2E/DX2                !
 ! A115  A(19,20,21)           112.5428         estimate D2E/DX2                !
 ! A116  A(19,20,61)           109.4063         estimate D2E/DX2                !
 ! A117  A(19,20,62)           109.4058         estimate D2E/DX2                !
 ! A118  A(21,20,61)           108.6221         estimate D2E/DX2                !
 ! A119  A(21,20,62)           108.6224         estimate D2E/DX2                !
 ! A120  A(61,20,62)           108.1406         estimate D2E/DX2                !
 ! A121  A(20,21,63)           109.7513         estimate D2E/DX2                !
 ! A122  A(20,21,64)           110.3389         estimate D2E/DX2                !
 ! A123  A(20,21,65)           110.339          estimate D2E/DX2                !
 ! A124  A(63,21,64)           108.6332         estimate D2E/DX2                !
 ! A125  A(63,21,65)           108.6332         estimate D2E/DX2                !
 ! A126  A(64,21,65)           109.1033         estimate D2E/DX2                !
 ! D1    D(22,1,2,3)           -60.5972         estimate D2E/DX2                !
 ! D2    D(22,1,2,25)           60.7052         estimate D2E/DX2                !
 ! D3    D(22,1,2,26)          178.131          estimate D2E/DX2                !
 ! D4    D(23,1,2,3)            60.023          estimate D2E/DX2                !
 ! D5    D(23,1,2,25)         -178.6746         estimate D2E/DX2                !
 ! D6    D(23,1,2,26)          -61.2487         estimate D2E/DX2                !
 ! D7    D(24,1,2,3)           179.7123         estimate D2E/DX2                !
 ! D8    D(24,1,2,25)          -58.9853         estimate D2E/DX2                !
 ! D9    D(24,1,2,26)           58.4406         estimate D2E/DX2                !
 ! D10   D(1,2,3,4)            178.292          estimate D2E/DX2                !
 ! D11   D(1,2,3,27)            57.1362         estimate D2E/DX2                !
 ! D12   D(1,2,3,28)           -60.5282         estimate D2E/DX2                !
 ! D13   D(25,2,3,4)            57.4798         estimate D2E/DX2                !
 ! D14   D(25,2,3,27)          -63.676          estimate D2E/DX2                !
 ! D15   D(25,2,3,28)          178.6597         estimate D2E/DX2                !
 ! D16   D(26,2,3,4)           -60.7177         estimate D2E/DX2                !
 ! D17   D(26,2,3,27)          178.1265         estimate D2E/DX2                !
 ! D18   D(26,2,3,28)           60.4621         estimate D2E/DX2                !
 ! D19   D(2,3,4,5)           -179.7217         estimate D2E/DX2                !
 ! D20   D(2,3,4,29)            58.7174         estimate D2E/DX2                !
 ! D21   D(2,3,4,30)           -58.3316         estimate D2E/DX2                !
 ! D22   D(27,3,4,5)           -58.5863         estimate D2E/DX2                !
 ! D23   D(27,3,4,29)          179.8527         estimate D2E/DX2                !
 ! D24   D(27,3,4,30)           62.8038         estimate D2E/DX2                !
 ! D25   D(28,3,4,5)            59.1909         estimate D2E/DX2                !
 ! D26   D(28,3,4,29)          -62.37           estimate D2E/DX2                !
 ! D27   D(28,3,4,30)         -179.4189         estimate D2E/DX2                !
 ! D28   D(3,4,5,6)           -178.7971         estimate D2E/DX2                !
 ! D29   D(3,4,5,31)            54.7503         estimate D2E/DX2                !
 ! D30   D(3,4,5,32)           -52.2186         estimate D2E/DX2                !
 ! D31   D(29,4,5,6)           -58.152          estimate D2E/DX2                !
 ! D32   D(29,4,5,31)          175.3954         estimate D2E/DX2                !
 ! D33   D(29,4,5,32)           68.4265         estimate D2E/DX2                !
 ! D34   D(30,4,5,6)            60.7214         estimate D2E/DX2                !
 ! D35   D(30,4,5,31)          -65.7312         estimate D2E/DX2                !
 ! D36   D(30,4,5,32)         -172.7001         estimate D2E/DX2                !
 ! D37   D(4,5,6,7)            179.3868         estimate D2E/DX2                !
 ! D38   D(4,5,6,12)           -59.8361         estimate D2E/DX2                !
 ! D39   D(4,5,6,17)            58.9594         estimate D2E/DX2                !
 ! D40   D(31,5,6,7)           -58.6705         estimate D2E/DX2                !
 ! D41   D(31,5,6,12)           62.1066         estimate D2E/DX2                !
 ! D42   D(31,5,6,17)         -179.0979         estimate D2E/DX2                !
 ! D43   D(32,5,6,7)            57.5166         estimate D2E/DX2                !
 ! D44   D(32,5,6,12)          178.2937         estimate D2E/DX2                !
 ! D45   D(32,5,6,17)          -62.9108         estimate D2E/DX2                !
 ! D46   D(5,6,7,8)           -179.387          estimate D2E/DX2                !
 ! D47   D(5,6,7,33)            58.6708         estimate D2E/DX2                !
 ! D48   D(5,6,7,34)           -57.5167         estimate D2E/DX2                !
 ! D49   D(12,6,7,8)            59.8361         estimate D2E/DX2                !
 ! D50   D(12,6,7,33)          -62.1062         estimate D2E/DX2                !
 ! D51   D(12,6,7,34)         -178.2936         estimate D2E/DX2                !
 ! D52   D(17,6,7,8)           -58.9598         estimate D2E/DX2                !
 ! D53   D(17,6,7,33)          179.0979         estimate D2E/DX2                !
 ! D54   D(17,6,7,34)           62.9105         estimate D2E/DX2                !
 ! D55   D(5,6,12,13)          -58.046          estimate D2E/DX2                !
 ! D56   D(5,6,12,44)          178.9965         estimate D2E/DX2                !
 ! D57   D(5,6,12,45)           64.9116         estimate D2E/DX2                !
 ! D58   D(7,6,12,13)           58.0455         estimate D2E/DX2                !
 ! D59   D(7,6,12,44)          -64.9119         estimate D2E/DX2                !
 ! D60   D(7,6,12,45)         -178.9969         estimate D2E/DX2                !
 ! D61   D(17,6,12,13)        -179.9999         estimate D2E/DX2                !
 ! D62   D(17,6,12,44)          57.0426         estimate D2E/DX2                !
 ! D63   D(17,6,12,45)         -57.0423         estimate D2E/DX2                !
 ! D64   D(5,6,17,18)           57.917          estimate D2E/DX2                !
 ! D65   D(5,6,17,55)          -63.8926         estimate D2E/DX2                !
 ! D66   D(5,6,17,56)          179.7254         estimate D2E/DX2                !
 ! D67   D(7,6,17,18)          -57.9159         estimate D2E/DX2                !
 ! D68   D(7,6,17,55)         -179.7255         estimate D2E/DX2                !
 ! D69   D(7,6,17,56)           63.8925         estimate D2E/DX2                !
 ! D70   D(12,6,17,18)        -179.9997         estimate D2E/DX2                !
 ! D71   D(12,6,17,55)          58.1907         estimate D2E/DX2                !
 ! D72   D(12,6,17,56)         -58.1914         estimate D2E/DX2                !
 ! D73   D(6,7,8,9)            178.797          estimate D2E/DX2                !
 ! D74   D(6,7,8,35)           -60.7214         estimate D2E/DX2                !
 ! D75   D(6,7,8,36)            58.1521         estimate D2E/DX2                !
 ! D76   D(33,7,8,9)           -54.751          estimate D2E/DX2                !
 ! D77   D(33,7,8,35)           65.7306         estimate D2E/DX2                !
 ! D78   D(33,7,8,36)         -175.3959         estimate D2E/DX2                !
 ! D79   D(34,7,8,9)            52.2186         estimate D2E/DX2                !
 ! D80   D(34,7,8,35)          172.7003         estimate D2E/DX2                !
 ! D81   D(34,7,8,36)          -68.4262         estimate D2E/DX2                !
 ! D82   D(7,8,9,10)           179.7219         estimate D2E/DX2                !
 ! D83   D(7,8,9,37)            58.587          estimate D2E/DX2                !
 ! D84   D(7,8,9,38)           -59.191          estimate D2E/DX2                !
 ! D85   D(35,8,9,10)           58.331          estimate D2E/DX2                !
 ! D86   D(35,8,9,37)          -62.8039         estimate D2E/DX2                !
 ! D87   D(35,8,9,38)          179.4181         estimate D2E/DX2                !
 ! D88   D(36,8,9,10)          -58.7172         estimate D2E/DX2                !
 ! D89   D(36,8,9,37)         -179.8522         estimate D2E/DX2                !
 ! D90   D(36,8,9,38)           62.3699         estimate D2E/DX2                !
 ! D91   D(8,9,10,11)         -178.2917         estimate D2E/DX2                !
 ! D92   D(8,9,10,39)          -57.4799         estimate D2E/DX2                !
 ! D93   D(8,9,10,40)           60.718          estimate D2E/DX2                !
 ! D94   D(37,9,10,11)         -57.1357         estimate D2E/DX2                !
 ! D95   D(37,9,10,39)          63.6762         estimate D2E/DX2                !
 ! D96   D(37,9,10,40)        -178.126          estimate D2E/DX2                !
 ! D97   D(38,9,10,11)          60.5285         estimate D2E/DX2                !
 ! D98   D(38,9,10,39)        -178.6597         estimate D2E/DX2                !
 ! D99   D(38,9,10,40)         -60.4618         estimate D2E/DX2                !
 ! D100  D(9,10,11,41)        -179.712          estimate D2E/DX2                !
 ! D101  D(9,10,11,42)         -60.0235         estimate D2E/DX2                !
 ! D102  D(9,10,11,43)          60.5971         estimate D2E/DX2                !
 ! D103  D(39,10,11,41)         58.986          estimate D2E/DX2                !
 ! D104  D(39,10,11,42)        178.6746         estimate D2E/DX2                !
 ! D105  D(39,10,11,43)        -60.7048         estimate D2E/DX2                !
 ! D106  D(40,10,11,41)        -58.4398         estimate D2E/DX2                !
 ! D107  D(40,10,11,42)         61.2487         estimate D2E/DX2                !
 ! D108  D(40,10,11,43)       -178.1307         estimate D2E/DX2                !
 ! D109  D(6,12,13,14)        -179.9999         estimate D2E/DX2                !
 ! D110  D(6,12,13,46)         -59.5053         estimate D2E/DX2                !
 ! D111  D(6,12,13,47)          59.5055         estimate D2E/DX2                !
 ! D112  D(44,12,13,14)        -55.7421         estimate D2E/DX2                !
 ! D113  D(44,12,13,46)         64.7525         estimate D2E/DX2                !
 ! D114  D(44,12,13,47)       -176.2367         estimate D2E/DX2                !
 ! D115  D(45,12,13,14)         55.7421         estimate D2E/DX2                !
 ! D116  D(45,12,13,46)        176.2367         estimate D2E/DX2                !
 ! D117  D(45,12,13,47)        -64.7525         estimate D2E/DX2                !
 ! D118  D(12,13,14,15)       -179.9996         estimate D2E/DX2                !
 ! D119  D(12,13,14,48)         58.844          estimate D2E/DX2                !
 ! D120  D(12,13,14,49)        -58.8435         estimate D2E/DX2                !
 ! D121  D(46,13,14,15)         58.6707         estimate D2E/DX2                !
 ! D122  D(46,13,14,48)        -62.4857         estimate D2E/DX2                !
 ! D123  D(46,13,14,49)        179.8268         estimate D2E/DX2                !
 ! D124  D(47,13,14,15)        -58.6702         estimate D2E/DX2                !
 ! D125  D(47,13,14,48)       -179.8265         estimate D2E/DX2                !
 ! D126  D(47,13,14,49)         62.486          estimate D2E/DX2                !
 ! D127  D(13,14,15,16)       -179.9995         estimate D2E/DX2                !
 ! D128  D(13,14,15,50)         59.1541         estimate D2E/DX2                !
 ! D129  D(13,14,15,51)        -59.1546         estimate D2E/DX2                !
 ! D130  D(48,14,15,16)        -58.8341         estimate D2E/DX2                !
 ! D131  D(48,14,15,50)       -179.6805         estimate D2E/DX2                !
 ! D132  D(48,14,15,51)         62.0107         estimate D2E/DX2                !
 ! D133  D(49,14,15,16)         58.8353         estimate D2E/DX2                !
 ! D134  D(49,14,15,50)        -62.0111         estimate D2E/DX2                !
 ! D135  D(49,14,15,51)        179.6802         estimate D2E/DX2                !
 ! D136  D(14,15,16,52)       -180.0            estimate D2E/DX2                !
 ! D137  D(14,15,16,53)         60.2271         estimate D2E/DX2                !
 ! D138  D(14,15,16,54)        -60.2287         estimate D2E/DX2                !
 ! D139  D(50,15,16,52)        -58.7866         estimate D2E/DX2                !
 ! D140  D(50,15,16,53)       -178.5595         estimate D2E/DX2                !
 ! D141  D(50,15,16,54)         60.9847         estimate D2E/DX2                !
 ! D142  D(51,15,16,52)         58.7876         estimate D2E/DX2                !
 ! D143  D(51,15,16,53)        -60.9853         estimate D2E/DX2                !
 ! D144  D(51,15,16,54)        178.5588         estimate D2E/DX2                !
 ! D145  D(6,17,18,19)         180.0            estimate D2E/DX2                !
 ! D146  D(6,17,18,57)         -59.5343         estimate D2E/DX2                !
 ! D147  D(6,17,18,58)          59.533          estimate D2E/DX2                !
 ! D148  D(55,17,18,19)        -53.6597         estimate D2E/DX2                !
 ! D149  D(55,17,18,57)         66.8061         estimate D2E/DX2                !
 ! D150  D(55,17,18,58)       -174.1267         estimate D2E/DX2                !
 ! D151  D(56,17,18,19)         53.6612         estimate D2E/DX2                !
 ! D152  D(56,17,18,57)        174.127          estimate D2E/DX2                !
 ! D153  D(56,17,18,58)        -66.8058         estimate D2E/DX2                !
 ! D154  D(17,18,19,20)        179.9998         estimate D2E/DX2                !
 ! D155  D(17,18,19,59)         58.9521         estimate D2E/DX2                !
 ! D156  D(17,18,19,60)        -58.9533         estimate D2E/DX2                !
 ! D157  D(57,18,19,20)         58.4666         estimate D2E/DX2                !
 ! D158  D(57,18,19,59)        -62.5812         estimate D2E/DX2                !
 ! D159  D(57,18,19,60)        179.5134         estimate D2E/DX2                !
 ! D160  D(58,18,19,20)        -58.4658         estimate D2E/DX2                !
 ! D161  D(58,18,19,59)       -179.5135         estimate D2E/DX2                !
 ! D162  D(58,18,19,60)         62.5811         estimate D2E/DX2                !
 ! D163  D(18,19,20,21)        179.9997         estimate D2E/DX2                !
 ! D164  D(18,19,20,61)         59.1496         estimate D2E/DX2                !
 ! D165  D(18,19,20,62)        -59.1502         estimate D2E/DX2                !
 ! D166  D(59,19,20,21)        -58.904          estimate D2E/DX2                !
 ! D167  D(59,19,20,61)       -179.7542         estimate D2E/DX2                !
 ! D168  D(59,19,20,62)         61.9461         estimate D2E/DX2                !
 ! D169  D(60,19,20,21)         58.9042         estimate D2E/DX2                !
 ! D170  D(60,19,20,61)        -61.9459         estimate D2E/DX2                !
 ! D171  D(60,19,20,62)        179.7544         estimate D2E/DX2                !
 ! D172  D(19,20,21,63)        179.9998         estimate D2E/DX2                !
 ! D173  D(19,20,21,64)         60.32           estimate D2E/DX2                !
 ! D174  D(19,20,21,65)        -60.3205         estimate D2E/DX2                !
 ! D175  D(61,20,21,63)        -58.7017         estimate D2E/DX2                !
 ! D176  D(61,20,21,64)       -178.3815         estimate D2E/DX2                !
 ! D177  D(61,20,21,65)         60.9781         estimate D2E/DX2                !
 ! D178  D(62,20,21,63)         58.7016         estimate D2E/DX2                !
 ! D179  D(62,20,21,64)        -60.9782         estimate D2E/DX2                !
 ! D180  D(62,20,21,65)        178.3814         estimate D2E/DX2                !
 --------------------------------------------------------------------------------
 Trust Radius=3.00D-01 FncErr=1.00D-07 GrdErr=1.00D-06 EigMax=2.50D+02 EigMin=1.00D-04
 Number of steps in this run=    380 maximum allowed number of steps=    390.
 GradGradGradGradGradGradGradGradGradGradGradGradGradGradGradGradGradGrad

 Leave Link  103 at Tue Feb 23 00:11:09 2021, MaxMem=   104857600 cpu:               0.5 elap:               0.0
 (Enter /sw/arch/RedHatEnterpriseServer7/EB_production/2019/software/Gaussian/g16.c01/l202.exe)
 Stoichiometry    C20H44N(1+)
 Framework group  C1[X(C20H44N)]
 Deg. of freedom   189
 Full point group                 C1      NOp   1
 Largest Abelian subgroup         C1      NOp   1
 Largest concise Abelian subgroup C1      NOp   1
                         Standard orientation:                         
 ---------------------------------------------------------------------
 Center     Atomic      Atomic             Coordinates (Angstroms)
 Number     Number       Type             X           Y           Z
 ---------------------------------------------------------------------
      1          6           0       -6.386536   -0.046499   -1.620372
      2          6           0       -5.221637   -0.035889   -0.604625
      3          6           0       -3.829819   -0.044721   -1.295029
      4          6           0       -2.651837    0.008527   -0.282234
      5          6           0       -1.242503    0.007442   -0.957665
      6          7           0        0.000001    0.030590    0.013658
      7          6           0        1.242508    0.007466   -0.957666
      8          6           0        2.651833    0.008584   -0.282238
      9          6           0        3.829815   -0.044642   -1.295030
     10          6           0        5.221642   -0.035785   -0.604620
     11          6           0        6.386546   -0.046367   -1.620372
     12          6           0       -0.000016    1.269424    0.904721
     13          6           0       -0.000027    2.677667    0.233193
     14          6           0       -0.000041    3.837310    1.266588
     15          6           0       -0.000061    5.239008    0.601376
     16          6           0       -0.000061    6.379792    1.643223
     17          6           0        0.000006   -1.213557    0.988220
     18          6           0        0.000030   -2.618875    0.307437
     19          6           0        0.000034   -3.800335    1.317421
     20          6           0        0.000054   -5.187731    0.619652
     21          6           0        0.000066   -6.359008    1.629168
     22          1           0       -6.342761    0.837558   -2.259186
     23          1           0       -6.336509   -0.941066   -2.245265
     24          1           0       -7.340783   -0.044955   -1.089826
     25          1           0       -5.312251    0.856743    0.020112
     26          1           0       -5.309842   -0.913583    0.042137
     27          1           0       -3.761132    0.816609   -1.965165
     28          1           0       -3.740372   -0.952695   -1.897930
     29          1           0       -2.739374   -0.855601    0.377594
     30          1           0       -2.766685    0.915168    0.314461
     31          1           0       -1.267350    0.867028   -1.674996
     32          1           0       -1.259970   -0.872801   -1.648484
     33          1           0        1.267334    0.867059   -1.674990
     34          1           0        1.259989   -0.872778   -1.648483
     35          1           0        2.766676    0.915222    0.314458
     36          1           0        2.739390   -0.855545    0.377592
     37          1           0        3.761126    0.816685   -1.965167
     38          1           0        3.740391   -0.952615   -1.897926
     39          1           0        5.312234    0.856851    0.020116
     40          1           0        5.309871   -0.913475    0.042141
     41          1           0        7.340782   -0.044811   -1.089819
     42          1           0        6.336537   -0.940937   -2.245259
     43          1           0        6.342749    0.837689   -2.259181
     44          1           0        0.865622    1.237517    1.573111
     45          1           0       -0.865659    1.237501    1.573107
     46          1           0        0.885684    2.783144   -0.394978
     47          1           0       -0.885737    2.783123   -0.394983
     48          1           0        0.884389    3.746428    1.901799
     49          1           0       -0.884469    3.746405    1.901800
     50          1           0       -0.884743    5.340706   -0.031706
     51          1           0        0.884633    5.340733   -0.031708
     52          1           0       -0.000076    7.346131    1.138222
     53          1           0        0.888299    6.317358    2.274439
     54          1           0       -0.888426    6.317348    2.274434
     55          1           0       -0.870269   -1.233843    1.689776
     56          1           0        0.870292   -1.233816    1.689773
     57          1           0       -0.885911   -2.720505   -0.320879
     58          1           0        0.885964   -2.720483   -0.320879
     59          1           0       -0.886088   -3.724088    1.954015
     60          1           0        0.886162   -3.724074    1.954017
     61          1           0        0.886000   -5.274728   -0.016442
     62          1           0       -0.885895   -5.274742   -0.016448
     63          1           0        0.000075   -7.309885    1.091387
     64          1           0       -0.890024   -6.315493    2.261356
     65          1           0        0.890150   -6.315477    2.261353
 ---------------------------------------------------------------------
 Rotational constants (GHZ):           0.1660027           0.1653474           0.0943273
 Leave Link  202 at Tue Feb 23 00:11:09 2021, MaxMem=   104857600 cpu:               0.9 elap:               0.1
 (Enter /sw/arch/RedHatEnterpriseServer7/EB_production/2019/software/Gaussian/g16.c01/l301.exe)
 Standard basis: TZVP (5D, 7F)
 Ernie: Thresh=  0.10000D-02 Tol=  0.10000D-05 Strict=F.
 There are   684 symmetry adapted cartesian basis functions of A   symmetry.
 There are   663 symmetry adapted basis functions of A   symmetry.
   663 basis functions,  1087 primitive gaussians,   684 cartesian basis functions
    85 alpha electrons       85 beta electrons
       nuclear repulsion energy      1770.8208186724 Hartrees.
 IExCor=  404 DFT=T Ex=B Corr=P86 ExCW=0 ScaHFX=  0.000000
 ScaDFX=  1.000000  1.000000  1.000000  1.000000 ScalE2=  1.000000  1.000000
 IRadAn=      5 IRanWt=     -1 IRanGd=            0 ICorTp=0 IEmpDi=131
 NAtoms=   65 NActive=   65 NUniq=   65 SFac= 1.00D+00 NAtFMM=   60 NAOKFM=T Big=T
 Integral buffers will be    131072 words long.
 Raffenetti 2 integral format.
 Two-electron integral symmetry is turned on.
 R6Disp:  Grimme-D3 Dispersion energy=       -0.0747199921 Hartrees.
 Nuclear repulsion after empirical dispersion term =     1770.7460986803 Hartrees.
 ------------------------------------------------------------------------------
 Polarizable Continuum Model (PCM)
 =================================
 Model                : PCM.
 Atomic radii         : UFF (Universal Force Field).
 Polarization charges : Total charges.
 Charge compensation  : None.
 Solution method      : On-the-fly selection.
 Cavity type          : Scaled VdW (van der Waals Surface) (Alpha=1.100).
 Cavity algorithm     : GePol (No added spheres)
                        Default sphere list used, NSphG=   65.
                        Lebedev-Laikov grids with approx.  5.0 points / Ang**2.
                        Smoothing algorithm: York/Karplus (Gamma=1.0000).
                        Polarization charges: spherical gaussians, with
                                              point-specific exponents (IZeta= 3).
                        Self-potential: point-specific (ISelfS= 7).
                        Self-field    : sphere-specific E.n sum rule (ISelfD= 2).
 1st derivatives      : Analytical E(r).r(x)/FMM algorithm (CHGder, D1EAlg=3).
                        Cavity 1st derivative terms included.
 Solvent              : Water, Eps=  78.355300 Eps(inf)=   1.777849
 ------------------------------------------------------------------------------
 GePol: Number of generator spheres                  =      65
 GePol: Total number of spheres                      =      65
 GePol: Number of exposed spheres                    =      64 ( 98.46%)
 GePol: Number of points                             =    4101
 GePol: Average weight of points                     =       0.13
 GePol: Minimum weight of points                     =   0.64D-09
 GePol: Maximum weight of points                     =    0.20577
 GePol: Number of points with low weight             =     305
 GePol: Fraction of low-weight points (<1% of avg)   =       7.44%
 GePol: Cavity surface area                          =    524.725 Ang**2
 GePol: Cavity volume                                =    563.444 Ang**3
 Leave Link  301 at Tue Feb 23 00:11:10 2021, MaxMem=   104857600 cpu:               4.4 elap:               0.2
 (Enter /sw/arch/RedHatEnterpriseServer7/EB_production/2019/software/Gaussian/g16.c01/l302.exe)
 NPDir=0 NMtPBC=     1 NCelOv=     1 NCel=       1 NClECP=     1 NCelD=      1
         NCelK=      1 NCelE2=     1 NClLst=     1 CellRange=     0.0.
 One-electron integrals computed using PRISM.
 One-electron integral symmetry used in STVInt
 PrsmSu:  requested number of processors reduced to:  21 ShMem   1 Linda.
 NBasis=   663 RedAO= T EigKep=  6.55D-05  NBF=   663
 NBsUse=   663 1.00D-06 EigRej= -1.00D+00 NBFU=   663
 Precomputing XC quadrature grid using
 IXCGrd= 4 IRadAn=           5 IRanWt=          -1 IRanGd=           0 AccXCQ= 0.00D+00.
 Generated NRdTot=       0 NPtTot=           0 NUsed=           0 NTot=          32
 NSgBfM=   645   645   645   645   645 MxSgAt=    65 MxSgA2=    65.
 Leave Link  302 at Tue Feb 23 00:11:11 2021, MaxMem=   104857600 cpu:              29.6 elap:               1.0
 (Enter /sw/arch/RedHatEnterpriseServer7/EB_production/2019/software/Gaussian/g16.c01/l303.exe)
 DipDrv:  MaxL=1.
 Leave Link  303 at Tue Feb 23 00:11:12 2021, MaxMem=   104857600 cpu:               5.0 elap:               0.2
 (Enter /sw/arch/RedHatEnterpriseServer7/EB_production/2019/software/Gaussian/g16.c01/l401.exe)
 ExpMin= 9.52D-02 ExpMax= 1.97D+04 ExpMxC= 6.73D+02 IAcc=3 IRadAn=         5 AccDes= 0.00D+00
 Harris functional with IExCor=  404 and IRadAn=       5 diagonalized for initial guess.
 HarFok:  IExCor=  404 AccDes= 0.00D+00 IRadAn=         5 IDoV= 1 UseB2=F ITyADJ=14
 ICtDFT=  3500011 ScaDFX=  1.000000  1.000000  1.000000  1.000000
 FoFCou: FMM=F IPFlag=           0 FMFlag=      100000 FMFlg1=        2001
         NFxFlg=           0 DoJE=T BraDBF=F KetDBF=T FulRan=T
         wScrn=  0.000000 ICntrl=       500 IOpCl=  0 I1Cent=   200000004 NGrid=           0
         NMat0=    1 NMatS0=      1 NMatT0=    0 NMatD0=    1 NMtDS0=    0 NMtDT0=    0
 Petite list used in FoFCou.
 Harris En= -844.114212776630    
 JPrj=0 DoOrth=F DoCkMO=F.
 Leave Link  401 at Tue Feb 23 00:11:14 2021, MaxMem=   104857600 cpu:              63.3 elap:               2.0
 (Enter /sw/arch/RedHatEnterpriseServer7/EB_production/2019/software/Gaussian/g16.c01/l502.exe)
 Integral symmetry usage will be decided dynamically.
 Closed shell SCF:
 Using DIIS extrapolation, IDIIS=  1040.
 NGot=   104857600 LenX=   103891192 LenY=   103422652
 Requested convergence on RMS density matrix=1.00D-08 within 128 cycles.
 Requested convergence on MAX density matrix=1.00D-06.
 Requested convergence on             energy=1.00D-06.
 No special actions if energy rises.
 Fock matrices will be formed incrementally for  20 cycles.

 Cycle   1  Pass 1  IDiag  1:
 FoFJK:  IHMeth= 1 ICntrl=     500 DoSepK=F KAlg= 0 I1Cent=           0 FoldK=F
 IRaf= 810000000 NMat=       1 IRICut=       1 DoRegI=T DoRafI=F ISym2E= 0 IDoP0=0 IntGTp=1.
 FoFCou: FMM=T IPFlag=           0 FMFlag=      100000 FMFlg1=        2001
         NFxFlg=           0 DoJE=T BraDBF=F KetDBF=F FulRan=T
         wScrn=  0.000000 ICntrl=       500 IOpCl=  0 I1Cent=           0 NGrid=           0
         NMat0=    1 NMatS0=      1 NMatT0=    0 NMatD0=    1 NMtDS0=    0 NMtDT0=    0
 Symmetry not used in FoFCou.
 FMM levels:  10  Number of levels for PrismC:   9
 CoulSu:  requested number of processors reduced to:  25 ShMem   1 Linda.
 Inv3:  Mode=1 IEnd=    50454603.
 Iteration    1 A*A^-1 deviation from unit magnitude is 3.33D-15 for   1149.
 Iteration    1 A*A^-1 deviation from orthogonality  is 3.55D-15 for   4028   1546.
 Iteration    1 A^-1*A deviation from unit magnitude is 3.44D-15 for   1742.
 Iteration    1 A^-1*A deviation from orthogonality  is 2.44D-15 for   3393    962.
 CoulSu:  requested number of processors reduced to:  25 ShMem   1 Linda.
 CoulSu:  requested number of processors reduced to:  25 ShMem   1 Linda.
 E= -842.761654879299    
 DIIS: error= 4.28D-02 at cycle   1 NSaved=   1.
 NSaved= 1 IEnMin= 1 EnMin= -842.761654879299     IErMin= 1 ErrMin= 4.28D-02
 ErrMax= 4.28D-02  0.00D+00 EMaxC= 1.00D-01 BMatC= 7.29D-01 BMatP= 7.29D-01
 IDIUse=3 WtCom= 5.72D-01 WtEn= 4.28D-01
 Coeff-Com:  0.100D+01
 Coeff-En:   0.100D+01
 Coeff:      0.100D+01
 Gap=     0.277 Goal=   None    Shift=    0.000
 GapD=    0.277 DampG=1.000 DampE=0.500 DampFc=0.5000 IDamp=-1.
 Damping current iteration by 5.00D-01
 RMSDP=3.42D-03 MaxDP=2.62D-01              OVMax= 2.37D-01

 Cycle   2  Pass 1  IDiag  1:
 RMSU=  1.70D-03    CP:  9.78D-01
 E= -842.912108011920     Delta-E=       -0.150453132620 Rises=F Damp=T
 DIIS: error= 2.65D-02 at cycle   2 NSaved=   2.
 NSaved= 2 IEnMin= 2 EnMin= -842.912108011920     IErMin= 2 ErrMin= 2.65D-02
 ErrMax= 2.65D-02  0.00D+00 EMaxC= 1.00D-01 BMatC= 1.31D-01 BMatP= 7.29D-01
 IDIUse=3 WtCom= 7.35D-01 WtEn= 2.65D-01
 Coeff-Com:  0.261D+00 0.739D+00
 Coeff-En:   0.407D+00 0.593D+00
 Coeff:      0.299D+00 0.701D+00
 Gap=     0.300 Goal=   None    Shift=    0.000
 RMSDP=1.03D-03 MaxDP=9.14D-02 DE=-1.50D-01 OVMax= 2.07D-01

 Cycle   3  Pass 1  IDiag  1:
 RMSU=  6.24D-04    CP:  9.75D-01  5.21D-01
 E= -843.461984474485     Delta-E=       -0.549876462565 Rises=F Damp=F
 DIIS: error= 1.67D-02 at cycle   3 NSaved=   3.
 NSaved= 3 IEnMin= 3 EnMin= -843.461984474485     IErMin= 3 ErrMin= 1.67D-02
 ErrMax= 1.67D-02  0.00D+00 EMaxC= 1.00D-01 BMatC= 6.46D-02 BMatP= 1.31D-01
 IDIUse=3 WtCom= 8.33D-01 WtEn= 1.67D-01
 Coeff-Com:  0.137D+00 0.413D+00 0.450D+00
 Coeff-En:   0.000D+00 0.000D+00 0.100D+01
 Coeff:      0.114D+00 0.344D+00 0.542D+00
 Gap=     0.290 Goal=   None    Shift=    0.000
 RMSDP=6.33D-04 MaxDP=5.14D-02 DE=-5.50D-01 OVMax= 6.04D-02

 Cycle   4  Pass 1  IDiag  1:
 RMSU=  4.47D-04    CP:  9.91D-01  6.47D-01  3.93D-01
 E= -843.499524253900     Delta-E=       -0.037539779415 Rises=F Damp=F
 DIIS: error= 1.19D-02 at cycle   4 NSaved=   4.
 NSaved= 4 IEnMin= 4 EnMin= -843.499524253900     IErMin= 4 ErrMin= 1.19D-02
 ErrMax= 1.19D-02  0.00D+00 EMaxC= 1.00D-01 BMatC= 2.50D-02 BMatP= 6.46D-02
 IDIUse=3 WtCom= 8.81D-01 WtEn= 1.19D-01
 Coeff-Com:  0.290D-01 0.582D-01 0.375D+00 0.538D+00
 Coeff-En:   0.000D+00 0.000D+00 0.317D+00 0.683D+00
 Coeff:      0.255D-01 0.512D-01 0.368D+00 0.555D+00
 Gap=     0.281 Goal=   None    Shift=    0.000
 RMSDP=2.87D-04 MaxDP=2.73D-02 DE=-3.75D-02 OVMax= 2.66D-02

 Cycle   5  Pass 1  IDiag  1:
 RMSU=  9.26D-05    CP:  9.84D-01  5.83D-01  6.16D-01  5.51D-01
 E= -843.521724790733     Delta-E=       -0.022200536833 Rises=F Damp=F
 DIIS: error= 1.34D-03 at cycle   5 NSaved=   5.
 NSaved= 5 IEnMin= 5 EnMin= -843.521724790733     IErMin= 5 ErrMin= 1.34D-03
 ErrMax= 1.34D-03  0.00D+00 EMaxC= 1.00D-01 BMatC= 4.63D-04 BMatP= 2.50D-02
 IDIUse=3 WtCom= 9.87D-01 WtEn= 1.34D-02
 Coeff-Com:  0.810D-02 0.141D-01 0.153D+00 0.270D+00 0.555D+00
 Coeff-En:   0.000D+00 0.000D+00 0.000D+00 0.000D+00 0.100D+01
 Coeff:      0.799D-02 0.139D-01 0.151D+00 0.266D+00 0.561D+00
 Gap=     0.275 Goal=   None    Shift=    0.000
 RMSDP=3.45D-05 MaxDP=2.08D-03 DE=-2.22D-02 OVMax= 3.92D-03

 Cycle   6  Pass 1  IDiag  1:
 RMSU=  2.59D-05    CP:  9.84D-01  5.80D-01  6.21D-01  5.60D-01  7.69D-01
 E= -843.522050134225     Delta-E=       -0.000325343492 Rises=F Damp=F
 DIIS: error= 4.50D-04 at cycle   6 NSaved=   6.
 NSaved= 6 IEnMin= 6 EnMin= -843.522050134225     IErMin= 6 ErrMin= 4.50D-04
 ErrMax= 4.50D-04  0.00D+00 EMaxC= 1.00D-01 BMatC= 8.91D-05 BMatP= 4.63D-04
 IDIUse=3 WtCom= 9.96D-01 WtEn= 4.50D-03
 Coeff-Com:  0.128D-02-0.310D-04 0.449D-01 0.967D-01 0.357D+00 0.501D+00
 Coeff-En:   0.000D+00 0.000D+00 0.000D+00 0.000D+00 0.160D+00 0.840D+00
 Coeff:      0.127D-02-0.309D-04 0.447D-01 0.963D-01 0.356D+00 0.502D+00
 Gap=     0.275 Goal=   None    Shift=    0.000
 RMSDP=1.74D-05 MaxDP=1.52D-03 DE=-3.25D-04 OVMax= 9.98D-04

 Cycle   7  Pass 1  IDiag  1:
 RMSU=  8.66D-06    CP:  9.84D-01  5.85D-01  6.15D-01  5.78D-01  7.69D-01
                    CP:  6.75D-01
 E= -843.522133764548     Delta-E=       -0.000083630322 Rises=F Damp=F
 DIIS: error= 2.63D-05 at cycle   7 NSaved=   7.
 NSaved= 7 IEnMin= 7 EnMin= -843.522133764548     IErMin= 7 ErrMin= 2.63D-05
 ErrMax= 2.63D-05  0.00D+00 EMaxC= 1.00D-01 BMatC= 5.81D-07 BMatP= 8.91D-05
 IDIUse=1 WtCom= 1.00D+00 WtEn= 0.00D+00
 Coeff-Com:  0.342D-03-0.382D-03 0.811D-02 0.184D-01 0.830D-01 0.143D+00
 Coeff-Com:  0.747D+00
 Coeff:      0.342D-03-0.382D-03 0.811D-02 0.184D-01 0.830D-01 0.143D+00
 Coeff:      0.747D+00
 Gap=     0.275 Goal=   None    Shift=    0.000
 RMSDP=2.57D-06 MaxDP=2.24D-04 DE=-8.36D-05 OVMax= 1.14D-04

 Cycle   8  Pass 1  IDiag  1:
 RMSU=  1.50D-06    CP:  9.84D-01  5.84D-01  6.15D-01  5.76D-01  7.76D-01
                    CP:  6.77D-01  8.71D-01
 E= -843.522134120401     Delta-E=       -0.000000355853 Rises=F Damp=F
 DIIS: error= 1.52D-05 at cycle   8 NSaved=   8.
 NSaved= 8 IEnMin= 8 EnMin= -843.522134120401     IErMin= 8 ErrMin= 1.52D-05
 ErrMax= 1.52D-05  0.00D+00 EMaxC= 1.00D-01 BMatC= 2.01D-07 BMatP= 5.81D-07
 IDIUse=1 WtCom= 1.00D+00 WtEn= 0.00D+00
 Coeff-Com:  0.129D-03-0.243D-03 0.155D-02 0.370D-02 0.223D-01 0.460D-01
 Coeff-Com:  0.428D+00 0.499D+00
 Coeff:      0.129D-03-0.243D-03 0.155D-02 0.370D-02 0.223D-01 0.460D-01
 Coeff:      0.428D+00 0.499D+00
 Gap=     0.275 Goal=   None    Shift=    0.000
 RMSDP=6.88D-07 MaxDP=2.94D-05 DE=-3.56D-07 OVMax= 5.77D-05

 Cycle   9  Pass 1  IDiag  1:
 RMSU=  4.74D-07    CP:  9.84D-01  5.84D-01  6.15D-01  5.76D-01  7.77D-01
                    CP:  6.79D-01  8.65D-01  6.87D-01
 E= -843.522134278453     Delta-E=       -0.000000158052 Rises=F Damp=F
 DIIS: error= 3.59D-06 at cycle   9 NSaved=   9.
 NSaved= 9 IEnMin= 9 EnMin= -843.522134278453     IErMin= 9 ErrMin= 3.59D-06
 ErrMax= 3.59D-06  0.00D+00 EMaxC= 1.00D-01 BMatC= 9.76D-09 BMatP= 2.01D-07
 IDIUse=1 WtCom= 1.00D+00 WtEn= 0.00D+00
 Coeff-Com:  0.442D-04-0.878D-04 0.145D-03 0.352D-03 0.411D-02 0.103D-01
 Coeff-Com:  0.145D+00 0.247D+00 0.593D+00
 Coeff:      0.442D-04-0.878D-04 0.145D-03 0.352D-03 0.411D-02 0.103D-01
 Coeff:      0.145D+00 0.247D+00 0.593D+00
 Gap=     0.275 Goal=   None    Shift=    0.000
 RMSDP=2.16D-07 MaxDP=9.46D-06 DE=-1.58D-07 OVMax= 1.32D-05

 Cycle  10  Pass 1  IDiag  1:
 RMSU=  9.97D-08    CP:  9.84D-01  5.84D-01  6.15D-01  5.76D-01  7.76D-01
                    CP:  6.80D-01  8.76D-01  6.60D-01  6.82D-01
 E= -843.522134269032     Delta-E=        0.000000009421 Rises=F Damp=F
 DIIS: error= 3.34D-07 at cycle  10 NSaved=  10.
 NSaved=10 IEnMin= 9 EnMin= -843.522134278453     IErMin=10 ErrMin= 3.34D-07
 ErrMax= 3.34D-07  0.00D+00 EMaxC= 1.00D-01 BMatC= 9.82D-11 BMatP= 9.76D-09
 IDIUse=1 WtCom= 1.00D+00 WtEn= 0.00D+00
 Coeff-Com:  0.111D-04-0.201D-04 0.292D-04 0.444D-04 0.719D-03 0.179D-02
 Coeff-Com:  0.293D-01 0.553D-01 0.165D+00 0.748D+00
 Coeff:      0.111D-04-0.201D-04 0.292D-04 0.444D-04 0.719D-03 0.179D-02
 Coeff:      0.293D-01 0.553D-01 0.165D+00 0.748D+00
 Gap=     0.275 Goal=   None    Shift=    0.000
 RMSDP=2.53D-08 MaxDP=1.52D-06 DE= 9.42D-09 OVMax= 1.58D-06

 Cycle  11  Pass 1  IDiag  1:
 RMSU=  1.69D-08    CP:  9.84D-01  5.84D-01  6.15D-01  5.76D-01  7.76D-01
                    CP:  6.80D-01  8.77D-01  6.65D-01  6.99D-01  9.04D-01
 E= -843.522134270170     Delta-E=       -0.000000001138 Rises=F Damp=F
 DIIS: error= 1.81D-07 at cycle  11 NSaved=  11.
 NSaved=11 IEnMin= 9 EnMin= -843.522134278453     IErMin=11 ErrMin= 1.81D-07
 ErrMax= 1.81D-07  0.00D+00 EMaxC= 1.00D-01 BMatC= 3.92D-11 BMatP= 9.82D-11
 IDIUse=1 WtCom= 1.00D+00 WtEn= 0.00D+00
 Coeff-Com:  0.396D-05-0.676D-05 0.102D-04 0.606D-05 0.174D-03 0.415D-03
 Coeff-Com:  0.820D-02 0.172D-01 0.611D-01 0.451D+00 0.462D+00
 Coeff:      0.396D-05-0.676D-05 0.102D-04 0.606D-05 0.174D-03 0.415D-03
 Coeff:      0.820D-02 0.172D-01 0.611D-01 0.451D+00 0.462D+00
 Gap=     0.275 Goal=   None    Shift=    0.000
 RMSDP=9.18D-09 MaxDP=3.71D-07 DE=-1.14D-09 OVMax= 7.18D-07

 Error on total polarization charges =  0.02326
 SCF Done:  E(RB-P86) =  -843.522134270     A.U. after   11 cycles
            NFock= 11  Conv=0.92D-08     -V/T= 2.0064
 KE= 8.381639044287D+02 PE=-5.470588960508D+03 EE= 2.018156823129D+03
 Leave Link  502 at Tue Feb 23 00:12:42 2021, MaxMem=   104857600 cpu:            2728.9 elap:              87.6
 (Enter /sw/arch/RedHatEnterpriseServer7/EB_production/2019/software/Gaussian/g16.c01/l601.exe)
 Copying SCF densities to generalized density rwf, IOpCl= 0 IROHF=0.

 **********************************************************************

            Population analysis using the SCF Density.

 **********************************************************************

 Orbital symmetries:
       Occupied  (A) (A) (A) (A) (A) (A) (A) (A) (A) (A) (A) (A)
                 (A) (A) (A) (A) (A) (A) (A) (A) (A) (A) (A) (A)
                 (A) (A) (A) (A) (A) (A) (A) (A) (A) (A) (A) (A)
                 (A) (A) (A) (A) (A) (A) (A) (A) (A) (A) (A) (A)
                 (A) (A) (A) (A) (A) (A) (A) (A) (A) (A) (A) (A)
                 (A) (A) (A) (A) (A) (A) (A) (A) (A) (A) (A) (A)
                 (A) (A) (A) (A) (A) (A) (A) (A) (A) (A) (A) (A)
                 (A)
       Virtual   (A) (A) (A) (A) (A) (A) (A) (A) (A) (A) (A) (A)
                 (A) (A) (A) (A) (A) (A) (A) (A) (A) (A) (A) (A)
                 (A) (A) (A) (A) (A) (A) (A) (A) (A) (A) (A) (A)
                 (A) (A) (A) (A) (A) (A) (A) (A) (A) (A) (A) (A)
                 (A) (A) (A) (A) (A) (A) (A) (A) (A) (A) (A) (A)
                 (A) (A) (A) (A) (A) (A) (A) (A) (A) (A) (A) (A)
                 (A) (A) (A) (A) (A) (A) (A) (A) (A) (A) (A) (A)
                 (A) (A) (A) (A) (A) (A) (A) (A) (A) (A) (A) (A)
                 (A) (A) (A) (A) (A) (A) (A) (A) (A) (A) (A) (A)
                 (A) (A) (A) (A) (A) (A) (A) (A) (A) (A) (A) (A)
                 (A) (A) (A) (A) (A) (A) (A) (A) (A) (A) (A) (A)
                 (A) (A) (A) (A) (A) (A) (A) (A) (A) (A) (A) (A)
                 (A) (A) (A) (A) (A) (A) (A) (A) (A) (A) (A) (A)
                 (A) (A) (A) (A) (A) (A) (A) (A) (A) (A) (A) (A)
                 (A) (A) (A) (A) (A) (A) (A) (A) (A) (A) (A) (A)
                 (A) (A) (A) (A) (A) (A) (A) (A) (A) (A) (A) (A)
                 (A) (A) (A) (A) (A) (A) (A) (A) (A) (A) (A) (A)
                 (A) (A) (A) (A) (A) (A) (A) (A) (A) (A) (A) (A)
                 (A) (A) (A) (A) (A) (A) (A) (A) (A) (A) (A) (A)
                 (A) (A) (A) (A) (A) (A) (A) (A) (A) (A) (A) (A)
                 (A) (A) (A) (A) (A) (A) (A) (A) (A) (A) (A) (A)
                 (A) (A) (A) (A) (A) (A) (A) (A) (A) (A) (A) (A)
                 (A) (A) (A) (A) (A) (A) (A) (A) (A) (A) (A) (A)
                 (A) (A) (A) (A) (A) (A) (A) (A) (A) (A) (A) (A)
                 (A) (A) (A) (A) (A) (A) (A) (A) (A) (A) (A) (A)
                 (A) (A) (A) (A) (A) (A) (A) (A) (A) (A) (A) (A)
                 (A) (A) (A) (A) (A) (A) (A) (A) (A) (A) (A) (A)
                 (A) (A) (A) (A) (A) (A) (A) (A) (A) (A) (A) (A)
                 (A) (A) (A) (A) (A) (A) (A) (A) (A) (A) (A) (A)
                 (A) (A) (A) (A) (A) (A) (A) (A) (A) (A) (A) (A)
                 (A) (A) (A) (A) (A) (A) (A) (A) (A) (A) (A) (A)
                 (A) (A) (A) (A) (A) (A) (A) (A) (A) (A) (A) (A)
                 (A) (A) (A) (A) (A) (A) (A) (A) (A) (A) (A) (A)
                 (A) (A) (A) (A) (A) (A) (A) (A) (A) (A) (A) (A)
                 (A) (A) (A) (A) (A) (A) (A) (A) (A) (A) (A) (A)
                 (A) (A) (A) (A) (A) (A) (A) (A) (A) (A) (A) (A)
                 (A) (A) (A) (A) (A) (A) (A) (A) (A) (A) (A) (A)
                 (A) (A) (A) (A) (A) (A) (A) (A) (A) (A) (A) (A)
                 (A) (A) (A) (A) (A) (A) (A) (A) (A) (A) (A) (A)
                 (A) (A) (A) (A) (A) (A) (A) (A) (A) (A) (A) (A)
                 (A) (A) (A) (A) (A) (A) (A) (A) (A) (A) (A) (A)
                 (A) (A) (A) (A) (A) (A) (A) (A) (A) (A) (A) (A)
                 (A) (A) (A) (A) (A) (A) (A) (A) (A) (A) (A) (A)
                 (A) (A) (A) (A) (A) (A) (A) (A) (A) (A) (A) (A)
                 (A) (A) (A) (A) (A) (A) (A) (A) (A) (A) (A) (A)
                 (A) (A) (A) (A) (A) (A) (A) (A) (A) (A) (A) (A)
                 (A) (A) (A) (A) (A) (A) (A) (A) (A) (A) (A) (A)
                 (A) (A) (A) (A) (A) (A) (A) (A) (A) (A) (A) (A)
                 (A) (A)
 The electronic state is 1-A.
 Alpha  occ. eigenvalues --  -14.16029  -9.97447  -9.97297  -9.97297  -9.96595
 Alpha  occ. eigenvalues --   -9.91664  -9.91648  -9.91609  -9.91609  -9.90509
 Alpha  occ. eigenvalues --   -9.90490  -9.90490  -9.90423  -9.89823  -9.89801
 Alpha  occ. eigenvalues --   -9.89801  -9.89744  -9.88589  -9.88562  -9.88562
 Alpha  occ. eigenvalues --   -9.88518  -0.92598  -0.74890  -0.74737  -0.74346
 Alpha  occ. eigenvalues --   -0.73526  -0.70305  -0.70103  -0.70097  -0.68071
 Alpha  occ. eigenvalues --   -0.64848  -0.63242  -0.63051  -0.60043  -0.57902
 Alpha  occ. eigenvalues --   -0.55541  -0.55331  -0.53815  -0.53150  -0.53149
 Alpha  occ. eigenvalues --   -0.52935  -0.52915  -0.49076  -0.48823  -0.45954
 Alpha  occ. eigenvalues --   -0.45698  -0.43795  -0.43756  -0.43625  -0.41116
 Alpha  occ. eigenvalues --   -0.39829  -0.39814  -0.39220  -0.39085  -0.39038
 Alpha  occ. eigenvalues --   -0.38591  -0.38137  -0.38116  -0.36978  -0.36817
 Alpha  occ. eigenvalues --   -0.36660  -0.35327  -0.35200  -0.35143  -0.34982
 Alpha  occ. eigenvalues --   -0.33863  -0.32783  -0.32652  -0.32379  -0.31838
 Alpha  occ. eigenvalues --   -0.31784  -0.31701  -0.30830  -0.30821  -0.30637
 Alpha  occ. eigenvalues --   -0.30046  -0.30030  -0.29885  -0.29667  -0.29563
 Alpha  occ. eigenvalues --   -0.29553  -0.29526  -0.29469  -0.29255  -0.29153
 Alpha virt. eigenvalues --   -0.01665   0.00108   0.01131   0.01458   0.01751
 Alpha virt. eigenvalues --    0.02065   0.02456   0.02763   0.02980   0.03525
 Alpha virt. eigenvalues --    0.03562   0.03594   0.04688   0.05506   0.06144
 Alpha virt. eigenvalues --    0.06471   0.06596   0.07165   0.07408   0.07414
 Alpha virt. eigenvalues --    0.07882   0.08009   0.08162   0.08185   0.08569
 Alpha virt. eigenvalues --    0.09291   0.09478   0.09674   0.09696   0.09941
 Alpha virt. eigenvalues --    0.10120   0.10209   0.10303   0.10830   0.10839
 Alpha virt. eigenvalues --    0.11154   0.11234   0.11273   0.11492   0.11505
 Alpha virt. eigenvalues --    0.11724   0.13220   0.13242   0.13301   0.13700
 Alpha virt. eigenvalues --    0.14020   0.14055   0.14116   0.14353   0.14363
 Alpha virt. eigenvalues --    0.14965   0.15012   0.15155   0.15647   0.15944
 Alpha virt. eigenvalues --    0.16499   0.16648   0.16789   0.17424   0.17807
 Alpha virt. eigenvalues --    0.17860   0.18263   0.19228   0.19335   0.20276
 Alpha virt. eigenvalues --    0.20947   0.20954   0.21828   0.21897   0.21925
 Alpha virt. eigenvalues --    0.22292   0.22525   0.22624   0.24535   0.24636
 Alpha virt. eigenvalues --    0.24681   0.25142   0.25981   0.26584   0.26640
 Alpha virt. eigenvalues --    0.26658   0.26828   0.26909   0.27070   0.27128
 Alpha virt. eigenvalues --    0.27928   0.28243   0.30007   0.30061   0.30616
 Alpha virt. eigenvalues --    0.30660   0.31272   0.31994   0.32069   0.33448
 Alpha virt. eigenvalues --    0.33757   0.33770   0.34005   0.34904   0.35590
 Alpha virt. eigenvalues --    0.35954   0.37085   0.37085   0.37103   0.37170
 Alpha virt. eigenvalues --    0.37663   0.38167   0.38213   0.38216   0.38936
 Alpha virt. eigenvalues --    0.39299   0.39333   0.39851   0.40250   0.40757
 Alpha virt. eigenvalues --    0.40788   0.40810   0.40963   0.41346   0.41629
 Alpha virt. eigenvalues --    0.41976   0.41987   0.42444   0.42524   0.42552
 Alpha virt. eigenvalues --    0.42645   0.42823   0.43110   0.43119   0.43267
 Alpha virt. eigenvalues --    0.43873   0.44027   0.45181   0.45297   0.45340
 Alpha virt. eigenvalues --    0.45855   0.46166   0.46242   0.46244   0.46288
 Alpha virt. eigenvalues --    0.46385   0.47382   0.47537   0.47573   0.47739
 Alpha virt. eigenvalues --    0.47817   0.48297   0.48633   0.48935   0.49144
 Alpha virt. eigenvalues --    0.49259   0.49455   0.49643   0.50253   0.50270
 Alpha virt. eigenvalues --    0.50431   0.52244   0.52257   0.53334   0.53650
 Alpha virt. eigenvalues --    0.53887   0.54013   0.55222   0.55431   0.55821
 Alpha virt. eigenvalues --    0.56122   0.57680   0.57755   0.58400   0.58480
 Alpha virt. eigenvalues --    0.59123   0.59235   0.60047   0.61088   0.62262
 Alpha virt. eigenvalues --    0.62392   0.63688   0.64090   0.66036   0.66138
 Alpha virt. eigenvalues --    0.66673   0.67611   0.67704   0.68028   0.68576
 Alpha virt. eigenvalues --    0.72051   0.73373   0.73591   0.80836   0.81196
 Alpha virt. eigenvalues --    0.84580   0.88187   1.02220   1.03864   1.03870
 Alpha virt. eigenvalues --    1.06481   1.06533   1.09000   1.10659   1.11115
 Alpha virt. eigenvalues --    1.13757   1.13918   1.13923   1.16159   1.16350
 Alpha virt. eigenvalues --    1.17014   1.18658   1.18725   1.19061   1.19182
 Alpha virt. eigenvalues --    1.19515   1.19565   1.19709   1.20229   1.20929
 Alpha virt. eigenvalues --    1.21067   1.21402   1.21474   1.22024   1.22025
 Alpha virt. eigenvalues --    1.22747   1.22971   1.23305   1.23600   1.23815
 Alpha virt. eigenvalues --    1.23836   1.24311   1.26432   1.26531   1.26802
 Alpha virt. eigenvalues --    1.28047   1.28111   1.28141   1.28401   1.29037
 Alpha virt. eigenvalues --    1.29087   1.29117   1.29952   1.30351   1.30424
 Alpha virt. eigenvalues --    1.30502   1.31005   1.31699   1.31938   1.32253
 Alpha virt. eigenvalues --    1.32348   1.32698   1.34713   1.35177   1.35520
 Alpha virt. eigenvalues --    1.35898   1.36180   1.36201   1.36635   1.36649
 Alpha virt. eigenvalues --    1.37877   1.37878   1.38731   1.39805   1.40050
 Alpha virt. eigenvalues --    1.40632   1.40765   1.41748   1.41872   1.42508
 Alpha virt. eigenvalues --    1.42655   1.43567   1.43575   1.44265   1.44499
 Alpha virt. eigenvalues --    1.44630   1.44768   1.45764   1.46309   1.46367
 Alpha virt. eigenvalues --    1.46468   1.48028   1.48327   1.48457   1.48500
 Alpha virt. eigenvalues --    1.49161   1.49412   1.49745   1.49971   1.51321
 Alpha virt. eigenvalues --    1.52010   1.54441   1.54595   1.54851   1.55122
 Alpha virt. eigenvalues --    1.56369   1.58327   1.58696   1.58785   1.58867
 Alpha virt. eigenvalues --    1.60126   1.60202   1.61231   1.61294   1.61815
 Alpha virt. eigenvalues --    1.62307   1.62387   1.64746   1.65327   1.65444
 Alpha virt. eigenvalues --    1.66722   1.66926   1.67013   1.67181   1.67601
 Alpha virt. eigenvalues --    1.68090   1.68293   1.68612   1.69451   1.69495
 Alpha virt. eigenvalues --    1.69799   1.70664   1.71588   1.71959   1.72003
 Alpha virt. eigenvalues --    1.72452   1.72462   1.72762   1.73021   1.73309
 Alpha virt. eigenvalues --    1.73365   1.73471   1.73575   1.73601   1.73749
 Alpha virt. eigenvalues --    1.73990   1.74022   1.75007   1.76013   1.76091
 Alpha virt. eigenvalues --    1.76159   1.76290   1.76562   1.76613   1.77089
 Alpha virt. eigenvalues --    1.78132   1.78206   1.78344   1.78521   1.78809
 Alpha virt. eigenvalues --    1.78905   1.79078   1.79312   1.79549   1.79856
 Alpha virt. eigenvalues --    1.80834   1.81132   1.81175   1.81765   1.81902
 Alpha virt. eigenvalues --    1.82086   1.82522   1.83084   1.83288   1.83595
 Alpha virt. eigenvalues --    1.84088   1.85344   1.85452   1.86115   1.87103
 Alpha virt. eigenvalues --    1.89259   1.89915   1.90373   1.92074   1.92946
 Alpha virt. eigenvalues --    1.94822   1.95366   1.96920   1.96947   1.97953
 Alpha virt. eigenvalues --    1.98189   1.99751   2.00137   2.04235   2.04252
 Alpha virt. eigenvalues --    2.04929   2.06477   2.08707   2.08772   2.08859
 Alpha virt. eigenvalues --    2.09004   2.12123   2.12756   2.13015   2.13028
 Alpha virt. eigenvalues --    2.13453   2.13486   2.13563   2.13608   2.15464
 Alpha virt. eigenvalues --    2.15564   2.15770   2.16643   2.17138   2.17301
[...]
                 (A) (A) (A) (A) (A) (A) (A) (A) (A) (A) (A) (A)
                 (A) (A) (A) (A) (A) (A) (A) (A) (A) (A) (A) (A)
                 (A) (A) (A) (A) (A) (A) (A) (A) (A) (A) (A) (A)
                 (A) (A) (A) (A) (A) (A) (A) (A) (A) (A) (A) (A)
                 (A) (A) (A) (A) (A) (A) (A) (A) (A) (A) (A) (A)
                 (A) (A) (A) (A) (A) (A) (A) (A) (A) (A) (A) (A)
                 (A) (A) (A) (A) (A) (A) (A) (A) (A) (A) (A) (A)
                 (A) (A) (A) (A) (A) (A) (A) (A) (A) (A) (A) (A)
                 (A) (A) (A) (A) (A) (A) (A) (A) (A) (A) (A) (A)
                 (A) (A) (A) (A) (A) (A) (A) (A) (A) (A) (A) (A)
                 (A) (A) (A) (A) (A) (A) (A) (A) (A) (A) (A) (A)
                 (A) (A) (A) (A) (A) (A) (A) (A) (A) (A) (A) (A)
                 (A) (A) (A) (A) (A) (A) (A) (A) (A) (A) (A) (A)
                 (A) (A) (A) (A) (A) (A) (A) (A) (A) (A) (A) (A)
                 (A) (A) (A) (A) (A) (A) (A) (A) (A) (A) (A) (A)
                 (A) (A) (A) (A) (A) (A) (A) (A) (A) (A) (A) (A)
                 (A) (A) (A) (A) (A) (A) (A) (A) (A) (A) (A) (A)
                 (A) (A) (A) (A) (A) (A) (A) (A) (A) (A) (A) (A)
                 (A) (A) (A) (A) (A) (A) (A) (A) (A) (A) (A) (A)
                 (A) (A) (A) (A) (A) (A) (A) (A) (A) (A) (A) (A)
                 (A) (A) (A) (A) (A) (A) (A) (A) (A) (A) (A) (A)
                 (A) (A) (A) (A) (A) (A) (A) (A) (A) (A) (A) (A)
                 (A) (A) (A) (A) (A) (A) (A) (A) (A) (A) (A) (A)
                 (A) (A) (A) (A) (A) (A) (A) (A) (A) (A) (A) (A)
                 (A) (A) (A) (A) (A) (A) (A) (A) (A) (A) (A) (A)
                 (A) (A) (A) (A) (A) (A) (A) (A) (A) (A) (A) (A)
                 (A) (A) (A) (A) (A) (A) (A) (A) (A) (A) (A) (A)
                 (A) (A) (A) (A) (A) (A) (A) (A) (A) (A) (A) (A)
                 (A) (A) (A) (A) (A) (A) (A) (A) (A) (A) (A) (A)
                 (A) (A) (A) (A) (A) (A) (A) (A) (A) (A) (A) (A)
                 (A) (A) (A) (A) (A) (A) (A) (A) (A) (A) (A) (A)
                 (A) (A) (A) (A) (A) (A) (A) (A) (A) (A) (A) (A)
                 (A) (A) (A) (A) (A) (A) (A) (A) (A) (A) (A) (A)
                 (A) (A)
 The electronic state is 1-A.
 Alpha  occ. eigenvalues --  -14.12497  -9.94752  -9.94746  -9.94743  -9.94733
 Alpha  occ. eigenvalues --   -9.90405  -9.90402  -9.90401  -9.90398  -9.89497
 Alpha  occ. eigenvalues --   -9.89496  -9.89495  -9.89495  -9.89089  -9.89088
 Alpha  occ. eigenvalues --   -9.89088  -9.89088  -9.88186  -9.88186  -9.88186
 Alpha  occ. eigenvalues --   -9.88186  -0.92600  -0.74483  -0.74479  -0.73846
 Alpha  occ. eigenvalues --   -0.73012  -0.69663  -0.69661  -0.69558  -0.67291
 Alpha  occ. eigenvalues --   -0.64392  -0.62366  -0.62364  -0.58815  -0.57307
 Alpha  occ. eigenvalues --   -0.54531  -0.54529  -0.52365  -0.52362  -0.52173
 Alpha  occ. eigenvalues --   -0.52090  -0.51856  -0.47789  -0.47788  -0.45461
 Alpha  occ. eigenvalues --   -0.43931  -0.42644  -0.42642  -0.42548  -0.40265
 Alpha  occ. eigenvalues --   -0.38866  -0.38699  -0.38694  -0.38556  -0.38181
 Alpha  occ. eigenvalues --   -0.37992  -0.37332  -0.37330  -0.36509  -0.36505
 Alpha  occ. eigenvalues --   -0.35780  -0.34117  -0.34000  -0.33996  -0.33989
 Alpha  occ. eigenvalues --   -0.33651  -0.32434  -0.32430  -0.31740  -0.30697
 Alpha  occ. eigenvalues --   -0.30554  -0.30552  -0.30273  -0.29796  -0.29576
 Alpha  occ. eigenvalues --   -0.29576  -0.29447  -0.29320  -0.29214  -0.28384
 Alpha  occ. eigenvalues --   -0.28383  -0.28328  -0.28327  -0.28286  -0.28171
 Alpha virt. eigenvalues --    0.00438   0.02330   0.02331   0.02492   0.02734
 Alpha virt. eigenvalues --    0.03629   0.03880   0.04207   0.04208   0.04307
 Alpha virt. eigenvalues --    0.04979   0.04985   0.06366   0.07091   0.07092
 Alpha virt. eigenvalues --    0.07300   0.07770   0.07861   0.08474   0.08546
 Alpha virt. eigenvalues --    0.08553   0.08761   0.08861   0.08867   0.09687
 Alpha virt. eigenvalues --    0.10492   0.10536   0.10659   0.10662   0.10735
 Alpha virt. eigenvalues --    0.10986   0.10988   0.11380   0.11426   0.11428
 Alpha virt. eigenvalues --    0.11743   0.11968   0.12013   0.12015   0.12739
 Alpha virt. eigenvalues --    0.13394   0.14015   0.14016   0.14599   0.14642
 Alpha virt. eigenvalues --    0.14829   0.15061   0.15405   0.15407   0.16360
 Alpha virt. eigenvalues --    0.16577   0.17078   0.17092   0.17092   0.17713
 Alpha virt. eigenvalues --    0.17714   0.17780   0.18744   0.18984   0.18987
 Alpha virt. eigenvalues --    0.19025   0.19057   0.21662   0.21663   0.21888
 Alpha virt. eigenvalues --    0.21892   0.21945   0.22849   0.23361   0.23366
 Alpha virt. eigenvalues --    0.23658   0.23662   0.23986   0.25777   0.25779
 Alpha virt. eigenvalues --    0.26239   0.26357   0.27352   0.27496   0.27630
 Alpha virt. eigenvalues --    0.28483   0.28494   0.28673   0.28968   0.29237
 Alpha virt. eigenvalues --    0.29239   0.29563   0.31704   0.31705   0.32508
 Alpha virt. eigenvalues --    0.32513   0.33018   0.33118   0.33121   0.34850
 Alpha virt. eigenvalues --    0.34961   0.34962   0.35478   0.36242   0.36528
 Alpha virt. eigenvalues --    0.37204   0.37642   0.38011   0.38013   0.38099
 Alpha virt. eigenvalues --    0.38988   0.39096   0.39097   0.39595   0.39853
 Alpha virt. eigenvalues --    0.39856   0.39944   0.40603   0.41372   0.41617
 Alpha virt. eigenvalues --    0.41631   0.41657   0.42085   0.42519   0.42754
 Alpha virt. eigenvalues --    0.42756   0.43058   0.43317   0.43351   0.43646
 Alpha virt. eigenvalues --    0.43647   0.43697   0.44056   0.44314   0.44318
 Alpha virt. eigenvalues --    0.45602   0.45603   0.46212   0.46470   0.46619
 Alpha virt. eigenvalues --    0.46639   0.46643   0.47492   0.47494   0.47593
 Alpha virt. eigenvalues --    0.48263   0.48264   0.48544   0.48661   0.48954
 Alpha virt. eigenvalues --    0.48956   0.49500   0.49891   0.50601   0.50714
 Alpha virt. eigenvalues --    0.50717   0.50969   0.51334   0.51962   0.51966
 Alpha virt. eigenvalues --    0.52886   0.53828   0.53829   0.54600   0.55053
 Alpha virt. eigenvalues --    0.55098   0.55173   0.56814   0.56822   0.58688
 Alpha virt. eigenvalues --    0.58877   0.58974   0.58980   0.59307   0.59713
 Alpha virt. eigenvalues --    0.60941   0.60946   0.61985   0.62153   0.62816
 Alpha virt. eigenvalues --    0.62818   0.65564   0.65787   0.65792   0.67053
 Alpha virt. eigenvalues --    0.68050   0.68307   0.68928   0.68936   0.74352
 Alpha virt. eigenvalues --    0.74482   0.74486   0.75903   0.84666   0.84674
 Alpha virt. eigenvalues --    0.86062   0.87965   1.04298   1.04791   1.06478
 Alpha virt. eigenvalues --    1.07879   1.07884   1.08831   1.13252   1.13834
 Alpha virt. eigenvalues --    1.13944   1.13948   1.15110   1.16372   1.16373
 Alpha virt. eigenvalues --    1.17824   1.19007   1.19009   1.19513   1.19739
 Alpha virt. eigenvalues --    1.19971   1.20721   1.20722   1.21462   1.22403
 Alpha virt. eigenvalues --    1.22463   1.22638   1.22639   1.23126   1.23655
 Alpha virt. eigenvalues --    1.23660   1.23838   1.25008   1.25232   1.25234
 Alpha virt. eigenvalues --    1.25499   1.25771   1.27032   1.27032   1.27870
 Alpha virt. eigenvalues --    1.28429   1.28708   1.28710   1.29691   1.29695
 Alpha virt. eigenvalues --    1.29796   1.29985   1.29991   1.30502   1.30504
 Alpha virt. eigenvalues --    1.30731   1.32505   1.32507   1.32609   1.32852
 Alpha virt. eigenvalues --    1.33326   1.34834   1.35415   1.35420   1.36300
 Alpha virt. eigenvalues --    1.37434   1.37439   1.37505   1.37563   1.38712
 Alpha virt. eigenvalues --    1.39619   1.39626   1.40570   1.41696   1.42616
 Alpha virt. eigenvalues --    1.42636   1.42835   1.42986   1.43525   1.43529
 Alpha virt. eigenvalues --    1.43570   1.45048   1.45054   1.45067   1.45474
 Alpha virt. eigenvalues --    1.45478   1.45863   1.46672   1.47116   1.47121
 Alpha virt. eigenvalues --    1.47566   1.49443   1.49679   1.49685   1.50275
 Alpha virt. eigenvalues --    1.51347   1.51934   1.52004   1.52011   1.52672
 Alpha virt. eigenvalues --    1.53439   1.55738   1.55748   1.56124   1.57065
 Alpha virt. eigenvalues --    1.57244   1.59260   1.59263   1.59908   1.60684
 Alpha virt. eigenvalues --    1.61374   1.61392   1.61866   1.63362   1.63971
 Alpha virt. eigenvalues --    1.63983   1.64534   1.66439   1.66625   1.66627
 Alpha virt. eigenvalues --    1.66640   1.67987   1.68544   1.68615   1.68834
 Alpha virt. eigenvalues --    1.68836   1.70539   1.70545   1.71155   1.71533
 Alpha virt. eigenvalues --    1.72053   1.72415   1.72420   1.72637   1.73104
 Alpha virt. eigenvalues --    1.73170   1.73170   1.73270   1.73565   1.73566
 Alpha virt. eigenvalues --    1.74615   1.75002   1.75012   1.75427   1.75716
 Alpha virt. eigenvalues --    1.75964   1.75966   1.76237   1.76242   1.76471
 Alpha virt. eigenvalues --    1.76481   1.76636   1.77220   1.77233   1.78413
 Alpha virt. eigenvalues --    1.80070   1.80072   1.80287   1.80349   1.80359
 Alpha virt. eigenvalues --    1.80460   1.80466   1.80751   1.81396   1.82462
 Alpha virt. eigenvalues --    1.82482   1.82535   1.82558   1.82780   1.82871
 Alpha virt. eigenvalues --    1.83171   1.83194   1.84434   1.84438   1.84838
 Alpha virt. eigenvalues --    1.87394   1.87519   1.87526   1.88941   1.90753
 Alpha virt. eigenvalues --    1.92716   1.95205   1.95420   1.95432   1.96137
 Alpha virt. eigenvalues --    1.97281   2.00503   2.01429   2.01444   2.02303
 Alpha virt. eigenvalues --    2.02319   2.02401   2.04201   2.07616   2.07631
 Alpha virt. eigenvalues --    2.08197   2.09686   2.09687   2.10134   2.11401
 Alpha virt. eigenvalues --    2.12633   2.13187   2.13582   2.13719   2.13720
 Alpha virt. eigenvalues --    2.15496   2.15850   2.15855   2.16637   2.17958
 Alpha virt. eigenvalues --    2.17970   2.19618   2.19906   2.19915   2.20045
 Alpha virt. eigenvalues --    2.21668   2.23389   2.23494   2.23499   2.24569
 Alpha virt. eigenvalues --    2.24584   2.26419   2.26420   2.26699   2.26854
 Alpha virt. eigenvalues --    2.27906   2.29333   2.29712   2.34195   2.34286
 Alpha virt. eigenvalues --    2.34291   2.34541   2.36365   2.37142   2.37145
 Alpha virt. eigenvalues --    2.39266   2.39515   2.40187   2.40192   2.40528
 Alpha virt. eigenvalues --    2.41174   2.41179   2.42354   2.43973   2.46311
 Alpha virt. eigenvalues --    2.46312   2.47053   2.47182   2.47840   2.47845
 Alpha virt. eigenvalues --    2.48532   2.48571   2.48573   2.48669   2.49111
 Alpha virt. eigenvalues --    2.49224   2.49225   2.51278   2.51899   2.51907
 Alpha virt. eigenvalues --    2.52354   2.52514   2.52988   2.53805   2.53938
 Alpha virt. eigenvalues --    2.53941   2.54028   2.54234   2.54977   2.55724
 Alpha virt. eigenvalues --    2.55725   2.56558   2.56788   2.56792   2.57383
 Alpha virt. eigenvalues --    2.59729   2.60102   2.60212   2.60445   2.60446
 Alpha virt. eigenvalues --    2.61383   2.61386   2.61675   2.62875   2.62878
 Alpha virt. eigenvalues --    2.64071   2.64454   2.65319   2.66052   2.66582
 Alpha virt. eigenvalues --    2.66629   2.66968   2.67724   2.67726   2.68265
 Alpha virt. eigenvalues --    2.68265   2.71121   2.72327   2.72790   2.72796
 Alpha virt. eigenvalues --    2.76857   2.81039   2.81396   2.81945   2.82817
 Alpha virt. eigenvalues --    2.82838   2.84290   2.87341   2.87344   2.89948
 Alpha virt. eigenvalues --    2.92736   2.92746   2.93071   3.01417   3.01422
 Alpha virt. eigenvalues --    3.04189   3.04587   3.06896   3.07158   3.07688
 Alpha virt. eigenvalues --    3.07690   3.09889   3.11389   3.11396   3.13056
 Alpha virt. eigenvalues --    3.19539   3.19584   3.19653   3.20345   3.23307
 Alpha virt. eigenvalues --    3.24156   3.24156   3.25044   3.25348   3.25439
 Alpha virt. eigenvalues --    3.25607   3.25611   3.26659   3.27136   3.29113
 Alpha virt. eigenvalues --    3.29116   3.29732   3.30399   3.30476   3.30481
 Alpha virt. eigenvalues --    3.30492   3.32076   3.33310   3.33313   3.33937
 Alpha virt. eigenvalues --    3.33965   3.34480   3.34487   3.34830   3.34874
 Alpha virt. eigenvalues --    3.36723   3.36729   3.37395   3.39021   3.39035
 Alpha virt. eigenvalues --    3.41648   3.42058   3.44572   3.44574   3.44928
 Alpha virt. eigenvalues --    3.45788   3.48311   3.48464   3.48471   3.66619
 Alpha virt. eigenvalues --    3.67768   3.67822  21.72761  21.72763  21.73098
 Alpha virt. eigenvalues --   21.73199  21.77182  21.77344  21.77345  21.77602
 Alpha virt. eigenvalues --   21.79590  21.82310  21.82312  21.83747  21.86461
 Alpha virt. eigenvalues --   21.87071  21.87837  21.87840  21.94073  21.94099
 Alpha virt. eigenvalues --   21.97060  22.00807  31.95147
          Condensed to atoms (all electrons):
 Mulliken charges:
               1
     1  C   -0.423103
     2  C   -0.224471
     3  C   -0.323277
     4  C   -0.164954
     5  C   -0.322967
     6  N   -0.142718
     7  C   -0.322325
     8  C   -0.164868
     9  C   -0.323305
    10  C   -0.224382
    11  C   -0.423124
    12  C   -0.321045
    13  C   -0.165251
    14  C   -0.323770
    15  C   -0.224333
    16  C   -0.423061
    17  C   -0.324045
    18  C   -0.165484
    19  C   -0.323042
    20  C   -0.224514
    21  C   -0.423081
    22  H    0.134159
    23  H    0.134011
    24  H    0.147063
    25  H    0.132686
    26  H    0.133011
    27  H    0.138567
    28  H    0.138378
    29  H    0.165337
    30  H    0.165437
    31  H    0.227595
    32  H    0.228062
    33  H    0.227616
    34  H    0.228331
    35  H    0.165229
    36  H    0.165339
    37  H    0.138579
    38  H    0.138379
    39  H    0.132847
    40  H    0.132782
    41  H    0.147068
    42  H    0.134122
    43  H    0.134060
    44  H    0.227314
    45  H    0.227536
    46  H    0.165265
    47  H    0.165118
    48  H    0.138531
    49  H    0.138491
    50  H    0.132905
    51  H    0.132719
    52  H    0.147072
    53  H    0.134126
    54  H    0.134041
    55  H    0.227961
    56  H    0.228214
    57  H    0.165693
    58  H    0.165639
    59  H    0.138463
    60  H    0.138485
    61  H    0.132927
    62  H    0.132739
    63  H    0.147057
    64  H    0.134132
    65  H    0.134034
 Sum of Mulliken charges =   1.00000
 Mulliken charges with hydrogens summed into heavy atoms:
               1
     1  C   -0.007869
     2  C    0.041225
     3  C   -0.046333
     4  C    0.165820
     5  C    0.132690
     6  N   -0.142718
     7  C    0.133622
     8  C    0.165701
     9  C   -0.046347
    10  C    0.041247
    11  C   -0.007875
    12  C    0.133805
    13  C    0.165132
    14  C   -0.046747
    15  C    0.041291
    16  C   -0.007822
    17  C    0.132130
    18  C    0.165848
    19  C   -0.046094
    20  C    0.041152
    21  C   -0.007857
 Electronic spatial extent (au):  <R**2>=          11894.4729
 Charge=              1.0000 electrons
 Dipole moment (field-independent basis, Debye):
    X=             -0.0077    Y=              0.0050    Z=             -0.0020  Tot=              0.0094
 Quadrupole moment (field-independent basis, Debye-Ang):
   XX=           -125.9223   YY=           -125.9404   ZZ=           -134.4684
   XY=             -0.0030   XZ=             -0.0259   YZ=              0.0057
 Traceless Quadrupole moment (field-independent basis, Debye-Ang):
   XX=              2.8547   YY=              2.8367   ZZ=             -5.6914
   XY=             -0.0030   XZ=             -0.0259   YZ=              0.0057
 Octapole moment (field-independent basis, Debye-Ang**2):
  XXX=             -0.1994  YYY=              0.0286  ZZZ=              0.0083  XYY=              0.0356
  XXY=              0.0443  XXZ=             -3.7253  XZZ=              0.0285  YZZ=              0.0189
  YYZ=              3.7457  XYZ=              0.4361
 Hexadecapole moment (field-independent basis, Debye-Ang**3):
 XXXX=          -7623.9213 YYYY=          -7622.7391 ZZZZ=          -1329.2027 XXXY=              2.9048
 XXXZ=              0.1688 YYYX=             -3.0237 YYYZ=              0.1172 ZZZX=             -0.4111
 ZZZY=              0.0545 XXYY=          -2523.6285 XXZZ=          -1516.0349 YYZZ=          -1515.8753
 XXYZ=              0.0855 YYXZ=             -0.2472 ZZXY=             -0.0188
 N-N= 1.805175529108D+03 E-N=-5.538848776647D+03  KE= 8.386223046596D+02
 Unable to Open any file for archive entry.
 1\1\GINC-TCN1744\SP\RBP86\TZVP\C20H44N1(1+)\ELENAA\23-Feb-2021\0\\# BP
 86/TZVP SCRF=COSMORS geom=CHECKPOINT guess=CHECKPOINT\\COSMO-file for 
 #GJSGYPDDPQRWPK-UHFFFAOYSA-N\\1,1\C,0,-0.828551402,7.0700791964,-2.507
 6608803\C,0,-0.962691598,6.2648009299,-1.2099342203\C,0,-0.011844571,5
 .0611939532,-1.16110792\C,0,-0.1421167771,4.2599358155,0.1452529131\C,
 0,0.8204106969,3.0795696973,0.1288485673\N,0,0.8076927976,2.1852782716
 ,1.3717311598\C,0,1.8388577516,1.0814542745,1.121152869\C,0,1.99776677
 38,0.0502622614,2.2308686408\C,0,3.0674739289,-0.9825812344,1.83771042
 21\C,0,3.2741747377,-2.0542110491,2.9166926552\C,0,4.3371027094,-3.087
 6623336,2.5258986958\C,0,1.1553024268,2.9871463424,2.6300508971\C,0,2.
 5137050689,3.6761621163,2.6292105597\C,0,2.7155592812,4.4394896843,3.9
 491923492\C,0,4.0692669577,5.159900976,4.010599849\C,0,4.2753126294,5.
 9171762334,5.3276350239\C,0,-0.5843218241,1.5926826713,1.6070236361\C,
 0,-1.149416672,0.7466274164,0.4736254399\C,0,-2.5447457946,0.223777512
 5,0.8546292578\C,0,-3.1706387095,-0.639606311,-0.2490433386\C,0,-4.564
 3518094,-1.1569203568,0.1258062763\H,0,0.1951684072,7.4596024359,-2.62
 74968765\H,0,-1.0521058923,6.444210182,-3.3864879913\H,0,-1.5179115202
 ,7.9278194272,-2.5217247682\H,0,-0.7633303605,6.9185989164,-0.34307662
 03\H,0,-2.0018620854,5.909803783,-1.0970605221\H,0,1.0293438413,5.4111
 67669,-1.2737511222\H,0,-0.2144088695,4.3982307685,-2.0206466808\H,0,-
 1.1819179013,3.9135182076,0.2519305009\H,0,0.0704985665,4.9266234217,0
 .9953135336\H,0,1.8561838982,3.4252364467,0.0177286009\H,0,0.606567072
 6,2.4180759507,-0.7203946981\H,0,2.7898742127,1.5941877087,0.928368999
 6\H,0,1.5366819232,0.596833805,0.1839642956\H,0,2.2962809236,0.5332515
 221,3.1742058377\H,0,1.0468228186,-0.4726258798,2.4169481952\H,0,4.023
 9637431,-0.4650929749,1.6461537938\H,0,2.7780051962,-1.4678000552,0.88
 89841661\H,0,3.5609004492,-1.563943994,3.8633279076\H,0,2.3135173032,-
 2.5624063343,3.110247524\H,0,4.468247619,-3.8465012267,3.3120947515\H,
 0,4.057825388,-3.6105602579,1.5971262266\H,0,5.3136877329,-2.606272216
 5,2.3567661692\H,0,1.0797176052,2.2803049079,3.4661228905\H,0,0.348299
 4002,3.7206876673,2.7524184405\H,0,3.3252310342,2.9409810244,2.5140803
 182\H,0,2.591598766,4.3847941195,1.7901019388\H,0,2.6357633934,3.73525
 10397,4.7959170119\H,0,1.9020575192,5.1753926798,4.0757248106\H,0,4.14
 46757974,5.8612033067,3.1613959395\H,0,4.878365009,4.4213485792,3.8745
 71826\H,0,5.2513637078,6.4250248578,5.3509772523\H,0,4.2324059583,5.23
 15456605,6.1891109793\H,0,3.4947947824,6.6816087836,5.47077515\H,0,-1.
 2418416196,2.4457750114,1.8181429112\H,0,-0.509987964,1.0038673466,2.5
 302202222\H,0,-1.2294707241,1.337405392,-0.4520314549\H,0,-0.491264748
 5,-0.1099036966,0.2599989796\H,0,-3.2092258776,1.0781080054,1.07347530
 71\H,0,-2.4744216942,-0.3652405554,1.7860167395\H,0,-2.5023071035,-1.4
 913089742,-0.4649449947\H,0,-3.2299656531,-0.0493485596,-1.1800081259\
 H,0,-4.9947832455,-1.7720785926,-0.6788346946\H,0,-5.2575146623,-0.322
 3409142,0.3183481248\H,0,-4.5250787492,-1.774730462,1.0372963526\\Vers
 ion=ES64L-G16RevC.01\State=1-A\HF=-843.4897799\RMSD=1.387e-09\Dipole=0
 .003416,0.0002452,0.0013749\Quadrupole=0.0394539,2.0327058,-2.0721597,
 0.4108035,2.9527578,-0.5726223\PG=C01 [X(C20H44N1)]\\@
 The archive entry for this job was punched.


 BLACK HOLES SUCK.
 Job cpu time:       0 days  0 hours 42 minutes 31.7 seconds.
 Elapsed time:       0 days  0 hours  1 minutes 22.1 seconds.
 File lengths (MBytes):  RWF=    350 Int=      0 D2E=      0 Chk=     39 Scr=      1
 Normal termination of Gaussian 16 at Tue Feb 23 01:10:01 2021.
