 Entering Gaussian System, Link 0=g16
 Input=HJZLEGIHUQOJBA-UHFFFAOYSA-N.gjf
 Output=HJZLEGIHUQOJBA-UHFFFAOYSA-N.log
 Initial command:
 /sw/arch/RedHatEnterpriseServer7/EB_production/2019/software/Gaussian/g16.c01/l1.exe "/scratch-local/elenaa.9715216/Gau-14938.inp" -scrdir="/scratch-local/elenaa.9715216/"
 Entering Link 1 = /sw/arch/RedHatEnterpriseServer7/EB_production/2019/software/Gaussian/g16.c01/l1.exe PID=     14940.
  
 Copyright (c) 1988-2019, Gaussian, Inc.  All Rights Reserved.
  
 This is part of the Gaussian(R) 16 program.  It is based on
 the Gaussian(R) 09 system (copyright 2009, Gaussian, Inc.),
 the Gaussian(R) 03 system (copyright 2003, Gaussian, Inc.),
 the Gaussian(R) 98 system (copyright 1998, Gaussian, Inc.),
 the Gaussian(R) 94 system (copyright 1995, Gaussian, Inc.),
 the Gaussian 92(TM) system (copyright 1992, Gaussian, Inc.),
 the Gaussian 90(TM) system (copyright 1990, Gaussian, Inc.),
 the Gaussian 88(TM) system (copyright 1988, Gaussian, Inc.),
 the Gaussian 86(TM) system (copyright 1986, Carnegie Mellon
 University), and the Gaussian 82(TM) system (copyright 1983,
 Carnegie Mellon University). Gaussian is a federally registered
 trademark of Gaussian, Inc.
  
 This software contains proprietary and confidential information,
 including trade secrets, belonging to Gaussian, Inc.
  
 This software is provided under written license and may be
 used, copied, transmitted, or stored only in accord with that
 written license.
  
 The following legend is applicable only to US Government
 contracts under FAR:
  
                    RESTRICTED RIGHTS LEGEND
  
 Use, reproduction and disclosure by the US Government is
 subject to restrictions as set forth in subparagraphs (a)
 and (c) of the Commercial Computer Software - Restricted
 Rights clause in FAR 52.227-19.
  
 Gaussian, Inc.
 340 Quinnipiac St., Bldg. 40, Wallingford CT 06492
  
  
 ---------------------------------------------------------------
 Warning -- This program may not be used in any manner that
 competes with the business of Gaussian, Inc. or will provide
 assistance to any competitor of Gaussian, Inc.  The licensee
 of this program is prohibited from giving any competitor of
 Gaussian, Inc. access to this program.  By using this program,
 the user acknowledges that Gaussian, Inc. is engaged in the
 business of creating and licensing software in the field of
 computational chemistry and represents and warrants to the
 licensee that it is not a competitor of Gaussian, Inc. and that
 it will not use this program in any manner prohibited above.
 ---------------------------------------------------------------
  

 Cite this work as:
 Gaussian 16, Revision C.01,
 M. J. Frisch, G. W. Trucks, H. B. Schlegel, G. E. Scuseria, 
 M. A. Robb, J. R. Cheeseman, G. Scalmani, V. Barone, 
 G. A. Petersson, H. Nakatsuji, X. Li, M. Caricato, A. V. Marenich, 
 J. Bloino, B. G. Janesko, R. Gomperts, B. Mennucci, H. P. Hratchian, 
 J. V. Ortiz, A. F. Izmaylov, J. L. Sonnenberg, D. Williams-Young, 
 F. Ding, F. Lipparini, F. Egidi, J. Goings, B. Peng, A. Petrone, 
 T. Henderson, D. Ranasinghe, V. G. Zakrzewski, J. Gao, N. Rega, 
 G. Zheng, W. Liang, M. Hada, M. Ehara, K. Toyota, R. Fukuda, 
 J. Hasegawa, M. Ishida, T. Nakajima, Y. Honda, O. Kitao, H. Nakai, 
 T. Vreven, K. Throssell, J. A. Montgomery, Jr., J. E. Peralta, 
 F. Ogliaro, M. J. Bearpark, J. J. Heyd, E. N. Brothers, K. N. Kudin, 
 V. N. Staroverov, T. A. Keith, R. Kobayashi, J. Normand, 
 K. Raghavachari, A. P. Rendell, J. C. Burant, S. S. Iyengar, 
 J. Tomasi, M. Cossi, J. M. Millam, M. Klene, C. Adamo, R. Cammi, 
 J. W. Ochterski, R. L. Martin, K. Morokuma, O. Farkas, 
 J. B. Foresman, and D. J. Fox, Gaussian, Inc., Wallingford CT, 2019.
 
 ******************************************
 Gaussian 16:  ES64L-G16RevC.01  3-Jul-2019
                22-Feb-2021 
 ******************************************
 %chk=HJZLEGIHUQOJBA-UHFFFAOYSA-N.chk
 %NProcShared=32
 Will use up to   32 processors via shared memory.
 -------------------------------------------------------------
 #P BP86/TZVP EmpiricalDispersion=GD3 SCRF=(Solvent=Water) Opt
 -------------------------------------------------------------
 1/18=20,19=15,26=3,38=1/1,3;
 2/9=110,12=2,17=6,18=5,40=1/2;
 3/5=19,7=101,11=2,25=1,30=1,70=2201,71=1,72=1,74=404,124=31/1,2,3;
 4//1;
 5/5=2,38=5,53=1/2;
 6/7=2,8=2,9=2,10=2,28=1/1;
 7//1,2,3,16;
 1/18=20,19=15,26=3/3(2);
 2/9=110/2;
 99//99;
 2/9=110/2;
 3/5=19,7=101,11=2,25=1,30=1,70=2205,71=1,72=1,74=404,124=31/1,2,3;
 4/5=5,16=3,69=1/1;
 5/5=2,38=5,53=1/2;
 7//1,2,3,16;
 1/18=20,19=15,26=3/3(-5);
 2/9=110/2;
 6/7=2,8=2,9=2,10=2,19=2,28=1/1;
 99/9=1/99;
 Leave Link    1 at Mon Feb 22 21:07:39 2021, MaxMem=           0 cpu:               2.2 elap:               0.1
 (Enter /sw/arch/RedHatEnterpriseServer7/EB_production/2019/software/Gaussian/g16.c01/l101.exe)
 -------------------------------------
 Particle #HJZLEGIHUQOJBA-UHFFFAOYSA-N
 -------------------------------------
 Symbolic Z-matrix:
 Charge =  0 Multiplicity = 1
 O                     1.78473   0.74928   0.44481 
 C                     1.57074  -0.34196  -0.13042 
 O                     2.44106  -0.76925  -1.07321 
 C                     0.39125  -1.15824   0.21142 
 C                    -0.93816  -0.48026  -0.22451 
 C                    -2.20309  -1.38502  -0.07029 
 C                    -3.45318  -0.70784  -0.71877 
 C                    -4.73879  -1.56542  -0.56138 
 C                    -5.00967  -1.92662   0.92189 
 C                    -3.78268  -2.60892   1.57629 
 C                    -2.49674  -1.7554    1.41823 
 H                     3.22053  -0.22435  -1.30573 
 H                     0.47486  -2.13193  -0.27739 
 H                     0.40104  -1.32863   1.29162 
 H                    -1.07802   0.44102   0.34913 
 H                    -0.84204  -0.20299  -1.27958 
 H                    -2.01318  -2.31224  -0.62173 
 H                    -3.27622  -0.54953  -1.78688 
 H                    -3.62374   0.27243  -0.26245 
 H                    -5.59468  -1.01313  -0.95855 
 H                    -4.63522  -2.48469  -1.1456 
 H                    -5.86754  -2.60063   0.98059 
 H                    -5.25801  -1.01869   1.47793 
 H                    -3.97906  -2.76568   2.64053 
 H                    -3.6224   -3.58974   1.11842 
 H                    -2.5981   -0.84196   2.01172 
 H                    -1.66535  -2.33075   1.8317 
 
 ITRead=  0  0  0  0  0  0  0  0  0  0  0  0  0  0  0  0  0  0  0  0
 ITRead=  0  0  0  0  0  0  0
 MicOpt= -1 -1 -1 -1 -1 -1 -1 -1 -1 -1 -1 -1 -1 -1 -1 -1 -1 -1 -1 -1
 MicOpt= -1 -1 -1 -1 -1 -1 -1
 NAtoms=     27 NQM=       27 NQMF=       0 NMMI=      0 NMMIF=      0
                NMic=       0 NMicF=      0.
                    Isotopes and Nuclear Properties:
 (Nuclear quadrupole moments (NQMom) in fm**2, nuclear magnetic moments (NMagM)
  in nuclear magnetons)

  Atom         1           2           3           4           5           6           7           8           9          10
 IAtWgt=          16          12          16          12          12          12          12          12          12          12
 AtmWgt=  15.9949146  12.0000000  15.9949146  12.0000000  12.0000000  12.0000000  12.0000000  12.0000000  12.0000000  12.0000000
 NucSpn=           0           0           0           0           0           0           0           0           0           0
 AtZEff=  -0.0000000  -0.0000000  -0.0000000  -0.0000000  -0.0000000  -0.0000000  -0.0000000  -0.0000000  -0.0000000  -0.0000000
 NQMom=    0.0000000   0.0000000   0.0000000   0.0000000   0.0000000   0.0000000   0.0000000   0.0000000   0.0000000   0.0000000
 NMagM=    0.0000000   0.0000000   0.0000000   0.0000000   0.0000000   0.0000000   0.0000000   0.0000000   0.0000000   0.0000000
 AtZNuc=   8.0000000   6.0000000   8.0000000   6.0000000   6.0000000   6.0000000   6.0000000   6.0000000   6.0000000   6.0000000

  Atom        11          12          13          14          15          16          17          18          19          20
 IAtWgt=          12           1           1           1           1           1           1           1           1           1
 AtmWgt=  12.0000000   1.0078250   1.0078250   1.0078250   1.0078250   1.0078250   1.0078250   1.0078250   1.0078250   1.0078250
 NucSpn=           0           1           1           1           1           1           1           1           1           1
 AtZEff=  -0.0000000  -0.0000000  -0.0000000  -0.0000000  -0.0000000  -0.0000000  -0.0000000  -0.0000000  -0.0000000  -0.0000000
 NQMom=    0.0000000   0.0000000   0.0000000   0.0000000   0.0000000   0.0000000   0.0000000   0.0000000   0.0000000   0.0000000
 NMagM=    0.0000000   2.7928460   2.7928460   2.7928460   2.7928460   2.7928460   2.7928460   2.7928460   2.7928460   2.7928460
 AtZNuc=   6.0000000   1.0000000   1.0000000   1.0000000   1.0000000   1.0000000   1.0000000   1.0000000   1.0000000   1.0000000

  Atom        21          22          23          24          25          26          27
 IAtWgt=           1           1           1           1           1           1           1
 AtmWgt=   1.0078250   1.0078250   1.0078250   1.0078250   1.0078250   1.0078250   1.0078250
 NucSpn=           1           1           1           1           1           1           1
 AtZEff=  -0.0000000  -0.0000000  -0.0000000  -0.0000000  -0.0000000  -0.0000000  -0.0000000
 NQMom=    0.0000000   0.0000000   0.0000000   0.0000000   0.0000000   0.0000000   0.0000000
 NMagM=    2.7928460   2.7928460   2.7928460   2.7928460   2.7928460   2.7928460   2.7928460
 AtZNuc=   1.0000000   1.0000000   1.0000000   1.0000000   1.0000000   1.0000000   1.0000000
 Leave Link  101 at Mon Feb 22 21:07:39 2021, MaxMem=   104857600 cpu:               2.8 elap:               0.1
 (Enter /sw/arch/RedHatEnterpriseServer7/EB_production/2019/software/Gaussian/g16.c01/l103.exe)

 GradGradGradGradGradGradGradGradGradGradGradGradGradGradGradGradGradGrad
 Berny optimization.
 Initialization pass.
                           ----------------------------
                           !    Initial Parameters    !
                           ! (Angstroms and Degrees)  !
 --------------------------                            --------------------------
 ! Name  Definition              Value          Derivative Info.                !
 --------------------------------------------------------------------------------
 ! R1    R(1,2)                  1.252          estimate D2E/DX2                !
 ! R2    R(2,3)                  1.3524         estimate D2E/DX2                !
 ! R3    R(2,4)                  1.4746         estimate D2E/DX2                !
 ! R4    R(3,12)                 0.9791         estimate D2E/DX2                !
 ! R5    R(4,5)                  1.5547         estimate D2E/DX2                !
 ! R6    R(4,13)                 1.0927         estimate D2E/DX2                !
 ! R7    R(4,14)                 1.0936         estimate D2E/DX2                !
 ! R8    R(5,6)                  1.5628         estimate D2E/DX2                !
 ! R9    R(5,15)                 1.0942         estimate D2E/DX2                !
 ! R10   R(5,16)                 1.0951         estimate D2E/DX2                !
 ! R11   R(6,7)                  1.5626         estimate D2E/DX2                !
 ! R12   R(6,11)                 1.5618         estimate D2E/DX2                !
 ! R13   R(6,17)                 1.0954         estimate D2E/DX2                !
 ! R14   R(7,8)                  1.5534         estimate D2E/DX2                !
 ! R15   R(7,18)                 1.0942         estimate D2E/DX2                !
 ! R16   R(7,19)                 1.0946         estimate D2E/DX2                !
 ! R17   R(8,9)                  1.5505         estimate D2E/DX2                !
 ! R18   R(8,20)                 1.0933         estimate D2E/DX2                !
 ! R19   R(8,21)                 1.0941         estimate D2E/DX2                !
 ! R20   R(9,10)                 1.549          estimate D2E/DX2                !
 ! R21   R(9,22)                 1.0926         estimate D2E/DX2                !
 ! R22   R(9,23)                 1.0932         estimate D2E/DX2                !
 ! R23   R(10,11)                1.5515         estimate D2E/DX2                !
 ! R24   R(10,24)                1.0935         estimate D2E/DX2                !
 ! R25   R(10,25)                1.0942         estimate D2E/DX2                !
 ! R26   R(11,26)                1.094          estimate D2E/DX2                !
 ! R27   R(11,27)                1.0923         estimate D2E/DX2                !
 ! A1    A(1,2,3)              119.0581         estimate D2E/DX2                !
 ! A2    A(1,2,4)              120.8437         estimate D2E/DX2                !
 ! A3    A(3,2,4)              120.0979         estimate D2E/DX2                !
 ! A4    A(2,3,12)             120.1377         estimate D2E/DX2                !
 ! A5    A(2,4,5)              112.1836         estimate D2E/DX2                !
 ! A6    A(2,4,13)             109.1698         estimate D2E/DX2                !
 ! A7    A(2,4,14)             107.9431         estimate D2E/DX2                !
 ! A8    A(5,4,13)             109.1832         estimate D2E/DX2                !
 ! A9    A(5,4,14)             110.6442         estimate D2E/DX2                !
 ! A10   A(13,4,14)            107.5981         estimate D2E/DX2                !
 ! A11   A(4,5,6)              114.329          estimate D2E/DX2                !
 ! A12   A(4,5,15)             109.2358         estimate D2E/DX2                !
 ! A13   A(4,5,16)             107.7884         estimate D2E/DX2                !
 ! A14   A(6,5,15)             109.4043         estimate D2E/DX2                !
 ! A15   A(6,5,16)             108.2213         estimate D2E/DX2                !
 ! A16   A(15,5,16)            107.6446         estimate D2E/DX2                !
 ! A17   A(5,6,7)              110.8343         estimate D2E/DX2                !
 ! A18   A(5,6,11)             112.5527         estimate D2E/DX2                !
 ! A19   A(5,6,17)             107.4602         estimate D2E/DX2                !
 ! A20   A(7,6,11)             110.358          estimate D2E/DX2                !
 ! A21   A(7,6,17)             107.2539         estimate D2E/DX2                !
 ! A22   A(11,6,17)            108.1594         estimate D2E/DX2                !
 ! A23   A(6,7,8)              112.3828         estimate D2E/DX2                !
 ! A24   A(6,7,18)             109.7808         estimate D2E/DX2                !
 ! A25   A(6,7,19)             109.8605         estimate D2E/DX2                !
 ! A26   A(8,7,18)             108.2178         estimate D2E/DX2                !
 ! A27   A(8,7,19)             108.8564         estimate D2E/DX2                !
 ! A28   A(18,7,19)            107.6118         estimate D2E/DX2                !
 ! A29   A(7,8,9)              111.7239         estimate D2E/DX2                !
 ! A30   A(7,8,20)             109.4029         estimate D2E/DX2                !
 ! A31   A(7,8,21)             109.3539         estimate D2E/DX2                !
 ! A32   A(9,8,20)             109.1743         estimate D2E/DX2                !
 ! A33   A(9,8,21)             109.3676         estimate D2E/DX2                !
 ! A34   A(20,8,21)            107.7315         estimate D2E/DX2                !
 ! A35   A(8,9,10)             111.6165         estimate D2E/DX2                !
 ! A36   A(8,9,22)             109.4083         estimate D2E/DX2                !
 ! A37   A(8,9,23)             109.4379         estimate D2E/DX2                !
 ! A38   A(10,9,22)            109.1197         estimate D2E/DX2                !
 ! A39   A(10,9,23)            109.3225         estimate D2E/DX2                !
 ! A40   A(22,9,23)            107.8574         estimate D2E/DX2                !
 ! A41   A(9,10,11)            111.7891         estimate D2E/DX2                !
 ! A42   A(9,10,24)            109.3938         estimate D2E/DX2                !
 ! A43   A(9,10,25)            109.5168         estimate D2E/DX2                !
 ! A44   A(11,10,24)           109.0786         estimate D2E/DX2                !
 ! A45   A(11,10,25)           109.2127         estimate D2E/DX2                !
 ! A46   A(24,10,25)           107.7612         estimate D2E/DX2                !
 ! A47   A(6,11,10)            112.5449         estimate D2E/DX2                !
 ! A48   A(6,11,26)            109.661          estimate D2E/DX2                !
 ! A49   A(6,11,27)            110.0337         estimate D2E/DX2                !
 ! A50   A(10,11,26)           109.103          estimate D2E/DX2                !
 ! A51   A(10,11,27)           107.6089         estimate D2E/DX2                !
 ! A52   A(26,11,27)           107.7552         estimate D2E/DX2                !
 ! D1    D(1,2,3,12)            -0.662          estimate D2E/DX2                !
 ! D2    D(4,2,3,12)           179.5106         estimate D2E/DX2                !
 ! D3    D(1,2,4,5)             67.9318         estimate D2E/DX2                !
 ! D4    D(1,2,4,13)          -170.9073         estimate D2E/DX2                !
 ! D5    D(1,2,4,14)           -54.2261         estimate D2E/DX2                !
 ! D6    D(3,2,4,5)           -112.2439         estimate D2E/DX2                !
 ! D7    D(3,2,4,13)             8.917          estimate D2E/DX2                !
 ! D8    D(3,2,4,14)           125.5982         estimate D2E/DX2                !
 ! D9    D(2,4,5,6)            171.8464         estimate D2E/DX2                !
 ! D10   D(2,4,5,15)           -65.2016         estimate D2E/DX2                !
 ! D11   D(2,4,5,16)            51.4849         estimate D2E/DX2                !
 ! D12   D(13,4,5,6)            50.6931         estimate D2E/DX2                !
 ! D13   D(13,4,5,15)          173.6451         estimate D2E/DX2                !
 ! D14   D(13,4,5,16)          -69.6684         estimate D2E/DX2                !
 ! D15   D(14,4,5,6)           -67.5462         estimate D2E/DX2                !
 ! D16   D(14,4,5,15)           55.4058         estimate D2E/DX2                !
 ! D17   D(14,4,5,16)          172.0923         estimate D2E/DX2                !
 ! D18   D(4,5,6,7)           -171.7935         estimate D2E/DX2                !
 ! D19   D(4,5,6,11)            64.0757         estimate D2E/DX2                !
 ! D20   D(4,5,6,17)           -54.8968         estimate D2E/DX2                !
 ! D21   D(15,5,6,7)            65.3459         estimate D2E/DX2                !
 ! D22   D(15,5,6,11)          -58.785          estimate D2E/DX2                !
 ! D23   D(15,5,6,17)         -177.7575         estimate D2E/DX2                !
 ! D24   D(16,5,6,7)           -51.6733         estimate D2E/DX2                !
 ! D25   D(16,5,6,11)         -175.8041         estimate D2E/DX2                !
 ! D26   D(16,5,6,17)           65.2233         estimate D2E/DX2                !
 ! D27   D(5,6,7,8)           -178.8802         estimate D2E/DX2                !
 ! D28   D(5,6,7,18)            60.6282         estimate D2E/DX2                !
 ! D29   D(5,6,7,19)           -57.5218         estimate D2E/DX2                !
 ! D30   D(11,6,7,8)           -53.506          estimate D2E/DX2                !
 ! D31   D(11,6,7,18)         -173.9977         estimate D2E/DX2                !
 ! D32   D(11,6,7,19)           67.8524         estimate D2E/DX2                !
 ! D33   D(17,6,7,8)            64.0965         estimate D2E/DX2                !
 ! D34   D(17,6,7,18)          -56.3952         estimate D2E/DX2                !
 ! D35   D(17,6,7,19)         -174.5451         estimate D2E/DX2                !
 ! D36   D(5,6,11,10)          177.8348         estimate D2E/DX2                !
 ! D37   D(5,6,11,26)           56.1932         estimate D2E/DX2                !
 ! D38   D(5,6,11,27)          -62.164          estimate D2E/DX2                !
 ! D39   D(7,6,11,10)           53.4412         estimate D2E/DX2                !
 ! D40   D(7,6,11,26)          -68.2004         estimate D2E/DX2                !
 ! D41   D(7,6,11,27)          173.4424         estimate D2E/DX2                !
 ! D42   D(17,6,11,10)         -63.6018         estimate D2E/DX2                !
 ! D43   D(17,6,11,26)         174.7566         estimate D2E/DX2                !
 ! D44   D(17,6,11,27)          56.3995         estimate D2E/DX2                !
 ! D45   D(6,7,8,9)             54.4733         estimate D2E/DX2                !
 ! D46   D(6,7,8,20)           175.4825         estimate D2E/DX2                !
 ! D47   D(6,7,8,21)           -66.7458         estimate D2E/DX2                !
 ! D48   D(18,7,8,9)           175.8627         estimate D2E/DX2                !
 ! D49   D(18,7,8,20)          -63.1281         estimate D2E/DX2                !
 ! D50   D(18,7,8,21)           54.6436         estimate D2E/DX2                !
 ! D51   D(19,7,8,9)           -67.4575         estimate D2E/DX2                !
 ! D52   D(19,7,8,20)           53.5516         estimate D2E/DX2                !
 ! D53   D(19,7,8,21)          171.3233         estimate D2E/DX2                !
 ! D54   D(7,8,9,10)           -54.1378         estimate D2E/DX2                !
 ! D55   D(7,8,9,22)          -175.0122         estimate D2E/DX2                !
 ! D56   D(7,8,9,23)            67.0114         estimate D2E/DX2                !
 ! D57   D(20,8,9,10)         -175.2796         estimate D2E/DX2                !
 ! D58   D(20,8,9,22)           63.846          estimate D2E/DX2                !
 ! D59   D(20,8,9,23)          -54.1304         estimate D2E/DX2                !
 ! D60   D(21,8,9,10)           67.0733         estimate D2E/DX2                !
 ! D61   D(21,8,9,22)          -53.8011         estimate D2E/DX2                !
 ! D62   D(21,8,9,23)         -171.7775         estimate D2E/DX2                !
 ! D63   D(8,9,10,11)           54.0193         estimate D2E/DX2                !
 ! D64   D(8,9,10,24)          174.9443         estimate D2E/DX2                !
 ! D65   D(8,9,10,25)          -67.1581         estimate D2E/DX2                !
 ! D66   D(22,9,10,11)         175.0619         estimate D2E/DX2                !
 ! D67   D(22,9,10,24)         -64.0132         estimate D2E/DX2                !
 ! D68   D(22,9,10,25)          53.8845         estimate D2E/DX2                !
 ! D69   D(23,9,10,11)         -67.197          estimate D2E/DX2                !
 ! D70   D(23,9,10,24)          53.728          estimate D2E/DX2                !
 ! D71   D(23,9,10,25)         171.6256         estimate D2E/DX2                !
 ! D72   D(9,10,11,6)          -54.2949         estimate D2E/DX2                !
 ! D73   D(9,10,11,26)          67.6633         estimate D2E/DX2                !
 ! D74   D(9,10,11,27)        -175.6884         estimate D2E/DX2                !
 ! D75   D(24,10,11,6)        -175.4029         estimate D2E/DX2                !
 ! D76   D(24,10,11,26)        -53.4447         estimate D2E/DX2                !
 ! D77   D(24,10,11,27)         63.2036         estimate D2E/DX2                !
 ! D78   D(25,10,11,6)          67.0585         estimate D2E/DX2                !
 ! D79   D(25,10,11,26)       -170.9833         estimate D2E/DX2                !
 ! D80   D(25,10,11,27)        -54.335          estimate D2E/DX2                !
 --------------------------------------------------------------------------------
 Trust Radius=3.00D-01 FncErr=1.00D-07 GrdErr=1.00D-06 EigMax=2.50D+02 EigMin=1.00D-04
 Number of steps in this run=    162 maximum allowed number of steps=    162.
 GradGradGradGradGradGradGradGradGradGradGradGradGradGradGradGradGradGrad

 Leave Link  103 at Mon Feb 22 21:07:39 2021, MaxMem=   104857600 cpu:               0.5 elap:               0.0
 (Enter /sw/arch/RedHatEnterpriseServer7/EB_production/2019/software/Gaussian/g16.c01/l202.exe)
                          Input orientation:                          
 ---------------------------------------------------------------------
 Center     Atomic      Atomic             Coordinates (Angstroms)
 Number     Number       Type             X           Y           Z
 ---------------------------------------------------------------------
      1          8           0        1.784730    0.749280    0.444810
      2          6           0        1.570740   -0.341960   -0.130420
      3          8           0        2.441060   -0.769250   -1.073210
      4          6           0        0.391250   -1.158240    0.211420
      5          6           0       -0.938160   -0.480260   -0.224510
      6          6           0       -2.203090   -1.385020   -0.070290
      7          6           0       -3.453180   -0.707840   -0.718770
      8          6           0       -4.738790   -1.565420   -0.561380
      9          6           0       -5.009670   -1.926620    0.921890
     10          6           0       -3.782680   -2.608920    1.576290
     11          6           0       -2.496740   -1.755400    1.418230
     12          1           0        3.220530   -0.224350   -1.305730
     13          1           0        0.474860   -2.131930   -0.277390
     14          1           0        0.401040   -1.328630    1.291620
     15          1           0       -1.078020    0.441020    0.349130
     16          1           0       -0.842040   -0.202990   -1.279580
     17          1           0       -2.013180   -2.312240   -0.621730
     18          1           0       -3.276220   -0.549530   -1.786880
     19          1           0       -3.623740    0.272430   -0.262450
     20          1           0       -5.594680   -1.013130   -0.958550
     21          1           0       -4.635220   -2.484690   -1.145600
     22          1           0       -5.867540   -2.600630    0.980590
     23          1           0       -5.258010   -1.018690    1.477930
     24          1           0       -3.979060   -2.765680    2.640530
     25          1           0       -3.622400   -3.589740    1.118420
     26          1           0       -2.598100   -0.841960    2.011720
     27          1           0       -1.665350   -2.330750    1.831700
 ---------------------------------------------------------------------
                    Distance matrix (angstroms):
                    1          2          3          4          5
     1  O    0.000000
     2  C    1.251993   0.000000
     3  O    2.245237   1.352363   0.000000
     4  C    2.373792   1.474573   2.450165   0.000000
     5  C    3.061681   2.514470   3.496131   1.554678   0.000000
     6  C    4.552282   3.915786   4.790945   2.619425   1.562825
     7  C    5.559930   5.071469   5.905207   3.980924   2.573210
     8  C    6.994753   6.441487   7.241968   5.203876   3.966843
     9  C    7.317918   6.849839   7.799571   5.501374   4.470278
    10  C    6.599531   6.058966   7.009934   4.624828   3.983135
    11  C    5.054894   4.576082   5.617974   3.186452   2.598797
    12  H    2.464522   2.029037   0.979058   3.343459   4.304559
    13  H    3.246337   2.103936   2.521144   1.092702   2.174267
    14  H    2.636171   2.088998   3.172855   1.093600   2.193590
    15  H    2.880888   2.803383   3.983934   2.176086   1.094249
    16  H    3.283331   2.676077   3.337961   2.157913   1.095121
    17  H    4.993449   4.119208   4.735494   2.794126   2.160926
    18  H    5.681599   5.126399   5.765838   4.220671   2.812885
    19  H    5.475322   5.232354   6.206789   4.288533   2.789323
    20  H    7.715646   7.244274   8.040258   6.100922   4.744043
    21  H    7.362318   6.643480   7.281601   5.372744   4.305160
    22  H    8.370555   7.852639   8.752421   6.468737   5.499729
    23  H    7.334388   7.048161   8.114568   5.791171   4.674325
    24  H    7.099113   6.659794   7.680855   5.252052   4.762213
    25  H    6.965479   6.251110   7.037326   4.779564   4.321744
    26  H    4.918989   4.713596   5.908910   3.503902   2.808372
    27  H    4.828364   4.275217   5.266819   2.868744   2.860265
                    6          7          8          9         10
     6  C    0.000000
     7  C    1.562634   0.000000
     8  C    2.589110   1.553386   0.000000
     9  C    3.025664   2.569018   1.550462   0.000000
    10  C    2.589259   2.998329   2.563722   1.548960   0.000000
    11  C    1.561763   2.564942   2.996955   2.567194   1.551490
    12  H    5.682352   6.716896   8.105757   8.694608   7.939595
    13  H    2.787863   4.201470   5.252022   5.617873   4.668008
    14  H    2.939298   4.391134   5.468778   5.456196   4.384483
    15  H    2.185433   2.846344   4.272712   4.625110   4.257140
    16  H    2.170722   2.717983   4.190070   5.018616   4.753089
    17  H    1.095394   2.158035   2.826718   3.392701   2.837330
    18  H    2.190053   1.094183   2.161711   3.498380   3.975991
    19  H    2.191418   1.094645   2.170343   2.856446   3.421755
    20  H    3.525648   2.176400   1.093305   2.170888   3.500758
    21  H    2.877642   2.176373   1.094119   2.173976   2.854986
    22  H    4.001281   3.507080   2.173340   1.092555   2.168310
    23  H    3.444375   2.859988   2.174233   1.093248   2.171429
    24  H    3.522618   3.974437   3.502862   2.172534   1.093502
    25  H    2.878934   3.421878   2.857608   2.174652   1.094231
    26  H    2.187627   2.864389   3.424440   2.860050   2.171400
    27  H    2.191149   3.512132   3.969710   3.489348   2.150744
                   11         12         13         14         15
    11  C    0.000000
    12  H    6.515462   0.000000
    13  H    3.441992   3.497863   0.000000
    14  H    2.931773   3.989384   1.764237   0.000000
    15  H    2.824890   4.653903   3.069859   2.491499   0.000000
    16  H    3.525080   4.062710   2.541539   3.069753   1.767238
    17  H    2.169179   5.676166   2.518219   3.233706   3.065540
    18  H    3.512042   6.522653   4.342022   4.858642   3.221151
    19  H    2.864770   6.941128   4.751809   4.601889   2.623574
    20  H    3.974579   8.857236   6.209268   6.411822   4.921869
    21  H    3.417336   8.176037   5.195300   5.713180   4.842279
    22  H    3.502604   9.667832   6.482918   6.403891   5.708755
    23  H    2.858482   8.959095   6.098053   5.670593   4.569164
    24  H    2.170704   8.594500   5.362210   4.803118   4.893820
    25  H    2.172970   8.001753   4.567388   4.618516   4.828323
    26  H    1.094019   6.726319   4.043158   3.122536   2.592467
    27  H    1.092334   6.176748   3.011360   2.359216   3.197762
                   16         17         18         19         20
    16  H    0.000000
    17  H    2.500654   0.000000
    18  H    2.510513   2.461705   0.000000
    19  H    2.999739   3.066513   1.766430   0.000000
    20  H    4.831871   3.824693   2.505257   2.453941   0.000000
    21  H    4.428580   2.679416   2.450095   3.066718   1.766647
    22  H    6.009384   4.184100   4.310550   3.851527   2.520887
    23  H    5.269727   4.075631   3.847933   2.714176   2.459637
    24  H    5.636979   3.835705   5.000726   4.217067   4.316832
    25  H    4.995086   2.692530   4.219418   4.101605   3.852611
    26  H    3.784797   3.072281   3.869719   2.732334   4.222712
    27  H    3.858143   2.478033   4.343014   3.872635   4.996124
                   21         22         23         24         25
    21  H    0.000000
    22  H    2.460231   0.000000
    23  H    3.069191   1.766751   0.000000
    24  H    3.852828   2.519722   2.457504   0.000000
    25  H    2.715276   2.457232   3.068349   1.767229   0.000000
    26  H    4.100864   3.852971   2.718692   2.450133   3.065529
    27  H    4.208104   4.296001   3.841075   2.489302   2.433900
                   26         27
    26  H    0.000000
    27  H    1.766048   0.000000
 Stoichiometry    C9H16O2
 Framework group  C1[X(C9H16O2)]
 Deg. of freedom    75
 Full point group                 C1      NOp   1
 Largest Abelian subgroup         C1      NOp   1
 Largest concise Abelian subgroup C1      NOp   1
                         Standard orientation:                         
 ---------------------------------------------------------------------
 Center     Atomic      Atomic             Coordinates (Angstroms)
 Number     Number       Type             X           Y           Z
 ---------------------------------------------------------------------
      1          8           0       -3.587637    0.225259    1.202987
      2          6           0       -3.185552    0.124015    0.021647
      3          8           0       -4.036199   -0.333786   -0.924770
      4          6           0       -1.806991    0.499875   -0.342579
      5          6           0       -0.753801   -0.464706    0.271748
      6          6           0        0.704728   -0.236587   -0.241165
      7          6           0        1.654756   -1.370347    0.262681
      8          6           0        3.121871   -1.163695   -0.204090
      9          6           0        3.661118    0.232883    0.199289
     10          6           0        2.735299    1.368802   -0.302533
     11          6           0        1.268786    1.163322    0.160326
     12          1           0       -4.949424   -0.590273   -0.682302
     13          1           0       -1.708768    0.492732   -1.430834
     14          1           0       -1.636078    1.524904   -0.001893
     15          1           0       -0.774179   -0.373639    1.362010
     16          1           0       -1.049673   -1.488250    0.018553
     17          1           0        0.681347   -0.294382   -1.334783
     18          1           0        1.309025   -2.337767   -0.113887
     19          1           0        1.634256   -1.414096    1.356259
     20          1           0        3.756363   -1.935538    0.239753
     21          1           0        3.175252   -1.273070   -1.291419
     22          1           0        4.659370    0.372265   -0.222305
     23          1           0        3.745978    0.289633    1.287759
     24          1           0        3.098803    2.327807    0.076835
     25          1           0        2.765609    1.409105   -1.395602
     26          1           0        1.215912    1.283787    1.246406
     27          1           0        0.665617    1.953618   -0.292239
 ---------------------------------------------------------------------
 Rotational constants (GHZ):           2.8571852           0.4098751           0.3906662
 Leave Link  202 at Mon Feb 22 21:07:39 2021, MaxMem=   104857600 cpu:               0.8 elap:               0.1
 (Enter /sw/arch/RedHatEnterpriseServer7/EB_production/2019/software/Gaussian/g16.c01/l301.exe)
 Standard basis: TZVP (5D, 7F)
 Ernie: Thresh=  0.10000D-02 Tol=  0.10000D-05 Strict=F.
 There are   316 symmetry adapted cartesian basis functions of A   symmetry.
 There are   305 symmetry adapted basis functions of A   symmetry.
   305 basis functions,   513 primitive gaussians,   316 cartesian basis functions
    43 alpha electrons       43 beta electrons
       nuclear repulsion energy       622.5812335658 Hartrees.
 IExCor=  404 DFT=T Ex=B Corr=P86 ExCW=0 ScaHFX=  0.000000
 ScaDFX=  1.000000  1.000000  1.000000  1.000000 ScalE2=  1.000000  1.000000
 IRadAn=      5 IRanWt=     -1 IRanGd=            0 ICorTp=0 IEmpDi=131
 NAtoms=   27 NActive=   27 NUniq=   27 SFac= 1.00D+00 NAtFMM=   60 NAOKFM=F Big=F
 Integral buffers will be    131072 words long.
 Raffenetti 2 integral format.
 Two-electron integral symmetry is turned on.
 R6Disp:  Grimme-D3 Dispersion energy=       -0.0278962394 Hartrees.
 Nuclear repulsion after empirical dispersion term =      622.5533373264 Hartrees.
 ------------------------------------------------------------------------------
 Polarizable Continuum Model (PCM)
 =================================
 Model                : PCM.
 Atomic radii         : UFF (Universal Force Field).
 Polarization charges : Total charges.
 Charge compensation  : None.
 Solution method      : On-the-fly selection.
 Cavity type          : Scaled VdW (van der Waals Surface) (Alpha=1.100).
 Cavity algorithm     : GePol (No added spheres)
                        Default sphere list used, NSphG=   27.
                        Lebedev-Laikov grids with approx.  5.0 points / Ang**2.
                        Smoothing algorithm: York/Karplus (Gamma=1.0000).
                        Polarization charges: spherical gaussians, with
                                              point-specific exponents (IZeta= 3).
                        Self-potential: point-specific (ISelfS= 7).
                        Self-field    : sphere-specific E.n sum rule (ISelfD= 2).
 1st derivatives      : Analytical E(r).r(x)/FMM algorithm (CHGder, D1EAlg=3).
                        Cavity 1st derivative terms included.
 Solvent              : Water, Eps=  78.355300 Eps(inf)=   1.777849
 ------------------------------------------------------------------------------
 GePol: Number of generator spheres                  =      27
 GePol: Total number of spheres                      =      27
 GePol: Number of exposed spheres                    =      27 (100.00%)
 GePol: Number of points                             =    1921
 GePol: Average weight of points                     =       0.13
 GePol: Minimum weight of points                     =   0.55D-09
 GePol: Maximum weight of points                     =    0.20577
 GePol: Number of points with low weight             =     166
 GePol: Fraction of low-weight points (<1% of avg)   =       8.64%
 GePol: Cavity surface area                          =    250.253 Ang**2
 GePol: Cavity volume                                =    254.220 Ang**3
 Leave Link  301 at Mon Feb 22 21:07:39 2021, MaxMem=   104857600 cpu:               1.7 elap:               0.1
 (Enter /sw/arch/RedHatEnterpriseServer7/EB_production/2019/software/Gaussian/g16.c01/l302.exe)
 NPDir=0 NMtPBC=     1 NCelOv=     1 NCel=       1 NClECP=     1 NCelD=      1
         NCelK=      1 NCelE2=     1 NClLst=     1 CellRange=     0.0.
 One-electron integrals computed using PRISM.
 One-electron integral symmetry used in STVInt
 PrsmSu:  requested number of processors reduced to:  27 ShMem   1 Linda.
 NBasis=   305 RedAO= T EigKep=  9.49D-05  NBF=   305
 NBsUse=   305 1.00D-06 EigRej= -1.00D+00 NBFU=   305
 Precomputing XC quadrature grid using
 IXCGrd= 4 IRadAn=           5 IRanWt=          -1 IRanGd=           0 AccXCQ= 0.00D+00.
 Generated NRdTot=       0 NPtTot=           0 NUsed=           0 NTot=          32
 NSgBfM=   312   312   312   312   312 MxSgAt=    27 MxSgA2=    27.
 Leave Link  302 at Mon Feb 22 21:07:40 2021, MaxMem=   104857600 cpu:               8.2 elap:               0.3
 (Enter /sw/arch/RedHatEnterpriseServer7/EB_production/2019/software/Gaussian/g16.c01/l303.exe)
 DipDrv:  MaxL=1.
 Leave Link  303 at Mon Feb 22 21:07:40 2021, MaxMem=   104857600 cpu:               2.8 elap:               0.2
 (Enter /sw/arch/RedHatEnterpriseServer7/EB_production/2019/software/Gaussian/g16.c01/l401.exe)
 ExpMin= 9.52D-02 ExpMax= 2.70D+04 ExpMxC= 9.22D+02 IAcc=3 IRadAn=         5 AccDes= 0.00D+00
 Harris functional with IExCor=  404 and IRadAn=       5 diagonalized for initial guess.
 HarFok:  IExCor=  404 AccDes= 0.00D+00 IRadAn=         5 IDoV= 1 UseB2=F ITyADJ=14
 ICtDFT=  3500011 ScaDFX=  1.000000  1.000000  1.000000  1.000000
 FoFCou: FMM=F IPFlag=           0 FMFlag=      100000 FMFlg1=           0
         NFxFlg=           0 DoJE=T BraDBF=F KetDBF=T FulRan=T
         wScrn=  0.000000 ICntrl=       500 IOpCl=  0 I1Cent=   200000004 NGrid=           0
         NMat0=    1 NMatS0=      1 NMatT0=    0 NMatD0=    1 NMtDS0=    0 NMtDT0=    0
 Petite list used in FoFCou.
 Harris En= -503.528341465396    
 JPrj=0 DoOrth=F DoCkMO=F.
 Leave Link  401 at Mon Feb 22 21:07:41 2021, MaxMem=   104857600 cpu:              16.7 elap:               0.6
 (Enter /sw/arch/RedHatEnterpriseServer7/EB_production/2019/software/Gaussian/g16.c01/l502.exe)
 Integral symmetry usage will be decided dynamically.
 Closed shell SCF:
 Using DIIS extrapolation, IDIIS=  1040.
 NGot=   104857600 LenX=   104643788 LenY=   104543491
 Requested convergence on RMS density matrix=1.00D-08 within 128 cycles.
 Requested convergence on MAX density matrix=1.00D-06.
 Requested convergence on             energy=1.00D-06.
 No special actions if energy rises.
 Fock matrices will be formed incrementally for  20 cycles.

 Cycle   1  Pass 1  IDiag  1:
 FoFJK:  IHMeth= 1 ICntrl=     500 DoSepK=F KAlg= 0 I1Cent=           0 FoldK=F
 IRaf= 880000000 NMat=       1 IRICut=       1 DoRegI=T DoRafI=F ISym2E= 0 IDoP0=0 IntGTp=1.
 FoFCou: FMM=F IPFlag=           0 FMFlag=      100000 FMFlg1=           0
         NFxFlg=           0 DoJE=T BraDBF=F KetDBF=F FulRan=T
         wScrn=  0.000000 ICntrl=       500 IOpCl=  0 I1Cent=           0 NGrid=           0
         NMat0=    1 NMatS0=      1 NMatT0=    0 NMatD0=    1 NMtDS0=    0 NMtDT0=    0
 Symmetry not used in FoFCou.
 Inv3:  Mode=1 IEnd=    11070723.
 Iteration    1 A*A^-1 deviation from unit magnitude is 4.00D-15 for    381.
 Iteration    1 A*A^-1 deviation from orthogonality  is 1.89D-15 for   1651    950.
 Iteration    1 A^-1*A deviation from unit magnitude is 4.00D-15 for    381.
 Iteration    1 A^-1*A deviation from orthogonality  is 1.58D-15 for   1204    737.
 E= -502.905739224026    
 DIIS: error= 2.51D-02 at cycle   1 NSaved=   1.
 NSaved= 1 IEnMin= 1 EnMin= -502.905739224026     IErMin= 1 ErrMin= 2.51D-02
 ErrMax= 2.51D-02  0.00D+00 EMaxC= 1.00D-01 BMatC= 3.76D-01 BMatP= 3.76D-01
 IDIUse=3 WtCom= 7.49D-01 WtEn= 2.51D-01
 Coeff-Com:  0.100D+01
 Coeff-En:   0.100D+01
 Coeff:      0.100D+01
 Gap=     0.065 Goal=   None    Shift=    0.000
 GapD=    0.065 DampG=0.500 DampE=0.500 DampFc=0.2500 IDamp=-1.
 Damping current iteration by 2.50D-01
 RMSDP=6.69D-03 MaxDP=4.56D-01              OVMax= 2.60D-01

 Cycle   2  Pass 1  IDiag  1:
 RMSU=  1.67D-03    CP:  9.89D-01
 E= -503.032855346503     Delta-E=       -0.127116122477 Rises=F Damp=T
 DIIS: error= 9.92D-03 at cycle   2 NSaved=   2.
 NSaved= 2 IEnMin= 2 EnMin= -503.032855346503     IErMin= 2 ErrMin= 9.92D-03
 ErrMax= 9.92D-03  0.00D+00 EMaxC= 1.00D-01 BMatC= 5.27D-02 BMatP= 3.76D-01
 IDIUse=3 WtCom= 9.01D-01 WtEn= 9.92D-02
 Coeff-Com: -0.375D+00 0.138D+01
 Coeff-En:   0.000D+00 0.100D+01
 Coeff:     -0.338D+00 0.134D+01
 Gap=     0.175 Goal=   None    Shift=    0.000
 RMSDP=1.40D-03 MaxDP=3.33D-02 DE=-1.27D-01 OVMax= 2.00D-01

 Cycle   3  Pass 1  IDiag  1:
 RMSU=  1.40D-03    CP:  9.82D-01  1.04D+00
 E= -503.198787394039     Delta-E=       -0.165932047536 Rises=F Damp=F
 DIIS: error= 2.81D-02 at cycle   3 NSaved=   3.
 NSaved= 3 IEnMin= 3 EnMin= -503.198787394039     IErMin= 2 ErrMin= 9.92D-03
 ErrMax= 2.81D-02  0.00D+00 EMaxC= 1.00D-01 BMatC= 8.41D-02 BMatP= 5.27D-02
 IDIUse=2 WtCom= 0.00D+00 WtEn= 1.00D+00
 Coeff-En:   0.000D+00 0.000D+00 0.100D+01
 Coeff:      0.000D+00 0.000D+00 0.100D+01
 Gap=     0.192 Goal=   None    Shift=    0.000
 RMSDP=3.31D-03 MaxDP=1.28D-01 DE=-1.66D-01 OVMax= 4.51D-01

 Cycle   4  Pass 1  IDiag  1:
 RMSU=  2.15D-03    CP:  9.91D-01  1.72D+00 -6.03D-01
 E= -502.586185167571     Delta-E=        0.612602226468 Rises=F Damp=F
 DIIS: error= 9.43D-02 at cycle   4 NSaved=   4.
 NSaved= 4 IEnMin= 3 EnMin= -503.198787394039     IErMin= 2 ErrMin= 9.92D-03
 ErrMax= 9.43D-02  0.00D+00 EMaxC= 1.00D-01 BMatC= 8.46D-01 BMatP= 5.27D-02
 IDIUse=2 WtCom= 0.00D+00 WtEn= 1.00D+00
 Coeff-En:   0.000D+00 0.000D+00 0.849D+00 0.151D+00
 Coeff:      0.000D+00 0.000D+00 0.849D+00 0.151D+00
 Gap=     0.138 Goal=   None    Shift=    0.000
 RMSDP=2.02D-03 MaxDP=1.07D-01 DE= 6.13D-01 OVMax= 1.74D-01

 Cycle   5  Pass 1  IDiag  1:
 RMSU=  4.76D-04    CP:  9.88D-01  1.12D+00  1.74D-01  3.99D-01
 E= -503.196757942407     Delta-E=       -0.610572774836 Rises=F Damp=F
 DIIS: error= 3.07D-02 at cycle   5 NSaved=   5.
 NSaved= 5 IEnMin= 3 EnMin= -503.198787394039     IErMin= 2 ErrMin= 9.92D-03
 ErrMax= 3.07D-02  0.00D+00 EMaxC= 1.00D-01 BMatC= 9.06D-02 BMatP= 5.27D-02
 IDIUse=2 WtCom= 0.00D+00 WtEn= 1.00D+00
 Coeff-En:   0.000D+00 0.000D+00 0.505D+00 0.000D+00 0.495D+00
 Coeff:      0.000D+00 0.000D+00 0.505D+00 0.000D+00 0.495D+00
 Gap=     0.180 Goal=   None    Shift=    0.000
 RMSDP=7.83D-04 MaxDP=3.41D-02 DE=-6.11D-01 OVMax= 1.17D-01

 Cycle   6  Pass 1  IDiag  1:
 RMSU=  1.35D-04    CP:  9.85D-01  1.01D+00  5.48D-01  1.58D-01  7.39D-01
 E= -503.266017542884     Delta-E=       -0.069259600477 Rises=F Damp=F
 DIIS: error= 2.30D-03 at cycle   6 NSaved=   6.
 NSaved= 6 IEnMin= 6 EnMin= -503.266017542884     IErMin= 6 ErrMin= 2.30D-03
 ErrMax= 2.30D-03  0.00D+00 EMaxC= 1.00D-01 BMatC= 5.55D-04 BMatP= 5.27D-02
 IDIUse=3 WtCom= 9.77D-01 WtEn= 2.30D-02
 Coeff-Com: -0.199D-01 0.336D-01 0.217D+00-0.385D-01 0.332D+00 0.476D+00
 Coeff-En:   0.000D+00 0.000D+00 0.000D+00 0.000D+00 0.000D+00 0.100D+01
 Coeff:     -0.195D-01 0.329D-01 0.212D+00-0.376D-01 0.324D+00 0.489D+00
 Gap=     0.180 Goal=   None    Shift=    0.000
 RMSDP=1.22D-04 MaxDP=5.89D-03 DE=-6.93D-02 OVMax= 1.16D-02

 Cycle   7  Pass 1  IDiag  1:
 RMSU=  6.16D-05    CP:  9.85D-01  1.04D+00  5.50D-01  1.90D-01  7.33D-01
                    CP:  5.53D-01
 E= -503.266344785575     Delta-E=       -0.000327242691 Rises=F Damp=F
 DIIS: error= 1.24D-03 at cycle   7 NSaved=   7.
 NSaved= 7 IEnMin= 7 EnMin= -503.266344785575     IErMin= 7 ErrMin= 1.24D-03
 ErrMax= 1.24D-03  0.00D+00 EMaxC= 1.00D-01 BMatC= 1.70D-04 BMatP= 5.55D-04
 IDIUse=3 WtCom= 9.88D-01 WtEn= 1.24D-02
 Coeff-Com: -0.701D-02 0.846D-02 0.793D-01-0.169D-01 0.124D+00 0.331D+00
 Coeff-Com:  0.482D+00
 Coeff-En:   0.000D+00 0.000D+00 0.000D+00 0.000D+00 0.000D+00 0.258D+00
 Coeff-En:   0.742D+00
 Coeff:     -0.693D-02 0.835D-02 0.783D-01-0.167D-01 0.122D+00 0.330D+00
 Coeff:      0.485D+00
 Gap=     0.180 Goal=   None    Shift=    0.000
 RMSDP=3.72D-05 MaxDP=1.59D-03 DE=-3.27D-04 OVMax= 3.07D-03

 Cycle   8  Pass 1  IDiag  1:
 RMSU=  1.95D-05    CP:  9.85D-01  1.04D+00  5.52D-01  1.83D-01  7.36D-01
                    CP:  6.41D-01  6.12D-01
 E= -503.266467469768     Delta-E=       -0.000122684193 Rises=F Damp=F
 DIIS: error= 3.14D-04 at cycle   8 NSaved=   8.
 NSaved= 8 IEnMin= 8 EnMin= -503.266467469768     IErMin= 8 ErrMin= 3.14D-04
 ErrMax= 3.14D-04  0.00D+00 EMaxC= 1.00D-01 BMatC= 1.42D-05 BMatP= 1.70D-04
 IDIUse=3 WtCom= 9.97D-01 WtEn= 3.14D-03
 Coeff-Com:  0.137D-02-0.314D-02 0.807D-02-0.746D-03 0.295D-02 0.115D+00
 Coeff-Com:  0.238D+00 0.638D+00
 Coeff-En:   0.000D+00 0.000D+00 0.000D+00 0.000D+00 0.000D+00 0.000D+00
 Coeff-En:   0.000D+00 0.100D+01
 Coeff:      0.136D-02-0.313D-02 0.804D-02-0.744D-03 0.294D-02 0.114D+00
 Coeff:      0.238D+00 0.640D+00
 Gap=     0.181 Goal=   None    Shift=    0.000
 RMSDP=1.18D-05 MaxDP=4.18D-04 DE=-1.23D-04 OVMax= 1.06D-03

 Cycle   9  Pass 1  IDiag  1:
 RMSU=  3.84D-06    CP:  9.85D-01  1.03D+00  5.55D-01  1.80D-01  7.33D-01
                    CP:  6.67D-01  6.31D-01  6.91D-01
 E= -503.266479507015     Delta-E=       -0.000012037247 Rises=F Damp=F
 DIIS: error= 3.88D-05 at cycle   9 NSaved=   9.
 NSaved= 9 IEnMin= 9 EnMin= -503.266479507015     IErMin= 9 ErrMin= 3.88D-05
 ErrMax= 3.88D-05  0.00D+00 EMaxC= 1.00D-01 BMatC= 2.09D-07 BMatP= 1.42D-05
 IDIUse=1 WtCom= 1.00D+00 WtEn= 0.00D+00
 Coeff-Com:  0.812D-03-0.147D-02 0.230D-02-0.126D-03-0.971D-03 0.438D-01
 Coeff-Com:  0.964D-01 0.290D+00 0.569D+00
 Coeff:      0.812D-03-0.147D-02 0.230D-02-0.126D-03-0.971D-03 0.438D-01
 Coeff:      0.964D-01 0.290D+00 0.569D+00
 Gap=     0.181 Goal=   None    Shift=    0.000
 RMSDP=1.72D-06 MaxDP=6.56D-05 DE=-1.20D-05 OVMax= 7.97D-05

 Cycle  10  Pass 1  IDiag  1:
 RMSU=  1.18D-06    CP:  9.85D-01  1.03D+00  5.55D-01  1.80D-01  7.32D-01
                    CP:  6.65D-01  6.38D-01  6.99D-01  7.17D-01
 E= -503.266479618065     Delta-E=       -0.000000111050 Rises=F Damp=F
 DIIS: error= 8.63D-06 at cycle  10 NSaved=  10.
 NSaved=10 IEnMin=10 EnMin= -503.266479618065     IErMin=10 ErrMin= 8.63D-06
 ErrMax= 8.63D-06  0.00D+00 EMaxC= 1.00D-01 BMatC= 2.91D-08 BMatP= 2.09D-07
 IDIUse=1 WtCom= 1.00D+00 WtEn= 0.00D+00
 Coeff-Com:  0.343D-03-0.471D-03 0.538D-03-0.533D-05-0.820D-03 0.116D-01
 Coeff-Com:  0.278D-01 0.941D-01 0.323D+00 0.544D+00
 Coeff:      0.343D-03-0.471D-03 0.538D-03-0.533D-05-0.820D-03 0.116D-01
 Coeff:      0.278D-01 0.941D-01 0.323D+00 0.544D+00
 Gap=     0.181 Goal=   None    Shift=    0.000
 RMSDP=5.50D-07 MaxDP=2.48D-05 DE=-1.11D-07 OVMax= 2.88D-05

 Cycle  11  Pass 1  IDiag  1:
 RMSU=  2.93D-07    CP:  9.85D-01  1.03D+00  5.55D-01  1.80D-01  7.32D-01
                    CP:  6.66D-01  6.39D-01  7.01D-01  7.41D-01  6.91D-01
 E= -503.266479652772     Delta-E=       -0.000000034707 Rises=F Damp=F
 DIIS: error= 1.23D-06 at cycle  11 NSaved=  11.
 NSaved=11 IEnMin=11 EnMin= -503.266479652772     IErMin=11 ErrMin= 1.23D-06
 ErrMax= 1.23D-06  0.00D+00 EMaxC= 1.00D-01 BMatC= 8.08D-10 BMatP= 2.91D-08
 IDIUse=1 WtCom= 1.00D+00 WtEn= 0.00D+00
 Coeff-Com:  0.133D-03-0.184D-03 0.915D-04 0.231D-04-0.343D-03 0.276D-02
 Coeff-Com:  0.664D-02 0.235D-01 0.107D+00 0.227D+00 0.634D+00
 Coeff:      0.133D-03-0.184D-03 0.915D-04 0.231D-04-0.343D-03 0.276D-02
 Coeff:      0.664D-02 0.235D-01 0.107D+00 0.227D+00 0.634D+00
 Gap=     0.181 Goal=   None    Shift=    0.000
 RMSDP=1.47D-07 MaxDP=4.46D-06 DE=-3.47D-08 OVMax= 5.46D-06

 Cycle  12  Pass 1  IDiag  1:
 RMSU=  7.43D-08    CP:  9.85D-01  1.03D+00  5.55D-01  1.80D-01  7.32D-01
                    CP:  6.66D-01  6.38D-01  7.03D-01  7.51D-01  6.93D-01
                    CP:  7.56D-01
 E= -503.266479653463     Delta-E=       -0.000000000691 Rises=F Damp=F
 DIIS: error= 3.51D-07 at cycle  12 NSaved=  12.
 NSaved=12 IEnMin=12 EnMin= -503.266479653463     IErMin=12 ErrMin= 3.51D-07
 ErrMax= 3.51D-07  0.00D+00 EMaxC= 1.00D-01 BMatC= 8.83D-11 BMatP= 8.08D-10
 IDIUse=1 WtCom= 1.00D+00 WtEn= 0.00D+00
 Coeff-Com:  0.447D-04-0.592D-04 0.168D-04 0.815D-05-0.102D-03 0.580D-03
 Coeff-Com:  0.150D-02 0.541D-02 0.330D-01 0.811D-01 0.331D+00 0.547D+00
 Coeff:      0.447D-04-0.592D-04 0.168D-04 0.815D-05-0.102D-03 0.580D-03
 Coeff:      0.150D-02 0.541D-02 0.330D-01 0.811D-01 0.331D+00 0.547D+00
 Gap=     0.181 Goal=   None    Shift=    0.000
 RMSDP=3.67D-08 MaxDP=1.05D-06 DE=-6.91D-10 OVMax= 2.03D-06

 Cycle  13  Pass 1  IDiag  1:
 RMSU=  2.38D-08    CP:  9.85D-01  1.03D+00  5.55D-01  1.80D-01  7.32D-01
                    CP:  6.66D-01  6.38D-01  7.02D-01  7.50D-01  6.96D-01
                    CP:  7.88D-01  6.85D-01
 E= -503.266479653543     Delta-E=       -0.000000000080 Rises=F Damp=F
 DIIS: error= 1.07D-07 at cycle  13 NSaved=  13.
 NSaved=13 IEnMin=13 EnMin= -503.266479653543     IErMin=13 ErrMin= 1.07D-07
 ErrMax= 1.07D-07  0.00D+00 EMaxC= 1.00D-01 BMatC= 9.63D-12 BMatP= 8.83D-11
 IDIUse=1 WtCom= 1.00D+00 WtEn= 0.00D+00
 Coeff-Com:  0.959D-05-0.102D-04 0.478D-05-0.208D-06-0.104D-04 0.295D-04
 Coeff-Com:  0.158D-03 0.557D-03 0.728D-02 0.221D-01 0.114D+00 0.300D+00
 Coeff-Com:  0.555D+00
 Coeff:      0.959D-05-0.102D-04 0.478D-05-0.208D-06-0.104D-04 0.295D-04
 Coeff:      0.158D-03 0.557D-03 0.728D-02 0.221D-01 0.114D+00 0.300D+00
 Coeff:      0.555D+00
 Gap=     0.181 Goal=   None    Shift=    0.000
 RMSDP=1.37D-08 MaxDP=4.90D-07 DE=-7.97D-11 OVMax= 5.58D-07

 Cycle  14  Pass 1  IDiag  1:
 RMSU=  8.33D-09    CP:  9.85D-01  1.03D+00  5.55D-01  1.80D-01  7.32D-01
                    CP:  6.66D-01  6.38D-01  7.02D-01  7.50D-01  6.99D-01
                    CP:  7.91D-01  7.01D-01  7.08D-01
 E= -503.266479653551     Delta-E=       -0.000000000008 Rises=F Damp=F
 DIIS: error= 2.62D-08 at cycle  14 NSaved=  14.
 NSaved=14 IEnMin=14 EnMin= -503.266479653551     IErMin=14 ErrMin= 2.62D-08
 ErrMax= 2.62D-08  0.00D+00 EMaxC= 1.00D-01 BMatC= 1.87D-13 BMatP= 9.63D-12
 IDIUse=1 WtCom= 1.00D+00 WtEn= 0.00D+00
 Coeff-Com:  0.991D-06-0.847D-06 0.451D-07-0.241D-07 0.102D-06-0.134D-04
 Coeff-Com: -0.217D-04-0.936D-04 0.548D-03 0.258D-02 0.150D-01 0.588D-01
 Coeff-Com:  0.170D+00 0.753D+00
 Coeff:      0.991D-06-0.847D-06 0.451D-07-0.241D-07 0.102D-06-0.134D-04
 Coeff:     -0.217D-04-0.936D-04 0.548D-03 0.258D-02 0.150D-01 0.588D-01
 Coeff:      0.170D+00 0.753D+00
 Gap=     0.181 Goal=   None    Shift=    0.000
 RMSDP=2.19D-09 MaxDP=4.46D-08 DE=-8.07D-12 OVMax= 8.07D-08

 Error on total polarization charges =  0.01456
 SCF Done:  E(RB-P86) =  -503.266479654     A.U. after   14 cycles
            NFock= 14  Conv=0.22D-08     -V/T= 2.0051
 KE= 5.007030231766D+02 PE=-2.417615711662D+03 EE= 7.910928715058D+02
 Leave Link  502 at Mon Feb 22 21:08:03 2021, MaxMem=   104857600 cpu:             690.7 elap:              22.0
 (Enter /sw/arch/RedHatEnterpriseServer7/EB_production/2019/software/Gaussian/g16.c01/l601.exe)
 Copying SCF densities to generalized density rwf, IOpCl= 0 IROHF=0.

 **********************************************************************

            Population analysis using the SCF Density.

 **********************************************************************

 Orbital symmetries:
       Occupied  (A) (A) (A) (A) (A) (A) (A) (A) (A) (A) (A) (A)
                 (A) (A) (A) (A) (A) (A) (A) (A) (A) (A) (A) (A)
                 (A) (A) (A) (A) (A) (A) (A) (A) (A) (A) (A) (A)
                 (A) (A) (A) (A) (A) (A) (A)
       Virtual   (A) (A) (A) (A) (A) (A) (A) (A) (A) (A) (A) (A)
                 (A) (A) (A) (A) (A) (A) (A) (A) (A) (A) (A) (A)
                 (A) (A) (A) (A) (A) (A) (A) (A) (A) (A) (A) (A)
                 (A) (A) (A) (A) (A) (A) (A) (A) (A) (A) (A) (A)
                 (A) (A) (A) (A) (A) (A) (A) (A) (A) (A) (A) (A)
                 (A) (A) (A) (A) (A) (A) (A) (A) (A) (A) (A) (A)
                 (A) (A) (A) (A) (A) (A) (A) (A) (A) (A) (A) (A)
                 (A) (A) (A) (A) (A) (A) (A) (A) (A) (A) (A) (A)
                 (A) (A) (A) (A) (A) (A) (A) (A) (A) (A) (A) (A)
                 (A) (A) (A) (A) (A) (A) (A) (A) (A) (A) (A) (A)
                 (A) (A) (A) (A) (A) (A) (A) (A) (A) (A) (A) (A)
                 (A) (A) (A) (A) (A) (A) (A) (A) (A) (A) (A) (A)
                 (A) (A) (A) (A) (A) (A) (A) (A) (A) (A) (A) (A)
                 (A) (A) (A) (A) (A) (A) (A) (A) (A) (A) (A) (A)
                 (A) (A) (A) (A) (A) (A) (A) (A) (A) (A) (A) (A)
                 (A) (A) (A) (A) (A) (A) (A) (A) (A) (A) (A) (A)
                 (A) (A) (A) (A) (A) (A) (A) (A) (A) (A) (A) (A)
                 (A) (A) (A) (A) (A) (A) (A) (A) (A) (A) (A) (A)
                 (A) (A) (A) (A) (A) (A) (A) (A) (A) (A) (A) (A)
                 (A) (A) (A) (A) (A) (A) (A) (A) (A) (A) (A) (A)
                 (A) (A) (A) (A) (A) (A) (A) (A) (A) (A) (A) (A)
                 (A) (A) (A) (A) (A) (A) (A) (A) (A) (A)
 The electronic state is 1-A.
 Alpha  occ. eigenvalues --  -18.82252 -18.75756 -10.03482  -9.91588  -9.90598
 Alpha  occ. eigenvalues --   -9.90461  -9.89050  -9.88976  -9.88913  -9.88879
 Alpha  occ. eigenvalues --   -9.88737  -1.01699  -0.92289  -0.75794  -0.72551
 Alpha  occ. eigenvalues --   -0.67480  -0.66832  -0.61095  -0.56768  -0.54705
 Alpha  occ. eigenvalues --   -0.52399  -0.49525  -0.45616  -0.43306  -0.42349
 Alpha  occ. eigenvalues --   -0.41705  -0.40041  -0.39154  -0.38619  -0.38069
 Alpha  occ. eigenvalues --   -0.35036  -0.34319  -0.33052  -0.32576  -0.31929
 Alpha  occ. eigenvalues --   -0.30883  -0.30272  -0.29405  -0.28360  -0.27707
 Alpha  occ. eigenvalues --   -0.26141  -0.25752  -0.23518
 Alpha virt. eigenvalues --   -0.05463   0.01341   0.02453   0.03802   0.04504
 Alpha virt. eigenvalues --    0.04895   0.06686   0.07311   0.07831   0.08668
 Alpha virt. eigenvalues --    0.09433   0.09621   0.10097   0.10334   0.10620
 Alpha virt. eigenvalues --    0.12366   0.12762   0.13258   0.13822   0.14899
 Alpha virt. eigenvalues --    0.16600   0.17149   0.17401   0.17806   0.18361
 Alpha virt. eigenvalues --    0.20092   0.20106   0.20648   0.21887   0.22492
 Alpha virt. eigenvalues --    0.23689   0.24846   0.25055   0.25592   0.27563
 Alpha virt. eigenvalues --    0.27900   0.29184   0.29764   0.30747   0.32229
 Alpha virt. eigenvalues --    0.33274   0.34168   0.35403   0.36665   0.37711
 Alpha virt. eigenvalues --    0.37844   0.38843   0.39532   0.39678   0.39793
 Alpha virt. eigenvalues --    0.40309   0.41033   0.41099   0.41374   0.41969
 Alpha virt. eigenvalues --    0.42547   0.42916   0.43927   0.44061   0.44303
 Alpha virt. eigenvalues --    0.45452   0.45506   0.45665   0.46445   0.46450
 Alpha virt. eigenvalues --    0.47783   0.48133   0.48523   0.50101   0.50183
 Alpha virt. eigenvalues --    0.51367   0.52321   0.55125   0.55500   0.57742
 Alpha virt. eigenvalues --    0.58624   0.60568   0.62684   0.64612   0.66095
 Alpha virt. eigenvalues --    0.67744   0.72110   0.73159   0.74149   0.78041
 Alpha virt. eigenvalues --    0.78528   0.79900   0.87618   1.03907   1.06131
 Alpha virt. eigenvalues --    1.07245   1.11931   1.14744   1.17987   1.19202
 Alpha virt. eigenvalues --    1.20989   1.21767   1.22109   1.24012   1.24687
 Alpha virt. eigenvalues --    1.25791   1.26248   1.27968   1.28109   1.28897
 Alpha virt. eigenvalues --    1.29580   1.30496   1.31793   1.31904   1.32745
 Alpha virt. eigenvalues --    1.33761   1.35336   1.36544   1.37473   1.38842
 Alpha virt. eigenvalues --    1.39503   1.40350   1.41125   1.42819   1.43805
 Alpha virt. eigenvalues --    1.45034   1.45432   1.48517   1.49029   1.50244
 Alpha virt. eigenvalues --    1.51929   1.52556   1.54092   1.55057   1.55810
 Alpha virt. eigenvalues --    1.56530   1.57055   1.58715   1.59904   1.62226
 Alpha virt. eigenvalues --    1.62684   1.63932   1.64748   1.65250   1.67476
 Alpha virt. eigenvalues --    1.69055   1.70078   1.72864   1.74583   1.74781
 Alpha virt. eigenvalues --    1.75144   1.75981   1.76864   1.78558   1.79147
 Alpha virt. eigenvalues --    1.79677   1.81068   1.81604   1.83469   1.85001
 Alpha virt. eigenvalues --    1.87556   1.88747   1.90349   1.90704   1.91056
 Alpha virt. eigenvalues --    1.93026   1.94468   1.95161   1.96338   1.99412
 Alpha virt. eigenvalues --    2.00611   2.04547   2.06332   2.09638   2.12726
 Alpha virt. eigenvalues --    2.13690   2.15751   2.17582   2.20296   2.23761
 Alpha virt. eigenvalues --    2.25157   2.25661   2.28129   2.28212   2.30246
 Alpha virt. eigenvalues --    2.31234   2.33737   2.36795   2.37162   2.39119
 Alpha virt. eigenvalues --    2.40909   2.41920   2.44689   2.46807   2.49422
 Alpha virt. eigenvalues --    2.50024   2.50567   2.51031   2.51856   2.52991
 Alpha virt. eigenvalues --    2.53552   2.54917   2.55160   2.55535   2.56315
 Alpha virt. eigenvalues --    2.57018   2.57416   2.58663   2.59292   2.60302
 Alpha virt. eigenvalues --    2.60684   2.62870   2.63954   2.64937   2.66253
 Alpha virt. eigenvalues --    2.67247   2.68781   2.69295   2.71480   2.77145
 Alpha virt. eigenvalues --    2.78370   2.80425   2.81734   2.84315   2.84868
 Alpha virt. eigenvalues --    2.88567   2.91975   2.94632   2.96455   2.98703
 Alpha virt. eigenvalues --    3.01828   3.03183   3.06419   3.08703   3.14732
 Alpha virt. eigenvalues --    3.15399   3.17299   3.24724   3.27686   3.30025
 Alpha virt. eigenvalues --    3.30454   3.32118   3.32555   3.33830   3.36530
 Alpha virt. eigenvalues --    3.38059   3.39162   3.39726   3.40717   3.42424
 Alpha virt. eigenvalues --    3.43815   3.44952   3.46524   3.83924   4.00450
 Alpha virt. eigenvalues --    4.18299  21.66848  21.76937  21.80343  21.81959
 Alpha virt. eigenvalues --   21.83655  21.85775  21.87084  21.93419  21.93468
 Alpha virt. eigenvalues --   43.04716  43.13667
          Condensed to atoms (all electrons):
               1          2          3          4          5          6
     1  O    8.011421   0.602318  -0.125349  -0.130991  -0.005033   0.000218
     2  C    0.602318   4.871496   0.363318   0.052361  -0.022248  -0.009756
     3  O   -0.125349   0.363318   7.868624  -0.117097  -0.011754  -0.001373
     4  C   -0.130991   0.052361  -0.117097   5.585167   0.196041  -0.017563
     5  C   -0.005033  -0.022248  -0.011754   0.196041   5.366567   0.140906
     6  C    0.000218  -0.009756  -0.001373  -0.017563   0.140906   5.509595
     7  C    0.000077  -0.000650   0.000005   0.019067  -0.053168   0.235095
     8  C    0.000001   0.000021  -0.000001  -0.001891   0.015050  -0.050726
     9  C   -0.000000   0.000012   0.000000   0.000568  -0.005767  -0.011453
    10  C   -0.000008  -0.000292  -0.000001  -0.000217   0.018472  -0.058321
    11  C   -0.000260   0.002898  -0.000008   0.002748  -0.039547   0.201173
    12  H    0.002146  -0.023029   0.288771   0.017574  -0.000276   0.000080
    13  H    0.009038  -0.021931   0.013277   0.346314  -0.040232   0.003094
    14  H   -0.002869  -0.011718   0.000906   0.403958  -0.026753  -0.019913
    15  H    0.012107  -0.010012   0.001558  -0.039253   0.394803  -0.017195
    16  H   -0.001527   0.010572   0.002062  -0.045701   0.422282  -0.065985
    17  H   -0.000036  -0.002317  -0.000026  -0.008991  -0.048295   0.438898
    18  H    0.000010   0.000030  -0.000004  -0.000440  -0.008042  -0.031523
    19  H   -0.000029  -0.000242  -0.000001   0.000041  -0.011047  -0.037242
    20  H   -0.000000  -0.000001   0.000000   0.000066  -0.001004   0.014999
    21  H   -0.000000  -0.000004   0.000000   0.000003  -0.000618  -0.007669
    22  H   -0.000000  -0.000000  -0.000000  -0.000012   0.000247  -0.001586
    23  H   -0.000000  -0.000002   0.000000  -0.000015  -0.000261  -0.003162
    24  H    0.000000   0.000002   0.000000  -0.000010  -0.000759   0.012998
    25  H    0.000000  -0.000010   0.000000  -0.000215  -0.000648  -0.006313
    26  H    0.000001  -0.000533  -0.000000  -0.004033  -0.004433  -0.039489
    27  H    0.000020  -0.000071   0.000004   0.008496  -0.012348  -0.037511
               7          8          9         10         11         12
     1  O    0.000077   0.000001  -0.000000  -0.000008  -0.000260   0.002146
     2  C   -0.000650   0.000021   0.000012  -0.000292   0.002898  -0.023029
     3  O    0.000005  -0.000001   0.000000  -0.000001  -0.000008   0.288771
     4  C    0.019067  -0.001891   0.000568  -0.000217   0.002748   0.017574
     5  C   -0.053168   0.015050  -0.005767   0.018472  -0.039547  -0.000276
     6  C    0.235095  -0.050726  -0.011453  -0.058321   0.201173   0.000080
     7  C    5.264624   0.270715  -0.069689  -0.014849  -0.047036  -0.000002
     8  C    0.270715   5.157661   0.298515  -0.077313  -0.020734   0.000000
     9  C   -0.069689   0.298515   5.180952   0.293370  -0.059378   0.000000
    10  C   -0.014849  -0.077313   0.293370   5.182140   0.244825   0.000000
    11  C   -0.047036  -0.020734  -0.059378   0.244825   5.379970  -0.000004
    12  H   -0.000002   0.000000   0.000000   0.000000  -0.000004   0.383851
    13  H   -0.000218  -0.000043  -0.000002  -0.000345  -0.006175  -0.000748
    14  H    0.000346  -0.000069  -0.000004  -0.000109   0.009156  -0.000481
    15  H   -0.008943  -0.000387   0.000117  -0.000451  -0.018074  -0.000005
    16  H   -0.002978  -0.000076   0.000228  -0.000960   0.014751  -0.000191
    17  H   -0.041857  -0.002490  -0.005860   0.001305  -0.070681   0.000005
    18  H    0.386739  -0.026681   0.011816  -0.001864   0.013885  -0.000000
    19  H    0.412673  -0.047732  -0.006912   0.000114  -0.014918   0.000000
    20  H   -0.042561   0.397942  -0.035533   0.013172  -0.002344  -0.000000
    21  H   -0.043944   0.413026  -0.050977  -0.001681  -0.004858  -0.000000
    22  H    0.014525  -0.039979   0.398052  -0.040120   0.013684   0.000000
    23  H   -0.005418  -0.045147   0.408111  -0.044492  -0.006242  -0.000000
    24  H   -0.002744   0.013873  -0.036181   0.394531  -0.037472  -0.000000
    25  H   -0.003693  -0.002928  -0.049966   0.415065  -0.047660  -0.000000
    26  H   -0.005973  -0.001232  -0.007259  -0.041356   0.394443   0.000000
    27  H    0.009020  -0.001159   0.011564  -0.029845   0.400663  -0.000000
              13         14         15         16         17         18
     1  O    0.009038  -0.002869   0.012107  -0.001527  -0.000036   0.000010
     2  C   -0.021931  -0.011718  -0.010012   0.010572  -0.002317   0.000030
     3  O    0.013277   0.000906   0.001558   0.002062  -0.000026  -0.000004
     4  C    0.346314   0.403958  -0.039253  -0.045701  -0.008991  -0.000440
     5  C   -0.040232  -0.026753   0.394803   0.422282  -0.048295  -0.008042
     6  C    0.003094  -0.019913  -0.017195  -0.065985   0.438898  -0.031523
     7  C   -0.000218   0.000346  -0.008943  -0.002978  -0.041857   0.386739
     8  C   -0.000043  -0.000069  -0.000387  -0.000076  -0.002490  -0.026681
     9  C   -0.000002  -0.000004   0.000117   0.000228  -0.005860   0.011816
    10  C   -0.000345  -0.000109  -0.000451  -0.000960   0.001305  -0.001864
    11  C   -0.006175   0.009156  -0.018074   0.014751  -0.070681   0.013885
    12  H   -0.000748  -0.000481  -0.000005  -0.000191   0.000005  -0.000000
    13  H    0.557031  -0.018688   0.008185  -0.002161   0.004374   0.000107
    14  H   -0.018688   0.478311  -0.003159   0.004768   0.000185  -0.000019
    15  H    0.008185  -0.003159   0.541043  -0.021489   0.007474   0.000084
    16  H   -0.002161   0.004768  -0.021489   0.535990  -0.002909   0.005145
    17  H    0.004374   0.000185   0.007474  -0.002909   0.562525  -0.005729
    18  H    0.000107  -0.000019   0.000084   0.005145  -0.005729   0.552591
    19  H   -0.000024   0.000068   0.004565  -0.000017   0.009192  -0.024985
    20  H    0.000001  -0.000000   0.000027  -0.000047  -0.000126  -0.003137
    21  H   -0.000011   0.000008   0.000018   0.000069   0.006982  -0.005994
    22  H   -0.000000  -0.000000  -0.000006  -0.000005  -0.000000  -0.000443
    23  H   -0.000001   0.000006   0.000018   0.000007   0.000645  -0.000307
    24  H    0.000007   0.000020   0.000002   0.000026  -0.000172   0.000095
    25  H    0.000026   0.000061   0.000029   0.000031   0.006053  -0.000054
    26  H    0.000373   0.000104   0.006149  -0.000046   0.008993  -0.000367
    27  H    0.000056   0.000355   0.000367  -0.000360  -0.002165  -0.000365
              19         20         21         22         23         24
     1  O   -0.000029  -0.000000  -0.000000  -0.000000  -0.000000   0.000000
     2  C   -0.000242  -0.000001  -0.000004  -0.000000  -0.000002   0.000002
     3  O   -0.000001   0.000000   0.000000  -0.000000   0.000000   0.000000
     4  C    0.000041   0.000066   0.000003  -0.000012  -0.000015  -0.000010
     5  C   -0.011047  -0.001004  -0.000618   0.000247  -0.000261  -0.000759
     6  C   -0.037242   0.014999  -0.007669  -0.001586  -0.003162   0.012998
     7  C    0.412673  -0.042561  -0.043944   0.014525  -0.005418  -0.002744
     8  C   -0.047732   0.397942   0.413026  -0.039979  -0.045147   0.013873
     9  C   -0.006912  -0.035533  -0.050977   0.398052   0.408111  -0.036181
    10  C    0.000114   0.013172  -0.001681  -0.040120  -0.044492   0.394531
    11  C   -0.014918  -0.002344  -0.004858   0.013684  -0.006242  -0.037472
    12  H    0.000000  -0.000000  -0.000000   0.000000  -0.000000  -0.000000
    13  H   -0.000024   0.000001  -0.000011  -0.000000  -0.000001   0.000007
    14  H    0.000068  -0.000000   0.000008  -0.000000   0.000006   0.000020
    15  H    0.004565   0.000027   0.000018  -0.000006   0.000018   0.000002
    16  H   -0.000017  -0.000047   0.000069  -0.000005   0.000007   0.000026
    17  H    0.009192  -0.000126   0.006982  -0.000000   0.000645  -0.000172
    18  H   -0.024985  -0.003137  -0.005994  -0.000443  -0.000307   0.000095
    19  H    0.569396  -0.004318   0.009196  -0.000177   0.006236   0.000010
    20  H   -0.004318   0.551428  -0.023457  -0.002433  -0.005209  -0.000490
    21  H    0.009196  -0.023457   0.571879  -0.003642   0.008929  -0.000300
    22  H   -0.000177  -0.002433  -0.003642   0.547866  -0.021234  -0.002488
    23  H    0.006236  -0.005209   0.008929  -0.021234   0.572582  -0.005216
    24  H    0.000010  -0.000490  -0.000300  -0.002488  -0.005216   0.552871
    25  H    0.000496  -0.000253   0.006010  -0.004106   0.008986  -0.023010
    26  H    0.006462   0.000037   0.000552  -0.000185   0.006344  -0.004822
    27  H   -0.000187   0.000075  -0.000079  -0.000409  -0.000290  -0.003593
              25         26         27
     1  O    0.000000   0.000001   0.000020
     2  C   -0.000010  -0.000533  -0.000071
     3  O    0.000000  -0.000000   0.000004
     4  C   -0.000215  -0.004033   0.008496
     5  C   -0.000648  -0.004433  -0.012348
     6  C   -0.006313  -0.039489  -0.037511
     7  C   -0.003693  -0.005973   0.009020
     8  C   -0.002928  -0.001232  -0.001159
     9  C   -0.049966  -0.007259   0.011564
    10  C    0.415065  -0.041356  -0.029845
    11  C   -0.047660   0.394443   0.400663
    12  H   -0.000000   0.000000  -0.000000
    13  H    0.000026   0.000373   0.000056
    14  H    0.000061   0.000104   0.000355
    15  H    0.000029   0.006149   0.000367
    16  H    0.000031  -0.000046  -0.000360
    17  H    0.006053   0.008993  -0.002165
    18  H   -0.000054  -0.000367  -0.000365
    19  H    0.000496   0.006462  -0.000187
    20  H   -0.000253   0.000037   0.000075
    21  H    0.006010   0.000552  -0.000079
    22  H   -0.004106  -0.000185  -0.000409
    23  H    0.008986   0.006344  -0.000290
    24  H   -0.023010  -0.004822  -0.003593
    25  H    0.571732   0.009007  -0.005013
    26  H    0.009007   0.567658  -0.020856
    27  H   -0.005013  -0.020856   0.533883
 Mulliken charges:
               1
     1  O   -0.371254
     2  C    0.199786
     3  O   -0.282910
     4  C   -0.265977
     5  C   -0.262136
     6  C   -0.140277
     7  C   -0.269165
     8  C   -0.248214
     9  C   -0.264323
    10  C   -0.250771
    11  C   -0.302807
    12  H    0.332309
    13  H    0.148694
    14  H    0.185530
    15  H    0.142428
    16  H    0.148519
    17  H    0.145021
    18  H    0.139453
    19  H    0.129384
    20  H    0.143166
    21  H    0.126561
    22  H    0.142451
    23  H    0.125131
    24  H    0.142821
    25  H    0.126373
    26  H    0.130461
    27  H    0.149747
 Sum of Mulliken charges =  -0.00000
 Mulliken charges with hydrogens summed into heavy atoms:
               1
     1  O   -0.371254
     2  C    0.199786
     3  O    0.049399
     4  C    0.068247
     5  C    0.028811
     6  C    0.004744
     7  C   -0.000328
     8  C    0.021512
     9  C    0.003258
    10  C    0.018423
    11  C   -0.022598
 Electronic spatial extent (au):  <R**2>=           2859.3538
 Charge=             -0.0000 electrons
 Dipole moment (field-independent basis, Debye):
    X=              1.1904    Y=             -0.4408    Z=             -2.4610  Tot=              2.7691
 Quadrupole moment (field-independent basis, Debye-Ang):
   XX=            -66.7370   YY=            -67.9473   ZZ=            -74.1417
   XY=              3.4356   XZ=              9.4315   YZ=             -0.6558
 Traceless Quadrupole moment (field-independent basis, Debye-Ang):
   XX=              2.8716   YY=              1.6614   ZZ=             -4.5330
   XY=              3.4356   XZ=              9.4315   YZ=             -0.6558
 Octapole moment (field-independent basis, Debye-Ang**2):
  XXX=            -80.6207  YYY=              0.0752  ZZZ=             -4.5712  XYY=            -14.0726
  XXY=            -21.6884  XXZ=            -39.5558  XZZ=             11.2614  YZZ=             -0.8084
  YYZ=             -0.7115  XYZ=              1.7614
 Hexadecapole moment (field-independent basis, Debye-Ang**3):
 XXXX=          -2648.0726 YYYY=           -438.2976 ZZZZ=           -243.7155 XXXY=            121.3641
 XXXZ=            178.5400 YYYX=              4.9589 YYYZ=              4.7419 ZZZX=             17.0328
 ZZZY=              0.0257 XXYY=           -570.8220 XXZZ=           -622.7692 YYZZ=           -116.2066
 XXYZ=             -1.5899 YYXZ=              6.9211 ZZXY=              4.1463
 N-N= 6.225533373264D+02 E-N=-2.417615714606D+03  KE= 5.007030231766D+02
 No NMR shielding tensors so no spin-rotation constants.
 Leave Link  601 at Mon Feb 22 21:08:03 2021, MaxMem=   104857600 cpu:               4.6 elap:               0.2
 (Enter /sw/arch/RedHatEnterpriseServer7/EB_production/2019/software/Gaussian/g16.c01/l701.exe)
 ... and contract with generalized density number  0.
 Compute integral first derivatives.
 R6Disp: Adding Grimme-D3 dispersion energy 1st derivatives to the gradient.
 PrsmSu:  requested number of processors reduced to:  28 ShMem   1 Linda.
 D1PCM: PCM CHGder 1st derivatives, ID1Alg=3 FixD1E=F DoIter=F DoCFld=F I1PDM=0.
 GePol: Maximum number of non-zero 1st derivatives   =     219
 CoulSu:  requested number of processors reduced to:  28 ShMem   1 Linda.
 CoulSu:  requested number of processors reduced to:  29 ShMem   1 Linda.
 Leave Link  701 at Mon Feb 22 21:08:04 2021, MaxMem=   104857600 cpu:              27.7 elap:               0.9
 (Enter /sw/arch/RedHatEnterpriseServer7/EB_production/2019/software/Gaussian/g16.c01/l702.exe)
 L702 exits ... SP integral derivatives will be done elsewhere.
 Leave Link  702 at Mon Feb 22 21:08:04 2021, MaxMem=   104857600 cpu:               0.5 elap:               0.0
 (Enter /sw/arch/RedHatEnterpriseServer7/EB_production/2019/software/Gaussian/g16.c01/l703.exe)
 Integral derivatives from FoFJK, PRISM(SPDF).
 Compute integral first derivatives, UseDBF=F ICtDFT=           0.
 Calling FoFJK, ICntrl=      2527 FMM=F ISym2X=0 I1Cent= 0 IOpClX= 0 NMat=1 NMatS=1 NMatT=0.
 FoFJK:  IHMeth= 1 ICntrl=    2527 DoSepK=F KAlg= 0 I1Cent=           0 FoldK=F
 IRaf=         0 NMat=       1 IRICut=       1 DoRegI=T DoRafI=F ISym2E= 0 IDoP0=0 IntGTp=1.
 FoFCou: FMM=F IPFlag=           0 FMFlag=      100000 FMFlg1=         800
         NFxFlg=           0 DoJE=F BraDBF=F KetDBF=F FulRan=T
         wScrn=  0.000000 ICntrl=      2527 IOpCl=  0 I1Cent=           0 NGrid=           0
         NMat0=    1 NMatS0=      1 NMatT0=    0 NMatD0=    1 NMtDS0=    0 NMtDT0=    0
 Symmetry not used in FoFCou.
 Leave Link  703 at Mon Feb 22 21:08:07 2021, MaxMem=   104857600 cpu:              96.0 elap:               3.0
 (Enter /sw/arch/RedHatEnterpriseServer7/EB_production/2019/software/Gaussian/g16.c01/l716.exe)
 Dipole        = 4.68349660D-01-1.73421595D-01-9.68236458D-01
 ***** Axes restored to original set *****
 -------------------------------------------------------------------
 Center     Atomic                   Forces (Hartrees/Bohr)
 Number     Number              X              Y              Z
 -------------------------------------------------------------------
      1        8          -0.007393435   -0.020160796   -0.009721197
      2        6           0.035548579    0.065013136    0.019754826
      3        8          -0.015339848   -0.035335627   -0.013026697
      4        6          -0.011403606   -0.017545857   -0.011066644
      5        6          -0.005340583   -0.009059763    0.001646261
      6        6          -0.001799715    0.010868395    0.008252177
      7        6           0.000556829   -0.014028941    0.005395699
      8        6           0.008648143    0.005089204    0.013510986
      9        6           0.012221297   -0.005672686   -0.008035276
     10        6          -0.000364552    0.014891456   -0.006717661
     11        6          -0.006562181   -0.006565440   -0.013316086
     12        1          -0.007527503    0.011066320    0.012859807
     13        1          -0.001431909   -0.005995356   -0.001711969
     14        1           0.000930380    0.001016817    0.003635177
     15        1          -0.000172928    0.004295895    0.002014015
     16        1          -0.000696759    0.002343501   -0.004433127
     17        1           0.000628711   -0.006257158   -0.002493493
     18        1           0.003068255    0.002761333   -0.004592347
     19        1           0.000643034    0.005423876    0.003197978
     20        1          -0.003982299    0.001906922   -0.003754904
     21        1           0.000625295   -0.005064857   -0.003173082
     22        1          -0.006101067   -0.002153013    0.001258406
     23        1          -0.001547882    0.005571075    0.003242505
     24        1          -0.000493988   -0.002676628    0.005039130
     25        1           0.000622024   -0.005337283   -0.002558432
     26        1           0.000227652    0.006328106    0.002233835
     27        1           0.006438052   -0.000722632    0.002560114
 -------------------------------------------------------------------
 Cartesian Forces:  Max     0.065013136 RMS     0.011722463
 Leave Link  716 at Mon Feb 22 21:08:08 2021, MaxMem=   104857600 cpu:               0.9 elap:               0.1
 (Enter /sw/arch/RedHatEnterpriseServer7/EB_production/2019/software/Gaussian/g16.c01/l103.exe)

 GradGradGradGradGradGradGradGradGradGradGradGradGradGradGradGradGradGrad
 Berny optimization.
 FormGI is forming the generalized inverse of G from B-inverse, IUseBI=4.
 GSVD:  received Info=                   1 from GESDD.
 Internal  Forces:  Max     0.033910647 RMS     0.005373514
 Search for a local minimum.
 Step number   1 out of a maximum of  162
 All quantities printed in internal units (Hartrees-Bohrs-Radians)
 RMS Force = .53735D-02 SwitMx=.10000D-02 MixMth= 1
 Mixed Optimization -- RFO/linear search
 Second derivative matrix not updated -- first step.
 ITU=  0
     Eigenvalues ---    0.00230   0.00230   0.00405   0.00411   0.00503
     Eigenvalues ---    0.01102   0.01399   0.01789   0.01821   0.02322
     Eigenvalues ---    0.03311   0.03420   0.03602   0.03846   0.04094
     Eigenvalues ---    0.04236   0.04475   0.04694   0.04743   0.04765
     Eigenvalues ---    0.04792   0.05362   0.05398   0.05468   0.05844
     Eigenvalues ---    0.06400   0.08053   0.08075   0.08084   0.08188
     Eigenvalues ---    0.08206   0.08338   0.08500   0.08623   0.09482
     Eigenvalues ---    0.12036   0.12100   0.12344   0.12835   0.14215
     Eigenvalues ---    0.15994   0.16000   0.17432   0.20819   0.21967
     Eigenvalues ---    0.21991   0.25000   0.25000   0.25795   0.25823
     Eigenvalues ---    0.26446   0.26589   0.27257   0.27286   0.27378
     Eigenvalues ---    0.27451   0.34197   0.34227   0.34281   0.34326
     Eigenvalues ---    0.34328   0.34334   0.34341   0.34352   0.34400
     Eigenvalues ---    0.34411   0.34433   0.34440   0.34502   0.34519
     Eigenvalues ---    0.34544   0.35198   0.51568   0.54522   0.82505
 RFO step:  Lambda=-1.79008078D-02 EMin= 2.30000000D-03
 Linear search not attempted -- first point.
 Iteration  1 RMS(Cart)=  0.04497337 RMS(Int)=  0.00118337
 Iteration  2 RMS(Cart)=  0.00167582 RMS(Int)=  0.00008134
 Iteration  3 RMS(Cart)=  0.00000169 RMS(Int)=  0.00008133
 Iteration  4 RMS(Cart)=  0.00000000 RMS(Int)=  0.00008133
 ITry= 1 IFail=0 DXMaxC= 2.77D-01 DCOld= 1.00D+10 DXMaxT= 3.00D-01 DXLimC= 3.00D+00 Rises=F
 Variable       Old X    -DE/DX   Delta X   Delta X   Delta X     New X
                                 (Linear)    (Quad)   (Total)
    R1        2.36592  -0.02330   0.00000  -0.02765  -0.02765   2.33828
    R2        2.55560  -0.00692   0.00000  -0.01229  -0.01229   2.54330
    R3        2.78654   0.01334   0.00000   0.03606   0.03606   2.82260
    R4        1.85015  -0.00289   0.00000  -0.00541  -0.00541   1.84474
    R5        2.93792  -0.00463   0.00000  -0.01593  -0.01593   2.92199
    R6        2.06491   0.00600   0.00000   0.01653   0.01653   2.08144
    R7        2.06660   0.00344   0.00000   0.00950   0.00950   2.07610
    R8        2.95331  -0.01290   0.00000  -0.04547  -0.04547   2.90785
    R9        2.06783   0.00469   0.00000   0.01299   0.01299   2.08082
   R10        2.06948   0.00481   0.00000   0.01334   0.01334   2.08282
   R11        2.95295  -0.01145   0.00000  -0.04064  -0.04061   2.91234
   R12        2.95130  -0.01106   0.00000  -0.03936  -0.03933   2.91197
   R13        2.07000   0.00666   0.00000   0.01851   0.01851   2.08851
[...]
                 (A) (A) (A) (A) (A) (A) (A) (A) (A) (A) (A) (A)
                 (A) (A) (A) (A) (A) (A) (A) (A) (A) (A) (A) (A)
                 (A) (A) (A) (A) (A) (A) (A) (A) (A) (A) (A) (A)
                 (A) (A) (A) (A) (A) (A) (A) (A) (A) (A) (A) (A)
                 (A) (A) (A) (A) (A) (A) (A) (A) (A) (A) (A) (A)
                 (A) (A) (A) (A) (A) (A) (A) (A) (A) (A) (A) (A)
                 (A) (A) (A) (A) (A) (A) (A) (A) (A) (A) (A) (A)
                 (A) (A) (A) (A) (A) (A) (A) (A) (A) (A) (A) (A)
                 (A) (A) (A) (A) (A) (A) (A) (A) (A) (A)
 The electronic state is 1-A.
 Alpha  occ. eigenvalues --  -18.81835 -18.76978 -10.03207  -9.90962  -9.89467
 Alpha  occ. eigenvalues --   -9.89314  -9.88555  -9.88536  -9.88484  -9.88474
 Alpha  occ. eigenvalues --   -9.88471  -1.02044  -0.93870  -0.75906  -0.71977
 Alpha  occ. eigenvalues --   -0.67051  -0.66469  -0.60208  -0.54738  -0.53787
 Alpha  occ. eigenvalues --   -0.50953  -0.49171  -0.45183  -0.43623  -0.43470
 Alpha  occ. eigenvalues --   -0.41664  -0.39439  -0.38526  -0.38275  -0.36702
 Alpha  occ. eigenvalues --   -0.35921  -0.34679  -0.32922  -0.31975  -0.31498
 Alpha  occ. eigenvalues --   -0.30199  -0.29421  -0.29216  -0.28399  -0.27103
 Alpha  occ. eigenvalues --   -0.25791  -0.25323  -0.24807
 Alpha virt. eigenvalues --   -0.04533   0.02238   0.03159   0.03852   0.04460
 Alpha virt. eigenvalues --    0.05262   0.07272   0.07700   0.08275   0.09003
 Alpha virt. eigenvalues --    0.10061   0.10330   0.10584   0.10656   0.11601
 Alpha virt. eigenvalues --    0.12923   0.13265   0.14227   0.14929   0.15278
 Alpha virt. eigenvalues --    0.16541   0.17199   0.17890   0.18181   0.19612
 Alpha virt. eigenvalues --    0.20029   0.20902   0.21320   0.22004   0.22550
 Alpha virt. eigenvalues --    0.23781   0.24320   0.25483   0.27056   0.27934
 Alpha virt. eigenvalues --    0.29215   0.29923   0.30521   0.31712   0.33153
 Alpha virt. eigenvalues --    0.33483   0.34641   0.36420   0.36964   0.37785
 Alpha virt. eigenvalues --    0.38274   0.38976   0.39558   0.39839   0.40466
 Alpha virt. eigenvalues --    0.41090   0.41390   0.41761   0.41900   0.42137
 Alpha virt. eigenvalues --    0.42626   0.43201   0.43400   0.43482   0.44893
 Alpha virt. eigenvalues --    0.45030   0.46020   0.46426   0.46652   0.46840
 Alpha virt. eigenvalues --    0.47936   0.48365   0.49030   0.49943   0.51324
 Alpha virt. eigenvalues --    0.52396   0.53683   0.55600   0.56898   0.58413
 Alpha virt. eigenvalues --    0.59683   0.60902   0.63339   0.65272   0.67914
 Alpha virt. eigenvalues --    0.70561   0.72933   0.74636   0.76707   0.78357
 Alpha virt. eigenvalues --    0.79417   0.81677   0.92018   1.04452   1.05889
 Alpha virt. eigenvalues --    1.06573   1.12593   1.14186   1.17277   1.18894
 Alpha virt. eigenvalues --    1.20855   1.22368   1.23431   1.23931   1.24836
 Alpha virt. eigenvalues --    1.25576   1.27099   1.27632   1.27903   1.28935
 Alpha virt. eigenvalues --    1.30246   1.30482   1.31039   1.32268   1.33198
 Alpha virt. eigenvalues --    1.34006   1.34412   1.36775   1.38181   1.38577
 Alpha virt. eigenvalues --    1.39501   1.39680   1.40839   1.43241   1.44266
 Alpha virt. eigenvalues --    1.45745   1.48029   1.48749   1.49686   1.50747
 Alpha virt. eigenvalues --    1.52513   1.53067   1.53541   1.55604   1.56172
 Alpha virt. eigenvalues --    1.56737   1.59071   1.59309   1.62599   1.64075
 Alpha virt. eigenvalues --    1.64289   1.65669   1.66370   1.66612   1.68227
 Alpha virt. eigenvalues --    1.69606   1.70668   1.73109   1.74148   1.74465
 Alpha virt. eigenvalues --    1.74666   1.75237   1.76305   1.78608   1.79273
 Alpha virt. eigenvalues --    1.80413   1.81203   1.81880   1.83529   1.85258
 Alpha virt. eigenvalues --    1.87450   1.89007   1.90282   1.91286   1.92294
 Alpha virt. eigenvalues --    1.93917   1.95390   1.97228   1.98182   1.99863
 Alpha virt. eigenvalues --    2.01846   2.02941   2.07254   2.09320   2.12155
 Alpha virt. eigenvalues --    2.13263   2.16500   2.19108   2.20766   2.25747
 Alpha virt. eigenvalues --    2.27037   2.27714   2.29512   2.31673   2.32868
 Alpha virt. eigenvalues --    2.33120   2.34261   2.37302   2.39427   2.40068
 Alpha virt. eigenvalues --    2.40159   2.42120   2.44093   2.46486   2.47002
 Alpha virt. eigenvalues --    2.48799   2.49165   2.51041   2.51769   2.52600
 Alpha virt. eigenvalues --    2.54366   2.55376   2.55926   2.56200   2.57222
 Alpha virt. eigenvalues --    2.57949   2.58462   2.59230   2.59467   2.60854
 Alpha virt. eigenvalues --    2.61449   2.63751   2.64528   2.66244   2.67465
 Alpha virt. eigenvalues --    2.69792   2.71069   2.71764   2.72880   2.79708
 Alpha virt. eigenvalues --    2.80150   2.81883   2.83563   2.85531   2.85870
 Alpha virt. eigenvalues --    2.87483   2.93864   2.95206   2.98880   3.01454
 Alpha virt. eigenvalues --    3.02574   3.03816   3.08388   3.10374   3.14244
 Alpha virt. eigenvalues --    3.16789   3.21157   3.24258   3.27419   3.29447
 Alpha virt. eigenvalues --    3.30631   3.31502   3.32325   3.32683   3.36156
 Alpha virt. eigenvalues --    3.37222   3.38660   3.40664   3.41539   3.42946
 Alpha virt. eigenvalues --    3.45972   3.47158   3.50048   3.80441   4.08305
 Alpha virt. eigenvalues --    4.18565  21.69269  21.75234  21.78527  21.81311
 Alpha virt. eigenvalues --   21.83919  21.85338  21.88935  21.94528  21.95315
 Alpha virt. eigenvalues --   43.06327  43.16923
          Condensed to atoms (all electrons):
               1          2          3          4          5          6
     1  O    7.967921   0.622321  -0.105502  -0.169130   0.034023  -0.000048
     2  C    0.622321   4.868035   0.361457  -0.052601   0.067145  -0.006308
     3  O   -0.105502   0.361457   7.904354  -0.185279   0.015877  -0.000486
     4  C   -0.169130  -0.052601  -0.185279   5.965250  -0.044520   0.030090
     5  C    0.034023   0.067145   0.015877  -0.044520   5.560491   0.047685
     6  C   -0.000048  -0.006308  -0.000486   0.030090   0.047685   5.575524
     7  C    0.000154   0.000484   0.000021   0.012995  -0.049345   0.214180
     8  C   -0.000001   0.000047  -0.000000  -0.001439   0.018635  -0.055486
     9  C   -0.000000   0.000015   0.000000   0.000259  -0.005856  -0.019155
    10  C    0.000002  -0.000055  -0.000001   0.002160   0.015671  -0.053245
    11  C   -0.000013   0.000603  -0.000021  -0.003458  -0.039678   0.198809
    12  H    0.002379  -0.017363   0.282859   0.019919  -0.001826   0.000084
    13  H    0.002509  -0.015859   0.006663   0.389175  -0.047763   0.003858
    14  H    0.001669  -0.000155   0.006676   0.374957  -0.029738  -0.010559
    15  H    0.003256  -0.012545   0.000140  -0.022946   0.400616  -0.019983
    16  H    0.003492  -0.008324   0.000130  -0.031290   0.413703  -0.050443
    17  H    0.000072  -0.000349  -0.000022  -0.013039  -0.042807   0.437932
    18  H   -0.000028  -0.000129  -0.000000   0.000127  -0.008202  -0.036027
    19  H   -0.000020  -0.000222  -0.000000   0.000446  -0.014785  -0.037470
    20  H   -0.000000  -0.000002   0.000000   0.000071  -0.001071   0.015406
    21  H    0.000000  -0.000004   0.000000  -0.000004  -0.000993  -0.007207
    22  H    0.000000   0.000000  -0.000000  -0.000008   0.000257  -0.001508
    23  H    0.000000  -0.000002  -0.000000  -0.000004  -0.000309  -0.003464
    24  H    0.000000  -0.000000   0.000000  -0.000053  -0.000744   0.013218
    25  H    0.000000  -0.000012   0.000000  -0.000257  -0.000628  -0.006962
    26  H   -0.000022  -0.000437   0.000001  -0.003582  -0.004825  -0.043981
    27  H    0.000006  -0.000136  -0.000027   0.007208  -0.010839  -0.043066
               7          8          9         10         11         12
     1  O    0.000154  -0.000001  -0.000000   0.000002  -0.000013   0.002379
     2  C    0.000484   0.000047   0.000015  -0.000055   0.000603  -0.017363
     3  O    0.000021  -0.000000   0.000000  -0.000001  -0.000021   0.282859
     4  C    0.012995  -0.001439   0.000259   0.002160  -0.003458   0.019919
     5  C   -0.049345   0.018635  -0.005856   0.015671  -0.039678  -0.001826
     6  C    0.214180  -0.055486  -0.019155  -0.053245   0.198809   0.000084
     7  C    5.319302   0.263351  -0.065574  -0.017505  -0.048642  -0.000004
     8  C    0.263351   5.167221   0.300874  -0.079893  -0.019872   0.000000
     9  C   -0.065574   0.300874   5.182017   0.298146  -0.055598  -0.000000
    10  C   -0.017505  -0.079893   0.298146   5.185586   0.246990   0.000000
    11  C   -0.048642  -0.019872  -0.055598   0.246990   5.392658  -0.000001
    12  H   -0.000004   0.000000  -0.000000   0.000000  -0.000001   0.384937
    13  H   -0.000857   0.000009  -0.000034  -0.000177  -0.003113  -0.000404
    14  H    0.000261  -0.000052   0.000046   0.000058   0.005336  -0.000390
    15  H   -0.014678  -0.000134  -0.000099  -0.000131  -0.016903   0.000002
    16  H   -0.002798   0.000351   0.000250  -0.000862   0.014311  -0.000002
    17  H   -0.047455  -0.002951  -0.005625  -0.000732  -0.073007   0.000000
    18  H    0.384114  -0.022005   0.011769  -0.002238   0.015607   0.000000
    19  H    0.415206  -0.049242  -0.008629   0.000423  -0.018897   0.000000
    20  H   -0.039381   0.391919  -0.032256   0.013637  -0.002683  -0.000000
    21  H   -0.050225   0.418249  -0.054106  -0.003389  -0.005220  -0.000000
    22  H    0.014728  -0.037450   0.394135  -0.036994   0.013222   0.000000
    23  H   -0.006886  -0.048200   0.411789  -0.048465  -0.006790  -0.000000
    24  H   -0.003038   0.014249  -0.033149   0.390022  -0.034896  -0.000000
    25  H   -0.004036  -0.004113  -0.053456   0.418220  -0.051901  -0.000000
    26  H   -0.008460  -0.000943  -0.008781  -0.044570   0.398100  -0.000000
    27  H    0.010000  -0.001550   0.011295  -0.026395   0.402718  -0.000002
              13         14         15         16         17         18
     1  O    0.002509   0.001669   0.003256   0.003492   0.000072  -0.000028
     2  C   -0.015859  -0.000155  -0.012545  -0.008324  -0.000349  -0.000129
     3  O    0.006663   0.006676   0.000140   0.000130  -0.000022  -0.000000
     4  C    0.389175   0.374957  -0.022946  -0.031290  -0.013039   0.000127
     5  C   -0.047763  -0.029738   0.400616   0.413703  -0.042807  -0.008202
     6  C    0.003858  -0.010559  -0.019983  -0.050443   0.437932  -0.036027
     7  C   -0.000857   0.000261  -0.014678  -0.002798  -0.047455   0.384114
     8  C    0.000009  -0.000052  -0.000134   0.000351  -0.002951  -0.022005
     9  C   -0.000034   0.000046  -0.000099   0.000250  -0.005625   0.011769
    10  C   -0.000177   0.000058  -0.000131  -0.000862  -0.000732  -0.002238
    11  C   -0.003113   0.005336  -0.016903   0.014311  -0.073007   0.015607
    12  H   -0.000404  -0.000390   0.000002  -0.000002   0.000000   0.000000
    13  H    0.486257  -0.012603   0.005707  -0.001410   0.003906   0.000140
    14  H   -0.012603   0.468546  -0.001627   0.004107   0.001207  -0.000062
    15  H    0.005707  -0.001627   0.543140  -0.024426   0.007974   0.000259
    16  H   -0.001410   0.004107  -0.024426   0.534169  -0.003464   0.005590
    17  H    0.003906   0.001207   0.007974  -0.003464   0.569977  -0.005618
    18  H    0.000140  -0.000062   0.000259   0.005590  -0.005618   0.551673
    19  H   -0.000013   0.000111   0.006244  -0.000012   0.009887  -0.026543
    20  H    0.000001  -0.000001   0.000028  -0.000062  -0.000112  -0.003748
    21  H   -0.000015   0.000010   0.000014   0.000081   0.007494  -0.005580
    22  H   -0.000000   0.000001  -0.000005  -0.000004   0.000026  -0.000438
    23  H    0.000000   0.000006   0.000022   0.000008   0.000598  -0.000215
    24  H    0.000002   0.000021  -0.000010   0.000029  -0.000165   0.000101
    25  H    0.000054   0.000046   0.000043   0.000016   0.006739  -0.000036
    26  H    0.000317   0.000536   0.007010  -0.000080   0.009841  -0.000371
    27  H    0.000139   0.000283   0.000275  -0.000331  -0.003015  -0.000351
              19         20         21         22         23         24
     1  O   -0.000020  -0.000000   0.000000   0.000000   0.000000   0.000000
     2  C   -0.000222  -0.000002  -0.000004   0.000000  -0.000002  -0.000000
     3  O   -0.000000   0.000000   0.000000  -0.000000  -0.000000   0.000000
     4  C    0.000446   0.000071  -0.000004  -0.000008  -0.000004  -0.000053
     5  C   -0.014785  -0.001071  -0.000993   0.000257  -0.000309  -0.000744
     6  C   -0.037470   0.015406  -0.007207  -0.001508  -0.003464   0.013218
     7  C    0.415206  -0.039381  -0.050225   0.014728  -0.006886  -0.003038
     8  C   -0.049242   0.391919   0.418249  -0.037450  -0.048200   0.014249
     9  C   -0.008629  -0.032256  -0.054106   0.394135   0.411789  -0.033149
    10  C    0.000423   0.013637  -0.003389  -0.036994  -0.048465   0.390022
    11  C   -0.018897  -0.002683  -0.005220   0.013222  -0.006790  -0.034896
    12  H    0.000000  -0.000000  -0.000000   0.000000  -0.000000  -0.000000
    13  H   -0.000013   0.000001  -0.000015  -0.000000   0.000000   0.000002
    14  H    0.000111  -0.000001   0.000010   0.000001   0.000006   0.000021
    15  H    0.006244   0.000028   0.000014  -0.000005   0.000022  -0.000010
    16  H   -0.000012  -0.000062   0.000081  -0.000004   0.000008   0.000029
    17  H    0.009887  -0.000112   0.007494   0.000026   0.000598  -0.000165
    18  H   -0.026543  -0.003748  -0.005580  -0.000438  -0.000215   0.000101
    19  H    0.575069  -0.004049   0.009559  -0.000065   0.006788   0.000012
    20  H   -0.004049   0.550232  -0.024738  -0.003024  -0.004843  -0.000474
    21  H    0.009559  -0.024738   0.576107  -0.003162   0.009303  -0.000241
    22  H   -0.000065  -0.003024  -0.003162   0.544750  -0.023071  -0.002999
    23  H    0.006788  -0.004843   0.009303  -0.023071   0.577927  -0.004861
    24  H    0.000012  -0.000474  -0.000241  -0.002999  -0.004861   0.550226
    25  H    0.000523  -0.000184   0.006711  -0.003734   0.009403  -0.024265
    26  H    0.007790   0.000046   0.000573  -0.000102   0.006769  -0.004471
    27  H   -0.000198   0.000084  -0.000077  -0.000394  -0.000205  -0.004040
              25         26         27
     1  O    0.000000  -0.000022   0.000006
     2  C   -0.000012  -0.000437  -0.000136
     3  O    0.000000   0.000001  -0.000027
     4  C   -0.000257  -0.003582   0.007208
     5  C   -0.000628  -0.004825  -0.010839
     6  C   -0.006962  -0.043981  -0.043066
     7  C   -0.004036  -0.008460   0.010000
     8  C   -0.004113  -0.000943  -0.001550
     9  C   -0.053456  -0.008781   0.011295
    10  C    0.418220  -0.044570  -0.026395
    11  C   -0.051901   0.398100   0.402718
    12  H   -0.000000  -0.000000  -0.000002
    13  H    0.000054   0.000317   0.000139
    14  H    0.000046   0.000536   0.000283
    15  H    0.000043   0.007010   0.000275
    16  H    0.000016  -0.000080  -0.000331
    17  H    0.006739   0.009841  -0.003015
    18  H   -0.000036  -0.000371  -0.000351
    19  H    0.000523   0.007790  -0.000198
    20  H   -0.000184   0.000046   0.000084
    21  H    0.006711   0.000573  -0.000077
    22  H   -0.003734  -0.000102  -0.000394
    23  H    0.009403   0.006769  -0.000205
    24  H   -0.024265  -0.004471  -0.004040
    25  H    0.576294   0.009321  -0.004375
    26  H    0.009321   0.574843  -0.022588
    27  H   -0.004375  -0.022588   0.530254
 Mulliken charges:
               1
     1  O   -0.363040
     2  C    0.194398
     3  O   -0.286840
     4  C   -0.275046
     5  C   -0.270176
     6  C   -0.141386
     7  C   -0.275913
     8  C   -0.251574
     9  C   -0.268277
    10  C   -0.256262
    11  C   -0.307664
    12  H    0.329812
    13  H    0.183511
    14  H    0.191311
    15  H    0.138756
    16  H    0.147272
    17  H    0.142706
    18  H    0.142212
    19  H    0.128088
    20  H    0.145203
    21  H    0.126860
    22  H    0.145839
    23  H    0.124701
    24  H    0.145527
    25  H    0.126590
    26  H    0.128066
    27  H    0.155325
 Sum of Mulliken charges =  -0.00000
 Mulliken charges with hydrogens summed into heavy atoms:
               1
     1  O   -0.363040
     2  C    0.194398
     3  O    0.042972
     4  C    0.099776
     5  C    0.015853
     6  C    0.001321
     7  C   -0.005613
     8  C    0.020489
     9  C    0.002263
    10  C    0.015855
    11  C   -0.024273
 Electronic spatial extent (au):  <R**2>=           2828.6339
 Charge=              0.0000 electrons
 Dipole moment (field-independent basis, Debye):
    X=              0.6808    Y=              1.9923    Z=             -1.0853  Tot=              2.3687
 Quadrupole moment (field-independent basis, Debye-Ang):
   XX=            -66.0197   YY=            -73.7764   ZZ=            -69.5075
   XY=             -6.5018   XZ=              3.0931   YZ=              2.7257
 Traceless Quadrupole moment (field-independent basis, Debye-Ang):
   XX=              3.7481   YY=             -4.0085   ZZ=              0.2604
   XY=             -6.5018   XZ=              3.0931   YZ=              2.7257
 Octapole moment (field-independent basis, Debye-Ang**2):
  XXX=            -88.5228  YYY=              3.4212  ZZZ=             -1.1329  XYY=              5.5913
  XXY=             24.7412  XXZ=            -10.2524  XZZ=             -6.6200  YZZ=              1.2171
  YYZ=             -1.4446  XYZ=            -10.1429
 Hexadecapole moment (field-independent basis, Debye-Ang**3):
 XXXX=          -2590.8420 YYYY=           -500.4975 ZZZZ=           -176.1289 XXXY=           -110.2719
 XXXZ=             34.7185 YYYX=            -11.8628 YYYZ=              5.3207 ZZZX=              2.7430
 ZZZY=             -3.9020 XXYY=           -652.1864 XXZZ=           -555.1284 YYZZ=           -114.5013
 XXYZ=             32.8136 YYXZ=              6.4430 ZZXY=             -3.0610
 N-N= 6.265830661556D+02 E-N=-2.425632463888D+03  KE= 5.007573092845D+02
 Unable to Open any file for archive entry.
 1\1\GINC-TCN1717\SP\RBP86\TZVP\C9H16O2\ELENAA\22-Feb-2021\0\\# BP86/TZ
 VP SCRF=COSMORS geom=CHECKPOINT guess=CHECKPOINT\\COSMO-file for #HJZL
 EGIHUQOJBA-UHFFFAOYSA-N\\0,1\O,0,1.5126457175,0.8623340168,-0.70155897
 18\C,0,1.5255780284,-0.2908893241,-0.2993869466\O,0,2.6862533893,-0.96
 95110854,-0.0590375669\C,0,0.3160770914,-1.1454007471,0.0014990996\C,0
 ,-1.0124087456,-0.4632797411,-0.3320658393\C,0,-2.242993023,-1.3640439
 49,-0.1298990593\C,0,-3.5130059981,-0.6662095207,-0.6553174193\C,0,-4.
 771362273,-1.5286014974,-0.4715231168\C,0,-4.9554021633,-1.9370512301,
 0.9983520629\C,0,-3.7005782666,-2.6456513962,1.5309362694\C,0,-2.44202
 35862,-1.7829192216,1.340256169\H,0,3.4296203907,-0.3625101681,-0.2644
 976912\H,0,0.4264618698,-2.0922475088,-0.5540462302\H,0,0.3772342554,-
 1.4210608017,1.0672419428\H,0,-1.1223379628,0.4468252926,0.2825176497\
 H,0,-0.9833822805,-0.1243452795,-1.3810129508\H,0,-2.0958156451,-2.286
 5253655,-0.7267347192\H,0,-3.3798054451,-0.4033363642,-1.7186275891\H,
 0,-3.6422177689,0.2869061068,-0.1079778178\H,0,-5.6598579633,-0.986988
 548,-0.8359618855\H,0,-4.6794507386,-2.4395079333,-1.0913250619\H,0,-5
 .8402997351,-2.5850958915,1.1107666358\H,0,-5.1447894439,-1.031821014,
 1.6043599791\H,0,-3.8251062973,-2.9024599044,2.5958671455\H,0,-3.56760
 30004,-3.6002297102,0.9891736612\H,0,-2.5274782868,-0.8672457107,1.956
 0226723\H,0,-1.5596121189,-2.3302735035,1.7097695782\\Version=ES64L-G1
 6RevC.01\State=1-A\HF=-503.2555599\RMSD=4.826e-09\Dipole=-0.0170876,-0
 .8820167,0.3003467\Quadrupole=5.0851,-5.2068457,0.1217458,-2.6408003,0
 .9198217,2.6062104\PG=C01 [X(C9H16O2)]\\@
 The archive entry for this job was punched.


 Just remember, when you're over the hill, you begin to pick up speed.
 -- Charles Schulz
 Job cpu time:       0 days  0 hours  8 minutes 29.2 seconds.
 Elapsed time:       0 days  0 hours  0 minutes 16.5 seconds.
 File lengths (MBytes):  RWF=     76 Int=      0 D2E=      0 Chk=     12 Scr=      1
 Normal termination of Gaussian 16 at Mon Feb 22 21:18:01 2021.
