 Entering Gaussian System, Link 0=g16
 Input=HWCKGOZZJDHMNC-UHFFFAOYSA-M.gjf
 Output=HWCKGOZZJDHMNC-UHFFFAOYSA-M.log
 Initial command:
 /sw/arch/RedHatEnterpriseServer7/EB_production/2020/software/Gaussian/g16.c01/l1.exe "/scratch-local/elenaa.10684692/Gau-28431.inp" -scrdir="/scratch-local/elenaa.10684692/"
 Entering Link 1 = /sw/arch/RedHatEnterpriseServer7/EB_production/2020/software/Gaussian/g16.c01/l1.exe PID=     28432.
  
 Copyright (c) 1988-2019, Gaussian, Inc.  All Rights Reserved.
  
 This is part of the Gaussian(R) 16 program.  It is based on
 the Gaussian(R) 09 system (copyright 2009, Gaussian, Inc.),
 the Gaussian(R) 03 system (copyright 2003, Gaussian, Inc.),
 the Gaussian(R) 98 system (copyright 1998, Gaussian, Inc.),
 the Gaussian(R) 94 system (copyright 1995, Gaussian, Inc.),
 the Gaussian 92(TM) system (copyright 1992, Gaussian, Inc.),
 the Gaussian 90(TM) system (copyright 1990, Gaussian, Inc.),
 the Gaussian 88(TM) system (copyright 1988, Gaussian, Inc.),
 the Gaussian 86(TM) system (copyright 1986, Carnegie Mellon
 University), and the Gaussian 82(TM) system (copyright 1983,
 Carnegie Mellon University). Gaussian is a federally registered
 trademark of Gaussian, Inc.
  
 This software contains proprietary and confidential information,
 including trade secrets, belonging to Gaussian, Inc.
  
 This software is provided under written license and may be
 used, copied, transmitted, or stored only in accord with that
 written license.
  
 The following legend is applicable only to US Government
 contracts under FAR:
  
                    RESTRICTED RIGHTS LEGEND
  
 Use, reproduction and disclosure by the US Government is
 subject to restrictions as set forth in subparagraphs (a)
 and (c) of the Commercial Computer Software - Restricted
 Rights clause in FAR 52.227-19.
  
 Gaussian, Inc.
 340 Quinnipiac St., Bldg. 40, Wallingford CT 06492
  
  
 ---------------------------------------------------------------
 Warning -- This program may not be used in any manner that
 competes with the business of Gaussian, Inc. or will provide
 assistance to any competitor of Gaussian, Inc.  The licensee
 of this program is prohibited from giving any competitor of
 Gaussian, Inc. access to this program.  By using this program,
 the user acknowledges that Gaussian, Inc. is engaged in the
 business of creating and licensing software in the field of
 computational chemistry and represents and warrants to the
 licensee that it is not a competitor of Gaussian, Inc. and that
 it will not use this program in any manner prohibited above.
 ---------------------------------------------------------------
  

 Cite this work as:
 Gaussian 16, Revision C.01,
 M. J. Frisch, G. W. Trucks, H. B. Schlegel, G. E. Scuseria, 
 M. A. Robb, J. R. Cheeseman, G. Scalmani, V. Barone, 
 G. A. Petersson, H. Nakatsuji, X. Li, M. Caricato, A. V. Marenich, 
 J. Bloino, B. G. Janesko, R. Gomperts, B. Mennucci, H. P. Hratchian, 
 J. V. Ortiz, A. F. Izmaylov, J. L. Sonnenberg, D. Williams-Young, 
 F. Ding, F. Lipparini, F. Egidi, J. Goings, B. Peng, A. Petrone, 
 T. Henderson, D. Ranasinghe, V. G. Zakrzewski, J. Gao, N. Rega, 
 G. Zheng, W. Liang, M. Hada, M. Ehara, K. Toyota, R. Fukuda, 
 J. Hasegawa, M. Ishida, T. Nakajima, Y. Honda, O. Kitao, H. Nakai, 
 T. Vreven, K. Throssell, J. A. Montgomery, Jr., J. E. Peralta, 
 F. Ogliaro, M. J. Bearpark, J. J. Heyd, E. N. Brothers, K. N. Kudin, 
 V. N. Staroverov, T. A. Keith, R. Kobayashi, J. Normand, 
 K. Raghavachari, A. P. Rendell, J. C. Burant, S. S. Iyengar, 
 J. Tomasi, M. Cossi, J. M. Millam, M. Klene, C. Adamo, R. Cammi, 
 J. W. Ochterski, R. L. Martin, K. Morokuma, O. Farkas, 
 J. B. Foresman, and D. J. Fox, Gaussian, Inc., Wallingford CT, 2019.
 
 ******************************************
 Gaussian 16:  ES64L-G16RevC.01  3-Jul-2019
                21-Aug-2021 
 ******************************************
 %chk=HWCKGOZZJDHMNC-UHFFFAOYSA-M.chk
 %NProcShared=24
 Will use up to   24 processors via shared memory.
 -------------------------------------------------------------
 #P BP86/TZVP EmpiricalDispersion=GD3 SCRF=(Solvent=Water) Opt
 -------------------------------------------------------------
 1/18=20,19=15,26=3,38=1/1,3;
 2/9=110,12=2,17=6,18=5,40=1/2;
 3/5=19,7=101,11=2,25=1,30=1,70=2201,71=1,72=1,74=404,124=31/1,2,3;
 4//1;
 5/5=2,38=5,53=1/2;
 6/7=2,8=2,9=2,10=2,28=1/1;
 7//1,2,3,16;
 1/18=20,19=15,26=3/3(2);
 2/9=110/2;
 99//99;
 2/9=110/2;
 3/5=19,7=101,11=2,25=1,30=1,70=2205,71=1,72=1,74=404,124=31/1,2,3;
 4/5=5,16=3,69=1/1;
 5/5=2,38=5,53=1/2;
 7//1,2,3,16;
 1/18=20,19=15,26=3/3(-5);
 2/9=110/2;
 6/7=2,8=2,9=2,10=2,19=2,28=1/1;
 99/9=1/99;
 Leave Link    1 at Sat Aug 21 09:32:11 2021, MaxMem=           0 cpu:               4.2 elap:               0.3
 (Enter /sw/arch/RedHatEnterpriseServer7/EB_production/2020/software/Gaussian/g16.c01/l101.exe)
 -------------------------------------
 Particle #HWCKGOZZJDHMNC-UHFFFAOYSA-M
 -------------------------------------
 Symbolic Z-matrix:
 Charge =  0 Multiplicity = 1
 C                    -0.28741  -0.67375  -2.61285 
 C                     0.50004  -0.81303  -1.30343 
 N                    -0.01191  -0.02939  -0.12667 
 C                    -1.26073  -0.68905   0.41636 
 C                    -1.10956  -2.08649   1.05966 
 C                    -0.33959   1.41793  -0.41794 
 C                    -1.74976   1.74262  -0.9659 
 C                     1.01984  -0.0804    0.97217 
 C                     2.30271   0.74299   0.75354 
 Br                   -1.32034   1.97342   2.88089 
 H                    -0.24413   0.36349  -3.00071 
 H                    -1.33736  -1.00727  -2.49664 
 H                     0.17869  -1.32584  -3.38158 
 H                     1.5526   -0.5859   -1.51396 
 H                     0.55088  -1.89341  -1.07028 
 H                    -1.71303  -0.04624   1.20665 
 H                    -2.03067  -0.79444  -0.37578 
 H                    -0.49943  -2.05192   1.98497 
 H                    -0.70625  -2.84456   0.36271 
 H                    -2.1168   -2.44264   1.36352 
 H                    -0.25234   2.02673   0.51137 
 H                     0.37465   1.85431  -1.11844 
 H                    -2.04377   1.11541  -1.82502 
 H                    -1.76966   2.80022  -1.3048 
 H                    -2.51829   1.64664  -0.17091 
 H                     1.36144  -1.12605   1.14105 
 H                     0.57485   0.27052   1.93241 
 H                     2.09527   1.80477   0.51601 
 H                     2.89405   0.73252   1.6936 
 H                     2.94609   0.28932  -0.02473 
 
 Add virtual bond connecting atoms H16        and Br10       Dist= 5.01D+00.
 Add virtual bond connecting atoms H21        and Br10       Dist= 4.91D+00.
 Add virtual bond connecting atoms H27        and Br10       Dist= 5.14D+00.
 ITRead=  0  0  0  0  0  0  0  0  0  0  0  0  0  0  0  0  0  0  0  0
 ITRead=  0  0  0  0  0  0  0  0  0  0
 MicOpt= -1 -1 -1 -1 -1 -1 -1 -1 -1 -1 -1 -1 -1 -1 -1 -1 -1 -1 -1 -1
 MicOpt= -1 -1 -1 -1 -1 -1 -1 -1 -1 -1
 NAtoms=     30 NQM=       30 NQMF=       0 NMMI=      0 NMMIF=      0
                NMic=       0 NMicF=      0.
                    Isotopes and Nuclear Properties:
 (Nuclear quadrupole moments (NQMom) in fm**2, nuclear magnetic moments (NMagM)
  in nuclear magnetons)

  Atom         1           2           3           4           5           6           7           8           9          10
 IAtWgt=          12          12          14          12          12          12          12          12          12          79
 AtmWgt=  12.0000000  12.0000000  14.0030740  12.0000000  12.0000000  12.0000000  12.0000000  12.0000000  12.0000000  78.9183361
 NucSpn=           0           0           2           0           0           0           0           0           0           3
 AtZEff=  -0.0000000  -0.0000000  -0.0000000  -0.0000000  -0.0000000  -0.0000000  -0.0000000  -0.0000000  -0.0000000  -0.0000000
 NQMom=    0.0000000   0.0000000   2.0440000   0.0000000   0.0000000   0.0000000   0.0000000   0.0000000   0.0000000  31.3000000
 NMagM=    0.0000000   0.0000000   0.4037610   0.0000000   0.0000000   0.0000000   0.0000000   0.0000000   0.0000000   2.1063990
 AtZNuc=   6.0000000   6.0000000   7.0000000   6.0000000   6.0000000   6.0000000   6.0000000   6.0000000   6.0000000  35.0000000

  Atom        11          12          13          14          15          16          17          18          19          20
 IAtWgt=           1           1           1           1           1           1           1           1           1           1
 AtmWgt=   1.0078250   1.0078250   1.0078250   1.0078250   1.0078250   1.0078250   1.0078250   1.0078250   1.0078250   1.0078250
 NucSpn=           1           1           1           1           1           1           1           1           1           1
 AtZEff=  -0.0000000  -0.0000000  -0.0000000  -0.0000000  -0.0000000  -0.0000000  -0.0000000  -0.0000000  -0.0000000  -0.0000000
 NQMom=    0.0000000   0.0000000   0.0000000   0.0000000   0.0000000   0.0000000   0.0000000   0.0000000   0.0000000   0.0000000
 NMagM=    2.7928460   2.7928460   2.7928460   2.7928460   2.7928460   2.7928460   2.7928460   2.7928460   2.7928460   2.7928460
 AtZNuc=   1.0000000   1.0000000   1.0000000   1.0000000   1.0000000   1.0000000   1.0000000   1.0000000   1.0000000   1.0000000

  Atom        21          22          23          24          25          26          27          28          29          30
 IAtWgt=           1           1           1           1           1           1           1           1           1           1
 AtmWgt=   1.0078250   1.0078250   1.0078250   1.0078250   1.0078250   1.0078250   1.0078250   1.0078250   1.0078250   1.0078250
 NucSpn=           1           1           1           1           1           1           1           1           1           1
 AtZEff=  -0.0000000  -0.0000000  -0.0000000  -0.0000000  -0.0000000  -0.0000000  -0.0000000  -0.0000000  -0.0000000  -0.0000000
 NQMom=    0.0000000   0.0000000   0.0000000   0.0000000   0.0000000   0.0000000   0.0000000   0.0000000   0.0000000   0.0000000
 NMagM=    2.7928460   2.7928460   2.7928460   2.7928460   2.7928460   2.7928460   2.7928460   2.7928460   2.7928460   2.7928460
 AtZNuc=   1.0000000   1.0000000   1.0000000   1.0000000   1.0000000   1.0000000   1.0000000   1.0000000   1.0000000   1.0000000
 Leave Link  101 at Sat Aug 21 09:32:11 2021, MaxMem=   104857600 cpu:               2.1 elap:               0.1
 (Enter /sw/arch/RedHatEnterpriseServer7/EB_production/2020/software/Gaussian/g16.c01/l103.exe)

 GradGradGradGradGradGradGradGradGradGradGradGradGradGradGradGradGradGrad
 Berny optimization.
 Initialization pass.
                           ----------------------------
                           !    Initial Parameters    !
                           ! (Angstroms and Degrees)  !
 --------------------------                            --------------------------
 ! Name  Definition              Value          Derivative Info.                !
 --------------------------------------------------------------------------------
 ! R1    R(1,2)                  1.5343         estimate D2E/DX2                !
 ! R2    R(1,11)                 1.1082         estimate D2E/DX2                !
 ! R3    R(1,12)                 1.1078         estimate D2E/DX2                !
 ! R4    R(1,13)                 1.1106         estimate D2E/DX2                !
 ! R5    R(2,3)                  1.5036         estimate D2E/DX2                !
 ! R6    R(2,14)                 1.0972         estimate D2E/DX2                !
 ! R7    R(2,15)                 1.1064         estimate D2E/DX2                !
 ! R8    R(3,4)                  1.5131         estimate D2E/DX2                !
 ! R9    R(3,6)                  1.5123         estimate D2E/DX2                !
 ! R10   R(3,8)                  1.5082         estimate D2E/DX2                !
 ! R11   R(4,5)                  1.5458         estimate D2E/DX2                !
 ! R12   R(4,16)                 1.1146         estimate D2E/DX2                !
 ! R13   R(4,17)                 1.1097         estimate D2E/DX2                !
 ! R14   R(5,18)                 1.1089         estimate D2E/DX2                !
 ! R15   R(5,19)                 1.1059         estimate D2E/DX2                !
 ! R16   R(5,20)                 1.1107         estimate D2E/DX2                !
 ! R17   R(6,7)                  1.5473         estimate D2E/DX2                !
 ! R18   R(6,21)                 1.1144         estimate D2E/DX2                !
 ! R19   R(6,22)                 1.0915         estimate D2E/DX2                !
 ! R20   R(7,23)                 1.1036         estimate D2E/DX2                !
 ! R21   R(7,24)                 1.1107         estimate D2E/DX2                !
 ! R22   R(7,25)                 1.1099         estimate D2E/DX2                !
 ! R23   R(8,9)                  1.54           estimate D2E/DX2                !
 ! R24   R(8,26)                 1.1129         estimate D2E/DX2                !
 ! R25   R(8,27)                 1.115          estimate D2E/DX2                !
 ! R26   R(9,28)                 1.1076         estimate D2E/DX2                !
 ! R27   R(9,29)                 1.1106         estimate D2E/DX2                !
 ! R28   R(9,30)                 1.107          estimate D2E/DX2                !
 ! R29   R(10,16)                2.6526         estimate D2E/DX2                !
 ! R30   R(10,21)                2.5996         estimate D2E/DX2                !
 ! R31   R(10,27)                2.7187         estimate D2E/DX2                !
 ! A1    A(2,1,11)             111.3218         estimate D2E/DX2                !
 ! A2    A(2,1,12)             111.6903         estimate D2E/DX2                !
 ! A3    A(2,1,13)             108.7853         estimate D2E/DX2                !
 ! A4    A(11,1,12)            110.8252         estimate D2E/DX2                !
 ! A5    A(11,1,13)            106.9123         estimate D2E/DX2                !
 ! A6    A(12,1,13)            107.075          estimate D2E/DX2                !
 ! A7    A(1,2,3)              116.4778         estimate D2E/DX2                !
 ! A8    A(1,2,14)             108.0478         estimate D2E/DX2                !
 ! A9    A(1,2,15)             106.9817         estimate D2E/DX2                !
 ! A10   A(3,2,14)             111.6482         estimate D2E/DX2                !
 ! A11   A(3,2,15)             111.0772         estimate D2E/DX2                !
 ! A12   A(14,2,15)            101.449          estimate D2E/DX2                !
 ! A13   A(2,3,4)              109.5516         estimate D2E/DX2                !
 ! A14   A(2,3,6)              114.9493         estimate D2E/DX2                !
 ! A15   A(2,3,8)              108.6421         estimate D2E/DX2                !
 ! A16   A(4,3,6)              107.9101         estimate D2E/DX2                !
 ! A17   A(4,3,8)              106.7617         estimate D2E/DX2                !
 ! A18   A(6,3,8)              108.7191         estimate D2E/DX2                !
 ! A19   A(3,4,5)              117.5647         estimate D2E/DX2                !
 ! A20   A(3,4,16)             109.7512         estimate D2E/DX2                !
 ! A21   A(3,4,17)             110.9689         estimate D2E/DX2                !
 ! A22   A(5,4,16)             105.4255         estimate D2E/DX2                !
 ! A23   A(5,4,17)             106.2044         estimate D2E/DX2                !
 ! A24   A(16,4,17)            106.2216         estimate D2E/DX2                !
 ! A25   A(4,5,18)             111.8934         estimate D2E/DX2                !
 ! A26   A(4,5,19)             113.1461         estimate D2E/DX2                !
 ! A27   A(4,5,20)             108.3633         estimate D2E/DX2                !
 ! A28   A(18,5,19)            110.2779         estimate D2E/DX2                !
 ! A29   A(18,5,20)            106.2999         estimate D2E/DX2                !
 ! A30   A(19,5,20)            106.4585         estimate D2E/DX2                !
 ! A31   A(3,6,7)              117.8075         estimate D2E/DX2                !
 ! A32   A(3,6,21)             110.1979         estimate D2E/DX2                !
 ! A33   A(3,6,22)             111.3746         estimate D2E/DX2                !
 ! A34   A(7,6,21)             104.5982         estimate D2E/DX2                !
 ! A35   A(7,6,22)             106.5708         estimate D2E/DX2                !
 ! A36   A(21,6,22)            105.4002         estimate D2E/DX2                !
 ! A37   A(6,7,23)             113.5299         estimate D2E/DX2                !
 ! A38   A(6,7,24)             108.9155         estimate D2E/DX2                !
 ! A39   A(6,7,25)             111.0537         estimate D2E/DX2                !
 ! A40   A(23,7,24)            107.3883         estimate D2E/DX2                !
 ! A41   A(23,7,25)            108.904          estimate D2E/DX2                !
 ! A42   A(24,7,25)            106.7664         estimate D2E/DX2                !
 ! A43   A(3,8,9)              116.6395         estimate D2E/DX2                !
 ! A44   A(3,8,26)             110.629          estimate D2E/DX2                !
 ! A45   A(3,8,27)             110.1083         estimate D2E/DX2                !
 ! A46   A(9,8,26)             105.5577         estimate D2E/DX2                !
 ! A47   A(9,8,27)             106.6457         estimate D2E/DX2                !
 ! A48   A(26,8,27)            106.7093         estimate D2E/DX2                !
 ! A49   A(8,9,28)             112.7669         estimate D2E/DX2                !
 ! A50   A(8,9,29)             108.5626         estimate D2E/DX2                !
 ! A51   A(8,9,30)             111.3985         estimate D2E/DX2                !
 ! A52   A(28,9,29)            106.8734         estimate D2E/DX2                !
 ! A53   A(28,9,30)            110.5443         estimate D2E/DX2                !
 ! A54   A(29,9,30)            106.3651         estimate D2E/DX2                !
 ! A55   A(16,10,21)            60.0749         estimate D2E/DX2                !
 ! A56   A(16,10,27)            53.5649         estimate D2E/DX2                !
 ! A57   A(21,10,27)            53.7338         estimate D2E/DX2                !
 ! A58   A(4,16,10)            145.7465         estimate D2E/DX2                !
 ! A59   A(6,21,10)            135.7852         estimate D2E/DX2                !
 ! A60   A(8,27,10)            140.8774         estimate D2E/DX2                !
 ! D1    D(11,1,2,3)            64.2168         estimate D2E/DX2                !
 ! D2    D(11,1,2,14)          -62.3504         estimate D2E/DX2                !
 ! D3    D(11,1,2,15)         -170.8798         estimate D2E/DX2                !
 ! D4    D(12,1,2,3)           -60.2532         estimate D2E/DX2                !
 ! D5    D(12,1,2,14)          173.1796         estimate D2E/DX2                !
 ! D6    D(12,1,2,15)           64.6502         estimate D2E/DX2                !
 ! D7    D(13,1,2,3)          -178.2271         estimate D2E/DX2                !
 ! D8    D(13,1,2,14)           55.2057         estimate D2E/DX2                !
 ! D9    D(13,1,2,15)          -53.3237         estimate D2E/DX2                !
 ! D10   D(1,2,3,4)             74.3928         estimate D2E/DX2                !
 ! D11   D(1,2,3,6)            -47.2854         estimate D2E/DX2                !
 ! D12   D(1,2,3,8)           -169.3252         estimate D2E/DX2                !
 ! D13   D(14,2,3,4)          -160.8517         estimate D2E/DX2                !
 ! D14   D(14,2,3,6)            77.4701         estimate D2E/DX2                !
 ! D15   D(14,2,3,8)           -44.5697         estimate D2E/DX2                !
 ! D16   D(15,2,3,4)           -48.4039         estimate D2E/DX2                !
 ! D17   D(15,2,3,6)          -170.0821         estimate D2E/DX2                !
 ! D18   D(15,2,3,8)            67.8781         estimate D2E/DX2                !
 ! D19   D(2,3,4,5)             66.4624         estimate D2E/DX2                !
 ! D20   D(2,3,4,16)          -173.1247         estimate D2E/DX2                !
 ! D21   D(2,3,4,17)           -56.0294         estimate D2E/DX2                !
 ! D22   D(6,3,4,5)           -167.7208         estimate D2E/DX2                !
 ! D23   D(6,3,4,16)           -47.3078         estimate D2E/DX2                !
 ! D24   D(6,3,4,17)            69.7875         estimate D2E/DX2                !
 ! D25   D(8,3,4,5)            -51.0041         estimate D2E/DX2                !
 ! D26   D(8,3,4,16)            69.4089         estimate D2E/DX2                !
 ! D27   D(8,3,4,17)          -173.4958         estimate D2E/DX2                !
 ! D28   D(2,3,6,7)             86.1191         estimate D2E/DX2                !
 ! D29   D(2,3,6,21)          -154.0368         estimate D2E/DX2                !
 ! D30   D(2,3,6,22)           -37.4313         estimate D2E/DX2                !
 ! D31   D(4,3,6,7)            -36.4457         estimate D2E/DX2                !
 ! D32   D(4,3,6,21)            83.3984         estimate D2E/DX2                !
 ! D33   D(4,3,6,22)          -159.9961         estimate D2E/DX2                !
 ! D34   D(8,3,6,7)           -151.8827         estimate D2E/DX2                !
 ! D35   D(8,3,6,21)           -32.0386         estimate D2E/DX2                !
 ! D36   D(8,3,6,22)            84.5669         estimate D2E/DX2                !
 ! D37   D(2,3,8,9)             72.1644         estimate D2E/DX2                !
 ! D38   D(2,3,8,26)           -48.4634         estimate D2E/DX2                !
 ! D39   D(2,3,8,27)          -166.1723         estimate D2E/DX2                !
 ! D40   D(4,3,8,9)           -169.7711         estimate D2E/DX2                !
 ! D41   D(4,3,8,26)            69.6011         estimate D2E/DX2                !
 ! D42   D(4,3,8,27)           -48.1078         estimate D2E/DX2                !
 ! D43   D(6,3,8,9)            -53.5928         estimate D2E/DX2                !
 ! D44   D(6,3,8,26)          -174.2205         estimate D2E/DX2                !
 ! D45   D(6,3,8,27)            68.0705         estimate D2E/DX2                !
 ! D46   D(3,4,5,18)            65.5249         estimate D2E/DX2                !
 ! D47   D(3,4,5,19)           -59.7852         estimate D2E/DX2                !
 ! D48   D(3,4,5,20)          -177.5962         estimate D2E/DX2                !
 ! D49   D(16,4,5,18)          -57.1238         estimate D2E/DX2                !
 ! D50   D(16,4,5,19)          177.5662         estimate D2E/DX2                !
 ! D51   D(16,4,5,20)           59.7551         estimate D2E/DX2                !
 ! D52   D(17,4,5,18)         -169.5793         estimate D2E/DX2                !
 ! D53   D(17,4,5,19)           65.1106         estimate D2E/DX2                !
 ! D54   D(17,4,5,20)          -52.7005         estimate D2E/DX2                !
 ! D55   D(3,4,16,10)          -16.8795         estimate D2E/DX2                !
 ! D56   D(5,4,16,10)          110.6466         estimate D2E/DX2                !
 ! D57   D(17,4,16,10)        -136.9099         estimate D2E/DX2                !
 ! D58   D(3,6,7,23)           -49.8877         estimate D2E/DX2                !
 ! D59   D(3,6,7,24)          -169.4763         estimate D2E/DX2                !
 ! D60   D(3,6,7,25)            73.223          estimate D2E/DX2                !
 ! D61   D(21,6,7,23)         -172.6206         estimate D2E/DX2                !
 ! D62   D(21,6,7,24)           67.7908         estimate D2E/DX2                !
 ! D63   D(21,6,7,25)          -49.51           estimate D2E/DX2                !
 ! D64   D(22,6,7,23)           76.0452         estimate D2E/DX2                !
 ! D65   D(22,6,7,24)          -43.5434         estimate D2E/DX2                !
 ! D66   D(22,6,7,25)         -160.8442         estimate D2E/DX2                !
 ! D67   D(3,6,21,10)          -57.2942         estimate D2E/DX2                !
 ! D68   D(7,6,21,10)           70.2568         estimate D2E/DX2                !
 ! D69   D(22,6,21,10)        -177.5686         estimate D2E/DX2                !
 ! D70   D(3,8,9,28)            53.4963         estimate D2E/DX2                !
 ! D71   D(3,8,9,29)           171.725          estimate D2E/DX2                !
 ! D72   D(3,8,9,30)           -71.4788         estimate D2E/DX2                !
 ! D73   D(26,8,9,28)          176.7814         estimate D2E/DX2                !
 ! D74   D(26,8,9,29)          -64.9899         estimate D2E/DX2                !
 ! D75   D(26,8,9,30)           51.8063         estimate D2E/DX2                !
 ! D76   D(27,8,9,28)          -69.9686         estimate D2E/DX2                !
 ! D77   D(27,8,9,29)           48.2602         estimate D2E/DX2                !
 ! D78   D(27,8,9,30)          165.0563         estimate D2E/DX2                !
 ! D79   D(3,8,27,10)          -30.4864         estimate D2E/DX2                !
 ! D80   D(9,8,27,10)           96.9461         estimate D2E/DX2                !
 ! D81   D(26,8,27,10)        -150.5942         estimate D2E/DX2                !
 ! D82   D(21,10,16,4)          37.1511         estimate D2E/DX2                !
 ! D83   D(27,10,16,4)         -27.7967         estimate D2E/DX2                !
 ! D84   D(16,10,21,6)           9.3599         estimate D2E/DX2                !
 ! D85   D(27,10,21,6)          74.0434         estimate D2E/DX2                !
 ! D86   D(16,10,27,8)          58.7493         estimate D2E/DX2                !
 ! D87   D(21,10,27,8)         -18.1031         estimate D2E/DX2                !
 --------------------------------------------------------------------------------
 Trust Radius=3.00D-01 FncErr=1.00D-07 GrdErr=1.00D-06 EigMax=2.50D+02 EigMin=1.00D-04
 Number of steps in this run=    180 maximum allowed number of steps=    180.
 GradGradGradGradGradGradGradGradGradGradGradGradGradGradGradGradGradGrad

 Leave Link  103 at Sat Aug 21 09:32:11 2021, MaxMem=   104857600 cpu:               0.3 elap:               0.0
 (Enter /sw/arch/RedHatEnterpriseServer7/EB_production/2020/software/Gaussian/g16.c01/l202.exe)
                          Input orientation:                          
 ---------------------------------------------------------------------
 Center     Atomic      Atomic             Coordinates (Angstroms)
 Number     Number       Type             X           Y           Z
 ---------------------------------------------------------------------
      1          6           0       -0.287414   -0.673748   -2.612853
      2          6           0        0.500039   -0.813031   -1.303432
      3          7           0       -0.011910   -0.029394   -0.126668
      4          6           0       -1.260730   -0.689053    0.416360
      5          6           0       -1.109563   -2.086492    1.059656
      6          6           0       -0.339587    1.417930   -0.417937
      7          6           0       -1.749756    1.742618   -0.965904
      8          6           0        1.019841   -0.080399    0.972169
      9          6           0        2.302707    0.742988    0.753541
     10         35           0       -1.320343    1.973415    2.880890
     11          1           0       -0.244132    0.363489   -3.000712
     12          1           0       -1.337364   -1.007265   -2.496644
     13          1           0        0.178694   -1.325844   -3.381578
     14          1           0        1.552599   -0.585895   -1.513963
     15          1           0        0.550883   -1.893405   -1.070285
     16          1           0       -1.713026   -0.046236    1.206648
     17          1           0       -2.030673   -0.794440   -0.375778
     18          1           0       -0.499428   -2.051922    1.984974
     19          1           0       -0.706249   -2.844559    0.362713
     20          1           0       -2.116800   -2.442643    1.363521
     21          1           0       -0.252335    2.026728    0.511372
     22          1           0        0.374652    1.854306   -1.118439
     23          1           0       -2.043774    1.115411   -1.825023
     24          1           0       -1.769659    2.800215   -1.304799
     25          1           0       -2.518285    1.646641   -0.170906
     26          1           0        1.361437   -1.126046    1.141050
     27          1           0        0.574847    0.270521    1.932411
     28          1           0        2.095273    1.804773    0.516013
     29          1           0        2.894050    0.732523    1.693603
     30          1           0        2.946093    0.289320   -0.024733
 ---------------------------------------------------------------------
                    Distance matrix (angstroms):
                    1          2          3          4          5
     1  C    0.000000
     2  C    1.534296   0.000000
     3  N    2.583062   1.503646   0.000000
     4  C    3.181778   2.464419   1.513136   0.000000
     5  C    4.019838   3.129969   2.616077   1.545806   0.000000
     6  C    3.032407   2.542884   1.512269   2.446208   3.880350
     7  C    3.269512   3.421527   2.620010   2.839511   4.378907
     8  C    3.861782   2.446488   1.508163   2.424951   2.926845
     9  C    4.477552   3.146736   2.593992   3.855193   4.443338
    10  Br   6.185113   5.346646   3.843000   3.628526   4.454679
    11  H    1.108228   2.195165   2.910054   3.717216   4.820577
    12  H    1.107760   2.199439   2.886147   2.931335   3.723425
    13  H    1.110596   2.164470   3.508782   4.111177   4.686443
    14  H    2.144977   1.097177   2.163786   3.413445   3.995299
    15  H    2.137714   1.106413   2.163720   2.634866   2.707584
    16  H    4.124891   3.433094   2.161437   1.114603   2.132702
    17  H    2.838666   2.695439   2.173190   1.109685   2.139699
    18  H    4.804615   3.653409   2.964342   2.213039   1.108906
    19  H    3.706998   2.891068   2.940536   2.226327   1.105919
    20  H    4.720931   4.076288   3.531996   2.169112   1.110722
    21  H    4.129719   3.453087   2.166226   2.898509   4.237220
    22  H    3.010425   2.676683   2.163646   3.390982   4.740979
    23  H    2.628035   3.234491   2.885041   2.982121   4.409797
    24  H    3.997058   4.266975   3.533322   3.923823   5.468663
    25  H    4.040309   4.054982   3.015455   2.716945   4.175531
    26  H    4.124933   2.610647   2.166988   2.755340   2.652343
    27  H    4.721712   3.413263   2.161953   2.566814   3.025632
    28  H    4.648663   3.564835   2.866606   4.182327   5.070352
    29  H    5.535781   4.135486   3.512621   4.573229   4.937373
    30  H    4.252227   2.972109   2.976869   4.341559   4.823767
                    6          7          8          9         10
     6  C    0.000000
     7  C    1.547342   0.000000
     8  C    2.454675   3.840597   0.000000
     9  C    2.968101   4.514223   1.539971   0.000000
    10  Br   3.486073   3.877562   3.652099   4.377905   0.000000
    11  H    2.791359   2.882593   4.192666   4.552453   6.192199
    12  H    3.346364   3.174128   4.295132   5.184323   6.148383
    13  H    4.071864   4.355440   4.605841   5.088291   7.235380
    14  H    2.965966   4.077731   2.592337   2.733161   5.841112
    15  H    3.490478   4.304010   2.771016   3.653190   5.836572
    16  H    2.582517   2.814486   2.743120   4.117559   2.652598
    17  H    2.784983   2.619891   3.410638   4.734684   4.332606
    18  H    4.223672   4.966844   2.687165   4.144865   4.204748
    19  H    4.348870   4.888387   3.315329   4.698623   5.470942
    20  H    4.608265   4.803889   3.946121   5.482004   4.736911
    21  H    1.114389   2.122577   2.504147   2.869647   2.599634
    22  H    1.091451   2.132803   2.920615   2.908046   4.345322
    23  H    2.230619   1.103594   4.317404   5.067503   4.837886
    24  H    2.177692   1.110746   4.611272   5.005308   4.290160
    25  H    2.204554   1.109896   4.099710   4.991308   3.294739
    26  H    3.434492   4.727368   1.112918   2.128248   4.452600
    27  H    2.770717   3.996383   1.115002   2.144402   2.718677
    28  H    2.636371   4.121188   2.217770   1.107626   4.157826
    29  H    3.922345   5.445935   2.166557   1.110636   4.550887
    30  H    3.496293   5.004885   2.200216   1.107010   5.429668
                   11         12         13         14         15
    11  H    0.000000
    12  H    1.824337   0.000000
    13  H    1.782607   1.784106   0.000000
    14  H    2.517935   3.081412   2.433747   0.000000
    15  H    3.074438   2.526899   2.408885   1.705833   0.000000
    16  H    4.475199   3.844356   5.125214   4.284538   3.704287
    17  H    3.379764   2.241438   3.768093   3.765474   2.890414
    18  H    5.545850   4.677429   5.457739   4.313074   3.234639
    19  H    4.670948   3.456860   4.136343   3.704844   2.130389
    20  H    5.516139   4.191504   5.388181   5.019155   3.652616
    21  H    3.886022   4.408011   5.155636   3.766373   4.302818
    22  H    2.479593   3.608190   3.908139   2.738353   3.752161
    23  H    2.277354   2.335775   3.649925   3.990626   4.044113
    24  H    3.337812   4.013014   5.013328   4.748356   5.241181
    25  H    3.850461   3.721135   5.139823   4.833230   4.770807
    26  H    4.685164   4.531054   4.678992   2.716137   2.477063
    27  H    5.001507   4.990573   5.562715   3.683333   3.701261
    28  H    4.462899   5.363456   5.353994   3.182859   4.310221
    29  H    5.658707   6.204023   6.112896   3.718359   4.474931
    30  H    4.363426   5.112678   4.640653   2.219377   3.405070
                   16         17         18         19         20
    16  H    0.000000
    17  H    1.778983   0.000000
    18  H    2.470099   3.082065   0.000000
    19  H    3.091349   2.549991   1.817355   0.000000
    20  H    2.435243   2.397739   1.776164   1.775615   0.000000
    21  H    2.629488   3.450871   4.343725   4.894648   4.917079
    22  H    3.657388   3.654174   5.064959   5.043956   5.552588
    23  H    3.263410   2.397502   5.189709   4.717682   4.778273
    24  H    3.796427   3.721929   5.998277   5.981213   5.893047
    25  H    2.326355   2.497722   4.733178   4.872279   4.386103
    26  H    3.259235   3.730568   2.243273   2.799004   3.725729
    27  H    2.421039   3.640139   2.559408   3.716030   3.863917
    28  H    4.290262   4.957280   4.874876   5.430314   6.041554
    29  H    4.697738   5.555794   4.399287   5.246803   5.941317
    30  H    4.830765   5.105484   4.625143   4.828138   5.918087
                   21         22         23         24         25
    21  H    0.000000
    22  H    1.754744   0.000000
    23  H    3.081963   2.625645   0.000000
    24  H    2.489785   2.351073   1.784471   0.000000
    25  H    2.396768   3.051234   1.800963   1.782382   0.000000
    26  H    3.597324   3.868014   5.041545   5.585827   4.945833
    27  H    2.405794   3.443274   4.657180   4.730284   3.985613
    28  H    2.358082   2.373694   4.804933   4.386794   4.667096
    29  H    3.601718   3.938698   6.075314   5.917427   5.797014
    30  H    3.679122   3.202762   5.368635   5.493767   5.632328
                   26         27         28         29         30
    26  H    0.000000
    27  H    1.787561   0.000000
    28  H    3.085269   2.582984   0.000000
    29  H    2.471537   2.376800   1.781708   0.000000
    30  H    2.423519   3.074666   1.820137   1.775335   0.000000
 Stoichiometry    C8H20BrN
 Framework group  C1[X(C8H20BrN)]
 Deg. of freedom    84
 Full point group                 C1      NOp   1
 Largest Abelian subgroup         C1      NOp   1
 Largest concise Abelian subgroup C1      NOp   1
                         Standard orientation:                         
 ---------------------------------------------------------------------
 Center     Atomic      Atomic             Coordinates (Angstroms)
 Number     Number       Type             X           Y           Z
 ---------------------------------------------------------------------
      1          6           0        3.448688   -0.979930   -0.233331
      2          6           0        2.654438    0.321452   -0.061176
      3          7           0        1.156373    0.194333   -0.036843
      4          6           0        0.718972   -0.386807    1.290009
      5          6           0        0.944043    0.471408    2.555840
      6          6           0        0.571056   -0.663739   -1.135967
      7          6           0        0.483149   -2.189113   -0.891482
      8          6           0        0.553944    1.573998   -0.127170
      9          6           0        0.651146    2.281925   -1.491318
     10         35           0       -2.672364   -0.130557    0.025345
     11          1           0        3.249157   -1.446449   -1.218580
     12          1           0        3.247041   -1.694449    0.588821
     13          1           0        4.533416   -0.743772   -0.201422
     14          1           0        2.988250    1.027836   -0.831493
     15          1           0        3.027462    0.808276    0.859697
     16          1           0       -0.375053   -0.598653    1.266122
     17          1           0        1.218816   -1.358773    1.481945
     18          1           0        0.329127    1.394134    2.544526
     19          1           0        2.007450    0.721568    2.728016
     20          1           0        0.611466   -0.114035    3.439215
     21          1           0       -0.477450   -0.352677   -1.349832
     22          1           0        1.110494   -0.529611   -2.075266
     23          1           0        1.429106   -2.633819   -0.537473
     24          1           0        0.216499   -2.691891   -1.845353
     25          1           0       -0.321469   -2.430968   -0.166247
     26          1           0        1.038460    2.261871    0.601294
     27          1           0       -0.528605    1.537660    0.137398
     28          1           0        0.249957    1.668806   -2.321962
     29          1           0        0.042157    3.209891   -1.452272
     30          1           0        1.689242    2.599030   -1.708739
 ---------------------------------------------------------------------
 Rotational constants (GHZ):           1.1508351           0.4553116           0.4436183
 Leave Link  202 at Sat Aug 21 09:32:12 2021, MaxMem=   104857600 cpu:               0.4 elap:               0.1
 (Enter /sw/arch/RedHatEnterpriseServer7/EB_production/2020/software/Gaussian/g16.c01/l301.exe)
 Standard basis: TZVP (5D, 7F)
 Ernie: Thresh=  0.10000D-02 Tol=  0.10000D-05 Strict=F.
 There are   339 symmetry adapted cartesian basis functions of A   symmetry.
 There are   327 symmetry adapted basis functions of A   symmetry.
   327 basis functions,   573 primitive gaussians,   339 cartesian basis functions
    55 alpha electrons       55 beta electrons
       nuclear repulsion energy       865.3262139254 Hartrees.
 IExCor=  404 DFT=T Ex=B Corr=P86 ExCW=0 ScaHFX=  0.000000
 ScaDFX=  1.000000  1.000000  1.000000  1.000000 ScalE2=  1.000000  1.000000
 IRadAn=      5 IRanWt=     -1 IRanGd=            0 ICorTp=0 IEmpDi=131
 NAtoms=   30 NActive=   30 NUniq=   30 SFac= 1.00D+00 NAtFMM=   60 NAOKFM=F Big=F
 Integral buffers will be    131072 words long.
 Raffenetti 2 integral format.
 Two-electron integral symmetry is turned on.
 R6Disp:  Grimme-D3 Dispersion energy=       -0.0412738907 Hartrees.
 Nuclear repulsion after empirical dispersion term =      865.2849400347 Hartrees.
 ------------------------------------------------------------------------------
 Polarizable Continuum Model (PCM)
 =================================
 Model                : PCM.
 Atomic radii         : UFF (Universal Force Field).
 Polarization charges : Total charges.
 Charge compensation  : None.
 Solution method      : On-the-fly selection.
 Cavity type          : Scaled VdW (van der Waals Surface) (Alpha=1.100).
 Cavity algorithm     : GePol (No added spheres)
                        Default sphere list used, NSphG=   30.
                        Lebedev-Laikov grids with approx.  5.0 points / Ang**2.
                        Smoothing algorithm: York/Karplus (Gamma=1.0000).
                        Polarization charges: spherical gaussians, with
                                              point-specific exponents (IZeta= 3).
                        Self-potential: point-specific (ISelfS= 7).
                        Self-field    : sphere-specific E.n sum rule (ISelfD= 2).
 1st derivatives      : Analytical E(r).r(x)/FMM algorithm (CHGder, D1EAlg=3).
                        Cavity 1st derivative terms included.
 Solvent              : Water, Eps=  78.355300 Eps(inf)=   1.777849
 ------------------------------------------------------------------------------
 GePol: Number of generator spheres                  =      30
 GePol: Total number of spheres                      =      30
 GePol: Number of exposed spheres                    =      29 ( 96.67%)
 GePol: Number of points                             =    1960
 GePol: Average weight of points                     =       0.13
 GePol: Minimum weight of points                     =   0.18D-10
 GePol: Maximum weight of points                     =    0.20577
 GePol: Number of points with low weight             =     127
 GePol: Fraction of low-weight points (<1% of avg)   =       6.48%
 GePol: Cavity surface area                          =    261.990 Ang**2
 GePol: Cavity volume                                =    286.056 Ang**3
 Leave Link  301 at Sat Aug 21 09:32:13 2021, MaxMem=   104857600 cpu:               1.6 elap:               0.1
 (Enter /sw/arch/RedHatEnterpriseServer7/EB_production/2020/software/Gaussian/g16.c01/l302.exe)
 NPDir=0 NMtPBC=     1 NCelOv=     1 NCel=       1 NClECP=     1 NCelD=      1
         NCelK=      1 NCelE2=     1 NClLst=     1 CellRange=     0.0.
 One-electron integrals computed using PRISM.
 One-electron integral symmetry used in STVInt
 PrsmSu:  requested number of processors reduced to:  14 ShMem   1 Linda.
 NBasis=   327 RedAO= T EigKep=  2.41D-04  NBF=   327
 NBsUse=   327 1.00D-06 EigRej= -1.00D+00 NBFU=   327
 Precomputing XC quadrature grid using
 IXCGrd= 4 IRadAn=           5 IRanWt=          -1 IRanGd=           0 AccXCQ= 0.00D+00.
 Generated NRdTot=       0 NPtTot=           0 NUsed=           0 NTot=          32
 NSgBfM=   335   335   335   335   335 MxSgAt=    30 MxSgA2=    30.
 Leave Link  302 at Sat Aug 21 09:32:13 2021, MaxMem=   104857600 cpu:               7.4 elap:               0.3
 (Enter /sw/arch/RedHatEnterpriseServer7/EB_production/2020/software/Gaussian/g16.c01/l303.exe)
 DipDrv:  MaxL=1.
 Leave Link  303 at Sat Aug 21 09:32:14 2021, MaxMem=   104857600 cpu:               1.1 elap:               0.1
 (Enter /sw/arch/RedHatEnterpriseServer7/EB_production/2020/software/Gaussian/g16.c01/l401.exe)
 ExpMin= 9.52D-02 ExpMax= 5.65D+05 ExpMxC= 5.46D+03 IAcc=3 IRadAn=         5 AccDes= 0.00D+00
 Harris functional with IExCor=  404 and IRadAn=       5 diagonalized for initial guess.
 HarFok:  IExCor=  404 AccDes= 0.00D+00 IRadAn=         5 IDoV= 1 UseB2=F ITyADJ=14
 ICtDFT=  3500011 ScaDFX=  1.000000  1.000000  1.000000  1.000000
 FoFCou: FMM=F IPFlag=           0 FMFlag=      100000 FMFlg1=           0
         NFxFlg=           0 DoJE=T BraDBF=F KetDBF=T FulRan=T
         wScrn=  0.000000 ICntrl=       500 IOpCl=  0 I1Cent=   200000004 NGrid=           0
         NMat0=    1 NMatS0=      1 NMatT0=    0 NMatD0=    1 NMtDS0=    0 NMtDT0=    0
 Petite list used in FoFCou.
 Harris En= -2946.54155983512    
 JPrj=0 DoOrth=F DoCkMO=F.
 Leave Link  401 at Sat Aug 21 09:32:15 2021, MaxMem=   104857600 cpu:              19.2 elap:               0.9
 (Enter /sw/arch/RedHatEnterpriseServer7/EB_production/2020/software/Gaussian/g16.c01/l502.exe)
 Integral symmetry usage will be decided dynamically.
 Closed shell SCF:
 Using DIIS extrapolation, IDIIS=  1040.
 NGot=   104857600 LenX=   104615300 LenY=   104499938
 Requested convergence on RMS density matrix=1.00D-08 within 128 cycles.
 Requested convergence on MAX density matrix=1.00D-06.
 Requested convergence on             energy=1.00D-06.
 No special actions if energy rises.
 Fock matrices will be formed incrementally for  20 cycles.

 Cycle   1  Pass 1  IDiag  1:
 FoFJK:  IHMeth= 1 ICntrl=     500 DoSepK=F KAlg= 0 I1Cent=           0 FoldK=F
 IRaf= 930000000 NMat=       1 IRICut=       1 DoRegI=T DoRafI=F ISym2E= 0 IDoP0=0 IntGTp=1.
 FoFCou: FMM=F IPFlag=           0 FMFlag=      100000 FMFlg1=           0
         NFxFlg=           0 DoJE=T BraDBF=F KetDBF=F FulRan=T
         wScrn=  0.000000 ICntrl=       500 IOpCl=  0 I1Cent=           0 NGrid=           0
         NMat0=    1 NMatS0=      1 NMatT0=    0 NMatD0=    1 NMtDS0=    0 NMtDT0=    0
 Symmetry not used in FoFCou.
 Inv3:  Mode=1 IEnd=    11524800.
 Iteration    1 A*A^-1 deviation from unit magnitude is 3.11D-15 for   1889.
 Iteration    1 A*A^-1 deviation from orthogonality  is 1.80D-15 for   1392    746.
 Iteration    1 A^-1*A deviation from unit magnitude is 3.11D-15 for   1120.
 Iteration    1 A^-1*A deviation from orthogonality  is 7.05D-15 for   1773   1166.
 E= -2945.90852875799    
 DIIS: error= 3.79D-02 at cycle   1 NSaved=   1.
 NSaved= 1 IEnMin= 1 EnMin= -2945.90852875799     IErMin= 1 ErrMin= 3.79D-02
 ErrMax= 3.79D-02  0.00D+00 EMaxC= 1.00D-01 BMatC= 4.15D-01 BMatP= 4.15D-01
 IDIUse=3 WtCom= 6.21D-01 WtEn= 3.79D-01
 Coeff-Com:  0.100D+01
 Coeff-En:   0.100D+01
 Coeff:      0.100D+01
 Gap=     0.196 Goal=   None    Shift=    0.000
 GapD=    0.196 DampG=1.000 DampE=0.500 DampFc=0.5000 IDamp=-1.
 Damping current iteration by 5.00D-01
 RMSDP=3.53D-03 MaxDP=1.57D-01              OVMax= 1.76D-01

 Cycle   2  Pass 1  IDiag  1:
 RMSU=  1.76D-03    CP:  9.89D-01
 E= -2946.01348587676     Delta-E=       -0.104957118766 Rises=F Damp=T
 DIIS: error= 1.47D-02 at cycle   2 NSaved=   2.
 NSaved= 2 IEnMin= 2 EnMin= -2946.01348587676     IErMin= 2 ErrMin= 1.47D-02
 ErrMax= 1.47D-02  0.00D+00 EMaxC= 1.00D-01 BMatC= 5.25D-02 BMatP= 4.15D-01
 IDIUse=3 WtCom= 8.53D-01 WtEn= 1.47D-01
 Coeff-Com:  0.151D+00 0.849D+00
 Coeff-En:   0.310D+00 0.690D+00
 Coeff:      0.174D+00 0.826D+00
 Gap=     0.205 Goal=   None    Shift=    0.000
 RMSDP=9.00D-04 MaxDP=5.22D-02 DE=-1.05D-01 OVMax= 1.16D-01

 Cycle   3  Pass 1  IDiag  1:
 RMSU=  9.00D-04    CP:  9.90D-01  1.00D+00
 E= -2946.21508592698     Delta-E=       -0.201600050222 Rises=F Damp=F
 DIIS: error= 1.07D-02 at cycle   3 NSaved=   3.
 NSaved= 3 IEnMin= 3 EnMin= -2946.21508592698     IErMin= 3 ErrMin= 1.07D-02
 ErrMax= 1.07D-02  0.00D+00 EMaxC= 1.00D-01 BMatC= 2.58D-02 BMatP= 5.25D-02
 IDIUse=3 WtCom= 8.93D-01 WtEn= 1.07D-01
 Coeff-Com:  0.103D-01 0.399D+00 0.591D+00
 Coeff-En:   0.000D+00 0.000D+00 0.100D+01
 Coeff:      0.920D-02 0.357D+00 0.634D+00
 Gap=     0.212 Goal=   None    Shift=    0.000
 RMSDP=5.12D-04 MaxDP=2.47D-02 DE=-2.02D-01 OVMax= 3.52D-02

 Cycle   4  Pass 1  IDiag  1:
 RMSU=  3.82D-04    CP:  9.93D-01  9.94D-01  6.25D-01
 E= -2946.22435952965     Delta-E=       -0.009273602668 Rises=F Damp=F
 DIIS: error= 7.26D-03 at cycle   4 NSaved=   4.
 NSaved= 4 IEnMin= 4 EnMin= -2946.22435952965     IErMin= 4 ErrMin= 7.26D-03
 ErrMax= 7.26D-03  0.00D+00 EMaxC= 1.00D-01 BMatC= 1.11D-02 BMatP= 2.58D-02
 IDIUse=3 WtCom= 9.27D-01 WtEn= 7.26D-02
 Coeff-Com: -0.169D-02 0.146D+00 0.415D+00 0.440D+00
 Coeff-En:   0.000D+00 0.000D+00 0.360D+00 0.640D+00
 Coeff:     -0.157D-02 0.135D+00 0.411D+00 0.455D+00
 Gap=     0.212 Goal=   None    Shift=    0.000
 RMSDP=2.99D-04 MaxDP=1.21D-02 DE=-9.27D-03 OVMax= 1.63D-02

 Cycle   5  Pass 1  IDiag  1:
 RMSU=  1.37D-04    CP:  9.91D-01  9.89D-01  6.94D-01  3.30D-01
 E= -2946.23338116701     Delta-E=       -0.009021637364 Rises=F Damp=F
 DIIS: error= 8.60D-04 at cycle   5 NSaved=   5.
 NSaved= 5 IEnMin= 5 EnMin= -2946.23338116701     IErMin= 5 ErrMin= 8.60D-04
 ErrMax= 8.60D-04  0.00D+00 EMaxC= 1.00D-01 BMatC= 3.73D-04 BMatP= 1.11D-02
 IDIUse=3 WtCom= 9.91D-01 WtEn= 8.60D-03
 Coeff-Com: -0.110D-02 0.123D-01 0.119D+00 0.222D+00 0.648D+00
 Coeff-En:   0.000D+00 0.000D+00 0.000D+00 0.000D+00 0.100D+01
 Coeff:     -0.109D-02 0.122D-01 0.118D+00 0.220D+00 0.651D+00
 Gap=     0.210 Goal=   None    Shift=    0.000
 RMSDP=7.94D-05 MaxDP=3.84D-03 DE=-9.02D-03 OVMax= 3.42D-03

 Cycle   6  Pass 1  IDiag  1:
 RMSU=  2.81D-05    CP:  9.91D-01  9.98D-01  7.20D-01  4.45D-01  6.18D-01
 E= -2946.23369463176     Delta-E=       -0.000313464747 Rises=F Damp=F
 DIIS: error= 1.77D-04 at cycle   6 NSaved=   6.
 NSaved= 6 IEnMin= 6 EnMin= -2946.23369463176     IErMin= 6 ErrMin= 1.77D-04
 ErrMax= 1.77D-04  0.00D+00 EMaxC= 1.00D-01 BMatC= 1.59D-05 BMatP= 3.73D-04
 IDIUse=3 WtCom= 9.98D-01 WtEn= 1.77D-03
 Coeff-Com: -0.102D-02 0.530D-02 0.654D-01 0.122D+00 0.365D+00 0.443D+00
 Coeff-En:   0.000D+00 0.000D+00 0.000D+00 0.000D+00 0.000D+00 0.100D+01
 Coeff:     -0.102D-02 0.529D-02 0.653D-01 0.122D+00 0.365D+00 0.444D+00
 Gap=     0.210 Goal=   None    Shift=    0.000
 RMSDP=1.70D-05 MaxDP=9.95D-04 DE=-3.13D-04 OVMax= 1.05D-03

 Cycle   7  Pass 1  IDiag  1:
 RMSU=  6.58D-06    CP:  9.91D-01  9.95D-01  7.14D-01  4.37D-01  6.88D-01
                    CP:  6.82D-01
 E= -2946.23370976670     Delta-E=       -0.000015134940 Rises=F Damp=F
 DIIS: error= 2.63D-05 at cycle   7 NSaved=   7.
 NSaved= 7 IEnMin= 7 EnMin= -2946.23370976670     IErMin= 7 ErrMin= 2.63D-05
 ErrMax= 2.63D-05  0.00D+00 EMaxC= 1.00D-01 BMatC= 5.27D-07 BMatP= 1.59D-05
 IDIUse=1 WtCom= 1.00D+00 WtEn= 0.00D+00
 Coeff-Com: -0.228D-03 0.888D-03 0.142D-01 0.269D-01 0.816D-01 0.189D+00
 Coeff-Com:  0.688D+00
 Coeff:     -0.228D-03 0.888D-03 0.142D-01 0.269D-01 0.816D-01 0.189D+00
 Coeff:      0.688D+00
 Gap=     0.210 Goal=   None    Shift=    0.000
 RMSDP=2.65D-06 MaxDP=6.62D-05 DE=-1.51D-05 OVMax= 1.26D-04

 Cycle   8  Pass 1  IDiag  1:
 RMSU=  2.13D-06    CP:  9.91D-01  9.95D-01  7.14D-01  4.40D-01  6.84D-01
                    CP:  6.88D-01  8.91D-01
 E= -2946.23371009495     Delta-E=       -0.000000328247 Rises=F Damp=F
 DIIS: error= 9.79D-06 at cycle   8 NSaved=   8.
 NSaved= 8 IEnMin= 8 EnMin= -2946.23371009495     IErMin= 8 ErrMin= 9.79D-06
 ErrMax= 9.79D-06  0.00D+00 EMaxC= 1.00D-01 BMatC= 4.89D-08 BMatP= 5.27D-07
 IDIUse=1 WtCom= 1.00D+00 WtEn= 0.00D+00
 Coeff-Com: -0.212D-04 0.160D-03 0.353D-02 0.680D-02 0.219D-01 0.710D-01
 Coeff-Com:  0.324D+00 0.572D+00
 Coeff:     -0.212D-04 0.160D-03 0.353D-02 0.680D-02 0.219D-01 0.710D-01
 Coeff:      0.324D+00 0.572D+00
 Gap=     0.210 Goal=   None    Shift=    0.000
 RMSDP=1.21D-06 MaxDP=7.18D-05 DE=-3.28D-07 OVMax= 6.37D-05

 Cycle   9  Pass 1  IDiag  1:
 RMSU=  5.38D-07    CP:  9.91D-01  9.95D-01  7.14D-01  4.39D-01  6.82D-01
                    CP:  7.01D-01  9.03D-01  6.92D-01
 E= -2946.23371018288     Delta-E=       -0.000000087936 Rises=F Damp=F
 DIIS: error= 4.27D-06 at cycle   9 NSaved=   9.
 NSaved= 9 IEnMin= 9 EnMin= -2946.23371018288     IErMin= 9 ErrMin= 4.27D-06
 ErrMax= 4.27D-06  0.00D+00 EMaxC= 1.00D-01 BMatC= 5.26D-09 BMatP= 4.89D-08
 IDIUse=1 WtCom= 1.00D+00 WtEn= 0.00D+00
 Coeff-Com:  0.282D-05-0.165D-04 0.287D-03 0.441D-03 0.170D-02 0.165D-01
 Coeff-Com:  0.930D-01 0.287D+00 0.601D+00
 Coeff:      0.282D-05-0.165D-04 0.287D-03 0.441D-03 0.170D-02 0.165D-01
 Coeff:      0.930D-01 0.287D+00 0.601D+00
 Gap=     0.210 Goal=   None    Shift=    0.000
 RMSDP=2.71D-07 MaxDP=2.01D-05 DE=-8.79D-08 OVMax= 1.54D-05

 Cycle  10  Pass 1  IDiag  1:
 RMSU=  1.51D-07    CP:  9.91D-01  9.95D-01  7.14D-01  4.39D-01  6.83D-01
                    CP:  7.02D-01  9.05D-01  7.15D-01  7.10D-01
 E= -2946.23371019068     Delta-E=       -0.000000007795 Rises=F Damp=F
 DIIS: error= 4.00D-07 at cycle  10 NSaved=  10.
 NSaved=10 IEnMin=10 EnMin= -2946.23371019068     IErMin=10 ErrMin= 4.00D-07
 ErrMax= 4.00D-07  0.00D+00 EMaxC= 1.00D-01 BMatC= 1.17D-10 BMatP= 5.26D-09
 IDIUse=1 WtCom= 1.00D+00 WtEn= 0.00D+00
 Coeff-Com:  0.241D-05-0.114D-04 0.244D-04 0.675D-06 0.205D-03 0.468D-02
 Coeff-Com:  0.268D-01 0.984D-01 0.245D+00 0.625D+00
 Coeff:      0.241D-05-0.114D-04 0.244D-04 0.675D-06 0.205D-03 0.468D-02
 Coeff:      0.268D-01 0.984D-01 0.245D+00 0.625D+00
 Gap=     0.210 Goal=   None    Shift=    0.000
 RMSDP=4.97D-08 MaxDP=1.63D-06 DE=-7.80D-09 OVMax= 2.15D-06

 Cycle  11  Pass 1  IDiag  1:
 RMSU=  3.18D-08    CP:  9.91D-01  9.95D-01  7.14D-01  4.39D-01  6.83D-01
                    CP:  7.02D-01  9.05D-01  7.23D-01  7.26D-01  7.92D-01
 E= -2946.23371019079     Delta-E=       -0.000000000112 Rises=F Damp=F
 DIIS: error= 1.76D-07 at cycle  11 NSaved=  11.
 NSaved=11 IEnMin=11 EnMin= -2946.23371019079     IErMin=11 ErrMin= 1.76D-07
 ErrMax= 1.76D-07  0.00D+00 EMaxC= 1.00D-01 BMatC= 1.48D-11 BMatP= 1.17D-10
 IDIUse=1 WtCom= 1.00D+00 WtEn= 0.00D+00
 Coeff-Com:  0.963D-06-0.368D-05-0.618D-05-0.246D-04 0.140D-04 0.928D-03
 Coeff-Com:  0.540D-02 0.252D-01 0.686D-01 0.314D+00 0.586D+00
 Coeff:      0.963D-06-0.368D-05-0.618D-05-0.246D-04 0.140D-04 0.928D-03
 Coeff:      0.540D-02 0.252D-01 0.686D-01 0.314D+00 0.586D+00
 Gap=     0.210 Goal=   None    Shift=    0.000
 RMSDP=1.21D-08 MaxDP=5.14D-07 DE=-1.12D-10 OVMax= 7.29D-07

 Cycle  12  Pass 1  IDiag  1:
 RMSU=  9.72D-09    CP:  9.91D-01  9.95D-01  7.14D-01  4.39D-01  6.83D-01
                    CP:  7.02D-01  9.05D-01  7.25D-01  7.28D-01  8.02D-01
                    CP:  8.47D-01
 E= -2946.23371019082     Delta-E=       -0.000000000033 Rises=F Damp=F
 DIIS: error= 4.75D-08 at cycle  12 NSaved=  12.
 NSaved=12 IEnMin=12 EnMin= -2946.23371019082     IErMin=12 ErrMin= 4.75D-08
 ErrMax= 4.75D-08  0.00D+00 EMaxC= 1.00D-01 BMatC= 1.50D-12 BMatP= 1.48D-11
 IDIUse=1 WtCom= 1.00D+00 WtEn= 0.00D+00
 Coeff-Com:  0.886D-07-0.721D-06-0.558D-05-0.133D-04-0.165D-04 0.119D-04
 Coeff-Com:  0.268D-03 0.382D-02 0.108D-01 0.104D+00 0.310D+00 0.570D+00
 Coeff:      0.886D-07-0.721D-06-0.558D-05-0.133D-04-0.165D-04 0.119D-04
 Coeff:      0.268D-03 0.382D-02 0.108D-01 0.104D+00 0.310D+00 0.570D+00
 Gap=     0.210 Goal=   None    Shift=    0.000
 RMSDP=6.38D-09 MaxDP=3.69D-07 DE=-3.27D-11 OVMax= 3.47D-07

 Error on total polarization charges =  0.02078
 SCF Done:  E(RB-P86) =  -2946.23371019     A.U. after   12 cycles
            NFock= 12  Conv=0.64D-08     -V/T= 2.0023
 KE= 2.939402823459D+03 PE=-8.744459402522D+03 EE= 1.993537928837D+03
 Leave Link  502 at Sat Aug 21 09:32:46 2021, MaxMem=   104857600 cpu:             745.0 elap:              31.5
 (Enter /sw/arch/RedHatEnterpriseServer7/EB_production/2020/software/Gaussian/g16.c01/l601.exe)
 Copying SCF densities to generalized density rwf, IOpCl= 0 IROHF=0.

 **********************************************************************

            Population analysis using the SCF Density.

 **********************************************************************

 Orbital symmetries:
       Occupied  (A) (A) (A) (A) (A) (A) (A) (A) (A) (A) (A) (A)
                 (A) (A) (A) (A) (A) (A) (A) (A) (A) (A) (A) (A)
                 (A) (A) (A) (A) (A) (A) (A) (A) (A) (A) (A) (A)
                 (A) (A) (A) (A) (A) (A) (A) (A) (A) (A) (A) (A)
                 (A) (A) (A) (A) (A) (A) (A)
       Virtual   (A) (A) (A) (A) (A) (A) (A) (A) (A) (A) (A) (A)
                 (A) (A) (A) (A) (A) (A) (A) (A) (A) (A) (A) (A)
                 (A) (A) (A) (A) (A) (A) (A) (A) (A) (A) (A) (A)
                 (A) (A) (A) (A) (A) (A) (A) (A) (A) (A) (A) (A)
                 (A) (A) (A) (A) (A) (A) (A) (A) (A) (A) (A) (A)
                 (A) (A) (A) (A) (A) (A) (A) (A) (A) (A) (A) (A)
                 (A) (A) (A) (A) (A) (A) (A) (A) (A) (A) (A) (A)
                 (A) (A) (A) (A) (A) (A) (A) (A) (A) (A) (A) (A)
                 (A) (A) (A) (A) (A) (A) (A) (A) (A) (A) (A) (A)
                 (A) (A) (A) (A) (A) (A) (A) (A) (A) (A) (A) (A)
                 (A) (A) (A) (A) (A) (A) (A) (A) (A) (A) (A) (A)
                 (A) (A) (A) (A) (A) (A) (A) (A) (A) (A) (A) (A)
                 (A) (A) (A) (A) (A) (A) (A) (A) (A) (A) (A) (A)
                 (A) (A) (A) (A) (A) (A) (A) (A) (A) (A) (A) (A)
                 (A) (A) (A) (A) (A) (A) (A) (A) (A) (A) (A) (A)
                 (A) (A) (A) (A) (A) (A) (A) (A) (A) (A) (A) (A)
                 (A) (A) (A) (A) (A) (A) (A) (A) (A) (A) (A) (A)
                 (A) (A) (A) (A) (A) (A) (A) (A) (A) (A) (A) (A)
                 (A) (A) (A) (A) (A) (A) (A) (A) (A) (A) (A) (A)
                 (A) (A) (A) (A) (A) (A) (A) (A) (A) (A) (A) (A)
                 (A) (A) (A) (A) (A) (A) (A) (A) (A) (A) (A) (A)
                 (A) (A) (A) (A) (A) (A) (A) (A) (A) (A) (A) (A)
                 (A) (A) (A) (A) (A) (A) (A) (A)
 The electronic state is 1-A.
 Alpha  occ. eigenvalues -- -481.05581 -61.74796 -55.65920 -55.65918 -55.65913
 Alpha  occ. eigenvalues --  -14.14249  -9.96110  -9.95531  -9.95410  -9.95308
 Alpha  occ. eigenvalues --   -9.91206  -9.90907  -9.90826  -9.90540  -8.32164
 Alpha  occ. eigenvalues --   -6.19202  -6.19193  -6.19182  -2.39674  -2.39673
 Alpha  occ. eigenvalues --   -2.39667  -2.39661  -2.39659  -0.94625  -0.72640
 Alpha  occ. eigenvalues --   -0.72115  -0.71883  -0.67490  -0.61180  -0.60526
 Alpha  occ. eigenvalues --   -0.59796  -0.59175  -0.52814  -0.48429  -0.48033
 Alpha  occ. eigenvalues --   -0.46944  -0.43169  -0.41893  -0.40344  -0.39464
 Alpha  occ. eigenvalues --   -0.37168  -0.36573  -0.36148  -0.35794  -0.34420
 Alpha  occ. eigenvalues --   -0.34233  -0.33325  -0.33177  -0.32549  -0.32112
 Alpha  occ. eigenvalues --   -0.31449  -0.31076  -0.20463  -0.20427  -0.20073
 Alpha virt. eigenvalues --    0.00964   0.02008   0.02666   0.03123   0.04144
 Alpha virt. eigenvalues --    0.04323   0.05348   0.05928   0.06304   0.06839
 Alpha virt. eigenvalues --    0.07941   0.08046   0.08481   0.09048   0.09292
 Alpha virt. eigenvalues --    0.09802   0.10445   0.10945   0.11627   0.12353
 Alpha virt. eigenvalues --    0.12743   0.13184   0.14048   0.14410   0.15614
 Alpha virt. eigenvalues --    0.16753   0.17353   0.18272   0.19055   0.20126
 Alpha virt. eigenvalues --    0.20956   0.21721   0.21792   0.22732   0.23502
 Alpha virt. eigenvalues --    0.23765   0.25034   0.26619   0.27035   0.27359
 Alpha virt. eigenvalues --    0.28255   0.28792   0.29140   0.31106   0.31760
 Alpha virt. eigenvalues --    0.34638   0.35274   0.35783   0.36704   0.37531
 Alpha virt. eigenvalues --    0.37659   0.38535   0.38686   0.39564   0.39831
 Alpha virt. eigenvalues --    0.40013   0.40297   0.40947   0.41169   0.41649
 Alpha virt. eigenvalues --    0.41890   0.42000   0.42491   0.43123   0.43829
 Alpha virt. eigenvalues --    0.44447   0.45080   0.46278   0.47104   0.47252
 Alpha virt. eigenvalues --    0.48083   0.48574   0.49225   0.50052   0.51081
 Alpha virt. eigenvalues --    0.52979   0.54309   0.56036   0.56358   0.56881
 Alpha virt. eigenvalues --    0.59236   0.60161   0.61601   0.63310   0.63917
 Alpha virt. eigenvalues --    0.65568   0.66292   0.68689   0.71144   0.73092
 Alpha virt. eigenvalues --    0.75912   0.77533   0.83240   1.00975   1.02757
 Alpha virt. eigenvalues --    1.10524   1.14830   1.15274   1.16932   1.17683
 Alpha virt. eigenvalues --    1.18919   1.19732   1.20645   1.21923   1.22941
 Alpha virt. eigenvalues --    1.23691   1.24237   1.25312   1.26238   1.26390
 Alpha virt. eigenvalues --    1.27613   1.28399   1.28993   1.29825   1.30149
 Alpha virt. eigenvalues --    1.31548   1.31807   1.33856   1.34095   1.34465
 Alpha virt. eigenvalues --    1.35874   1.37281   1.38601   1.39219   1.42597
 Alpha virt. eigenvalues --    1.43482   1.45562   1.46025   1.46747   1.48619
 Alpha virt. eigenvalues --    1.51440   1.51631   1.54266   1.54766   1.55071
 Alpha virt. eigenvalues --    1.56276   1.57089   1.57216   1.58713   1.60396
 Alpha virt. eigenvalues --    1.60626   1.62091   1.62802   1.63822   1.65345
 Alpha virt. eigenvalues --    1.66638   1.67427   1.67808   1.68369   1.69217
 Alpha virt. eigenvalues --    1.70019   1.71143   1.71262   1.71638   1.72131
 Alpha virt. eigenvalues --    1.72666   1.73099   1.73481   1.74508   1.75364
 Alpha virt. eigenvalues --    1.75770   1.76571   1.77012   1.78444   1.78696
 Alpha virt. eigenvalues --    1.79329   1.80501   1.82479   1.83313   1.85482
 Alpha virt. eigenvalues --    1.88099   1.90528   1.91510   1.93574   1.95660
 Alpha virt. eigenvalues --    1.97266   2.01927   2.02615   2.04281   2.07565
 Alpha virt. eigenvalues --    2.11800   2.12350   2.13212   2.15010   2.16122
 Alpha virt. eigenvalues --    2.17533   2.18869   2.20814   2.22568   2.24130
 Alpha virt. eigenvalues --    2.25445   2.26005   2.26976   2.28887   2.32684
 Alpha virt. eigenvalues --    2.33859   2.34958   2.37092   2.37848   2.40244
 Alpha virt. eigenvalues --    2.42195   2.43230   2.44174   2.45981   2.47593
 Alpha virt. eigenvalues --    2.48076   2.48676   2.49370   2.50830   2.51501
 Alpha virt. eigenvalues --    2.53836   2.55141   2.55450   2.57478   2.59334
 Alpha virt. eigenvalues --    2.60173   2.61573   2.61885   2.64230   2.66057
 Alpha virt. eigenvalues --    2.66839   2.68792   2.69146   2.72306   2.74814
 Alpha virt. eigenvalues --    2.76346   2.78468   2.80391   2.81367   2.84288
 Alpha virt. eigenvalues --    2.86219   2.87750   2.89096   2.89263   2.93212
 Alpha virt. eigenvalues --    2.93806   2.96508   3.00270   3.00694   3.06630
 Alpha virt. eigenvalues --    3.09547   3.11712   3.16113   3.19604   3.20083
 Alpha virt. eigenvalues --    3.21663   3.23443   3.23757   3.24239   3.26345
 Alpha virt. eigenvalues --    3.27471   3.28645   3.28941   3.31554   3.32138
 Alpha virt. eigenvalues --    3.34032   3.34687   3.36612   3.39000   3.61135
 Alpha virt. eigenvalues --    3.61551   3.63133   7.16655  21.72908  21.73858
 Alpha virt. eigenvalues --   21.76154  21.78506  21.84232  21.85265  21.89288
 Alpha virt. eigenvalues --   21.90001  31.74067
          Condensed to atoms (all electrons):
               1          2          3          4          5          6
     1  C    5.119274   0.209558  -0.039941  -0.007735  -0.003409   0.001879
     2  C    0.209558   5.333188   0.223816  -0.070592  -0.015110  -0.046169
     3  N   -0.039941   0.223816   6.648643   0.201958  -0.034453   0.153810
     4  C   -0.007735  -0.070592   0.201958   5.487313   0.217582  -0.132295
     5  C   -0.003409  -0.015110  -0.034453   0.217582   5.102396   0.019056
     6  C    0.001879  -0.046169   0.153810  -0.132295   0.019056   5.551135
     7  C    0.010416  -0.031461  -0.027385   0.000726   0.002475   0.194285
     8  C    0.018901  -0.108487   0.200248  -0.094859   0.005194  -0.110662
     9  C   -0.000397  -0.023654  -0.037204   0.015060   0.001731   0.002424
    10  Br  -0.000015  -0.000153   0.001774  -0.047277   0.001564  -0.036430
    11  H    0.404928  -0.040477  -0.012250  -0.002961   0.000103   0.029062
    12  H    0.422443  -0.054237  -0.001354   0.011325  -0.000508  -0.010906
    13  H    0.383289  -0.018190   0.006213   0.000209   0.000016  -0.001913
    14  H   -0.022164   0.386530  -0.022753   0.012247  -0.000189  -0.018623
    15  H   -0.034620   0.416018  -0.024685  -0.015639   0.003693   0.012818
    16  H    0.000148   0.009453  -0.030492   0.387580  -0.025354   0.014310
    17  H    0.001355  -0.007559  -0.022202   0.405190  -0.033437  -0.025743
    18  H    0.000119  -0.003257  -0.010107  -0.047134   0.411547  -0.001951
    19  H   -0.000870   0.008593  -0.003066  -0.046191   0.412846   0.000205
    20  H    0.000028   0.000941   0.006329  -0.025571   0.390092  -0.000111
    21  H    0.001085   0.005370  -0.022231  -0.016020  -0.000258   0.369353
    22  H   -0.008628   0.002290  -0.027456   0.011296  -0.000508   0.407814
    23  H    0.011941  -0.003240   0.002214  -0.013129  -0.000069  -0.058350
    24  H   -0.000265   0.000869   0.005652   0.000144  -0.000059  -0.022981
    25  H   -0.002030   0.000998  -0.012326   0.010923   0.000537  -0.024000
    26  H    0.000266  -0.006836  -0.020266  -0.025189   0.004209   0.012239
    27  H   -0.000788   0.010943  -0.025621   0.014858  -0.011373  -0.023420
    28  H    0.000282  -0.003011  -0.010578  -0.001273   0.000034   0.021051
    29  H   -0.000009   0.001614   0.006561  -0.000305   0.000101  -0.001444
    30  H   -0.000829   0.004005  -0.002898   0.000624  -0.000347  -0.007917
               7          8          9         10         11         12
     1  C    0.010416   0.018901  -0.000397  -0.000015   0.404928   0.422443
     2  C   -0.031461  -0.108487  -0.023654  -0.000153  -0.040477  -0.054237
     3  N   -0.027385   0.200248  -0.037204   0.001774  -0.012250  -0.001354
     4  C    0.000726  -0.094859   0.015060  -0.047277  -0.002961   0.011325
     5  C    0.002475   0.005194   0.001731   0.001564   0.000103  -0.000508
     6  C    0.194285  -0.110662   0.002424  -0.036430   0.029062  -0.010906
     7  C    5.179944   0.012785   0.003090  -0.024768  -0.015428  -0.002479
     8  C    0.012785   5.468966   0.245732  -0.040958  -0.001618   0.000081
     9  C    0.003090   0.245732   5.072888   0.001763  -0.000123   0.000056
    10  Br  -0.024768  -0.040958   0.001763  35.910820   0.000013   0.000005
    11  H   -0.015428  -0.001618  -0.000123   0.000013   0.517353  -0.027314
    12  H   -0.002479   0.000081   0.000056   0.000005  -0.027314   0.507239
    13  H    0.001688  -0.000102   0.000046   0.000001  -0.021046  -0.015197
    14  H    0.000262   0.005206   0.003123   0.000006  -0.004683   0.005319
    15  H   -0.000376  -0.014022  -0.000262  -0.000011   0.005542  -0.003998
    16  H   -0.015400  -0.023108   0.000155   0.027941  -0.000094   0.000108
    17  H    0.004827   0.012838  -0.000423   0.002165   0.000325   0.000372
    18  H    0.000100   0.016468   0.000886   0.002695   0.000008  -0.000026
    19  H   -0.000250  -0.010296  -0.000270   0.000033  -0.000050   0.000441
    20  H    0.000059  -0.000356  -0.000043   0.000403   0.000005   0.000003
    21  H   -0.024033   0.016754  -0.012546   0.028841  -0.000010  -0.000175
    22  H   -0.040212  -0.011898  -0.001234   0.002670  -0.001868   0.001058
    23  H    0.429111   0.000439  -0.000193   0.000867  -0.004028  -0.004204
    24  H    0.382551   0.000029  -0.000042   0.001150   0.000745   0.000011
    25  H    0.376315  -0.002636   0.000085   0.016512   0.000767   0.000347
    26  H   -0.000423   0.405764  -0.029871   0.001626   0.000011   0.000001
    27  H    0.000291   0.379384  -0.034707   0.029098   0.000013  -0.000004
    28  H    0.001142  -0.048522   0.409674   0.002493   0.000021   0.000002
    29  H   -0.000041  -0.032351   0.397654   0.000924  -0.000008   0.000002
    30  H   -0.000301  -0.036619   0.402352   0.000086   0.000077  -0.000021
              13         14         15         16         17         18
     1  C    0.383289  -0.022164  -0.034620   0.000148   0.001355   0.000119
     2  C   -0.018190   0.386530   0.416018   0.009453  -0.007559  -0.003257
     3  N    0.006213  -0.022753  -0.024685  -0.030492  -0.022202  -0.010107
     4  C    0.000209   0.012247  -0.015639   0.387580   0.405190  -0.047134
     5  C    0.000016  -0.000189   0.003693  -0.025354  -0.033437   0.411547
     6  C   -0.001913  -0.018623   0.012818   0.014310  -0.025743  -0.001951
     7  C    0.001688   0.000262  -0.000376  -0.015400   0.004827   0.000100
     8  C   -0.000102   0.005206  -0.014022  -0.023108   0.012838   0.016468
     9  C    0.000046   0.003123  -0.000262   0.000155  -0.000423   0.000886
    10  Br   0.000001   0.000006  -0.000011   0.027941   0.002165   0.002695
    11  H   -0.021046  -0.004683   0.005542  -0.000094   0.000325   0.000008
    12  H   -0.015197   0.005319  -0.003998   0.000108   0.000372  -0.000026
    13  H    0.496067  -0.001886  -0.003602  -0.000006   0.000057   0.000003
    14  H   -0.001886   0.478014  -0.023966  -0.000140  -0.000128  -0.000017
    15  H   -0.003602  -0.023966   0.484959  -0.000078   0.000273   0.000461
    16  H   -0.000006  -0.000140  -0.000078   0.468471  -0.014549  -0.002943
    17  H    0.000057  -0.000128   0.000273  -0.014549   0.477987   0.004942
    18  H    0.000003  -0.000017   0.000461  -0.002943   0.004942   0.508860
    19  H    0.000005   0.000224   0.000151   0.005234  -0.002666  -0.023435
    20  H   -0.000001  -0.000012   0.000105  -0.001692  -0.002956  -0.022175
    21  H    0.000030  -0.000003  -0.000178  -0.000495   0.000369   0.000021
    22  H   -0.000038   0.002022  -0.000105  -0.000042   0.000285   0.000007
    23  H    0.000956   0.000083  -0.000041   0.000971  -0.001313  -0.000017
    24  H   -0.000024  -0.000017   0.000012   0.000075   0.000353   0.000001
    25  H   -0.000055  -0.000011   0.000050  -0.000969  -0.004184  -0.000061
    26  H   -0.000023  -0.001998   0.002190   0.000921   0.000021  -0.005515
    27  H    0.000015   0.000070   0.000063  -0.000504   0.000270  -0.001187
    28  H   -0.000008   0.000239   0.000038   0.000103  -0.000030  -0.000059
    29  H    0.000000   0.000080  -0.000102  -0.000042   0.000021   0.000081
    30  H    0.000075   0.001603   0.000148  -0.000079   0.000006   0.000029
              19         20         21         22         23         24
     1  C   -0.000870   0.000028   0.001085  -0.008628   0.011941  -0.000265
     2  C    0.008593   0.000941   0.005370   0.002290  -0.003240   0.000869
     3  N   -0.003066   0.006329  -0.022231  -0.027456   0.002214   0.005652
     4  C   -0.046191  -0.025571  -0.016020   0.011296  -0.013129   0.000144
     5  C    0.412846   0.390092  -0.000258  -0.000508  -0.000069  -0.000059
     6  C    0.000205  -0.000111   0.369353   0.407814  -0.058350  -0.022981
     7  C   -0.000250   0.000059  -0.024033  -0.040212   0.429111   0.382551
     8  C   -0.010296  -0.000356   0.016754  -0.011898   0.000439   0.000029
     9  C   -0.000270  -0.000043  -0.012546  -0.001234  -0.000193  -0.000042
    10  Br   0.000033   0.000403   0.028841   0.002670   0.000867   0.001150
    11  H   -0.000050   0.000005  -0.000010  -0.001868  -0.004028   0.000745
    12  H    0.000441   0.000003  -0.000175   0.001058  -0.004204   0.000011
    13  H    0.000005  -0.000001   0.000030  -0.000038   0.000956  -0.000024
    14  H    0.000224  -0.000012  -0.000003   0.002022   0.000083  -0.000017
    15  H    0.000151   0.000105  -0.000178  -0.000105  -0.000041   0.000012
    16  H    0.005234  -0.001692  -0.000495  -0.000042   0.000971   0.000075
    17  H   -0.002666  -0.002956   0.000369   0.000285  -0.001313   0.000353
    18  H   -0.023435  -0.022175   0.000021   0.000007  -0.000017   0.000001
    19  H    0.517827  -0.018482  -0.000018  -0.000016   0.000031   0.000001
    20  H   -0.018482   0.501715  -0.000033   0.000015   0.000003  -0.000001
    21  H   -0.000018  -0.000033   0.482936  -0.020764   0.005409   0.000792
    22  H   -0.000016   0.000015  -0.020764   0.470517  -0.001750  -0.003621
    23  H    0.000031   0.000003   0.005409  -0.001750   0.500359  -0.016355
    24  H    0.000001  -0.000001   0.000792  -0.003621  -0.016355   0.502894
    25  H   -0.000025   0.000109  -0.009780   0.005942  -0.026222  -0.019946
    26  H    0.000089   0.000335   0.000366  -0.000112  -0.000002   0.000018
    27  H    0.000642   0.000102  -0.001242   0.000723  -0.000072  -0.000054
    28  H    0.000003   0.000002  -0.001770  -0.004013  -0.000029   0.000098
    29  H   -0.000006  -0.000002   0.000149   0.000154   0.000000  -0.000001
    30  H    0.000017  -0.000001   0.000692   0.000750   0.000003  -0.000000
              25         26         27         28         29         30
     1  C   -0.002030   0.000266  -0.000788   0.000282  -0.000009  -0.000829
     2  C    0.000998  -0.006836   0.010943  -0.003011   0.001614   0.004005
     3  N   -0.012326  -0.020266  -0.025621  -0.010578   0.006561  -0.002898
     4  C    0.010923  -0.025189   0.014858  -0.001273  -0.000305   0.000624
     5  C    0.000537   0.004209  -0.011373   0.000034   0.000101  -0.000347
     6  C   -0.024000   0.012239  -0.023420   0.021051  -0.001444  -0.007917
     7  C    0.376315  -0.000423   0.000291   0.001142  -0.000041  -0.000301
     8  C   -0.002636   0.405764   0.379384  -0.048522  -0.032351  -0.036619
     9  C    0.000085  -0.029871  -0.034707   0.409674   0.397654   0.402352
    10  Br   0.016512   0.001626   0.029098   0.002493   0.000924   0.000086
    11  H    0.000767   0.000011   0.000013   0.000021  -0.000008   0.000077
    12  H    0.000347   0.000001  -0.000004   0.000002   0.000002  -0.000021
    13  H   -0.000055  -0.000023   0.000015  -0.000008   0.000000   0.000075
    14  H   -0.000011  -0.001998   0.000070   0.000239   0.000080   0.001603
    15  H    0.000050   0.002190   0.000063   0.000038  -0.000102   0.000148
    16  H   -0.000969   0.000921  -0.000504   0.000103  -0.000042  -0.000079
    17  H   -0.004184   0.000021   0.000270  -0.000030   0.000021   0.000006
    18  H   -0.000061  -0.005515  -0.001187  -0.000059   0.000081   0.000029
    19  H   -0.000025   0.000089   0.000642   0.000003  -0.000006   0.000017
    20  H    0.000109   0.000335   0.000102   0.000002  -0.000002  -0.000001
    21  H   -0.009780   0.000366  -0.001242  -0.001770   0.000149   0.000692
    22  H    0.005942  -0.000112   0.000723  -0.004013   0.000154   0.000750
    23  H   -0.026222  -0.000002  -0.000072  -0.000029   0.000000   0.000003
    24  H   -0.019946   0.000018  -0.000054   0.000098  -0.000001  -0.000000
    25  H    0.536604  -0.000021   0.000154  -0.000053  -0.000004   0.000003
    26  H   -0.000021   0.476289  -0.017854   0.004985  -0.000742  -0.005877
    27  H    0.000154  -0.017854   0.480443  -0.002287  -0.003278   0.006169
    28  H   -0.000053   0.004985  -0.002287   0.505781  -0.022178  -0.021691
    29  H   -0.000004  -0.000742  -0.003278  -0.022178   0.503215  -0.020343
    30  H    0.000003  -0.005877   0.006169  -0.021691  -0.020343   0.526515
 Mulliken charges:
               1
     1  C   -0.464212
     2  C   -0.181752
     3  N   -0.069950
     4  C   -0.230865
     5  C   -0.448101
     6  C   -0.266525
     7  C   -0.417511
     8  C   -0.252294
     9  C   -0.415748
    10  Br  -0.883838
    11  H    0.172985
    12  H    0.171611
    13  H    0.173417
    14  H    0.201562
    15  H    0.195163
    16  H    0.200520
    17  H    0.203531
    18  H    0.171656
    19  H    0.159298
    20  H    0.171189
    21  H    0.197388
    22  H    0.216722
    23  H    0.176629
    24  H    0.167971
    25  H    0.152976
    26  H    0.205398
    27  H    0.199153
    28  H    0.169554
    29  H    0.170301
    30  H    0.153770
 Sum of Mulliken charges =  -0.00000
 Mulliken charges with hydrogens summed into heavy atoms:
               1
     1  C    0.053802
     2  C    0.214972
     3  N   -0.069950
     4  C    0.173186
     5  C    0.054043
     6  C    0.147586
     7  C    0.080065
     8  C    0.152257
     9  C    0.077877
    10  Br  -0.883838
 Electronic spatial extent (au):  <R**2>=           2822.1720
 Charge=             -0.0000 electrons
 Dipole moment (field-independent basis, Debye):
    X=             16.9169    Y=              1.3938    Z=             -0.1053  Tot=             16.9746
 Quadrupole moment (field-independent basis, Debye-Ang):
   XX=           -100.0149   YY=            -73.9053   ZZ=            -73.9914
   XY=             -0.9386   XZ=              0.7029   YZ=              0.0287
 Traceless Quadrupole moment (field-independent basis, Debye-Ang):
   XX=            -17.3777   YY=              8.7319   ZZ=              8.6458
   XY=             -0.9386   XZ=              0.7029   YZ=              0.0287
 Octapole moment (field-independent basis, Debye-Ang**2):
  XXX=             92.2216  YYY=              7.6197  ZZZ=              4.9899  XYY=             -8.5931
  XXY=              5.8968  XXZ=             -0.5531  XZZ=             -8.7577  YZZ=             -3.7598
  YYZ=             -3.8892  XYZ=             -0.2026
 Hexadecapole moment (field-independent basis, Debye-Ang**3):
 XXXX=          -2136.9677 YYYY=           -760.6134 ZZZZ=           -671.1473 XXXY=              1.4820
 XXXZ=             -0.2705 YYYX=              7.8780 YYYZ=             -3.2728 ZZZX=              2.6505
 ZZZY=              2.5016 XXYY=           -466.6001 XXZZ=           -456.0945 YYZZ=           -239.4737
 XXYZ=             -1.0245 YYXZ=             -0.3440 ZZXY=              2.4269
 N-N= 8.652849400347D+02 E-N=-8.744459428390D+03  KE= 2.939402823459D+03
 No NMR shielding tensors so no spin-rotation constants.
 Leave Link  601 at Sat Aug 21 09:32:47 2021, MaxMem=   104857600 cpu:               6.3 elap:               0.4
 (Enter /sw/arch/RedHatEnterpriseServer7/EB_production/2020/software/Gaussian/g16.c01/l701.exe)
 ... and contract with generalized density number  0.
 Compute integral first derivatives.
 R6Disp: Adding Grimme-D3 dispersion energy 1st derivatives to the gradient.
 PrsmSu:  requested number of processors reduced to:  11 ShMem   1 Linda.
 D1PCM: PCM CHGder 1st derivatives, ID1Alg=3 FixD1E=F DoIter=F DoCFld=F I1PDM=0.
 GePol: Maximum number of non-zero 1st derivatives   =     359
 CoulSu:  requested number of processors reduced to:  14 ShMem   1 Linda.
 CoulSu:  requested number of processors reduced to:  14 ShMem   1 Linda.
 Leave Link  701 at Sat Aug 21 09:32:48 2021, MaxMem=   104857600 cpu:              29.6 elap:               1.3
 (Enter /sw/arch/RedHatEnterpriseServer7/EB_production/2020/software/Gaussian/g16.c01/l702.exe)
 L702 exits ... SP integral derivatives will be done elsewhere.
 Leave Link  702 at Sat Aug 21 09:32:49 2021, MaxMem=   104857600 cpu:               0.5 elap:               0.1
 (Enter /sw/arch/RedHatEnterpriseServer7/EB_production/2020/software/Gaussian/g16.c01/l703.exe)
 Integral derivatives from FoFJK, PRISM(SPDF).
 Compute integral first derivatives, UseDBF=F ICtDFT=           0.
 Calling FoFJK, ICntrl=      2527 FMM=F ISym2X=0 I1Cent= 0 IOpClX= 0 NMat=1 NMatS=1 NMatT=0.
 FoFJK:  IHMeth= 1 ICntrl=    2527 DoSepK=F KAlg= 0 I1Cent=           0 FoldK=F
 IRaf=         0 NMat=       1 IRICut=       1 DoRegI=T DoRafI=F ISym2E= 0 IDoP0=0 IntGTp=1.
 FoFCou: FMM=F IPFlag=           0 FMFlag=      100000 FMFlg1=         800
         NFxFlg=           0 DoJE=F BraDBF=F KetDBF=F FulRan=T
         wScrn=  0.000000 ICntrl=      2527 IOpCl=  0 I1Cent=           0 NGrid=           0
         NMat0=    1 NMatS0=      1 NMatT0=    0 NMatD0=    1 NMtDS0=    0 NMtDT0=    0
 Symmetry not used in FoFCou.
 Leave Link  703 at Sat Aug 21 09:32:54 2021, MaxMem=   104857600 cpu:             129.2 elap:               5.5
 (Enter /sw/arch/RedHatEnterpriseServer7/EB_production/2020/software/Gaussian/g16.c01/l716.exe)
 Dipole        = 6.65563252D+00 5.48359588D-01-4.14265835D-02
 ***** Axes restored to original set *****
 -------------------------------------------------------------------
 Center     Atomic                   Forces (Hartrees/Bohr)
 Number     Number              X              Y              Z
 -------------------------------------------------------------------
      1        6          -0.001536642    0.003091800   -0.001418005
      2        6           0.008042738   -0.016828041   -0.028622029
      3        7          -0.004678700   -0.007517848    0.011879823
      4        6          -0.033030756   -0.020538810    0.015137288
      5        6           0.005183685    0.000097872    0.001059491
      6        6          -0.013242870    0.033845992   -0.008587560
      7        6          -0.005389923   -0.005483958    0.002468714
      8        6           0.030334099   -0.000063581    0.027613540
      9        6           0.001094456    0.001676477   -0.004993555
     10       35          -0.002358977    0.003136281    0.006105704
     11        1          -0.002931418   -0.006201419    0.001427240
     12        1           0.004898560    0.003719668   -0.002201924
     13        1          -0.001373208    0.003206135    0.006787469
     14        1          -0.000682086    0.011772098    0.005773500
[...]
 Alpha virt. eigenvalues --    0.75189   0.76617   0.83744   1.03230   1.04694
 Alpha virt. eigenvalues --    1.10459   1.14728   1.15149   1.16693   1.18226
 Alpha virt. eigenvalues --    1.20320   1.20986   1.21378   1.22643   1.23786
 Alpha virt. eigenvalues --    1.24187   1.24749   1.25625   1.26592   1.26991
 Alpha virt. eigenvalues --    1.27717   1.28713   1.29440   1.29777   1.30329
 Alpha virt. eigenvalues --    1.31621   1.32679   1.33401   1.35254   1.36132
 Alpha virt. eigenvalues --    1.37260   1.40084   1.40827   1.41107   1.42780
 Alpha virt. eigenvalues --    1.43740   1.46039   1.47508   1.48585   1.50458
 Alpha virt. eigenvalues --    1.51265   1.51963   1.52413   1.54778   1.55546
 Alpha virt. eigenvalues --    1.57148   1.57710   1.58183   1.58520   1.59410
 Alpha virt. eigenvalues --    1.59872   1.61936   1.62995   1.63402   1.64885
 Alpha virt. eigenvalues --    1.66102   1.67282   1.68634   1.69865   1.70572
 Alpha virt. eigenvalues --    1.70944   1.71887   1.72122   1.73016   1.73246
 Alpha virt. eigenvalues --    1.73511   1.73657   1.74730   1.75494   1.75742
 Alpha virt. eigenvalues --    1.77298   1.77682   1.78014   1.79448   1.79827
 Alpha virt. eigenvalues --    1.80875   1.81819   1.82701   1.83194   1.89170
 Alpha virt. eigenvalues --    1.89863   1.90423   1.92725   1.93899   1.94753
 Alpha virt. eigenvalues --    1.97991   2.02304   2.02905   2.06549   2.09294
 Alpha virt. eigenvalues --    2.12648   2.15309   2.15838   2.16298   2.16677
 Alpha virt. eigenvalues --    2.20478   2.21425   2.22423   2.24720   2.25582
 Alpha virt. eigenvalues --    2.26267   2.28641   2.29971   2.32293   2.34913
 Alpha virt. eigenvalues --    2.35867   2.37167   2.38757   2.39124   2.43454
 Alpha virt. eigenvalues --    2.43853   2.45078   2.46150   2.47891   2.49231
 Alpha virt. eigenvalues --    2.50411   2.51319   2.51441   2.52172   2.53650
 Alpha virt. eigenvalues --    2.55000   2.57302   2.58303   2.60659   2.62250
 Alpha virt. eigenvalues --    2.62762   2.65000   2.65651   2.66694   2.68129
 Alpha virt. eigenvalues --    2.69661   2.71129   2.71827   2.72275   2.74312
 Alpha virt. eigenvalues --    2.75913   2.77303   2.79239   2.81997   2.84146
 Alpha virt. eigenvalues --    2.86453   2.87493   2.89651   2.92696   2.93246
 Alpha virt. eigenvalues --    2.96487   2.96645   3.01413   3.03197   3.09856
 Alpha virt. eigenvalues --    3.14674   3.15309   3.18092   3.22084   3.24497
 Alpha virt. eigenvalues --    3.24758   3.25746   3.26398   3.26906   3.27489
 Alpha virt. eigenvalues --    3.29549   3.30275   3.32117   3.32739   3.34894
 Alpha virt. eigenvalues --    3.35112   3.37817   3.38836   3.39977   3.59731
 Alpha virt. eigenvalues --    3.60922   3.61461   7.11579  21.76261  21.77436
 Alpha virt. eigenvalues --   21.80006  21.80727  21.87356  21.88870  21.89787
 Alpha virt. eigenvalues --   21.91085  31.78948
          Condensed to atoms (all electrons):
               1          2          3          4          5          6
     1  C    5.139220   0.184380  -0.038340   0.009280  -0.014742   0.009639
     2  C    0.184380   5.395604   0.176228  -0.054635   0.003248  -0.071878
     3  N   -0.038340   0.176228   6.838260   0.161899  -0.038093   0.151426
     4  C    0.009280  -0.054635   0.161899   5.467295   0.193860  -0.131998
     5  C   -0.014742   0.003248  -0.038093   0.193860   5.127404   0.020311
     6  C    0.009639  -0.071878   0.151426  -0.131998   0.020311   5.430203
     7  C   -0.001241  -0.020741  -0.038873   0.010609   0.001764   0.231773
     8  C    0.020163  -0.128950   0.199975  -0.102789   0.004700  -0.063776
     9  C    0.000479  -0.003507  -0.035725   0.018352   0.000733  -0.005583
    10  Br   0.000019  -0.000127   0.003534  -0.031124   0.001932  -0.023385
    11  H    0.412780  -0.042380  -0.005877  -0.007100   0.000788   0.019317
    12  H    0.414784  -0.044928  -0.008210   0.020805  -0.004079  -0.005790
    13  H    0.388388  -0.025609   0.006684  -0.000682   0.000396  -0.001143
    14  H   -0.026271   0.409487  -0.021550   0.010898  -0.000025  -0.022901
    15  H   -0.033140   0.403855  -0.024420  -0.024370   0.004090   0.012759
    16  H    0.000333   0.011328  -0.032477   0.387411  -0.028944   0.010582
    17  H    0.000605  -0.015807  -0.019525   0.413802  -0.031540  -0.023347
    18  H    0.000722  -0.007089  -0.005770  -0.042529   0.415129  -0.001388
    19  H   -0.003939   0.020028  -0.008453  -0.040197   0.409465  -0.000067
    20  H    0.000489  -0.000586   0.006814  -0.032172   0.394475  -0.000276
    21  H    0.000354   0.005871  -0.030563  -0.017023  -0.000597   0.381997
    22  H   -0.007178   0.006713  -0.026664   0.012267  -0.000713   0.400051
    23  H    0.006107  -0.001315   0.000797  -0.013424  -0.000073  -0.044826
    24  H    0.000298   0.000072   0.006452   0.000279  -0.000047  -0.030169
    25  H   -0.001287   0.001313  -0.011222   0.011003   0.000425  -0.035468
    26  H    0.000053  -0.015872  -0.026313  -0.016072   0.004725   0.010255
    27  H   -0.001052   0.014717  -0.023414   0.006730  -0.007590  -0.025418
    28  H    0.000045  -0.004145  -0.010369  -0.001163   0.000081   0.018494
    29  H   -0.000019   0.000883   0.007102  -0.000212   0.000032  -0.000835
    30  H   -0.000097   0.008292  -0.003223   0.000251  -0.000214  -0.007942
               7          8          9         10         11         12
     1  C   -0.001241   0.020163   0.000479   0.000019   0.412780   0.414784
     2  C   -0.020741  -0.128950  -0.003507  -0.000127  -0.042380  -0.044928
     3  N   -0.038873   0.199975  -0.035725   0.003534  -0.005877  -0.008210
     4  C    0.010609  -0.102789   0.018352  -0.031124  -0.007100   0.020805
     5  C    0.001764   0.004700   0.000733   0.001932   0.000788  -0.004079
     6  C    0.231773  -0.063776  -0.005583  -0.023385   0.019317  -0.005790
     7  C    5.130352   0.010463   0.001956  -0.008350  -0.012051  -0.000439
     8  C    0.010463   5.402624   0.215574  -0.029382  -0.000371  -0.001008
     9  C    0.001956   0.215574   5.106711   0.002307  -0.000101   0.000048
    10  Br  -0.008350  -0.029382   0.002307  35.929157  -0.000000   0.000006
    11  H   -0.012051  -0.000371  -0.000101  -0.000000   0.508328  -0.027619
    12  H   -0.000439  -0.001008   0.000048   0.000006  -0.027619   0.499336
    13  H    0.001151  -0.000311   0.000047   0.000000  -0.019322  -0.018455
    14  H    0.000955  -0.009950   0.004413  -0.000001  -0.003671   0.004404
    15  H   -0.000518   0.002783  -0.004807   0.000006   0.004703  -0.002893
    16  H   -0.013501  -0.022829   0.000169   0.021382  -0.000111   0.000241
    17  H    0.007298   0.010776  -0.000653   0.000691   0.000775  -0.003713
    18  H    0.000082   0.011954   0.000326   0.000760  -0.000001  -0.000021
    19  H   -0.000241  -0.007278  -0.000016   0.000004  -0.000029   0.001673
    20  H    0.000098   0.000395  -0.000029   0.000172  -0.000006   0.000145
    21  H   -0.029901   0.020274  -0.013539   0.018442  -0.000150  -0.000076
    22  H   -0.027409  -0.018324   0.001139   0.000879  -0.001100   0.000568
    23  H    0.419007   0.000642  -0.000179   0.000469  -0.001900  -0.001612
    24  H    0.389235   0.000131  -0.000040   0.000662   0.000544  -0.000048
    25  H    0.398465  -0.002521   0.000088   0.009467   0.000550   0.000268
    26  H   -0.000587   0.421411  -0.031635   0.000571  -0.000009   0.000052
    27  H    0.000028   0.372370  -0.030575   0.022692   0.000030  -0.000024
    28  H    0.000805  -0.032396   0.400818   0.001748   0.000010   0.000001
    29  H   -0.000018  -0.035168   0.397070   0.000329  -0.000003   0.000002
    30  H   -0.000280  -0.048869   0.418085   0.000050   0.000038  -0.000029
              13         14         15         16         17         18
     1  C    0.388388  -0.026271  -0.033140   0.000333   0.000605   0.000722
     2  C   -0.025609   0.409487   0.403855   0.011328  -0.015807  -0.007089
     3  N    0.006684  -0.021550  -0.024420  -0.032477  -0.019525  -0.005770
     4  C   -0.000682   0.010898  -0.024370   0.387411   0.413802  -0.042529
     5  C    0.000396  -0.000025   0.004090  -0.028944  -0.031540   0.415129
     6  C   -0.001143  -0.022901   0.012759   0.010582  -0.023347  -0.001388
     7  C    0.001151   0.000955  -0.000518  -0.013501   0.007298   0.000082
     8  C   -0.000311  -0.009950   0.002783  -0.022829   0.010776   0.011954
     9  C    0.000047   0.004413  -0.004807   0.000169  -0.000653   0.000326
    10  Br   0.000000  -0.000001   0.000006   0.021382   0.000691   0.000760
    11  H   -0.019322  -0.003671   0.004703  -0.000111   0.000775  -0.000001
    12  H   -0.018455   0.004404  -0.002893   0.000241  -0.003713  -0.000021
    13  H    0.497952  -0.001078  -0.002858  -0.000007   0.000160  -0.000006
    14  H   -0.001078   0.464322  -0.016368  -0.000212  -0.000278  -0.000064
    15  H   -0.002858  -0.016368   0.472103  -0.000385   0.001218   0.000991
    16  H   -0.000007  -0.000212  -0.000385   0.493789  -0.014064  -0.003814
    17  H    0.000160  -0.000278   0.001218  -0.014064   0.452282   0.004176
    18  H   -0.000006  -0.000064   0.000991  -0.003814   0.004176   0.500782
    19  H    0.000011   0.000340  -0.005589   0.004947  -0.002299  -0.025683
    20  H   -0.000014   0.000003   0.000230  -0.001082  -0.002066  -0.019453
    21  H    0.000037   0.000305  -0.000419   0.002558   0.000552   0.000069
    22  H   -0.000052   0.002780   0.000160  -0.000187   0.000185   0.000006
    23  H    0.000733   0.000279  -0.000117   0.000803  -0.000996  -0.000008
    24  H   -0.000015  -0.000048   0.000024   0.000068   0.000611   0.000002
    25  H   -0.000048  -0.000038   0.000019  -0.001634  -0.005542  -0.000046
    26  H   -0.000016  -0.000273   0.003268   0.001078  -0.000159  -0.004146
    27  H    0.000022  -0.000259   0.000343   0.002175   0.000525  -0.001297
    28  H   -0.000005   0.000301   0.000209   0.000125  -0.000029  -0.000041
    29  H   -0.000000   0.000124  -0.000024  -0.000040   0.000022   0.000089
    30  H    0.000084  -0.001244  -0.000695  -0.000061   0.000015   0.000022
              19         20         21         22         23         24
     1  C   -0.003939   0.000489   0.000354  -0.007178   0.006107   0.000298
     2  C    0.020028  -0.000586   0.005871   0.006713  -0.001315   0.000072
     3  N   -0.008453   0.006814  -0.030563  -0.026664   0.000797   0.006452
     4  C   -0.040197  -0.032172  -0.017023   0.012267  -0.013424   0.000279
     5  C    0.409465   0.394475  -0.000597  -0.000713  -0.000073  -0.000047
     6  C   -0.000067  -0.000276   0.381997   0.400051  -0.044826  -0.030169
     7  C   -0.000241   0.000098  -0.029901  -0.027409   0.419007   0.389235
     8  C   -0.007278   0.000395   0.020274  -0.018324   0.000642   0.000131
     9  C   -0.000016  -0.000029  -0.013539   0.001139  -0.000179  -0.000040
    10  Br   0.000004   0.000172   0.018442   0.000879   0.000469   0.000662
    11  H   -0.000029  -0.000006  -0.000150  -0.001100  -0.001900   0.000544
    12  H    0.001673   0.000145  -0.000076   0.000568  -0.001612  -0.000048
    13  H    0.000011  -0.000014   0.000037  -0.000052   0.000733  -0.000015
    14  H    0.000340   0.000003   0.000305   0.002780   0.000279  -0.000048
    15  H   -0.005589   0.000230  -0.000419   0.000160  -0.000117   0.000024
    16  H    0.004947  -0.001082   0.002558  -0.000187   0.000803   0.000068
    17  H   -0.002299  -0.002066   0.000552   0.000185  -0.000996   0.000611
    18  H   -0.025683  -0.019453   0.000069   0.000006  -0.000008   0.000002
    19  H    0.505745  -0.019911  -0.000001  -0.000014   0.000016   0.000000
    20  H   -0.019911   0.498709  -0.000021   0.000020  -0.000005  -0.000001
    21  H   -0.000001  -0.000021   0.492436  -0.019084   0.005459  -0.000117
    22  H   -0.000014   0.000020  -0.019084   0.470828  -0.003021  -0.002981
    23  H    0.000016  -0.000005   0.005459  -0.003021   0.498637  -0.016918
    24  H    0.000000  -0.000001  -0.000117  -0.002981  -0.016918   0.499413
    25  H   -0.000008   0.000104  -0.007567   0.005405  -0.026343  -0.020819
    26  H    0.000766   0.000172   0.000622  -0.000155   0.000005   0.000021
    27  H    0.000399   0.000050  -0.000802   0.001207  -0.000040  -0.000060
    28  H    0.000003   0.000001  -0.000700  -0.005370  -0.000001   0.000107
    29  H   -0.000008  -0.000001   0.000212   0.000196   0.000001  -0.000001
    30  H   -0.000001  -0.000001   0.000770   0.001033   0.000001  -0.000003
              25         26         27         28         29         30
     1  C   -0.001287   0.000053  -0.001052   0.000045  -0.000019  -0.000097
     2  C    0.001313  -0.015872   0.014717  -0.004145   0.000883   0.008292
     3  N   -0.011222  -0.026313  -0.023414  -0.010369   0.007102  -0.003223
     4  C    0.011003  -0.016072   0.006730  -0.001163  -0.000212   0.000251
     5  C    0.000425   0.004725  -0.007590   0.000081   0.000032  -0.000214
     6  C   -0.035468   0.010255  -0.025418   0.018494  -0.000835  -0.007942
     7  C    0.398465  -0.000587   0.000028   0.000805  -0.000018  -0.000280
     8  C   -0.002521   0.421411   0.372370  -0.032396  -0.035168  -0.048869
     9  C    0.000088  -0.031635  -0.030575   0.400818   0.397070   0.418085
    10  Br   0.009467   0.000571   0.022692   0.001748   0.000329   0.000050
    11  H    0.000550  -0.000009   0.000030   0.000010  -0.000003   0.000038
    12  H    0.000268   0.000052  -0.000024   0.000001   0.000002  -0.000029
    13  H   -0.000048  -0.000016   0.000022  -0.000005  -0.000000   0.000084
    14  H   -0.000038  -0.000273  -0.000259   0.000301   0.000124  -0.001244
    15  H    0.000019   0.003268   0.000343   0.000209  -0.000024  -0.000695
    16  H   -0.001634   0.001078   0.002175   0.000125  -0.000040  -0.000061
    17  H   -0.005542  -0.000159   0.000525  -0.000029   0.000022   0.000015
    18  H   -0.000046  -0.004146  -0.001297  -0.000041   0.000089   0.000022
    19  H   -0.000008   0.000766   0.000399   0.000003  -0.000008  -0.000001
    20  H    0.000104   0.000172   0.000050   0.000001  -0.000001  -0.000001
    21  H   -0.007567   0.000622  -0.000802  -0.000700   0.000212   0.000770
    22  H    0.005405  -0.000155   0.001207  -0.005370   0.000196   0.001033
    23  H   -0.026343   0.000005  -0.000040  -0.000001   0.000001   0.000001
    24  H   -0.020819   0.000021  -0.000060   0.000107  -0.000001  -0.000003
    25  H    0.520123  -0.000008   0.000306  -0.000060  -0.000002   0.000003
    26  H   -0.000008   0.461127  -0.014611   0.004442  -0.002278  -0.001861
    27  H    0.000306  -0.014611   0.503597  -0.004025  -0.000648   0.005034
    28  H   -0.000060   0.004442  -0.004025   0.504845  -0.022122  -0.023981
    29  H   -0.000002  -0.002278  -0.000648  -0.022122   0.499523  -0.018346
    30  H    0.000003  -0.001861   0.005034  -0.023981  -0.018346   0.502152
 Mulliken charges:
               1
     1  C   -0.460831
     2  C   -0.204452
     3  N   -0.150090
     4  C   -0.209251
     5  C   -0.456901
     6  C   -0.200618
     7  C   -0.449893
     8  C   -0.190315
     9  C   -0.441927
    10  Br  -0.922910
    11  H    0.173936
    12  H    0.176614
    13  H    0.173957
    14  H    0.205622
    15  H    0.209841
    16  H    0.182358
    17  H    0.226325
    18  H    0.176245
    19  H    0.170338
    20  H    0.173743
    21  H    0.190603
    22  H    0.208815
    23  H    0.177824
    24  H    0.173347
    25  H    0.165072
    26  H    0.205427
    27  H    0.179587
    28  H    0.172374
    29  H    0.174141
    30  H    0.171019
 Sum of Mulliken charges =  -0.00000
 Mulliken charges with hydrogens summed into heavy atoms:
               1
     1  C    0.063676
     2  C    0.211012
     3  N   -0.150090
     4  C    0.199432
     5  C    0.063424
     6  C    0.198800
     7  C    0.066350
     8  C    0.194699
     9  C    0.075606
    10  Br  -0.922910
 Electronic spatial extent (au):  <R**2>=           3007.0621
 Charge=             -0.0000 electrons
 Dipole moment (field-independent basis, Debye):
    X=             18.8044    Y=              1.4694    Z=             -0.3313  Tot=             18.8646
 Quadrupole moment (field-independent basis, Debye-Ang):
   XX=           -104.7174   YY=            -73.2905   ZZ=            -73.3612
   XY=             -1.2858   XZ=              0.8010   YZ=              0.0074
 Traceless Quadrupole moment (field-independent basis, Debye-Ang):
   XX=            -20.9278   YY=             10.4992   ZZ=             10.4285
   XY=             -1.2858   XZ=              0.8010   YZ=              0.0074
 Octapole moment (field-independent basis, Debye-Ang**2):
  XXX=            112.7581  YYY=              7.8603  ZZZ=              0.7938  XYY=             -6.7467
  XXY=              6.3361  XXZ=             -2.3247  XZZ=             -6.4642  YZZ=             -3.9962
  YYZ=              0.5460  XYZ=             -0.5930
 Hexadecapole moment (field-independent basis, Debye-Ang**3):
 XXXX=          -2442.7251 YYYY=           -746.9213 ZZZZ=           -667.0693 XXXY=             -2.6567
 XXXZ=              0.3364 YYYX=              8.6443 YYYZ=             -0.7058 ZZZX=              0.3123
 ZZZY=              0.4644 XXYY=           -500.6526 XXZZ=           -488.2495 YYZZ=           -235.6530
 XXYZ=             -1.0547 YYXZ=             -2.6445 ZZXY=              2.5621
 N-N= 8.478617897511D+02 E-N=-8.709685611858D+03  KE= 2.939628598667D+03
 Unable to Open any file for archive entry.
 1\1\GINC-TCN978\SP\RBP86\TZVP\C8H20Br1N1\ELENAA\21-Aug-2021\0\\# BP86/
 TZVP SCRF=COSMORS geom=CHECKPOINT guess=CHECKPOINT\\COSMO-file for #HW
 CKGOZZJDHMNC-UHFFFAOYSA-M\\0,1\C,0,-0.3694444111,-0.9036964616,-2.5019
 270245\C,0,0.5506613085,-0.7510110594,-1.3003802388\N,0,-0.0221998411,
 -0.0068731977,-0.0946893433\C,0,-1.2928319978,-0.6743863453,0.43837276
 53\C,0,-1.142343473,-2.1271598778,0.867666847\C,0,-0.3206689508,1.4717
 36306,-0.4238181927\C,0,-1.6955710919,1.7982242583,-0.9946839341\C,0,1
 .0308186087,-0.0320417623,1.0288169712\C,0,2.3095461238,0.7490180652,0
 .7565949929\Br,0,-1.3906988905,2.0695338959,3.1313400636\H,0,-0.589708
 054,0.0564095983,-2.9837965889\H,0,-1.3124915002,-1.4101915814,-2.2572
 231511\H,0,0.1568269355,-1.5278175821,-3.2382586118\H,0,1.4558249618,-
 0.2028632888,-1.5867663067\H,0,0.8649835868,-1.7325582101,-0.923803992
 4\H,0,-1.612704696,-0.0386402321,1.2783149085\H,0,-2.04164001,-0.59474
 83665,-0.3560832545\H,0,-0.4621259167,-2.2557383394,1.7190119922\H,0,-
 0.8193772535,-2.7830719477,0.0476825839\H,0,-2.1358559608,-2.472331453
 3,1.1880932367\H,0,-0.2127159791,2.0016261142,0.5326905032\H,0,0.47886
 71006,1.7885627313,-1.1045616511\H,0,-1.9544294138,1.2334535866,-1.897
 4422056\H,0,-1.6752612974,2.8641198467,-1.2662001288\H,0,-2.4882539034
 ,1.6688108131,-0.2465604948\H,0,1.2641778377,-1.0889971819,1.201703974
 6\H,0,0.5098713677,0.3697238737,1.9110544845\H,0,2.1334154515,1.824905
 6082,0.6316762634\H,0,2.9541865597,0.6230311017,1.6385348774\H,0,2.869
 2302387,0.3734772872,-0.1100923002\\Version=ES64L-G16RevC.01\State=1-A
 \HF=-2946.220093\RMSD=8.561e-10\Dipole=2.4632516,-3.7755899,-5.8959222
 \Quadrupole=5.742781,1.9205903,-7.6633713,3.5137625,5.7131969,-9.49487
 09\PG=C01 [X(C8H20Br1N1)]\\@
 The archive entry for this job was punched.


 IF YOU BELIEVE CERTAIN WORDS, YOU BELIEVE THEIR HIDDEN ARGUMENTS.
 WHEN YOU BELIEVE SOMETHING IS RIGHT OR WRONG, TRUE OR FALSE, 
 YOU BELIEVE THE ASSUMPTIONS IN THE WORDS WHICH EXPRESS THE ARGUMENTS.
 SUCH ASSUMPTIONS ARE OFTEN FULL OF HOLES, BUT REMAIN MOST PRECIOUS 
 TO THE CONVINCED.

                 -- THE OPEN-ENDED PROOF FROM THE PANOPLIA PROPHETICA
                    CHILDREN OF DUNE BY FRANK HERBERT
 Job cpu time:       0 days  0 hours 11 minutes 43.0 seconds.
 Elapsed time:       0 days  0 hours  0 minutes 30.0 seconds.
 File lengths (MBytes):  RWF=     86 Int=      0 D2E=      0 Chk=     13 Scr=      1
 Normal termination of Gaussian 16 at Sat Aug 21 09:45:20 2021.
