 Entering Gaussian System, Link 0=g16
 Input=IPCSVZSSVZVIGE-UHFFFAOYSA-N.gjf
 Output=IPCSVZSSVZVIGE-UHFFFAOYSA-N.log
 Initial command:
 /sw/arch/RedHatEnterpriseServer7/EB_production/2019/software/Gaussian/g16.c01/l1.exe "/scratch-local/elenaa.9715219/Gau-7487.inp" -scrdir="/scratch-local/elenaa.9715219/"
 Entering Link 1 = /sw/arch/RedHatEnterpriseServer7/EB_production/2019/software/Gaussian/g16.c01/l1.exe PID=      7488.
  
 Copyright (c) 1988-2019, Gaussian, Inc.  All Rights Reserved.
  
 This is part of the Gaussian(R) 16 program.  It is based on
 the Gaussian(R) 09 system (copyright 2009, Gaussian, Inc.),
 the Gaussian(R) 03 system (copyright 2003, Gaussian, Inc.),
 the Gaussian(R) 98 system (copyright 1998, Gaussian, Inc.),
 the Gaussian(R) 94 system (copyright 1995, Gaussian, Inc.),
 the Gaussian 92(TM) system (copyright 1992, Gaussian, Inc.),
 the Gaussian 90(TM) system (copyright 1990, Gaussian, Inc.),
 the Gaussian 88(TM) system (copyright 1988, Gaussian, Inc.),
 the Gaussian 86(TM) system (copyright 1986, Carnegie Mellon
 University), and the Gaussian 82(TM) system (copyright 1983,
 Carnegie Mellon University). Gaussian is a federally registered
 trademark of Gaussian, Inc.
  
 This software contains proprietary and confidential information,
 including trade secrets, belonging to Gaussian, Inc.
  
 This software is provided under written license and may be
 used, copied, transmitted, or stored only in accord with that
 written license.
  
 The following legend is applicable only to US Government
 contracts under FAR:
  
                    RESTRICTED RIGHTS LEGEND
  
 Use, reproduction and disclosure by the US Government is
 subject to restrictions as set forth in subparagraphs (a)
 and (c) of the Commercial Computer Software - Restricted
 Rights clause in FAR 52.227-19.
  
 Gaussian, Inc.
 340 Quinnipiac St., Bldg. 40, Wallingford CT 06492
  
  
 ---------------------------------------------------------------
 Warning -- This program may not be used in any manner that
 competes with the business of Gaussian, Inc. or will provide
 assistance to any competitor of Gaussian, Inc.  The licensee
 of this program is prohibited from giving any competitor of
 Gaussian, Inc. access to this program.  By using this program,
 the user acknowledges that Gaussian, Inc. is engaged in the
 business of creating and licensing software in the field of
 computational chemistry and represents and warrants to the
 licensee that it is not a competitor of Gaussian, Inc. and that
 it will not use this program in any manner prohibited above.
 ---------------------------------------------------------------
  

 Cite this work as:
 Gaussian 16, Revision C.01,
 M. J. Frisch, G. W. Trucks, H. B. Schlegel, G. E. Scuseria, 
 M. A. Robb, J. R. Cheeseman, G. Scalmani, V. Barone, 
 G. A. Petersson, H. Nakatsuji, X. Li, M. Caricato, A. V. Marenich, 
 J. Bloino, B. G. Janesko, R. Gomperts, B. Mennucci, H. P. Hratchian, 
 J. V. Ortiz, A. F. Izmaylov, J. L. Sonnenberg, D. Williams-Young, 
 F. Ding, F. Lipparini, F. Egidi, J. Goings, B. Peng, A. Petrone, 
 T. Henderson, D. Ranasinghe, V. G. Zakrzewski, J. Gao, N. Rega, 
 G. Zheng, W. Liang, M. Hada, M. Ehara, K. Toyota, R. Fukuda, 
 J. Hasegawa, M. Ishida, T. Nakajima, Y. Honda, O. Kitao, H. Nakai, 
 T. Vreven, K. Throssell, J. A. Montgomery, Jr., J. E. Peralta, 
 F. Ogliaro, M. J. Bearpark, J. J. Heyd, E. N. Brothers, K. N. Kudin, 
 V. N. Staroverov, T. A. Keith, R. Kobayashi, J. Normand, 
 K. Raghavachari, A. P. Rendell, J. C. Burant, S. S. Iyengar, 
 J. Tomasi, M. Cossi, J. M. Millam, M. Klene, C. Adamo, R. Cammi, 
 J. W. Ochterski, R. L. Martin, K. Morokuma, O. Farkas, 
 J. B. Foresman, and D. J. Fox, Gaussian, Inc., Wallingford CT, 2019.
 
 ******************************************
 Gaussian 16:  ES64L-G16RevC.01  3-Jul-2019
                22-Feb-2021 
 ******************************************
 %chk=IPCSVZSSVZVIGE-UHFFFAOYSA-N.chk
 %NProcShared=32
 Will use up to   32 processors via shared memory.
 -------------------------------------------------------------
 #P BP86/TZVP EmpiricalDispersion=GD3 SCRF=(Solvent=Water) Opt
 -------------------------------------------------------------
 1/18=20,19=15,26=3,38=1/1,3;
 2/9=110,12=2,17=6,18=5,40=1/2;
 3/5=19,7=101,11=2,25=1,30=1,70=2201,71=1,72=1,74=404,124=31/1,2,3;
 4//1;
 5/5=2,38=5,53=1/2;
 6/7=2,8=2,9=2,10=2,28=1/1;
 7//1,2,3,16;
 1/18=20,19=15,26=3/3(2);
 2/9=110/2;
 99//99;
 2/9=110/2;
 3/5=19,7=101,11=2,25=1,30=1,70=2205,71=1,72=1,74=404,124=31/1,2,3;
 4/5=5,16=3,69=1/1;
 5/5=2,38=5,53=1/2;
 7//1,2,3,16;
 1/18=20,19=15,26=3/3(-5);
 2/9=110/2;
 6/7=2,8=2,9=2,10=2,19=2,28=1/1;
 99/9=1/99;
 Leave Link    1 at Mon Feb 22 21:11:00 2021, MaxMem=           0 cpu:               1.7 elap:               0.1
 (Enter /sw/arch/RedHatEnterpriseServer7/EB_production/2019/software/Gaussian/g16.c01/l101.exe)
 -------------------------------------
 Particle #IPCSVZSSVZVIGE-UHFFFAOYSA-N
 -------------------------------------
 Symbolic Z-matrix:
 Charge =  0 Multiplicity = 1
 C                    -1.15624  -5.31038   9.55246 
 C                    -2.2732   -4.38932   9.01509 
 C                    -1.71053  -3.11453   8.3341 
 C                    -2.8277   -2.18601   7.79263 
 C                    -2.25871  -0.91383   7.11329 
 C                    -3.38044   0.01      6.57438 
 C                    -2.81587   1.28301   5.89471 
 C                    -3.9307    2.21397   5.35237 
 C                    -3.34666   3.48217   4.67568 
 C                    -4.43713   4.4312    4.1225 
 C                    -3.83081   5.69231   3.44607 
 C                    -4.93583   6.6276    2.8928 
 C                    -4.38885   7.90151   2.19489 
 C                    -5.53088   8.81607   1.67649 
 C                    -5.00397   10.08761   0.96016 
 C                    -6.10348   10.99923   0.58917 
 O                    -6.3843    11.23206  -0.60804 
 O                    -6.83261   11.60705   1.55423 
 H                    -0.55443  -4.78364   10.29549 
 H                    -0.50804  -5.63669   8.73694 
 H                    -1.59727  -6.19084   10.02123 
 H                    -2.92075  -4.10143   9.84786 
 H                    -2.87454  -4.95128   8.29515 
 H                    -1.10775  -2.55943   9.05879 
 H                    -1.06148  -3.41008   7.50461 
 H                    -3.43103  -2.73802   7.06612 
 H                    -3.47729  -1.88729   8.62048 
 H                    -1.6088   -1.21023   6.28441 
 H                    -1.65498  -0.35976   7.8384 
 H                    -4.0292    0.30538   7.40404 
 H                    -3.98281  -0.54516   5.84952 
 H                    -2.16586   0.98458   5.06695 
 H                    -2.21181   1.83483   6.6209 
 H                    -4.58115   2.51503   6.1789 
 H                    -4.535     1.6643    4.62462 
 H                    -2.74244   4.02704   5.40675 
 H                    -2.69473   3.17537   3.85269 
 H                    -5.08996   4.74435   4.94269 
 H                    -5.04543   3.89045   3.39142 
 H                    -3.17586   5.3806    2.62703 
 H                    -3.22628   6.23693   4.17731 
 H                    -5.5386    6.06671   2.17284 
 H                    -5.58421   6.9293    3.72043 
 H                    -3.75441   7.60572   1.35566 
 H                    -3.77642   8.46371   2.90594 
 H                    -6.15316   9.11393   2.52576 
 H                    -6.15821   8.25326   0.97866 
 H                    -4.44294   9.79362   0.06581 
 H                    -4.32064   10.62801   1.6218 
 H                    -7.56522   12.20934   1.31069 
 
 ITRead=  0  0  0  0  0  0  0  0  0  0  0  0  0  0  0  0  0  0  0  0
 ITRead=  0  0  0  0  0  0  0  0  0  0  0  0  0  0  0  0  0  0  0  0
 ITRead=  0  0  0  0  0  0  0  0  0  0
 MicOpt= -1 -1 -1 -1 -1 -1 -1 -1 -1 -1 -1 -1 -1 -1 -1 -1 -1 -1 -1 -1
 MicOpt= -1 -1 -1 -1 -1 -1 -1 -1 -1 -1 -1 -1 -1 -1 -1 -1 -1 -1 -1 -1
 MicOpt= -1 -1 -1 -1 -1 -1 -1 -1 -1 -1
 NAtoms=     50 NQM=       50 NQMF=       0 NMMI=      0 NMMIF=      0
                NMic=       0 NMicF=      0.
                    Isotopes and Nuclear Properties:
 (Nuclear quadrupole moments (NQMom) in fm**2, nuclear magnetic moments (NMagM)
  in nuclear magnetons)

  Atom         1           2           3           4           5           6           7           8           9          10
 IAtWgt=          12          12          12          12          12          12          12          12          12          12
 AtmWgt=  12.0000000  12.0000000  12.0000000  12.0000000  12.0000000  12.0000000  12.0000000  12.0000000  12.0000000  12.0000000
 NucSpn=           0           0           0           0           0           0           0           0           0           0
 AtZEff=  -0.0000000  -0.0000000  -0.0000000  -0.0000000  -0.0000000  -0.0000000  -0.0000000  -0.0000000  -0.0000000  -0.0000000
 NQMom=    0.0000000   0.0000000   0.0000000   0.0000000   0.0000000   0.0000000   0.0000000   0.0000000   0.0000000   0.0000000
 NMagM=    0.0000000   0.0000000   0.0000000   0.0000000   0.0000000   0.0000000   0.0000000   0.0000000   0.0000000   0.0000000
 AtZNuc=   6.0000000   6.0000000   6.0000000   6.0000000   6.0000000   6.0000000   6.0000000   6.0000000   6.0000000   6.0000000

  Atom        11          12          13          14          15          16          17          18          19          20
 IAtWgt=          12          12          12          12          12          12          16          16           1           1
 AtmWgt=  12.0000000  12.0000000  12.0000000  12.0000000  12.0000000  12.0000000  15.9949146  15.9949146   1.0078250   1.0078250
 NucSpn=           0           0           0           0           0           0           0           0           1           1
 AtZEff=  -0.0000000  -0.0000000  -0.0000000  -0.0000000  -0.0000000  -0.0000000  -0.0000000  -0.0000000  -0.0000000  -0.0000000
 NQMom=    0.0000000   0.0000000   0.0000000   0.0000000   0.0000000   0.0000000   0.0000000   0.0000000   0.0000000   0.0000000
 NMagM=    0.0000000   0.0000000   0.0000000   0.0000000   0.0000000   0.0000000   0.0000000   0.0000000   2.7928460   2.7928460
 AtZNuc=   6.0000000   6.0000000   6.0000000   6.0000000   6.0000000   6.0000000   8.0000000   8.0000000   1.0000000   1.0000000

  Atom        21          22          23          24          25          26          27          28          29          30
 IAtWgt=           1           1           1           1           1           1           1           1           1           1
 AtmWgt=   1.0078250   1.0078250   1.0078250   1.0078250   1.0078250   1.0078250   1.0078250   1.0078250   1.0078250   1.0078250
 NucSpn=           1           1           1           1           1           1           1           1           1           1
 AtZEff=  -0.0000000  -0.0000000  -0.0000000  -0.0000000  -0.0000000  -0.0000000  -0.0000000  -0.0000000  -0.0000000  -0.0000000
 NQMom=    0.0000000   0.0000000   0.0000000   0.0000000   0.0000000   0.0000000   0.0000000   0.0000000   0.0000000   0.0000000
 NMagM=    2.7928460   2.7928460   2.7928460   2.7928460   2.7928460   2.7928460   2.7928460   2.7928460   2.7928460   2.7928460
 AtZNuc=   1.0000000   1.0000000   1.0000000   1.0000000   1.0000000   1.0000000   1.0000000   1.0000000   1.0000000   1.0000000

  Atom        31          32          33          34          35          36          37          38          39          40
 IAtWgt=           1           1           1           1           1           1           1           1           1           1
 AtmWgt=   1.0078250   1.0078250   1.0078250   1.0078250   1.0078250   1.0078250   1.0078250   1.0078250   1.0078250   1.0078250
 NucSpn=           1           1           1           1           1           1           1           1           1           1
 AtZEff=  -0.0000000  -0.0000000  -0.0000000  -0.0000000  -0.0000000  -0.0000000  -0.0000000  -0.0000000  -0.0000000  -0.0000000
 NQMom=    0.0000000   0.0000000   0.0000000   0.0000000   0.0000000   0.0000000   0.0000000   0.0000000   0.0000000   0.0000000
 NMagM=    2.7928460   2.7928460   2.7928460   2.7928460   2.7928460   2.7928460   2.7928460   2.7928460   2.7928460   2.7928460
 AtZNuc=   1.0000000   1.0000000   1.0000000   1.0000000   1.0000000   1.0000000   1.0000000   1.0000000   1.0000000   1.0000000

  Atom        41          42          43          44          45          46          47          48          49          50
 IAtWgt=           1           1           1           1           1           1           1           1           1           1
 AtmWgt=   1.0078250   1.0078250   1.0078250   1.0078250   1.0078250   1.0078250   1.0078250   1.0078250   1.0078250   1.0078250
 NucSpn=           1           1           1           1           1           1           1           1           1           1
 AtZEff=  -0.0000000  -0.0000000  -0.0000000  -0.0000000  -0.0000000  -0.0000000  -0.0000000  -0.0000000  -0.0000000  -0.0000000
 NQMom=    0.0000000   0.0000000   0.0000000   0.0000000   0.0000000   0.0000000   0.0000000   0.0000000   0.0000000   0.0000000
 NMagM=    2.7928460   2.7928460   2.7928460   2.7928460   2.7928460   2.7928460   2.7928460   2.7928460   2.7928460   2.7928460
 AtZNuc=   1.0000000   1.0000000   1.0000000   1.0000000   1.0000000   1.0000000   1.0000000   1.0000000   1.0000000   1.0000000
 Leave Link  101 at Mon Feb 22 21:11:00 2021, MaxMem=   104857600 cpu:               3.2 elap:               0.1
 (Enter /sw/arch/RedHatEnterpriseServer7/EB_production/2019/software/Gaussian/g16.c01/l103.exe)

 GradGradGradGradGradGradGradGradGradGradGradGradGradGradGradGradGradGrad
 Berny optimization.
 Initialization pass.
                           ----------------------------
                           !    Initial Parameters    !
                           ! (Angstroms and Degrees)  !
 --------------------------                            --------------------------
 ! Name  Definition              Value          Derivative Info.                !
 --------------------------------------------------------------------------------
 ! R1    R(1,2)                  1.5443         estimate D2E/DX2                !
 ! R2    R(1,19)                 1.0917         estimate D2E/DX2                !
 ! R3    R(1,20)                 1.0917         estimate D2E/DX2                !
 ! R4    R(1,21)                 1.0906         estimate D2E/DX2                !
 ! R5    R(2,3)                  1.5509         estimate D2E/DX2                !
 ! R6    R(2,22)                 1.0935         estimate D2E/DX2                !
 ! R7    R(2,23)                 1.0935         estimate D2E/DX2                !
 ! R8    R(3,4)                  1.5503         estimate D2E/DX2                !
 ! R9    R(3,24)                 1.0939         estimate D2E/DX2                !
 ! R10   R(3,25)                 1.0939         estimate D2E/DX2                !
 ! R11   R(4,5)                  1.5504         estimate D2E/DX2                !
 ! R12   R(4,26)                 1.0939         estimate D2E/DX2                !
 ! R13   R(4,27)                 1.0939         estimate D2E/DX2                !
 ! R14   R(5,6)                  1.5499         estimate D2E/DX2                !
 ! R15   R(5,28)                 1.0942         estimate D2E/DX2                !
 ! R16   R(5,29)                 1.0942         estimate D2E/DX2                !
 ! R17   R(6,7)                  1.5496         estimate D2E/DX2                !
 ! R18   R(6,30)                 1.0938         estimate D2E/DX2                !
 ! R19   R(6,31)                 1.0938         estimate D2E/DX2                !
 ! R20   R(7,8)                  1.5504         estimate D2E/DX2                !
 ! R21   R(7,32)                 1.094          estimate D2E/DX2                !
 ! R22   R(7,33)                 1.094          estimate D2E/DX2                !
 ! R23   R(8,9)                  1.5516         estimate D2E/DX2                !
 ! R24   R(8,34)                 1.094          estimate D2E/DX2                !
 ! R25   R(8,35)                 1.094          estimate D2E/DX2                !
 ! R26   R(9,10)                 1.5478         estimate D2E/DX2                !
 ! R27   R(9,36)                 1.0938         estimate D2E/DX2                !
 ! R28   R(9,37)                 1.0938         estimate D2E/DX2                !
 ! R29   R(10,11)                1.5542         estimate D2E/DX2                !
 ! R30   R(10,38)                1.0941         estimate D2E/DX2                !
 ! R31   R(10,39)                1.094          estimate D2E/DX2                !
 ! R32   R(11,12)                1.5498         estimate D2E/DX2                !
 ! R33   R(11,40)                1.0941         estimate D2E/DX2                !
 ! R34   R(11,41)                1.094          estimate D2E/DX2                !
 ! R35   R(12,13)                1.5521         estimate D2E/DX2                !
 ! R36   R(12,42)                1.0937         estimate D2E/DX2                !
 ! R37   R(12,43)                1.0938         estimate D2E/DX2                !
 ! R38   R(13,14)                1.5522         estimate D2E/DX2                !
 ! R39   R(13,44)                1.0928         estimate D2E/DX2                !
 ! R40   R(13,45)                1.094          estimate D2E/DX2                !
 ! R41   R(14,15)                1.5516         estimate D2E/DX2                !
 ! R42   R(14,46)                1.0942         estimate D2E/DX2                !
 ! R43   R(14,47)                1.0942         estimate D2E/DX2                !
 ! R44   R(15,16)                1.4757         estimate D2E/DX2                !
 ! R45   R(15,48)                1.0959         estimate D2E/DX2                !
 ! R46   R(15,49)                1.094          estimate D2E/DX2                !
 ! R47   R(16,17)                1.2516         estimate D2E/DX2                !
 ! R48   R(16,18)                1.3537         estimate D2E/DX2                !
 ! R49   R(18,50)                0.9792         estimate D2E/DX2                !
 ! A1    A(2,1,19)             110.3528         estimate D2E/DX2                !
 ! A2    A(2,1,20)             110.3532         estimate D2E/DX2                !
 ! A3    A(2,1,21)             109.7907         estimate D2E/DX2                !
 ! A4    A(19,1,20)            108.9877         estimate D2E/DX2                !
 ! A5    A(19,1,21)            108.6573         estimate D2E/DX2                !
 ! A6    A(20,1,21)            108.6566         estimate D2E/DX2                !
 ! A7    A(1,2,3)              112.3725         estimate D2E/DX2                !
 ! A8    A(1,2,22)             108.684          estimate D2E/DX2                !
 ! A9    A(1,2,23)             108.684          estimate D2E/DX2                !
 ! A10   A(3,2,22)             109.4409         estimate D2E/DX2                !
 ! A11   A(3,2,23)             109.4408         estimate D2E/DX2                !
 ! A12   A(22,2,23)            108.1226         estimate D2E/DX2                !
 ! A13   A(2,3,4)              112.5948         estimate D2E/DX2                !
 ! A14   A(2,3,24)             109.0334         estimate D2E/DX2                !
 ! A15   A(2,3,25)             109.0338         estimate D2E/DX2                !
 ! A16   A(4,3,24)             108.9377         estimate D2E/DX2                !
 ! A17   A(4,3,25)             108.9374         estimate D2E/DX2                !
 ! A18   A(24,3,25)            108.2095         estimate D2E/DX2                !
 ! A19   A(3,4,5)              112.3357         estimate D2E/DX2                !
 ! A20   A(3,4,26)             109.0984         estimate D2E/DX2                !
 ! A21   A(3,4,27)             109.097          estimate D2E/DX2                !
 ! A22   A(5,4,26)             108.9951         estimate D2E/DX2                !
 ! A23   A(5,4,27)             108.9944         estimate D2E/DX2                !
 ! A24   A(26,4,27)            108.2353         estimate D2E/DX2                !
 ! A25   A(4,5,6)              112.0765         estimate D2E/DX2                !
 ! A26   A(4,5,28)             109.1252         estimate D2E/DX2                !
 ! A27   A(4,5,29)             109.1249         estimate D2E/DX2                !
 ! A28   A(6,5,28)             109.1439         estimate D2E/DX2                !
 ! A29   A(6,5,29)             109.1429         estimate D2E/DX2                !
 ! A30   A(28,5,29)            108.1464         estimate D2E/DX2                !
 ! A31   A(5,6,7)              112.2404         estimate D2E/DX2                !
 ! A32   A(5,6,30)             109.0557         estimate D2E/DX2                !
 ! A33   A(5,6,31)             109.0541         estimate D2E/DX2                !
 ! A34   A(7,6,30)             109.0824         estimate D2E/DX2                !
 ! A35   A(7,6,31)             109.0823         estimate D2E/DX2                !
 ! A36   A(30,6,31)            108.2442         estimate D2E/DX2                !
 ! A37   A(6,7,8)              112.628          estimate D2E/DX2                !
 ! A38   A(6,7,32)             108.9203         estimate D2E/DX2                !
 ! A39   A(6,7,33)             108.9298         estimate D2E/DX2                !
 ! A40   A(8,7,32)             109.0489         estimate D2E/DX2                !
 ! A41   A(8,7,33)             109.0488         estimate D2E/DX2                !
 ! A42   A(32,7,33)            108.1676         estimate D2E/DX2                !
 ! A43   A(7,8,9)              111.8823         estimate D2E/DX2                !
 ! A44   A(7,8,34)             109.1768         estimate D2E/DX2                !
 ! A45   A(7,8,35)             109.1586         estimate D2E/DX2                !
 ! A46   A(9,8,34)             109.17           estimate D2E/DX2                !
 ! A47   A(9,8,35)             109.1758         estimate D2E/DX2                !
 ! A48   A(34,8,35)            108.2045         estimate D2E/DX2                !
 ! A49   A(8,9,10)             113.0687         estimate D2E/DX2                !
 ! A50   A(8,9,36)             108.8807         estimate D2E/DX2                !
 ! A51   A(8,9,37)             108.8589         estimate D2E/DX2                !
 ! A52   A(10,9,36)            108.8211         estimate D2E/DX2                !
 ! A53   A(10,9,37)            108.8428         estimate D2E/DX2                !
 ! A54   A(36,9,37)            108.262          estimate D2E/DX2                !
 ! A55   A(9,10,11)            112.2228         estimate D2E/DX2                !
 ! A56   A(9,10,38)            109.1448         estimate D2E/DX2                !
 ! A57   A(9,10,39)            109.1164         estimate D2E/DX2                !
 ! A58   A(11,10,38)           109.0753         estimate D2E/DX2                !
 ! A59   A(11,10,39)           109.0948         estimate D2E/DX2                !
 ! A60   A(38,10,39)           108.0991         estimate D2E/DX2                !
 ! A61   A(10,11,12)           111.5242         estimate D2E/DX2                !
 ! A62   A(10,11,40)           109.1583         estimate D2E/DX2                !
 ! A63   A(10,11,41)           109.1846         estimate D2E/DX2                !
 ! A64   A(12,11,40)           109.3611         estimate D2E/DX2                !
 ! A65   A(12,11,41)           109.4017         estimate D2E/DX2                !
 ! A66   A(40,11,41)           108.1455         estimate D2E/DX2                !
 ! A67   A(11,12,13)           113.8637         estimate D2E/DX2                !
 ! A68   A(11,12,42)           108.5694         estimate D2E/DX2                !
 ! A69   A(11,12,43)           108.6018         estimate D2E/DX2                !
 ! A70   A(13,12,42)           108.6101         estimate D2E/DX2                !
 ! A71   A(13,12,43)           108.8288         estimate D2E/DX2                !
 ! A72   A(42,12,43)           108.2303         estimate D2E/DX2                !
 ! A73   A(12,13,14)           111.9917         estimate D2E/DX2                !
 ! A74   A(12,13,44)           109.1316         estimate D2E/DX2                !
 ! A75   A(12,13,45)           109.076          estimate D2E/DX2                !
 ! A76   A(14,13,44)           109.2766         estimate D2E/DX2                !
 ! A77   A(14,13,45)           109.0365         estimate D2E/DX2                !
 ! A78   A(44,13,45)           108.2542         estimate D2E/DX2                !
 ! A79   A(13,14,15)           112.7787         estimate D2E/DX2                !
 ! A80   A(13,14,46)           108.6389         estimate D2E/DX2                !
 ! A81   A(13,14,47)           109.3752         estimate D2E/DX2                !
 ! A82   A(15,14,46)           109.1702         estimate D2E/DX2                !
 ! A83   A(15,14,47)           108.7702         estimate D2E/DX2                !
 ! A84   A(46,14,47)           107.9971         estimate D2E/DX2                !
 ! A85   A(14,15,16)           111.6719         estimate D2E/DX2                !
 ! A86   A(14,15,48)           109.3147         estimate D2E/DX2                !
 ! A87   A(14,15,49)           109.7376         estimate D2E/DX2                !
 ! A88   A(16,15,48)           109.998          estimate D2E/DX2                !
 ! A89   A(16,15,49)           108.1978         estimate D2E/DX2                !
 ! A90   A(48,15,49)           107.8374         estimate D2E/DX2                !
 ! A91   A(15,16,17)           121.5065         estimate D2E/DX2                !
 ! A92   A(15,16,18)           119.966          estimate D2E/DX2                !
 ! A93   A(17,16,18)           118.5274         estimate D2E/DX2                !
 ! A94   A(16,18,50)           120.124          estimate D2E/DX2                !
 ! D1    D(19,1,2,3)            60.2573         estimate D2E/DX2                !
 ! D2    D(19,1,2,22)          -61.0176         estimate D2E/DX2                !
 ! D3    D(19,1,2,23)         -178.4681         estimate D2E/DX2                !
 ! D4    D(20,1,2,3)           -60.2569         estimate D2E/DX2                !
 ! D5    D(20,1,2,22)          178.4682         estimate D2E/DX2                !
 ! D6    D(20,1,2,23)           61.0177         estimate D2E/DX2                !
 ! D7    D(21,1,2,3)          -179.9995         estimate D2E/DX2                !
 ! D8    D(21,1,2,22)           58.7256         estimate D2E/DX2                !
 ! D9    D(21,1,2,23)          -58.7249         estimate D2E/DX2                !
 ! D10   D(1,2,3,4)            179.9996         estimate D2E/DX2                !
 ! D11   D(1,2,3,24)           -58.9752         estimate D2E/DX2                !
 ! D12   D(1,2,3,25)            58.9745         estimate D2E/DX2                !
 ! D13   D(22,2,3,4)           -59.1598         estimate D2E/DX2                !
 ! D14   D(22,2,3,24)           61.8653         estimate D2E/DX2                !
 ! D15   D(22,2,3,25)          179.8151         estimate D2E/DX2                !
 ! D16   D(23,2,3,4)            59.1592         estimate D2E/DX2                !
 ! D17   D(23,2,3,24)         -179.8156         estimate D2E/DX2                !
 ! D18   D(23,2,3,25)          -61.8659         estimate D2E/DX2                !
 ! D19   D(2,3,4,5)            179.9988         estimate D2E/DX2                !
 ! D20   D(2,3,4,26)           -59.0275         estimate D2E/DX2                !
 ! D21   D(2,3,4,27)            59.027          estimate D2E/DX2                !
 ! D22   D(24,3,4,5)            58.919          estimate D2E/DX2                !
 ! D23   D(24,3,4,26)          179.8927         estimate D2E/DX2                !
 ! D24   D(24,3,4,27)          -62.0528         estimate D2E/DX2                !
 ! D25   D(25,3,4,5)           -58.921          estimate D2E/DX2                !
 ! D26   D(25,3,4,26)           62.0527         estimate D2E/DX2                !
 ! D27   D(25,3,4,27)         -179.8928         estimate D2E/DX2                !
 ! D28   D(3,4,5,6)           -179.9955         estimate D2E/DX2                !
 ! D29   D(3,4,5,28)            58.9932         estimate D2E/DX2                !
 ! D30   D(3,4,5,29)           -58.9857         estimate D2E/DX2                !
 ! D31   D(26,4,5,6)            58.9715         estimate D2E/DX2                !
 ! D32   D(26,4,5,28)          -62.0398         estimate D2E/DX2                !
 ! D33   D(26,4,5,29)          179.9813         estimate D2E/DX2                !
 ! D34   D(27,4,5,6)           -58.9647         estimate D2E/DX2                !
 ! D35   D(27,4,5,28)         -179.976          estimate D2E/DX2                !
 ! D36   D(27,4,5,29)           62.045          estimate D2E/DX2                !
 ! D37   D(4,5,6,7)            179.991          estimate D2E/DX2                !
 ! D38   D(4,5,6,30)            58.9984         estimate D2E/DX2                !
 ! D39   D(4,5,6,31)           -59.0176         estimate D2E/DX2                !
 ! D40   D(28,5,6,7)           -59.0084         estimate D2E/DX2                !
 ! D41   D(28,5,6,30)          179.9989         estimate D2E/DX2                !
 ! D42   D(28,5,6,31)           61.9829         estimate D2E/DX2                !
 ! D43   D(29,5,6,7)            58.9917         estimate D2E/DX2                !
 ! D44   D(29,5,6,30)          -62.001          estimate D2E/DX2                !
 ! D45   D(29,5,6,31)          179.983          estimate D2E/DX2                !
 ! D46   D(5,6,7,8)           -179.9907         estimate D2E/DX2                !
 ! D47   D(5,6,7,32)            58.9003         estimate D2E/DX2                !
 ! D48   D(5,6,7,33)           -58.8752         estimate D2E/DX2                !
 ! D49   D(30,6,7,8)           -59.0134         estimate D2E/DX2                !
 ! D50   D(30,6,7,32)          179.8776         estimate D2E/DX2                !
 ! D51   D(30,6,7,33)           62.1021         estimate D2E/DX2                !
 ! D52   D(31,6,7,8)            59.0342         estimate D2E/DX2                !
 ! D53   D(31,6,7,32)          -62.0748         estimate D2E/DX2                !
 ! D54   D(31,6,7,33)         -179.8504         estimate D2E/DX2                !
 ! D55   D(6,7,8,9)           -179.992          estimate D2E/DX2                !
 ! D56   D(6,7,8,34)            59.0546         estimate D2E/DX2                !
 ! D57   D(6,7,8,35)           -59.0437         estimate D2E/DX2                !
 ! D58   D(32,7,8,9)           -58.9564         estimate D2E/DX2                !
 ! D59   D(32,7,8,34)         -179.9098         estimate D2E/DX2                !
 ! D60   D(32,7,8,35)           61.9919         estimate D2E/DX2                !
 ! D61   D(33,7,8,9)            58.9604         estimate D2E/DX2                !
 ! D62   D(33,7,8,34)          -61.9929         estimate D2E/DX2                !
 ! D63   D(33,7,8,35)          179.9087         estimate D2E/DX2                !
 ! D64   D(7,8,9,10)           179.941          estimate D2E/DX2                !
 ! D65   D(7,8,9,36)           -58.9781         estimate D2E/DX2                !
 ! D66   D(7,8,9,37)            58.8479         estimate D2E/DX2                !
 ! D67   D(34,8,9,10)          -59.1016         estimate D2E/DX2                !
 ! D68   D(34,8,9,36)           61.9793         estimate D2E/DX2                !
 ! D69   D(34,8,9,37)          179.8053         estimate D2E/DX2                !
 ! D70   D(35,8,9,10)           59.0027         estimate D2E/DX2                !
 ! D71   D(35,8,9,36)         -179.9164         estimate D2E/DX2                !
 ! D72   D(35,8,9,37)          -62.0904         estimate D2E/DX2                !
 ! D73   D(8,9,10,11)         -179.8497         estimate D2E/DX2                !
 ! D74   D(8,9,10,38)           59.1171         estimate D2E/DX2                !
 ! D75   D(8,9,10,39)          -58.8113         estimate D2E/DX2                !
 ! D76   D(36,9,10,11)          59.0357         estimate D2E/DX2                !
 ! D77   D(36,9,10,38)         -61.9976         estimate D2E/DX2                !
 ! D78   D(36,9,10,39)        -179.9259         estimate D2E/DX2                !
 ! D79   D(37,9,10,11)         -58.7475         estimate D2E/DX2                !
 ! D80   D(37,9,10,38)        -179.7807         estimate D2E/DX2                !
 ! D81   D(37,9,10,39)          62.2909         estimate D2E/DX2                !
 ! D82   D(9,10,11,12)         179.7482         estimate D2E/DX2                !
 ! D83   D(9,10,11,40)          58.7982         estimate D2E/DX2                !
 ! D84   D(9,10,11,41)         -59.2334         estimate D2E/DX2                !
 ! D85   D(38,10,11,12)        -59.1785         estimate D2E/DX2                !
 ! D86   D(38,10,11,40)        179.8714         estimate D2E/DX2                !
 ! D87   D(38,10,11,41)         61.8399         estimate D2E/DX2                !
 ! D88   D(39,10,11,12)         58.6974         estimate D2E/DX2                !
 ! D89   D(39,10,11,40)        -62.2526         estimate D2E/DX2                !
 ! D90   D(39,10,11,41)        179.7159         estimate D2E/DX2                !
 ! D91   D(10,11,12,13)       -179.5606         estimate D2E/DX2                !
 ! D92   D(10,11,12,42)        -58.4469         estimate D2E/DX2                !
 ! D93   D(10,11,12,43)         59.0227         estimate D2E/DX2                !
 ! D94   D(40,11,12,13)        -58.7291         estimate D2E/DX2                !
 ! D95   D(40,11,12,42)         62.3846         estimate D2E/DX2                !
 ! D96   D(40,11,12,43)        179.8543         estimate D2E/DX2                !
 ! D97   D(41,11,12,13)         59.5476         estimate D2E/DX2                !
 ! D98   D(41,11,12,42)       -179.3387         estimate D2E/DX2                !
 ! D99   D(41,11,12,43)        -61.869          estimate D2E/DX2                !
 ! D100  D(11,12,13,14)       -179.1569         estimate D2E/DX2                !
 ! D101  D(11,12,13,44)         59.7156         estimate D2E/DX2                !
 ! D102  D(11,12,13,45)        -58.3688         estimate D2E/DX2                !
 ! D103  D(42,12,13,14)         59.7522         estimate D2E/DX2                !
 ! D104  D(42,12,13,44)        -61.3754         estimate D2E/DX2                !
 ! D105  D(42,12,13,45)       -179.4598         estimate D2E/DX2                !
 ! D106  D(43,12,13,14)        -57.8664         estimate D2E/DX2                !
 ! D107  D(43,12,13,44)       -178.994          estimate D2E/DX2                !
 ! D108  D(43,12,13,45)         62.9217         estimate D2E/DX2                !
 ! D109  D(12,13,14,15)       -179.3164         estimate D2E/DX2                !
 ! D110  D(12,13,14,46)         59.5187         estimate D2E/DX2                !
 ! D111  D(12,13,14,47)        -58.1438         estimate D2E/DX2                !
 ! D112  D(44,13,14,15)        -58.2726         estimate D2E/DX2                !
 ! D113  D(44,13,14,46)       -179.4376         estimate D2E/DX2                !
 ! D114  D(44,13,14,47)         62.9            estimate D2E/DX2                !
 ! D115  D(45,13,14,15)         59.8727         estimate D2E/DX2                !
 ! D116  D(45,13,14,46)        -61.2923         estimate D2E/DX2                !
 ! D117  D(45,13,14,47)       -178.9547         estimate D2E/DX2                !
 ! D118  D(13,14,15,16)       -174.6921         estimate D2E/DX2                !
 ! D119  D(13,14,15,48)         63.3549         estimate D2E/DX2                !
 ! D120  D(13,14,15,49)        -54.7181         estimate D2E/DX2                !
 ! D121  D(46,14,15,16)        -53.8298         estimate D2E/DX2                !
 ! D122  D(46,14,15,48)       -175.7828         estimate D2E/DX2                !
 ! D123  D(46,14,15,49)         66.1441         estimate D2E/DX2                !
 ! D124  D(47,14,15,16)         63.7919         estimate D2E/DX2                !
 ! D125  D(47,14,15,48)        -58.1611         estimate D2E/DX2                !
 ! D126  D(47,14,15,49)       -176.2342         estimate D2E/DX2                !
 ! D127  D(14,15,16,17)       -114.2074         estimate D2E/DX2                !
 ! D128  D(14,15,16,18)         65.9161         estimate D2E/DX2                !
 ! D129  D(48,15,16,17)          7.3512         estimate D2E/DX2                !
 ! D130  D(48,15,16,18)       -172.5252         estimate D2E/DX2                !
 ! D131  D(49,15,16,17)        124.9174         estimate D2E/DX2                !
 ! D132  D(49,15,16,18)        -54.959          estimate D2E/DX2                !
 ! D133  D(15,16,18,50)       -179.7326         estimate D2E/DX2                !
 ! D134  D(17,16,18,50)          0.3874         estimate D2E/DX2                !
 --------------------------------------------------------------------------------
 Trust Radius=3.00D-01 FncErr=1.00D-07 GrdErr=1.00D-06 EigMax=2.50D+02 EigMin=1.00D-04
 Number of steps in this run=    287 maximum allowed number of steps=    300.
 GradGradGradGradGradGradGradGradGradGradGradGradGradGradGradGradGradGrad

 Leave Link  103 at Mon Feb 22 21:11:00 2021, MaxMem=   104857600 cpu:               0.4 elap:               0.0
 (Enter /sw/arch/RedHatEnterpriseServer7/EB_production/2019/software/Gaussian/g16.c01/l202.exe)
                          Input orientation:                          
 ---------------------------------------------------------------------
 Center     Atomic      Atomic             Coordinates (Angstroms)
 Number     Number       Type             X           Y           Z
 ---------------------------------------------------------------------
      1          6           0       -1.156240   -5.310380    9.552460
      2          6           0       -2.273200   -4.389320    9.015090
      3          6           0       -1.710530   -3.114530    8.334100
      4          6           0       -2.827700   -2.186010    7.792630
      5          6           0       -2.258710   -0.913830    7.113290
      6          6           0       -3.380440    0.010000    6.574380
      7          6           0       -2.815870    1.283010    5.894710
      8          6           0       -3.930700    2.213970    5.352370
      9          6           0       -3.346660    3.482170    4.675680
     10          6           0       -4.437130    4.431200    4.122500
     11          6           0       -3.830810    5.692310    3.446070
     12          6           0       -4.935830    6.627600    2.892800
     13          6           0       -4.388850    7.901510    2.194890
     14          6           0       -5.530880    8.816070    1.676490
     15          6           0       -5.003970   10.087610    0.960160
     16          6           0       -6.103480   10.999230    0.589170
     17          8           0       -6.384300   11.232060   -0.608040
     18          8           0       -6.832610   11.607050    1.554230
     19          1           0       -0.554430   -4.783640   10.295490
     20          1           0       -0.508040   -5.636690    8.736940
     21          1           0       -1.597270   -6.190840   10.021230
     22          1           0       -2.920750   -4.101430    9.847860
     23          1           0       -2.874540   -4.951280    8.295150
     24          1           0       -1.107750   -2.559430    9.058790
     25          1           0       -1.061480   -3.410080    7.504610
     26          1           0       -3.431030   -2.738020    7.066120
     27          1           0       -3.477290   -1.887290    8.620480
     28          1           0       -1.608800   -1.210230    6.284410
     29          1           0       -1.654980   -0.359760    7.838400
     30          1           0       -4.029200    0.305380    7.404040
     31          1           0       -3.982810   -0.545160    5.849520
     32          1           0       -2.165860    0.984580    5.066950
     33          1           0       -2.211810    1.834830    6.620900
     34          1           0       -4.581150    2.515030    6.178900
     35          1           0       -4.535000    1.664300    4.624620
     36          1           0       -2.742440    4.027040    5.406750
     37          1           0       -2.694730    3.175370    3.852690
     38          1           0       -5.089960    4.744350    4.942690
     39          1           0       -5.045430    3.890450    3.391420
     40          1           0       -3.175860    5.380600    2.627030
     41          1           0       -3.226280    6.236930    4.177310
     42          1           0       -5.538600    6.066710    2.172840
     43          1           0       -5.584210    6.929300    3.720430
     44          1           0       -3.754410    7.605720    1.355660
     45          1           0       -3.776420    8.463710    2.905940
     46          1           0       -6.153160    9.113930    2.525760
     47          1           0       -6.158210    8.253260    0.978660
     48          1           0       -4.442940    9.793620    0.065810
     49          1           0       -4.320640   10.628010    1.621800
     50          1           0       -7.565220   12.209340    1.310690
 ---------------------------------------------------------------------
                    Distance matrix (angstroms):
                    1          2          3          4          5
     1  C    0.000000
     2  C    1.544253   0.000000
     3  C    2.571652   1.550946   0.000000
     4  C    3.956320   2.580010   1.550293   0.000000
     5  C    5.147295   3.961828   2.575647   1.550385   0.000000
     6  C    6.490183   5.151414   3.955743   2.571403   1.549892
     7  C    7.720512   6.496660   5.148860   3.954281   2.573222
     8  C    9.052857   7.730864   6.497136   5.150854   3.959738
     9  C   10.290280   9.052246   7.718640   6.489450   5.142995
    10  C   11.625278  10.316085   9.061455   7.736122   6.500745
    11  C   12.864700  11.622366  10.293146   9.053548   7.717583
    12  C   14.182797  12.881947  11.615481  10.302052   9.047247
    13  C   15.464076  14.214626  12.892495  11.641733  10.316898
    14  C   16.754849  15.454768  14.186545  12.874786  11.616232
    15  C   18.048012  16.790489  15.476377  14.214800  12.900742
    16  C   19.256665  17.957579  16.687725  15.377618  14.116210
    17  O   20.105240  18.802481  17.539402  16.225451  14.972043
    18  O   19.554854  18.230099  16.997860  15.659037  14.442858
    19  H    1.091661   2.179239   2.823038   4.263771   5.292107
    20  H    1.091657   2.179241   2.823040   4.263770   5.292116
    21  H    1.090625   2.171330   3.510401   4.745448   6.061390
    22  H    2.159240   1.093484   2.174873   2.810954   4.251701
    23  H    2.159244   1.093491   2.174876   2.810950   4.251710
    24  H    2.795315   2.169949   1.093917   2.168140   2.796011
    25  H    2.795319   2.169960   1.093924   2.168141   2.796025
    26  H    4.239527   2.804612   2.170174   1.093864   2.168923
    27  H    4.239505   2.804586   2.170155   1.093863   2.168913
    28  H    5.262717   4.243189   2.799632   2.170850   1.094202
    29  H    5.262640   4.243130   2.799565   2.170842   1.094197
    30  H    6.663810   5.264905   4.235213   2.793140   2.169250
    31  H    6.663977   5.265089   4.235334   2.793268   2.169229
    32  H    7.795233   6.669193   5.261587   4.233203   2.792864
    33  H    7.795018   6.669030   5.261416   4.233134   2.792809
    34  H    9.184114   7.812852   6.676623   5.270530   4.245456
    35  H    9.183996   7.812700   6.676458   5.270299   4.245201
    36  H   10.338779   9.169265   7.786927   6.655951   5.249616
    37  H   10.337421   9.168020   7.785533   6.654713   5.248160
    38  H   11.739750  10.389538   9.202402   7.827507   6.688982
    39  H   11.736247  10.385832   9.198988   7.823832   6.685748
    40  H   12.897190  11.707837  10.338524   9.168327   7.783800
    41  H   12.904173  11.714507  10.345347   9.174711   7.790349
    42  H   14.251388  12.915409  11.700872  10.345937   9.159348
    43  H   14.262863  12.927002  11.711954  10.357125   9.169795
    44  H   15.516561  14.308803  12.953757  11.754631  10.390869
    45  H   15.516673  14.310198  12.953319  11.755694  10.389586
    46  H   16.804893  15.475893  14.248123  12.902994  11.694791
    47  H   16.807798  15.476186  14.251702  12.903521  11.699373
    48  H   18.136420  16.910150  15.570839  14.346577  13.003358
    49  H   18.081512  16.863361  15.515317  14.300599  12.946895
    50  H   20.394666  19.049377  17.844514  16.482892  15.298588
                    6          7          8          9         10
     6  C    0.000000
     7  C    1.549595   0.000000
     8  C    2.579453   1.550376   0.000000
     9  C    3.957546   2.569840   1.551562   0.000000
    10  C    5.164815   3.959837   2.585568   1.547834   0.000000
    11  C    6.502138   5.144693   3.967721   2.575085   1.554214
    12  C    7.730841   6.486165   5.151689   3.949412   2.566133
    13  C    9.081451   7.743867   6.521326   5.174074   3.970020
    14  C   10.303426   9.050506   7.724014   6.497418   5.138710
    15  C   11.649615  10.327562   9.079517   7.757809   6.505127
    16  C   12.806282  11.548249  10.226917   8.989205   7.642000
    17  O   13.658146  12.409796  11.084791   9.859298   8.510063
    18  O   13.100036  11.897889  10.539303   9.375978   7.989190
    19  H    6.694175   7.828488   9.208701  10.377978  11.751359
    20  H    6.694211   7.828576   9.208842  10.378112  11.751307
    21  H    7.315114   8.623896   9.893633  11.189388  12.477482
    22  H    5.275495   6.680613   7.817526   9.189333  10.386767
    23  H    5.275536   6.680713   7.817687   9.189480  10.386704
    24  H    4.235491   5.262454   6.670228   7.792644   9.182627
    25  H    4.235546   5.262581   6.670420   7.792817   9.182557
    26  H    2.792128   4.233120   5.263916   6.664239   7.815040
    27  H    2.792063   4.232978   5.263692   6.664054   7.815141
    28  H    2.170657   2.797343   4.240880   5.256119   6.670760
    29  H    2.170641   2.797193   4.240676   5.255949   6.670950
    30  H    1.093835   2.169333   2.803884   4.242853   5.287467
    31  H    1.093835   2.169331   2.804046   4.242873   5.287075
    32  H    2.167338   1.093965   2.169683   2.790222   4.234364
    33  H    2.167456   1.093959   2.169677   2.790250   4.234996
    34  H    2.805937   2.171371   1.094017   2.172325   2.814468
    35  H    2.805580   2.171156   1.094046   2.172420   2.813794
    36  H    4.231668   2.788045   2.168442   1.093814   2.164398
    37  H    4.230527   2.786673   2.168168   1.093824   2.164686
    38  H    5.291403   4.249553   2.813280   2.168753   1.094057
    39  H    5.287846   4.246898   2.810433   2.168372   1.094037
    40  H    6.668341   5.253339   4.245563   2.798245   2.174533
    41  H    6.674157   5.259204   4.249845   2.802065   2.174816
    42  H    7.791980   6.644499   5.247700   4.212915   2.772959
    43  H    7.802458   6.653705   5.256583   4.219222   2.778121
    44  H    9.223332   7.839674   6.713847   5.309657   4.266039
    45  H    9.223853   7.836954   6.713276   5.304000   4.263531
    46  H   10.342187   9.154815   7.780649   6.649460   5.236630
    47  H   10.343086   9.160959   7.782298   6.658534   5.239655
    48  H   11.798712  10.442888   9.255334   7.892220   6.724010
    49  H   11.753900  10.385139   9.212235   7.831848   6.683377
    50  H   13.929921  12.765354  11.377712  10.260746   8.842550
                   11         12         13         14         15
    11  C    0.000000
    12  C    1.549821   0.000000
    13  C    2.599505   1.552131   0.000000
    14  C    3.972345   2.573499   1.552221   0.000000
    15  C    5.184083   3.963762   2.584950   1.551637   0.000000
    16  C    6.441297   5.077526   3.887694   2.505259   1.475672
    17  O    7.324271   5.962801   4.788612   3.432843   2.382085
    18  O    6.897392   5.494039   4.484800   3.082048   2.450621
    19  H   12.938112  14.290307  15.531759  16.852428  18.113555
    20  H   12.937556  14.288880  15.528746  16.851147  18.109260
    21  H   13.763382  15.042370  16.359671  17.615769  18.939285
    22  H   11.735777  12.943936  14.310620  15.506317  16.871866
    23  H   11.735162  12.942363  14.307359  15.504926  16.867269
    24  H   10.344510  11.707910  12.934837  14.264096  15.515024
    25  H   10.343812  11.706169  12.931225  14.262583  15.510019
    26  H    9.183412  10.363197  11.740779  12.921087  14.291734
    27  H    9.184216  10.365183  11.744776  12.922776  14.297184
    28  H    7.787077   9.165355  10.367095  11.710778  12.942797
    29  H    7.788090   9.167668  10.371684  11.712711  12.948879
    30  H    6.687593   7.819446   9.217689  10.367821  11.754394
    31  H    6.686233   7.816580   9.212352  10.365487  11.747528
    32  H    5.249955   6.651566   7.812447   9.173375  10.381992
    33  H    5.251748   6.655048   7.818803   9.176117  10.389827
    34  H    4.257520   5.276124   6.702498   7.802358   9.206410
    35  H    4.255553   5.272022   6.695352   7.799427   9.197845
    36  H    2.793195   4.230108   5.295114   6.680198   7.849662
    37  H    2.791237   4.226323   5.287224   6.678105   7.840815
    38  H    2.173467   2.787909   4.243774   5.238452   6.664711
    39  H    2.173704   2.784353   4.236907   5.238166   6.657142
    40  H    1.094052   2.173278   2.830738   4.272248   5.317554
    41  H    1.093974   2.173741   2.837672   4.268166   5.323342
    42  H    2.162831   1.093742   2.165387   2.793815   4.233681
    43  H    2.163291   1.093797   2.168260   2.782164   4.234465
    44  H    2.834923   2.171468   1.092846   2.173413   2.806706
    45  H    2.824067   2.171567   1.093952   2.171137   2.816024
    46  H    4.236480   2.792570   2.166155   1.094172   2.172509
    47  H    4.250102   2.793012   2.175679   1.094196   2.167361
    48  H    5.349916   4.272996   2.848857   2.175663   1.095923
    49  H    5.284792   4.242308   2.786914   2.179633   1.093956
    50  H    7.808799   6.369661   5.424807   3.973239   3.344340
                   16         17         18         19         20
    16  C    0.000000
    17  O    1.251552   0.000000
    18  O    1.353668   2.239869   0.000000
    19  H   19.341758  20.233067  19.608159   0.000000
    20  H   19.350683  20.159708  19.721513   1.777336   0.000000
    21  H   20.118852  20.963170  20.392738   1.772835   1.772824
    22  H   17.996751  18.879564  18.189098   2.503049   3.067953
    23  H   18.006303  18.801215  18.310779   3.067959   2.503056
    24  H   16.749001  17.649215  17.022973   2.604362   3.151630
    25  H   16.759275  17.565300  17.153051   3.151631   2.604367
    26  H   15.420924  16.210419  15.739527   4.784163   4.442724
    27  H   15.409777  16.301338  15.597669   4.442703   4.784141
    28  H   14.202423  15.004061  14.626875   5.474461   5.178815
    29  H   14.190389  15.102288  14.474225   5.178727   5.474380
    30  H   12.849261  13.752536  13.031006   6.806808   7.034443
    31  H   12.862405  13.644418  13.200268   7.034568   6.806974
    32  H   11.655410  12.450365  12.122484   7.950264   7.749736
    33  H   11.641009  12.568818  11.938141   7.749430   7.950099
    34  H   10.273472  11.193771  10.446122   9.296847   9.464900
    35  H   10.290088  11.060862  10.656669   9.464652   9.296883
    36  H    9.116858  10.067430   9.435462  10.310929  10.462810
    37  H    9.136899   9.920751   9.669447  10.461185  10.309700
    38  H    7.687905   8.635757   7.849531  11.832417  11.964795
    39  H    7.714067   8.466847   8.131125  11.961400  11.829154
    40  H    6.655286   7.416155   7.300096  12.999575  12.877459
    41  H    6.620614   7.604209   6.980283  12.885025  13.006226
    42  H    5.211224   5.927001   5.722981  14.441243  14.330510
    43  H    5.161275   6.155448   5.303986  14.343049  14.451193
    44  H    4.197803   4.891092   5.052266  15.609506  15.504310
    45  H    4.148674   5.178113   4.587810  15.507384  15.604619
    46  H    2.703184   3.789539   2.760647  16.877705  16.971356
    47  H    2.773995   3.382600   3.469006  16.975466  16.883307
    48  H    2.117733   2.508398   3.348798  18.228093  18.131917
    49  H    2.093477   3.097702   2.696865  18.081377  18.157687
    50  H    2.030183   2.455845   0.979174  20.460674  20.577506
                   21         22         23         24         25
    21  H    0.000000
    22  H    2.479373   0.000000
    23  H    2.479371   1.770675   0.000000
    24  H    3.788543   2.507462   3.070120   0.000000
    25  H    3.788545   3.070125   2.507476   1.772349   0.000000
    26  H    4.900747   3.139642   2.592049   3.065984   2.501740
    27  H    4.900726   2.592029   3.139615   2.501721   3.065973
    28  H    6.226591   4.772675   4.431775   3.125472   2.574449
    29  H    6.226522   4.431726   4.772631   2.574366   3.125398
    30  H    7.413828   5.159544   5.455254   4.413638   4.756272
    31  H    7.414018   5.455433   5.159773   4.756329   4.413758
    32  H    8.738125   7.021001   6.793963   5.441911   5.145374
    33  H    8.737922   6.793751   7.020941   5.145073   5.441809
    34  H    9.972924   7.745692   7.945868   6.790318   7.018013
    35  H    9.972807   7.945545   7.745697   7.017678   6.790362
    36  H   11.269867   9.264301   9.432419   7.706568   7.908059
    37  H   11.268593   9.431064   9.263381   7.906321   7.705334
    38  H   12.552642  10.344757  10.495347   9.281459   9.449170
    39  H   12.548968  10.491426  10.340963   9.445918   9.278358
    40  H   13.822603  11.921173  11.788389  10.425387  10.273142
    41  H   13.829481  11.795345  11.927127  10.280708  10.431783
    42  H   15.079086  13.005773  12.883167  11.893655  11.759333
    43  H   15.090853  12.896372  13.016088  11.771694  11.902852
    44  H   16.434428  14.486884  14.373898  13.025870  12.899973
    45  H   16.435689  14.380722  14.485128  12.903061  13.019430
    46  H   17.640130  15.450157  15.552021  14.296992  14.407116
    47  H   17.640926  15.549348  15.449058  14.412145  14.303782
    48  H   19.044978  17.061008  16.958596  15.639534  15.527643
    49  H   18.995812  16.928797  17.009970  15.477082  15.565910
    50  H   21.214536  18.986721  19.112091  17.884310  18.017479
                   26         27         28         29         30
    26  H    0.000000
    27  H    1.772545   0.000000
    28  H    2.503145   3.067065   0.000000
    29  H    3.067065   2.503160   1.772094   0.000000
    30  H    3.119981   2.567515   3.067406   2.503597   0.000000
    31  H    2.567725   3.120109   2.503472   3.067378   1.772598
    32  H    4.410792   4.753426   2.570937   3.122368   3.065182
    33  H    4.753491   4.410662   3.122377   2.570718   2.501086
    34  H    5.450181   5.153663   4.766923   4.425023   2.586150
    35  H    5.153649   5.449719   4.424983   4.766520   3.134912
    36  H    6.999550   6.771068   5.429956   5.132203   4.415390
    37  H    6.770262   6.998196   5.130886   5.428085   4.757073
    38  H    7.952790   7.752773   7.026785   6.799718   5.185355
    39  H    7.748956   7.948862   6.796819   7.023893   5.475999
    40  H    9.256491   9.425207   7.698776   7.900835   7.021814
    41  H    9.430635   9.263245   7.906725   7.706418   6.799982
    42  H   10.291225  10.444481   9.235919   9.406412   7.926958
    43  H   10.454038  10.304458   9.414342   9.248077   7.737141
    44  H   11.819767  11.957075  10.325560  10.482480   9.484375
    45  H   11.954294  11.827453  10.473669  10.328760   9.319611
    46  H   12.980508  12.858178  11.889783  11.756214  10.290742
    47  H   12.857018  12.977500  11.764598  11.896185  10.439683
    48  H   14.389938  14.510635  12.953303  13.087284  12.001979
    49  H   14.459695  14.364035  13.009148  12.902827  11.835368
    50  H   16.542070  16.396926  15.501667  15.346798  13.832448
                   31         32         33         34         35
    31  H    0.000000
    32  H    2.500765   0.000000
    33  H    3.065260   1.771947   0.000000
    34  H    3.135485   3.067953   2.504358   0.000000
    35  H    2.585925   2.504097   3.067805   1.772472   0.000000
    36  H    4.758106   3.115200   2.561545   2.502647   3.067171
    37  H    4.414615   2.560018   3.113398   3.066901   2.503158
    38  H    5.479693   4.764627   4.423284   2.599417   3.145768
    39  H    5.181318   4.420792   4.762827   3.142830   2.595586
    40  H    6.793397   5.128187   5.427050   4.775156   4.432664
    41  H    7.026049   5.431678   5.136026   4.437857   4.777215
    42  H    7.723683   6.751244   6.982949   5.438718   5.138059
    43  H    7.935053   6.988414   6.763093   5.151309   5.444137
    44  H    9.310413   7.754783   7.962759   7.061322   6.826118
    45  H    9.479821   7.949922   7.758285   6.837152   7.054168
    46  H   10.442979   9.404389   9.235243   7.704682   7.907000
    47  H   10.289307   9.245901   9.413033   7.902968   7.703391
    48  H   11.855522  10.382470  10.549383   9.506148   9.320787
    49  H   11.951045  10.464601  10.332385   9.308892   9.455738
    50  H   14.003996  13.009912  12.825279  11.250946  11.461336
                   36         37         38         39         40
    36  H    0.000000
    37  H    1.772772   0.000000
    38  H    2.498146   3.063809   0.000000
    39  H    3.063327   2.499980   1.771318   0.000000
    40  H    3.121990   2.568417   3.070973   2.510006   0.000000
    41  H    2.574731   3.124272   2.507370   3.071302   1.771782
    42  H    4.736765   4.389686   3.101932   2.542491   2.501914
    43  H    4.398005   4.739048   2.551903   3.103730   3.064987
    44  H    5.499306   5.194813   4.778903   4.428801   2.627215
    45  H    5.196846   5.480231   4.439299   4.770826   3.153416
    46  H    6.768276   6.999141   5.105406   5.409360   4.776225
    47  H    7.009736   6.785330   5.400661   5.108209   4.456872
    48  H    8.041815   7.822911   7.049661   6.802212   5.257384
    49  H    7.771060   7.947471   6.799825   7.003684   5.464094
    50  H   10.343450  10.573365   8.662818   8.937713   8.223802
                   41         42         43         44         45
    41  H    0.000000
    42  H    3.064914   0.000000
    43  H    2.499590   1.772336   0.000000
    44  H    3.180286   2.493926   3.065591   0.000000
    45  H    2.622515   3.064037   2.507172   1.772004   0.000000
    46  H    4.423954   3.128544   2.554124   3.065589   2.493234
    47  H    4.784680   2.567291   3.098330   2.517874   3.071094
    48  H    5.570883   4.419265   4.781535   2.631481   3.206127
    49  H    5.197099   4.753160   4.436363   3.086371   2.574759
    50  H    7.919191   6.525519   6.132705   5.976421   5.561436
                   46         47         48         49         50
    46  H    0.000000
    47  H    1.770395   0.000000
    48  H    3.072163   2.479547   0.000000
    49  H    2.543170   3.070787   1.769822   0.000000
    50  H    3.612737   4.211946   4.139331   3.622802   0.000000
 Stoichiometry    C16H32O2
 Framework group  C1[X(C16H32O2)]
 Deg. of freedom   144
 Full point group                 C1      NOp   1
 Largest Abelian subgroup         C1      NOp   1
 Largest concise Abelian subgroup C1      NOp   1
                         Standard orientation:                         
 ---------------------------------------------------------------------
 Center     Atomic      Atomic             Coordinates (Angstroms)
 Number     Number       Type             X           Y           Z
 ---------------------------------------------------------------------
      1          6           0       10.650562   -0.206667   -0.118921
      2          6           0        9.349075    0.566832    0.185295
      3          6           0        8.079660   -0.268508   -0.124911
      4          6           0        6.769856    0.503265    0.178713
      5          6           0        5.504941   -0.337106   -0.133475
      6          6           0        4.199239    0.440042    0.172052
      7          6           0        2.932409   -0.396444   -0.138880
      8          6           0        1.620678    0.372747    0.163400
      9          6           0        0.363977   -0.480197   -0.153667
     10          6           0       -0.962395    0.261673    0.139855
     11          6           0       -2.207624   -0.611305   -0.180918
     12          6           0       -3.525800    0.144368    0.124554
     13          6           0       -4.806092   -0.683338   -0.166767
     14          6           0       -6.099175    0.120950    0.133978
     15          6           0       -7.390818   -0.695654   -0.135080
     16          6           0       -8.602549    0.128761    0.037124
     17          8           0       -9.425908   -0.101602    0.951122
     18          8           0       -8.844388    1.159706   -0.806133
     19          1           0       10.691583   -0.480329   -1.174928
     20          1           0       10.702966   -1.114225    0.485485
     21          1           0       11.514084    0.417646    0.113513
     22          1           0        9.337600    1.482132   -0.412871
     23          1           0        9.348935    0.850617    1.241320
     24          1           0        8.088201   -0.551455   -1.181567
     25          1           0        8.099548   -1.183583    0.474182
     26          1           0        6.757703    0.785871    1.235371
     27          1           0        6.746374    1.418059   -0.420566
     28          1           0        5.526042   -1.252692    0.465303
     29          1           0        5.514782   -0.620716   -1.190232
     30          1           0        4.179644    1.354925   -0.427180
     31          1           0        4.190767    0.722548    1.228742
     32          1           0        2.955785   -1.311598    0.460041
     33          1           0        2.944749   -0.679840   -1.195422
     34          1           0        1.594383    1.287713   -0.435782
     35          1           0        1.605722    0.655658    1.220127
     36          1           0        0.384551   -0.761528   -1.210483
     37          1           0        0.397166   -1.394889    0.445240
     38          1           0       -1.002514    1.175831   -0.459868
     39          1           0       -0.987457    0.546582    1.195845
     40          1           0       -2.167690   -1.526999    0.416459
     41          1           0       -2.186683   -0.892843   -1.237837
     42          1           0       -3.527201    0.429414    1.180498
     43          1           0       -3.551634    1.057855   -0.476499
     44          1           0       -4.794022   -1.588919    0.444861
     45          1           0       -4.807657   -0.980843   -1.219487
     46          1           0       -6.105429    1.019334   -0.490585
     47          1           0       -6.094479    0.437410    1.181402
     48          1           0       -7.423474   -1.556121    0.542842
     49          1           0       -7.379939   -1.077033   -1.160346
     50          1           0       -9.645700    1.710671   -0.691598
 ---------------------------------------------------------------------
 Rotational constants (GHZ):           3.3802969           0.0463478           0.0461757
 Leave Link  202 at Mon Feb 22 21:11:00 2021, MaxMem=   104857600 cpu:               0.5 elap:               0.0
 (Enter /sw/arch/RedHatEnterpriseServer7/EB_production/2019/software/Gaussian/g16.c01/l301.exe)
 Standard basis: TZVP (5D, 7F)
 Ernie: Thresh=  0.10000D-02 Tol=  0.10000D-05 Strict=F.
 There are   552 symmetry adapted cartesian basis functions of A   symmetry.
 There are   534 symmetry adapted basis functions of A   symmetry.
   534 basis functions,   886 primitive gaussians,   552 cartesian basis functions
    72 alpha electrons       72 beta electrons
       nuclear repulsion energy      1165.9017528259 Hartrees.
 IExCor=  404 DFT=T Ex=B Corr=P86 ExCW=0 ScaHFX=  0.000000
 ScaDFX=  1.000000  1.000000  1.000000  1.000000 ScalE2=  1.000000  1.000000
 IRadAn=      5 IRanWt=     -1 IRanGd=            0 ICorTp=0 IEmpDi=131
 NAtoms=   50 NActive=   50 NUniq=   50 SFac= 1.00D+00 NAtFMM=   60 NAOKFM=F Big=F
 Integral buffers will be    131072 words long.
 Raffenetti 2 integral format.
 Two-electron integral symmetry is turned on.
 R6Disp:  Grimme-D3 Dispersion energy=       -0.0477357122 Hartrees.
 Nuclear repulsion after empirical dispersion term =     1165.8540171137 Hartrees.
 ------------------------------------------------------------------------------
 Polarizable Continuum Model (PCM)
 =================================
 Model                : PCM.
 Atomic radii         : UFF (Universal Force Field).
 Polarization charges : Total charges.
 Charge compensation  : None.
 Solution method      : On-the-fly selection.
 Cavity type          : Scaled VdW (van der Waals Surface) (Alpha=1.100).
 Cavity algorithm     : GePol (No added spheres)
                        Default sphere list used, NSphG=   50.
                        Lebedev-Laikov grids with approx.  5.0 points / Ang**2.
                        Smoothing algorithm: York/Karplus (Gamma=1.0000).
                        Polarization charges: spherical gaussians, with
                                              point-specific exponents (IZeta= 3).
                        Self-potential: point-specific (ISelfS= 7).
                        Self-field    : sphere-specific E.n sum rule (ISelfD= 2).
 1st derivatives      : Analytical E(r).r(x)/FMM algorithm (CHGder, D1EAlg=3).
                        Cavity 1st derivative terms included.
 Solvent              : Water, Eps=  78.355300 Eps(inf)=   1.777849
 ------------------------------------------------------------------------------
 GePol: Number of generator spheres                  =      50
 GePol: Total number of spheres                      =      50
 GePol: Number of exposed spheres                    =      50 (100.00%)
 GePol: Number of points                             =    3444
 GePol: Average weight of points                     =       0.13
 GePol: Minimum weight of points                     =   0.79D-10
 GePol: Maximum weight of points                     =    0.20577
 GePol: Number of points with low weight             =     256
 GePol: Fraction of low-weight points (<1% of avg)   =       7.43%
 GePol: Cavity surface area                          =    450.567 Ang**2
 GePol: Cavity volume                                =    456.381 Ang**3
 Leave Link  301 at Mon Feb 22 21:11:00 2021, MaxMem=   104857600 cpu:               2.6 elap:               0.1
 (Enter /sw/arch/RedHatEnterpriseServer7/EB_production/2019/software/Gaussian/g16.c01/l302.exe)
 NPDir=0 NMtPBC=     1 NCelOv=     1 NCel=       1 NClECP=     1 NCelD=      1
         NCelK=      1 NCelE2=     1 NClLst=     1 CellRange=     0.0.
 One-electron integrals computed using PRISM.
 One-electron integral symmetry used in STVInt
 PrsmSu:  requested number of processors reduced to:  24 ShMem   1 Linda.
 NBasis=   534 RedAO= T EigKep=  4.67D-05  NBF=   534
 NBsUse=   534 1.00D-06 EigRej= -1.00D+00 NBFU=   534
 Precomputing XC quadrature grid using
 IXCGrd= 4 IRadAn=           5 IRanWt=          -1 IRanGd=           0 AccXCQ= 0.00D+00.
 Generated NRdTot=       0 NPtTot=           0 NUsed=           0 NTot=          32
 NSgBfM=   460   460   460   460   460 MxSgAt=    50 MxSgA2=    50.
 Leave Link  302 at Mon Feb 22 21:11:01 2021, MaxMem=   104857600 cpu:              17.9 elap:               0.6
 (Enter /sw/arch/RedHatEnterpriseServer7/EB_production/2019/software/Gaussian/g16.c01/l303.exe)
 DipDrv:  MaxL=1.
 Leave Link  303 at Mon Feb 22 21:11:01 2021, MaxMem=   104857600 cpu:               3.0 elap:               0.1
 (Enter /sw/arch/RedHatEnterpriseServer7/EB_production/2019/software/Gaussian/g16.c01/l401.exe)
 ExpMin= 9.52D-02 ExpMax= 2.70D+04 ExpMxC= 9.22D+02 IAcc=3 IRadAn=         5 AccDes= 0.00D+00
 Harris functional with IExCor=  404 and IRadAn=       5 diagonalized for initial guess.
 HarFok:  IExCor=  404 AccDes= 0.00D+00 IRadAn=         5 IDoV= 1 UseB2=F ITyADJ=14
 ICtDFT=  3500011 ScaDFX=  1.000000  1.000000  1.000000  1.000000
 FoFCou: FMM=F IPFlag=           0 FMFlag=      100000 FMFlg1=           0
         NFxFlg=           0 DoJE=T BraDBF=F KetDBF=T FulRan=T
         wScrn=  0.000000 ICntrl=       500 IOpCl=  0 I1Cent=   200000004 NGrid=           0
         NMat0=    1 NMatS0=      1 NMatT0=    0 NMatD0=    1 NMtDS0=    0 NMtDT0=    0
 Petite list used in FoFCou.
 Harris En= -780.279602535777    
 JPrj=0 DoOrth=F DoCkMO=F.
 Leave Link  401 at Mon Feb 22 21:11:02 2021, MaxMem=   104857600 cpu:              33.7 elap:               1.1
 (Enter /sw/arch/RedHatEnterpriseServer7/EB_production/2019/software/Gaussian/g16.c01/l502.exe)
 Integral symmetry usage will be decided dynamically.
 Closed shell SCF:
 Using DIIS extrapolation, IDIIS=  1040.
 NGot=   104857600 LenX=   104223526 LenY=   103918270
 Requested convergence on RMS density matrix=1.00D-08 within 128 cycles.
 Requested convergence on MAX density matrix=1.00D-06.
 Requested convergence on             energy=1.00D-06.
 No special actions if energy rises.
 Fock matrices will be formed incrementally for  20 cycles.

 Cycle   1  Pass 1  IDiag  1:
 FoFJK:  IHMeth= 1 ICntrl=     500 DoSepK=F KAlg= 0 I1Cent=           0 FoldK=F
 IRaf= 580000000 NMat=       1 IRICut=       1 DoRegI=T DoRafI=F ISym2E= 0 IDoP0=0 IntGTp=1.
 FoFCou: FMM=F IPFlag=           0 FMFlag=      100000 FMFlg1=           0
         NFxFlg=           0 DoJE=T BraDBF=F KetDBF=F FulRan=T
         wScrn=  0.000000 ICntrl=       500 IOpCl=  0 I1Cent=           0 NGrid=           0
         NMat0=    1 NMatS0=      1 NMatT0=    0 NMatD0=    1 NMtDS0=    0 NMtDT0=    0
 Symmetry not used in FoFCou.
 Inv3:  Mode=1 IEnd=    35583408.
 Iteration    1 A*A^-1 deviation from unit magnitude is 3.00D-15 for   3285.
 Iteration    1 A*A^-1 deviation from orthogonality  is 3.29D-15 for   3235   1841.
 Iteration    1 A^-1*A deviation from unit magnitude is 3.22D-15 for    480.
 Iteration    1 A^-1*A deviation from orthogonality  is 2.44D-15 for   3085    370.
 E= -779.102866412255    
 DIIS: error= 4.85D-02 at cycle   1 NSaved=   1.
 NSaved= 1 IEnMin= 1 EnMin= -779.102866412255     IErMin= 1 ErrMin= 4.85D-02
 ErrMax= 4.85D-02  0.00D+00 EMaxC= 1.00D-01 BMatC= 6.36D-01 BMatP= 6.36D-01
 IDIUse=3 WtCom= 5.15D-01 WtEn= 4.85D-01
 Coeff-Com:  0.100D+01
 Coeff-En:   0.100D+01
 Coeff:      0.100D+01
 Gap=     0.065 Goal=   None    Shift=    0.000
 GapD=    0.065 DampG=0.500 DampE=0.500 DampFc=0.2500 IDamp=-1.
 Damping current iteration by 2.50D-01
 RMSDP=4.81D-03 MaxDP=6.04D-01              OVMax= 2.83D-01

 Cycle   2  Pass 1  IDiag  1:
 RMSU=  1.20D-03    CP:  9.88D-01
 E= -779.342795089330     Delta-E=       -0.239928677075 Rises=F Damp=T
 DIIS: error= 1.98D-02 at cycle   2 NSaved=   2.
 NSaved= 2 IEnMin= 2 EnMin= -779.342795089330     IErMin= 2 ErrMin= 1.98D-02
 ErrMax= 1.98D-02  0.00D+00 EMaxC= 1.00D-01 BMatC= 1.01D-01 BMatP= 6.36D-01
 IDIUse=3 WtCom= 8.02D-01 WtEn= 1.98D-01
 Coeff-Com: -0.490D+00 0.149D+01
 Coeff-En:   0.000D+00 0.100D+01
 Coeff:     -0.393D+00 0.139D+01
 Gap=     0.156 Goal=   None    Shift=    0.000
 RMSDP=8.98D-04 MaxDP=6.60D-02 DE=-2.40D-01 OVMax= 2.25D-01

 Cycle   3  Pass 1  IDiag  1:
 RMSU=  8.84D-04    CP:  9.72D-01  1.08D+00
 E= -779.670908126074     Delta-E=       -0.328113036744 Rises=F Damp=F
 DIIS: error= 2.96D-02 at cycle   3 NSaved=   3.
 NSaved= 3 IEnMin= 3 EnMin= -779.670908126074     IErMin= 2 ErrMin= 1.98D-02
 ErrMax= 2.96D-02  0.00D+00 EMaxC= 1.00D-01 BMatC= 1.02D-01 BMatP= 1.01D-01
 IDIUse=3 WtCom= 7.04D-01 WtEn= 2.96D-01
 Coeff-Com: -0.319D+00 0.968D+00 0.351D+00
 Coeff-En:   0.000D+00 0.000D+00 0.100D+01
 Coeff:     -0.225D+00 0.682D+00 0.543D+00
 Gap=     0.199 Goal=   None    Shift=    0.000
 RMSDP=1.09D-03 MaxDP=1.12D-01 DE=-3.28D-01 OVMax= 2.36D-01

 Cycle   4  Pass 1  IDiag  1:
 RMSU=  6.99D-04    CP:  9.85D-01  1.30D+00  1.17D-01
 E= -779.669997397686     Delta-E=        0.000910728388 Rises=F Damp=F
 DIIS: error= 2.96D-02 at cycle   4 NSaved=   4.
 NSaved= 4 IEnMin= 3 EnMin= -779.670908126074     IErMin= 2 ErrMin= 1.98D-02
 ErrMax= 2.96D-02  0.00D+00 EMaxC= 1.00D-01 BMatC= 1.12D-01 BMatP= 1.01D-01
 IDIUse=2 WtCom= 0.00D+00 WtEn= 1.00D+00
 Coeff-En:   0.000D+00 0.000D+00 0.502D+00 0.498D+00
 Coeff:      0.000D+00 0.000D+00 0.502D+00 0.498D+00
 Gap=     0.180 Goal=   None    Shift=    0.000
 RMSDP=7.43D-04 MaxDP=1.02D-01 DE= 9.11D-04 OVMax= 1.09D-01

 Cycle   5  Pass 1  IDiag  1:
 RMSU=  1.70D-04    CP:  9.79D-01  9.67D-01  5.83D-01  3.79D-01
 E= -779.750174945416     Delta-E=       -0.080177547730 Rises=F Damp=F
 DIIS: error= 5.08D-03 at cycle   5 NSaved=   5.
 NSaved= 5 IEnMin= 5 EnMin= -779.750174945416     IErMin= 5 ErrMin= 5.08D-03
 ErrMax= 5.08D-03  0.00D+00 EMaxC= 1.00D-01 BMatC= 5.88D-03 BMatP= 1.01D-01
 IDIUse=3 WtCom= 9.49D-01 WtEn= 5.08D-02
 Coeff-Com: -0.315D-01 0.789D-01 0.264D+00 0.281D+00 0.407D+00
 Coeff-En:   0.000D+00 0.000D+00 0.000D+00 0.231D-01 0.977D+00
 Coeff:     -0.299D-01 0.749D-01 0.251D+00 0.268D+00 0.436D+00
 Gap=     0.179 Goal=   None    Shift=    0.000
 RMSDP=1.75D-04 MaxDP=1.90D-02 DE=-8.02D-02 OVMax= 2.37D-02

 Cycle   6  Pass 1  IDiag  1:
 RMSU=  6.81D-05    CP:  9.78D-01  1.08D+00  5.65D-01  4.70D-01  6.89D-01
 E= -779.754953617678     Delta-E=       -0.004778672262 Rises=F Damp=F
 DIIS: error= 1.61D-03 at cycle   6 NSaved=   6.
 NSaved= 6 IEnMin= 6 EnMin= -779.754953617678     IErMin= 6 ErrMin= 1.61D-03
 ErrMax= 1.61D-03  0.00D+00 EMaxC= 1.00D-01 BMatC= 3.82D-04 BMatP= 5.88D-03
 IDIUse=3 WtCom= 9.84D-01 WtEn= 1.61D-02
 Coeff-Com: -0.235D-01 0.268D-01 0.293D-01 0.477D-01 0.294D+00 0.625D+00
 Coeff-En:   0.000D+00 0.000D+00 0.000D+00 0.000D+00 0.000D+00 0.100D+01
 Coeff:     -0.231D-01 0.264D-01 0.289D-01 0.469D-01 0.290D+00 0.631D+00
 Gap=     0.179 Goal=   None    Shift=    0.000
 RMSDP=3.01D-05 MaxDP=2.07D-03 DE=-4.78D-03 OVMax= 3.42D-03

 Cycle   7  Pass 1  IDiag  1:
 RMSU=  1.74D-05    CP:  9.79D-01  1.07D+00  5.64D-01  4.67D-01  7.17D-01
                    CP:  6.75D-01
 E= -779.755229504398     Delta-E=       -0.000275886721 Rises=F Damp=F
 DIIS: error= 2.08D-04 at cycle   7 NSaved=   7.
 NSaved= 7 IEnMin= 7 EnMin= -779.755229504398     IErMin= 7 ErrMin= 2.08D-04
 ErrMax= 2.08D-04  0.00D+00 EMaxC= 1.00D-01 BMatC= 1.20D-05 BMatP= 3.82D-04
 IDIUse=3 WtCom= 9.98D-01 WtEn= 2.08D-03
 Coeff-Com: -0.108D-01 0.122D-01 0.711D-02 0.139D-01 0.126D+00 0.316D+00
 Coeff-Com:  0.535D+00
 Coeff-En:   0.000D+00 0.000D+00 0.000D+00 0.000D+00 0.000D+00 0.000D+00
 Coeff-En:   0.100D+01
 Coeff:     -0.108D-01 0.121D-01 0.709D-02 0.139D-01 0.126D+00 0.316D+00
 Coeff:      0.536D+00
 Gap=     0.179 Goal=   None    Shift=    0.000
 RMSDP=1.04D-05 MaxDP=1.17D-03 DE=-2.76D-04 OVMax= 5.43D-04

 Cycle   8  Pass 1  IDiag  1:
 RMSU=  5.51D-06    CP:  9.78D-01  1.07D+00  5.66D-01  4.63D-01  7.49D-01
                    CP:  7.05D-01  7.17D-01
 E= -779.755239060070     Delta-E=       -0.000009555672 Rises=F Damp=F
 DIIS: error= 5.28D-05 at cycle   8 NSaved=   8.
 NSaved= 8 IEnMin= 8 EnMin= -779.755239060070     IErMin= 8 ErrMin= 5.28D-05
 ErrMax= 5.28D-05  0.00D+00 EMaxC= 1.00D-01 BMatC= 1.30D-06 BMatP= 1.20D-05
 IDIUse=1 WtCom= 1.00D+00 WtEn= 0.00D+00
 Coeff-Com: -0.288D-02 0.342D-02 0.183D-03 0.696D-03 0.291D-01 0.908D-01
 Coeff-Com:  0.281D+00 0.598D+00
 Coeff:     -0.288D-02 0.342D-02 0.183D-03 0.696D-03 0.291D-01 0.908D-01
 Coeff:      0.281D+00 0.598D+00
 Gap=     0.179 Goal=   None    Shift=    0.000
 RMSDP=2.41D-06 MaxDP=9.18D-05 DE=-9.56D-06 OVMax= 1.51D-04

 Cycle   9  Pass 1  IDiag  1:
 RMSU=  1.31D-06    CP:  9.78D-01  1.07D+00  5.65D-01  4.63D-01  7.49D-01
                    CP:  7.14D-01  7.35D-01  6.59D-01
 E= -779.755240260336     Delta-E=       -0.000001200266 Rises=F Damp=F
 DIIS: error= 1.14D-05 at cycle   9 NSaved=   9.
 NSaved= 9 IEnMin= 9 EnMin= -779.755240260336     IErMin= 9 ErrMin= 1.14D-05
 ErrMax= 1.14D-05  0.00D+00 EMaxC= 1.00D-01 BMatC= 5.28D-08 BMatP= 1.30D-06
 IDIUse=1 WtCom= 1.00D+00 WtEn= 0.00D+00
 Coeff-Com: -0.871D-03 0.994D-03-0.956D-04-0.205D-03 0.876D-02 0.306D-01
 Coeff-Com:  0.105D+00 0.281D+00 0.575D+00
 Coeff:     -0.871D-03 0.994D-03-0.956D-04-0.205D-03 0.876D-02 0.306D-01
 Coeff:      0.105D+00 0.281D+00 0.575D+00
 Gap=     0.179 Goal=   None    Shift=    0.000
 RMSDP=5.97D-07 MaxDP=1.96D-05 DE=-1.20D-06 OVMax= 3.46D-05

 Cycle  10  Pass 1  IDiag  1:
 RMSU=  4.64D-07    CP:  9.78D-01  1.07D+00  5.66D-01  4.63D-01  7.49D-01
                    CP:  7.15D-01  7.40D-01  6.75D-01  7.68D-01
 E= -779.755240309042     Delta-E=       -0.000000048706 Rises=F Damp=F
 DIIS: error= 2.72D-06 at cycle  10 NSaved=  10.
 NSaved=10 IEnMin=10 EnMin= -779.755240309042     IErMin=10 ErrMin= 2.72D-06
 ErrMax= 2.72D-06  0.00D+00 EMaxC= 1.00D-01 BMatC= 5.58D-09 BMatP= 5.28D-08
 IDIUse=1 WtCom= 1.00D+00 WtEn= 0.00D+00
 Coeff-Com: -0.821D-04 0.669D-04 0.413D-05-0.129D-03 0.915D-03 0.433D-02
 Coeff-Com:  0.163D-01 0.692D-01 0.295D+00 0.615D+00
 Coeff:     -0.821D-04 0.669D-04 0.413D-05-0.129D-03 0.915D-03 0.433D-02
 Coeff:      0.163D-01 0.692D-01 0.295D+00 0.615D+00
 Gap=     0.179 Goal=   None    Shift=    0.000
 RMSDP=2.62D-07 MaxDP=3.48D-05 DE=-4.87D-08 OVMax= 1.20D-05

 Cycle  11  Pass 1  IDiag  1:
 RMSU=  1.47D-07    CP:  9.78D-01  1.07D+00  5.66D-01  4.63D-01  7.49D-01
                    CP:  7.15D-01  7.43D-01  6.92D-01  8.00D-01  7.80D-01
 E= -779.755240313276     Delta-E=       -0.000000004234 Rises=F Damp=F
 DIIS: error= 4.43D-07 at cycle  11 NSaved=  11.
 NSaved=11 IEnMin=11 EnMin= -779.755240313276     IErMin=11 ErrMin= 4.43D-07
 ErrMax= 4.43D-07  0.00D+00 EMaxC= 1.00D-01 BMatC= 2.32D-10 BMatP= 5.58D-09
 IDIUse=1 WtCom= 1.00D+00 WtEn= 0.00D+00
 Coeff-Com:  0.806D-05-0.227D-04 0.506D-05-0.381D-04-0.925D-04 0.969D-04
 Coeff-Com:  0.749D-03 0.128D-01 0.899D-01 0.256D+00 0.641D+00
 Coeff:      0.806D-05-0.227D-04 0.506D-05-0.381D-04-0.925D-04 0.969D-04
 Coeff:      0.749D-03 0.128D-01 0.899D-01 0.256D+00 0.641D+00
 Gap=     0.179 Goal=   None    Shift=    0.000
 RMSDP=5.06D-08 MaxDP=1.83D-06 DE=-4.23D-09 OVMax= 2.44D-06

 Cycle  12  Pass 1  IDiag  1:
 RMSU=  3.21D-08    CP:  9.78D-01  1.07D+00  5.66D-01  4.63D-01  7.49D-01
                    CP:  7.16D-01  7.43D-01  6.94D-01  8.17D-01  7.92D-01
                    CP:  8.11D-01
 E= -779.755240313457     Delta-E=       -0.000000000181 Rises=F Damp=F
 DIIS: error= 2.45D-07 at cycle  12 NSaved=  12.
 NSaved=12 IEnMin=12 EnMin= -779.755240313457     IErMin=12 ErrMin= 2.45D-07
 ErrMax= 2.45D-07  0.00D+00 EMaxC= 1.00D-01 BMatC= 4.55D-11 BMatP= 2.32D-10
 IDIUse=1 WtCom= 1.00D+00 WtEn= 0.00D+00
 Coeff-Com:  0.676D-05-0.135D-04 0.373D-06-0.116D-04-0.100D-03-0.213D-03
 Coeff-Com: -0.571D-03 0.244D-02 0.297D-01 0.100D+00 0.362D+00 0.506D+00
 Coeff:      0.676D-05-0.135D-04 0.373D-06-0.116D-04-0.100D-03-0.213D-03
 Coeff:     -0.571D-03 0.244D-02 0.297D-01 0.100D+00 0.362D+00 0.506D+00
 Gap=     0.179 Goal=   None    Shift=    0.000
 RMSDP=1.41D-08 MaxDP=8.27D-07 DE=-1.81D-10 OVMax= 8.49D-07

 Cycle  13  Pass 1  IDiag  1:
 RMSU=  1.01D-08    CP:  9.78D-01  1.07D+00  5.66D-01  4.63D-01  7.49D-01
                    CP:  7.16D-01  7.43D-01  6.93D-01  8.19D-01  7.97D-01
                    CP:  8.04D-01  7.74D-01
 E= -779.755240313491     Delta-E=       -0.000000000034 Rises=F Damp=F
 DIIS: error= 9.02D-08 at cycle  13 NSaved=  13.
 NSaved=13 IEnMin=13 EnMin= -779.755240313491     IErMin=13 ErrMin= 9.02D-08
 ErrMax= 9.02D-08  0.00D+00 EMaxC= 1.00D-01 BMatC= 2.36D-12 BMatP= 4.55D-11
 IDIUse=1 WtCom= 1.00D+00 WtEn= 0.00D+00
 Coeff-Com:  0.500D-06-0.974D-06-0.974D-06 0.947D-07-0.291D-04-0.102D-03
 Coeff-Com: -0.284D-03-0.497D-03 0.189D-02 0.126D-01 0.743D-01 0.205D+00
 Coeff-Com:  0.707D+00
 Coeff:      0.500D-06-0.974D-06-0.974D-06 0.947D-07-0.291D-04-0.102D-03
[...]
    49  H   -0.000000   0.000000  -0.000000  -0.000000   0.000000  -0.000000
    50  H    0.000000   0.000000   0.000000  -0.000000  -0.000000   0.000000
              31         32         33         34         35         36
     1  C   -0.000001   0.000000   0.000000  -0.000000  -0.000000   0.000000
     2  C   -0.000008  -0.000001  -0.000001   0.000000   0.000000  -0.000000
     3  C   -0.000281  -0.000013  -0.000013  -0.000001  -0.000001   0.000000
     4  C   -0.004408  -0.000273  -0.000280  -0.000012  -0.000013  -0.000001
     5  C   -0.046174  -0.004402  -0.004388  -0.000283  -0.000281  -0.000012
     6  C    0.419445  -0.046058  -0.046196  -0.004303  -0.004351  -0.000284
     7  C   -0.046114   0.419352   0.419562  -0.046250  -0.046054  -0.004265
     8  C   -0.004376  -0.046037  -0.046181   0.419684   0.419369  -0.046220
     9  C   -0.000274  -0.004404  -0.004354  -0.046259  -0.045976   0.419744
    10  C   -0.000014  -0.000272  -0.000278  -0.004346  -0.004445  -0.046127
    11  C   -0.000001  -0.000015  -0.000015  -0.000277  -0.000274  -0.004525
    12  C    0.000000  -0.000001  -0.000001  -0.000014  -0.000016  -0.000262
    13  C   -0.000000   0.000000   0.000000  -0.000001  -0.000001  -0.000025
    14  C    0.000000  -0.000000  -0.000000   0.000000   0.000000  -0.000001
    15  C   -0.000000   0.000000   0.000000  -0.000000  -0.000000  -0.000000
    16  C    0.000000   0.000000  -0.000000   0.000000  -0.000000  -0.000000
    17  O    0.000000   0.000000   0.000000   0.000000  -0.000000   0.000000
    18  O    0.000000   0.000000  -0.000000  -0.000000   0.000000   0.000000
    19  H   -0.000000   0.000000  -0.000000   0.000000  -0.000000  -0.000000
    20  H    0.000001  -0.000000   0.000000  -0.000000   0.000000   0.000000
    21  H    0.000000  -0.000000  -0.000000   0.000000   0.000000  -0.000000
    22  H    0.000030  -0.000000   0.000001  -0.000000   0.000000   0.000000
    23  H   -0.000044   0.000001  -0.000000   0.000000  -0.000000  -0.000000
    24  H   -0.000065   0.000033  -0.000051   0.000001  -0.000001  -0.000000
    25  H    0.000207  -0.000051   0.000033  -0.000001   0.000001   0.000000
    26  H    0.004574   0.000218  -0.000073   0.000033  -0.000053  -0.000001
    27  H    0.000162  -0.000073   0.000218  -0.000053   0.000033   0.000001
    28  H   -0.006719   0.004430   0.000228  -0.000074   0.000221   0.000033
    29  H    0.008644   0.000227   0.004430   0.000221  -0.000074  -0.000053
    30  H   -0.036942   0.008601  -0.006643   0.004403   0.000239   0.000221
    31  H    0.580073  -0.006644   0.008603   0.000236   0.004401  -0.000074
    32  H   -0.006644   0.579822  -0.036887   0.008600  -0.006645   0.000234
    33  H    0.008603  -0.036887   0.579844  -0.006634   0.008597   0.004408
    34  H    0.000236   0.008600  -0.006634   0.579738  -0.036853  -0.006634
    35  H    0.004401  -0.006645   0.008597  -0.036853   0.579756   0.008590
    36  H   -0.000074   0.000234   0.004408  -0.006634   0.008590   0.579525
    37  H    0.000220   0.004410   0.000235   0.008590  -0.006648  -0.036843
    38  H    0.000033  -0.000074   0.000220   0.004402   0.000231  -0.006625
    39  H   -0.000052   0.000219  -0.000074   0.000233   0.004395   0.008567
    40  H    0.000001  -0.000052   0.000033  -0.000074   0.000219   0.000243
    41  H   -0.000000   0.000033  -0.000053   0.000220  -0.000074   0.004359
    42  H   -0.000000   0.000001  -0.000001   0.000033  -0.000052  -0.000075
    43  H    0.000000  -0.000000   0.000001  -0.000053   0.000033   0.000219
    44  H    0.000000  -0.000000   0.000000  -0.000000   0.000001   0.000032
    45  H   -0.000000   0.000000  -0.000000   0.000001  -0.000000  -0.000052
    46  H   -0.000000  -0.000000   0.000000  -0.000000   0.000000   0.000001
    47  H    0.000000   0.000000   0.000000   0.000000  -0.000000  -0.000000
    48  H   -0.000000   0.000000  -0.000000  -0.000000  -0.000000   0.000000
    49  H    0.000000  -0.000000   0.000000   0.000000  -0.000000  -0.000000
    50  H    0.000000  -0.000000  -0.000000   0.000000   0.000000  -0.000000
              37         38         39         40         41         42
     1  C    0.000000  -0.000000  -0.000000   0.000000   0.000000  -0.000000
     2  C   -0.000000   0.000000   0.000000  -0.000000  -0.000000   0.000000
     3  C    0.000000  -0.000000  -0.000000   0.000000   0.000000  -0.000000
     4  C   -0.000001   0.000000   0.000000  -0.000000  -0.000000   0.000000
     5  C   -0.000014  -0.000001  -0.000001   0.000000   0.000000  -0.000000
     6  C   -0.000280  -0.000014  -0.000012  -0.000001  -0.000001   0.000000
     7  C   -0.004397  -0.000292  -0.000267  -0.000018  -0.000011  -0.000001
     8  C   -0.045941  -0.004300  -0.004331  -0.000277  -0.000281  -0.000015
     9  C    0.419018  -0.046297  -0.045444  -0.004734  -0.003984  -0.000150
    10  C   -0.045602   0.419748   0.418653  -0.044847  -0.046171  -0.004474
    11  C   -0.004593  -0.046104  -0.044870   0.416629   0.420962  -0.042251
    12  C   -0.000198  -0.004322  -0.005228  -0.042608  -0.046387   0.415770
    13  C   -0.000021  -0.000247  -0.000160  -0.005970  -0.004624  -0.040793
    14  C    0.000000   0.000002  -0.000052   0.000200  -0.000399  -0.006974
    15  C    0.000000  -0.000000  -0.000000  -0.000016  -0.000009  -0.000350
    16  C    0.000000   0.000000  -0.000000   0.000006  -0.000003  -0.000091
    17  O    0.000000   0.000000   0.000000   0.000000   0.000000  -0.000010
    18  O   -0.000000  -0.000000   0.000000  -0.000000   0.000000   0.000006
    19  H    0.000000  -0.000000   0.000000  -0.000000   0.000000   0.000000
    20  H   -0.000000   0.000000  -0.000000   0.000000  -0.000000  -0.000000
    21  H   -0.000000   0.000000   0.000000  -0.000000  -0.000000   0.000000
    22  H   -0.000000   0.000000  -0.000000   0.000000  -0.000000  -0.000000
    23  H    0.000000  -0.000000   0.000000  -0.000000   0.000000   0.000000
    24  H    0.000000   0.000000  -0.000000  -0.000000   0.000000   0.000000
    25  H   -0.000000  -0.000000   0.000000   0.000000  -0.000000  -0.000000
    26  H    0.000001   0.000000  -0.000000   0.000000  -0.000000   0.000000
    27  H   -0.000001  -0.000000   0.000000  -0.000000   0.000000  -0.000000
    28  H   -0.000053  -0.000001   0.000001  -0.000000   0.000000   0.000000
    29  H    0.000033   0.000001  -0.000000   0.000000  -0.000000  -0.000000
    30  H   -0.000074  -0.000052   0.000033  -0.000000   0.000001   0.000000
    31  H    0.000220   0.000033  -0.000052   0.000001  -0.000000  -0.000000
    32  H    0.004410  -0.000074   0.000219  -0.000052   0.000033   0.000001
    33  H    0.000235   0.000220  -0.000074   0.000033  -0.000053  -0.000001
    34  H    0.008590   0.004402   0.000233  -0.000074   0.000220   0.000033
    35  H   -0.006648   0.000231   0.004395   0.000219  -0.000074  -0.000052
    36  H   -0.036843  -0.006625   0.008567   0.000243   0.004359  -0.000075
    37  H    0.579583   0.008578  -0.006655   0.004395   0.000235   0.000217
    38  H    0.008578   0.578943  -0.036721   0.008510  -0.006551   0.000263
    39  H   -0.006655  -0.036721   0.578979  -0.006615   0.008496   0.004262
    40  H    0.004395   0.008510  -0.006615   0.577579  -0.036374  -0.006558
    41  H    0.000235  -0.006551   0.008496  -0.036374   0.576938   0.008351
    42  H    0.000217   0.000263   0.004262  -0.006558   0.008351   0.574988
    43  H   -0.000075   0.004257   0.000272   0.008358  -0.006446  -0.036288
    44  H   -0.000052  -0.000073   0.000218   0.004130   0.000252  -0.006653
    45  H    0.000033   0.000222  -0.000078   0.000347   0.004021   0.008154
    46  H   -0.000000  -0.000050   0.000032  -0.000078   0.000228   0.000445
    47  H    0.000001   0.000033  -0.000051   0.000245  -0.000080   0.002949
    48  H   -0.000000  -0.000000   0.000001  -0.000042   0.000031   0.000187
    49  H    0.000000   0.000001  -0.000000   0.000034  -0.000042  -0.000089
    50  H   -0.000000   0.000000   0.000000  -0.000000  -0.000000   0.000000
              43         44         45         46         47         48
     1  C   -0.000000   0.000000   0.000000   0.000000   0.000000   0.000000
     2  C    0.000000  -0.000000  -0.000000   0.000000  -0.000000   0.000000
     3  C   -0.000000   0.000000   0.000000  -0.000000  -0.000000   0.000000
     4  C    0.000000  -0.000000  -0.000000  -0.000000  -0.000000  -0.000000
     5  C   -0.000000   0.000000   0.000000  -0.000000  -0.000000  -0.000000
     6  C    0.000000  -0.000000  -0.000000  -0.000000  -0.000000  -0.000000
     7  C   -0.000001   0.000000  -0.000000  -0.000000  -0.000000  -0.000000
     8  C   -0.000015  -0.000001  -0.000001  -0.000000  -0.000000   0.000000
     9  C   -0.000229  -0.000004  -0.000038  -0.000000  -0.000004  -0.000000
    10  C   -0.004191  -0.000268  -0.000172  -0.000031  -0.000031   0.000004
    11  C   -0.044926  -0.003176  -0.005144  -0.000184  -0.000912  -0.000140
    12  C    0.419649  -0.044393  -0.042263  -0.003001  -0.003829   0.000742
    13  C   -0.044874   0.422128   0.415159  -0.039741  -0.053222  -0.005548
    14  C   -0.004866  -0.045757  -0.039505   0.418496   0.416655  -0.028593
    15  C   -0.000244  -0.004038  -0.005811  -0.043926  -0.049430   0.412998
    16  C   -0.000033  -0.001106   0.000653  -0.006734   0.011190  -0.050188
    17  O    0.000002   0.000014   0.000013   0.000426   0.005024   0.005382
    18  O   -0.000031  -0.000032   0.000137   0.006685   0.000210   0.005149
    19  H   -0.000000  -0.000000   0.000000   0.000000   0.000000   0.000000
    20  H    0.000000   0.000000  -0.000000   0.000000   0.000000   0.000000
    21  H    0.000000   0.000000   0.000000   0.000000   0.000000   0.000000
    22  H    0.000000   0.000000  -0.000000   0.000000  -0.000000   0.000000
    23  H   -0.000000  -0.000000   0.000000  -0.000000   0.000000   0.000000
    24  H   -0.000000  -0.000000   0.000000  -0.000000   0.000000  -0.000000
    25  H    0.000000   0.000000  -0.000000   0.000000  -0.000000   0.000000
    26  H   -0.000000  -0.000000   0.000000  -0.000000   0.000000  -0.000000
    27  H    0.000000   0.000000  -0.000000   0.000000  -0.000000   0.000000
    28  H   -0.000000   0.000000  -0.000000   0.000000  -0.000000   0.000000
    29  H    0.000000  -0.000000   0.000000  -0.000000   0.000000  -0.000000
    30  H   -0.000000  -0.000000   0.000000   0.000000  -0.000000   0.000000
    31  H    0.000000   0.000000  -0.000000  -0.000000   0.000000  -0.000000
    32  H   -0.000000  -0.000000   0.000000  -0.000000   0.000000   0.000000
    33  H    0.000001   0.000000  -0.000000   0.000000   0.000000  -0.000000
    34  H   -0.000053  -0.000000   0.000001  -0.000000   0.000000  -0.000000
    35  H    0.000033   0.000001  -0.000000   0.000000  -0.000000  -0.000000
    36  H    0.000219   0.000032  -0.000052   0.000001  -0.000000   0.000000
    37  H   -0.000075  -0.000052   0.000033  -0.000000   0.000001  -0.000000
    38  H    0.004257  -0.000073   0.000222  -0.000050   0.000033  -0.000000
    39  H    0.000272   0.000218  -0.000078   0.000032  -0.000051   0.000001
    40  H    0.008358   0.004130   0.000347  -0.000078   0.000245  -0.000042
    41  H   -0.006446   0.000252   0.004021   0.000228  -0.000080   0.000031
    42  H   -0.036288  -0.006653   0.008154   0.000445   0.002949   0.000187
    43  H    0.574386   0.008199  -0.006456   0.003128   0.000606  -0.000088
    44  H    0.008199   0.565796  -0.034927   0.006913  -0.004485   0.002711
    45  H   -0.006456  -0.034927   0.566214  -0.004885   0.006979   0.000557
    46  H    0.003128   0.006913  -0.004885   0.536568  -0.026086   0.006233
    47  H    0.000606  -0.004485   0.006979  -0.026086   0.548150  -0.003469
    48  H   -0.000088   0.002711   0.000557   0.006233  -0.003469   0.509105
    49  H    0.000198   0.000517   0.003700  -0.003803   0.007387  -0.018771
    50  H    0.000000   0.000000  -0.000003  -0.000397  -0.000141  -0.000665
              49         50
     1  C    0.000000   0.000000
     2  C    0.000000   0.000000
     3  C   -0.000000   0.000000
     4  C   -0.000000  -0.000000
     5  C   -0.000000   0.000000
     6  C   -0.000000  -0.000000
     7  C   -0.000000   0.000000
     8  C    0.000000  -0.000000
     9  C   -0.000000   0.000000
    10  C    0.000002  -0.000000
    11  C   -0.000245   0.000000
    12  C    0.000434  -0.000007
    13  C   -0.016613   0.000147
    14  C   -0.029760   0.000283
    15  C    0.358767   0.014155
    16  C    0.000685  -0.016652
    17  O    0.004623   0.002222
    18  O    0.005058   0.283520
    19  H    0.000000   0.000000
    20  H    0.000000   0.000000
    21  H    0.000000   0.000000
    22  H    0.000000   0.000000
    23  H    0.000000   0.000000
    24  H    0.000000   0.000000
    25  H   -0.000000   0.000000
    26  H    0.000000   0.000000
    27  H   -0.000000   0.000000
    28  H   -0.000000  -0.000000
    29  H    0.000000  -0.000000
    30  H   -0.000000   0.000000
    31  H    0.000000   0.000000
    32  H   -0.000000  -0.000000
    33  H    0.000000  -0.000000
    34  H    0.000000   0.000000
    35  H   -0.000000   0.000000
    36  H   -0.000000  -0.000000
    37  H    0.000000  -0.000000
    38  H    0.000001   0.000000
    39  H   -0.000000   0.000000
    40  H    0.000034  -0.000000
    41  H   -0.000042  -0.000000
    42  H   -0.000089   0.000000
    43  H    0.000198   0.000000
    44  H    0.000517   0.000000
    45  H    0.003700  -0.000003
    46  H   -0.003803  -0.000397
    47  H    0.007387  -0.000141
    48  H   -0.018771  -0.000665
    49  H    0.522725  -0.000409
    50  H   -0.000409   0.388483
 Mulliken charges:
               1
     1  C   -0.418582
     2  C   -0.227883
     3  C   -0.259914
     4  C   -0.243382
     5  C   -0.253103
     6  C   -0.251262
     7  C   -0.252308
     8  C   -0.251436
     9  C   -0.252037
    10  C   -0.251384
    11  C   -0.253973
    12  C   -0.250373
    13  C   -0.251151
    14  C   -0.280757
    15  C   -0.260860
    16  C    0.211227
    17  O   -0.366145
    18  O   -0.281438
    19  H    0.131663
    20  H    0.131711
    21  H    0.144483
    22  H    0.126673
    23  H    0.126629
    24  H    0.122680
    25  H    0.122720
    26  H    0.123627
    27  H    0.123644
    28  H    0.125234
    29  H    0.125210
    30  H    0.125566
    31  H    0.125562
    32  H    0.125722
    33  H    0.125708
    34  H    0.125725
    35  H    0.125724
    36  H    0.125902
    37  H    0.125896
    38  H    0.126278
    39  H    0.126251
    40  H    0.127336
    41  H    0.127363
    42  H    0.129197
    43  H    0.129506
    44  H    0.134055
    45  H    0.133145
    46  H    0.149763
    47  H    0.142314
    48  H    0.164405
    49  H    0.165604
    50  H    0.329465
 Sum of Mulliken charges =  -0.00000
 Mulliken charges with hydrogens summed into heavy atoms:
               1
     1  C   -0.010725
     2  C    0.025418
     3  C   -0.014514
     4  C    0.003889
     5  C   -0.002659
     6  C   -0.000134
     7  C   -0.000878
     8  C    0.000013
     9  C   -0.000239
    10  C    0.001145
    11  C    0.000726
    12  C    0.008330
    13  C    0.016049
    14  C    0.011320
    15  C    0.069148
    16  C    0.211227
    17  O   -0.366145
    18  O    0.048027
 Electronic spatial extent (au):  <R**2>=          22048.8409
 Charge=             -0.0000 electrons
 Dipole moment (field-independent basis, Debye):
    X=              1.5429    Y=              0.3087    Z=             -1.9363  Tot=              2.4950
 Quadrupole moment (field-independent basis, Debye-Ang):
   XX=           -143.0326   YY=           -117.0581   ZZ=           -120.9407
   XY=             -4.6377   XZ=             19.8415   YZ=             -1.0248
 Traceless Quadrupole moment (field-independent basis, Debye-Ang):
   XX=            -16.0221   YY=              9.9524   ZZ=              6.0697
   XY=             -4.6377   XZ=             19.8415   YZ=             -1.0248
 Octapole moment (field-independent basis, Debye-Ang**2):
  XXX=            113.1197  YYY=              7.2318  ZZZ=             -3.8396  XYY=            -59.9451
  XXY=             83.0922  XXZ=           -196.1329  XZZ=             18.5467  YZZ=             -0.4735
  YYZ=             -1.2830  XYZ=              1.1592
 Hexadecapole moment (field-independent basis, Debye-Ang**3):
 XXXX=         -31569.1318 YYYY=           -427.9588 ZZZZ=           -329.2824 XXXY=           -827.3920
 XXXZ=           2019.3594 YYYX=            -71.4988 YYYZ=            -16.5502 ZZZX=             32.2342
 ZZZY=              2.0341 XXYY=          -4675.4358 XXZZ=          -5225.4792 YYZZ=           -118.3845
 XXYZ=            -77.2742 YYXZ=             17.8291 ZZXY=             -3.5300
 N-N= 1.170019519003D+03 E-N=-4.151527922048D+03  KE= 7.756084703006D+02
 Unable to Open any file for archive entry.
 1\1\GINC-TCN1787\SP\RBP86\TZVP\C16H32O2\ELENAA\22-Feb-2021\0\\# BP86/T
 ZVP SCRF=COSMORS geom=CHECKPOINT guess=CHECKPOINT\\COSMO-file for #IPC
 SVZSSVZVIGE-UHFFFAOYSA-N\\0,1\C,0,-1.1595051988,-5.2834342989,9.521833
 8311\C,0,-2.2647143127,-4.3605497548,8.9933666584\C,0,-1.7187574911,-3
 .0976980959,8.3130761144\C,0,-2.8139138045,-2.1654575292,7.7789669545\
 C,0,-2.2663452159,-0.9034433042,7.0995598873\C,0,-3.3612535883,0.02884
 42077,6.5647122565\C,0,-2.8130795783,1.290779614,5.8857398973\C,0,-3.9
 074918218,2.2234288686,5.3505465732\C,0,-3.3584473965,3.4853657841,4.6
 722945269\C,0,-4.4524680101,4.4186476151,4.1374379485\C,0,-3.901825815
 1,5.6804724497,3.460348304\C,0,-4.996323564,6.6141311039,2.9269007715\
 C,0,-4.4411754648,7.8750421008,2.2518129166\C,0,-5.5411759387,8.803834
 2591,1.7235491797\C,0,-4.9613855434,10.0669020787,1.0464007566\C,0,-6.
 062124231,10.9453943046,0.505006185\O,0,-6.4533892453,10.9653404906,-0
 .6531420166\O,0,-6.6304383352,11.7092677032,1.483226558\H,0,-0.5317271
 834,-4.7631139824,10.2633976229\H,0,-0.4995440746,-5.6170957856,8.7045
 944968\H,0,-1.5752947709,-6.181099637,10.0050344976\H,0,-2.9300700598,
 -4.0646498715,9.8239574647\H,0,-2.8978288385,-4.9124949121,8.275978932
 5\H,0,-1.0852940606,-2.5435158621,9.0301727535\H,0,-1.0523229671,-3.39
 20752416,7.4813084143\H,0,-3.4468023421,-2.7199484235,7.0618174381\H,0
 ,-3.4801300448,-1.8715683578,8.6108998773\H,0,-1.5997782712,-1.1972869
 048,6.2679222073\H,0,-1.6337941026,-0.3487345786,7.8168074257\H,0,-4.0
 279739418,0.3226784035,7.396235984\H,0,-3.9936641811,-0.5256700849,5.8
 47189275\H,0,-2.1461890126,0.996887724,5.0543715476\H,0,-2.180740825,1
 .8452337684,6.603382183\H,0,-4.5745506671,2.5172435032,6.1817943083\H,
 0,-4.5396410063,1.6693039571,4.6325092119\H,0,-2.7260863409,4.03919001
 84,5.3903674248\H,0,-2.6915682835,3.1915586559,3.840921737\H,0,-5.1194
 830931,4.7124324417,4.968655104\H,0,-5.0845521432,3.8654090119,3.41875
 30001\H,0,-3.2356437144,5.3869776648,2.6284901514\H,0,-3.2694121132,6.
 2334005262,4.1788589287\H,0,-5.6280869568,6.0624851043,2.2071378446\H,
 0,-5.6624398992,6.9082303217,3.7583531623\H,0,-3.7774419109,7.58304561
 52,1.4183059648\H,0,-3.8107152674,8.4288358786,2.9704994796\H,0,-6.201
 4533012,9.1071879804,2.5527962235\H,0,-6.1687665436,8.2593984087,0.997
 6290541\H,0,-4.3153333473,9.7814777185,0.204671585\H,0,-4.3620722711,1
 0.6342996849,1.7746839307\H,0,-7.3663939092,12.2134396575,1.0737354659
 \\Version=ES64L-G16RevC.01\State=1-A\HF=-779.7268998\RMSD=9.671e-09\Di
 pole=0.1881201,-0.1371052,0.9535957\Quadrupole=5.9708722,4.890246,-10.
 8611181,1.3264229,-6.2788953,14.4443473\PG=C01 [X(C16H32O2)]\\@
 The archive entry for this job was punched.


 I am not a vegetarian because I love animals;
 I am a vegetarian because I hate plants.
                               -- A. Whitney Brown
 Job cpu time:       0 days  0 hours 20 minutes  1.9 seconds.
 Elapsed time:       0 days  0 hours  0 minutes 39.2 seconds.
 File lengths (MBytes):  RWF=    236 Int=      0 D2E=      0 Chk=     29 Scr=      1
 Normal termination of Gaussian 16 at Mon Feb 22 21:29:22 2021.
