 Entering Gaussian System, Link 0=g16
 Input=JFCQEDHGNNZCLN-UHFFFAOYSA-N.gjf
 Output=JFCQEDHGNNZCLN-UHFFFAOYSA-N.log
 Initial command:
 /sw/arch/RedHatEnterpriseServer7/EB_production/2019/software/Gaussian/g16.c01/l1.exe "/scratch-local/elenaa.9715221/Gau-11531.inp" -scrdir="/scratch-local/elenaa.9715221/"
 Entering Link 1 = /sw/arch/RedHatEnterpriseServer7/EB_production/2019/software/Gaussian/g16.c01/l1.exe PID=     11532.
  
 Copyright (c) 1988-2019, Gaussian, Inc.  All Rights Reserved.
  
 This is part of the Gaussian(R) 16 program.  It is based on
 the Gaussian(R) 09 system (copyright 2009, Gaussian, Inc.),
 the Gaussian(R) 03 system (copyright 2003, Gaussian, Inc.),
 the Gaussian(R) 98 system (copyright 1998, Gaussian, Inc.),
 the Gaussian(R) 94 system (copyright 1995, Gaussian, Inc.),
 the Gaussian 92(TM) system (copyright 1992, Gaussian, Inc.),
 the Gaussian 90(TM) system (copyright 1990, Gaussian, Inc.),
 the Gaussian 88(TM) system (copyright 1988, Gaussian, Inc.),
 the Gaussian 86(TM) system (copyright 1986, Carnegie Mellon
 University), and the Gaussian 82(TM) system (copyright 1983,
 Carnegie Mellon University). Gaussian is a federally registered
 trademark of Gaussian, Inc.
  
 This software contains proprietary and confidential information,
 including trade secrets, belonging to Gaussian, Inc.
  
 This software is provided under written license and may be
 used, copied, transmitted, or stored only in accord with that
 written license.
  
 The following legend is applicable only to US Government
 contracts under FAR:
  
                    RESTRICTED RIGHTS LEGEND
  
 Use, reproduction and disclosure by the US Government is
 subject to restrictions as set forth in subparagraphs (a)
 and (c) of the Commercial Computer Software - Restricted
 Rights clause in FAR 52.227-19.
  
 Gaussian, Inc.
 340 Quinnipiac St., Bldg. 40, Wallingford CT 06492
  
  
 ---------------------------------------------------------------
 Warning -- This program may not be used in any manner that
 competes with the business of Gaussian, Inc. or will provide
 assistance to any competitor of Gaussian, Inc.  The licensee
 of this program is prohibited from giving any competitor of
 Gaussian, Inc. access to this program.  By using this program,
 the user acknowledges that Gaussian, Inc. is engaged in the
 business of creating and licensing software in the field of
 computational chemistry and represents and warrants to the
 licensee that it is not a competitor of Gaussian, Inc. and that
 it will not use this program in any manner prohibited above.
 ---------------------------------------------------------------
  

 Cite this work as:
 Gaussian 16, Revision C.01,
 M. J. Frisch, G. W. Trucks, H. B. Schlegel, G. E. Scuseria, 
 M. A. Robb, J. R. Cheeseman, G. Scalmani, V. Barone, 
 G. A. Petersson, H. Nakatsuji, X. Li, M. Caricato, A. V. Marenich, 
 J. Bloino, B. G. Janesko, R. Gomperts, B. Mennucci, H. P. Hratchian, 
 J. V. Ortiz, A. F. Izmaylov, J. L. Sonnenberg, D. Williams-Young, 
 F. Ding, F. Lipparini, F. Egidi, J. Goings, B. Peng, A. Petrone, 
 T. Henderson, D. Ranasinghe, V. G. Zakrzewski, J. Gao, N. Rega, 
 G. Zheng, W. Liang, M. Hada, M. Ehara, K. Toyota, R. Fukuda, 
 J. Hasegawa, M. Ishida, T. Nakajima, Y. Honda, O. Kitao, H. Nakai, 
 T. Vreven, K. Throssell, J. A. Montgomery, Jr., J. E. Peralta, 
 F. Ogliaro, M. J. Bearpark, J. J. Heyd, E. N. Brothers, K. N. Kudin, 
 V. N. Staroverov, T. A. Keith, R. Kobayashi, J. Normand, 
 K. Raghavachari, A. P. Rendell, J. C. Burant, S. S. Iyengar, 
 J. Tomasi, M. Cossi, J. M. Millam, M. Klene, C. Adamo, R. Cammi, 
 J. W. Ochterski, R. L. Martin, K. Morokuma, O. Farkas, 
 J. B. Foresman, and D. J. Fox, Gaussian, Inc., Wallingford CT, 2019.
 
 ******************************************
 Gaussian 16:  ES64L-G16RevC.01  3-Jul-2019
                22-Feb-2021 
 ******************************************
 %chk=JFCQEDHGNNZCLN-UHFFFAOYSA-N.chk
 %NProcShared=32
 Will use up to   32 processors via shared memory.
 -------------------------------------------------------------
 #P BP86/TZVP EmpiricalDispersion=GD3 SCRF=(Solvent=Water) Opt
 -------------------------------------------------------------
 1/18=20,19=15,26=3,38=1/1,3;
 2/9=110,12=2,17=6,18=5,40=1/2;
 3/5=19,7=101,11=2,25=1,30=1,70=2201,71=1,72=1,74=404,124=31/1,2,3;
 4//1;
 5/5=2,38=5,53=1/2;
 6/7=2,8=2,9=2,10=2,28=1/1;
 7//1,2,3,16;
 1/18=20,19=15,26=3/3(2);
 2/9=110/2;
 99//99;
 2/9=110/2;
 3/5=19,7=101,11=2,25=1,30=1,70=2205,71=1,72=1,74=404,124=31/1,2,3;
 4/5=5,16=3,69=1/1;
 5/5=2,38=5,53=1/2;
 7//1,2,3,16;
 1/18=20,19=15,26=3/3(-5);
 2/9=110/2;
 6/7=2,8=2,9=2,10=2,19=2,28=1/1;
 99/9=1/99;
 Leave Link    1 at Mon Feb 22 21:11:35 2021, MaxMem=           0 cpu:               2.5 elap:               0.1
 (Enter /sw/arch/RedHatEnterpriseServer7/EB_production/2019/software/Gaussian/g16.c01/l101.exe)
 -------------------------------------
 Particle #JFCQEDHGNNZCLN-UHFFFAOYSA-N
 -------------------------------------
 Symbolic Z-matrix:
 Charge =  0 Multiplicity = 1
 O                     1.00523  -3.21837  -1.30863 
 C                     1.65519  -2.58004  -0.45037 
 O                     2.98141  -2.82333  -0.33306 
 C                     0.98825  -1.58174   0.40631 
 C                     0.45277  -0.37197  -0.40824 
 C                    -0.15486   0.73467   0.49661 
 C                    -0.66792   1.88971  -0.26626 
 O                    -0.18835   3.03436  -0.104 
 O                    -1.68739   1.73876  -1.1436 
 H                     3.41571  -3.47451  -0.92373 
 H                     0.16502  -2.07062   0.9348 
 H                     1.70275  -1.22665   1.15341 
 H                    -0.30596  -0.73236  -1.10831 
 H                     1.27442   0.05744  -0.98986 
 H                     0.60849   1.07421   1.20543 
 H                    -0.98366   0.32042   1.0739 
 H                    -2.02843   2.50896  -1.6477 
 
 ITRead=  0  0  0  0  0  0  0  0  0  0  0  0  0  0  0  0  0
 MicOpt= -1 -1 -1 -1 -1 -1 -1 -1 -1 -1 -1 -1 -1 -1 -1 -1 -1
 NAtoms=     17 NQM=       17 NQMF=       0 NMMI=      0 NMMIF=      0
                NMic=       0 NMicF=      0.
                    Isotopes and Nuclear Properties:
 (Nuclear quadrupole moments (NQMom) in fm**2, nuclear magnetic moments (NMagM)
  in nuclear magnetons)

  Atom         1           2           3           4           5           6           7           8           9          10
 IAtWgt=          16          12          16          12          12          12          12          16          16           1
 AtmWgt=  15.9949146  12.0000000  15.9949146  12.0000000  12.0000000  12.0000000  12.0000000  15.9949146  15.9949146   1.0078250
 NucSpn=           0           0           0           0           0           0           0           0           0           1
 AtZEff=  -0.0000000  -0.0000000  -0.0000000  -0.0000000  -0.0000000  -0.0000000  -0.0000000  -0.0000000  -0.0000000  -0.0000000
 NQMom=    0.0000000   0.0000000   0.0000000   0.0000000   0.0000000   0.0000000   0.0000000   0.0000000   0.0000000   0.0000000
 NMagM=    0.0000000   0.0000000   0.0000000   0.0000000   0.0000000   0.0000000   0.0000000   0.0000000   0.0000000   2.7928460
 AtZNuc=   8.0000000   6.0000000   8.0000000   6.0000000   6.0000000   6.0000000   6.0000000   8.0000000   8.0000000   1.0000000

  Atom        11          12          13          14          15          16          17
 IAtWgt=           1           1           1           1           1           1           1
 AtmWgt=   1.0078250   1.0078250   1.0078250   1.0078250   1.0078250   1.0078250   1.0078250
 NucSpn=           1           1           1           1           1           1           1
 AtZEff=  -0.0000000  -0.0000000  -0.0000000  -0.0000000  -0.0000000  -0.0000000  -0.0000000
 NQMom=    0.0000000   0.0000000   0.0000000   0.0000000   0.0000000   0.0000000   0.0000000
 NMagM=    2.7928460   2.7928460   2.7928460   2.7928460   2.7928460   2.7928460   2.7928460
 AtZNuc=   1.0000000   1.0000000   1.0000000   1.0000000   1.0000000   1.0000000   1.0000000
 Leave Link  101 at Mon Feb 22 21:11:35 2021, MaxMem=   104857600 cpu:               2.9 elap:               0.1
 (Enter /sw/arch/RedHatEnterpriseServer7/EB_production/2019/software/Gaussian/g16.c01/l103.exe)

 GradGradGradGradGradGradGradGradGradGradGradGradGradGradGradGradGradGrad
 Berny optimization.
 Initialization pass.
                           ----------------------------
                           !    Initial Parameters    !
                           ! (Angstroms and Degrees)  !
 --------------------------                            --------------------------
 ! Name  Definition              Value          Derivative Info.                !
 --------------------------------------------------------------------------------
 ! R1    R(1,2)                  1.2516         estimate D2E/DX2                !
 ! R2    R(2,3)                  1.3534         estimate D2E/DX2                !
 ! R3    R(2,4)                  1.4749         estimate D2E/DX2                !
 ! R4    R(3,10)                 0.9806         estimate D2E/DX2                !
 ! R5    R(4,5)                  1.5536         estimate D2E/DX2                !
 ! R6    R(4,11)                 1.0936         estimate D2E/DX2                !
 ! R7    R(4,12)                 1.093          estimate D2E/DX2                !
 ! R8    R(5,6)                  1.5533         estimate D2E/DX2                !
 ! R9    R(5,13)                 1.0935         estimate D2E/DX2                !
 ! R10   R(5,14)                 1.0944         estimate D2E/DX2                !
 ! R11   R(6,7)                  1.4763         estimate D2E/DX2                !
 ! R12   R(6,15)                 1.0956         estimate D2E/DX2                !
 ! R13   R(6,16)                 1.0917         estimate D2E/DX2                !
 ! R14   R(7,8)                  1.2516         estimate D2E/DX2                !
 ! R15   R(7,9)                  1.3535         estimate D2E/DX2                !
 ! R16   R(9,17)                 0.9816         estimate D2E/DX2                !
 ! A1    A(1,2,3)              118.4644         estimate D2E/DX2                !
 ! A2    A(1,2,4)              120.5758         estimate D2E/DX2                !
 ! A3    A(3,2,4)              120.959          estimate D2E/DX2                !
 ! A4    A(2,3,10)             120.0763         estimate D2E/DX2                !
 ! A5    A(2,4,5)              112.2334         estimate D2E/DX2                !
 ! A6    A(2,4,11)             108.5726         estimate D2E/DX2                !
 ! A7    A(2,4,12)             108.7418         estimate D2E/DX2                !
 ! A8    A(5,4,11)             109.9988         estimate D2E/DX2                !
 ! A9    A(5,4,12)             109.3105         estimate D2E/DX2                !
 ! A10   A(11,4,12)            107.8773         estimate D2E/DX2                !
 ! A11   A(4,5,6)              112.593          estimate D2E/DX2                !
 ! A12   A(4,5,13)             108.553          estimate D2E/DX2                !
 ! A13   A(4,5,14)             108.989          estimate D2E/DX2                !
 ! A14   A(6,5,13)             109.6542         estimate D2E/DX2                !
 ! A15   A(6,5,14)             108.8892         estimate D2E/DX2                !
 ! A16   A(13,5,14)            108.0597         estimate D2E/DX2                !
 ! A17   A(5,6,7)              113.1014         estimate D2E/DX2                !
 ! A18   A(5,6,15)             108.9728         estimate D2E/DX2                !
 ! A19   A(5,6,16)             109.5542         estimate D2E/DX2                !
 ! A20   A(7,6,15)             109.5109         estimate D2E/DX2                !
 ! A21   A(7,6,16)             107.8369         estimate D2E/DX2                !
 ! A22   A(15,6,16)            107.7238         estimate D2E/DX2                !
 ! A23   A(6,7,8)              121.0235         estimate D2E/DX2                !
 ! A24   A(6,7,9)              120.6303         estimate D2E/DX2                !
 ! A25   A(8,7,9)              118.3363         estimate D2E/DX2                !
 ! A26   A(7,9,17)             120.4681         estimate D2E/DX2                !
 ! D1    D(1,2,3,10)             1.1381         estimate D2E/DX2                !
 ! D2    D(4,2,3,10)          -178.5491         estimate D2E/DX2                !
 ! D3    D(1,2,4,5)            -65.2344         estimate D2E/DX2                !
 ! D4    D(1,2,4,11)            56.5767         estimate D2E/DX2                !
 ! D5    D(1,2,4,12)           173.7049         estimate D2E/DX2                !
 ! D6    D(3,2,4,5)            114.4462         estimate D2E/DX2                !
 ! D7    D(3,2,4,11)          -123.7428         estimate D2E/DX2                !
 ! D8    D(3,2,4,12)            -6.6146         estimate D2E/DX2                !
 ! D9    D(2,4,5,6)           -175.6376         estimate D2E/DX2                !
 ! D10   D(2,4,5,13)            62.7661         estimate D2E/DX2                !
 ! D11   D(2,4,5,14)           -54.7057         estimate D2E/DX2                !
 ! D12   D(11,4,5,6)            63.3689         estimate D2E/DX2                !
 ! D13   D(11,4,5,13)          -58.2273         estimate D2E/DX2                !
 ! D14   D(11,4,5,14)         -175.6992         estimate D2E/DX2                !
 ! D15   D(12,4,5,6)           -54.9046         estimate D2E/DX2                !
 ! D16   D(12,4,5,13)         -176.5009         estimate D2E/DX2                !
 ! D17   D(12,4,5,14)           66.0273         estimate D2E/DX2                !
 ! D18   D(4,5,6,7)           -179.9718         estimate D2E/DX2                !
 ! D19   D(4,5,6,15)            57.9813         estimate D2E/DX2                !
 ! D20   D(4,5,6,16)           -59.6468         estimate D2E/DX2                !
 ! D21   D(13,5,6,7)           -59.0033         estimate D2E/DX2                !
 ! D22   D(13,5,6,15)          178.9498         estimate D2E/DX2                !
 ! D23   D(13,5,6,16)           61.3216         estimate D2E/DX2                !
 ! D24   D(14,5,6,7)            59.0392         estimate D2E/DX2                !
 ! D25   D(14,5,6,15)          -63.0076         estimate D2E/DX2                !
 ! D26   D(14,5,6,16)          179.3642         estimate D2E/DX2                !
 ! D27   D(5,6,7,8)           -118.4068         estimate D2E/DX2                !
 ! D28   D(5,6,7,9)             62.7557         estimate D2E/DX2                !
 ! D29   D(15,6,7,8)             3.3383         estimate D2E/DX2                !
 ! D30   D(15,6,7,9)          -175.4992         estimate D2E/DX2                !
 ! D31   D(16,6,7,8)           120.2939         estimate D2E/DX2                !
 ! D32   D(16,6,7,9)           -58.5437         estimate D2E/DX2                !
 ! D33   D(6,7,9,17)           179.8208         estimate D2E/DX2                !
 ! D34   D(8,7,9,17)             0.9525         estimate D2E/DX2                !
 --------------------------------------------------------------------------------
 Trust Radius=3.00D-01 FncErr=1.00D-07 GrdErr=1.00D-06 EigMax=2.50D+02 EigMin=1.00D-04
 Number of steps in this run=     86 maximum allowed number of steps=    102.
 GradGradGradGradGradGradGradGradGradGradGradGradGradGradGradGradGradGrad

 Leave Link  103 at Mon Feb 22 21:11:36 2021, MaxMem=   104857600 cpu:               0.9 elap:               0.1
 (Enter /sw/arch/RedHatEnterpriseServer7/EB_production/2019/software/Gaussian/g16.c01/l202.exe)
                          Input orientation:                          
 ---------------------------------------------------------------------
 Center     Atomic      Atomic             Coordinates (Angstroms)
 Number     Number       Type             X           Y           Z
 ---------------------------------------------------------------------
      1          8           0        1.005230   -3.218370   -1.308630
      2          6           0        1.655190   -2.580040   -0.450370
      3          8           0        2.981410   -2.823330   -0.333060
      4          6           0        0.988250   -1.581740    0.406310
      5          6           0        0.452770   -0.371970   -0.408240
      6          6           0       -0.154860    0.734670    0.496610
      7          6           0       -0.667920    1.889710   -0.266260
      8          8           0       -0.188350    3.034360   -0.104000
      9          8           0       -1.687390    1.738760   -1.143600
     10          1           0        3.415710   -3.474510   -0.923730
     11          1           0        0.165020   -2.070620    0.934800
     12          1           0        1.702750   -1.226650    1.153410
     13          1           0       -0.305960   -0.732360   -1.108310
     14          1           0        1.274420    0.057440   -0.989860
     15          1           0        0.608490    1.074210    1.205430
     16          1           0       -0.983660    0.320420    1.073900
     17          1           0       -2.028430    2.508960   -1.647700
 ---------------------------------------------------------------------
                    Distance matrix (angstroms):
                    1          2          3          4          5
     1  O    0.000000
     2  C    1.251608   0.000000
     3  O    2.238991   1.353444   0.000000
     4  C    2.370626   1.474894   2.461890   0.000000
     5  C    3.036101   2.514590   3.522618   1.553633   0.000000
     6  C    4.497913   3.893630   4.814967   2.584688   1.553261
     7  C    5.475258   5.040774   5.961109   3.904640   2.528102
     8  O    6.478611   5.919468   6.664261   4.790948   3.479466
     9  O    5.643631   5.505038   6.577791   4.537289   3.094547
    10  H    2.454418   2.030659   0.980583   3.353229   4.320937
    11  H    2.656362   2.097334   3.179008   1.093624   2.184484
    12  H    3.242703   2.099056   2.528626   1.093050   2.175242
    13  H    2.817728   2.773611   3.972401   2.165756   1.093458
    14  H    3.302273   2.718885   3.412336   2.172118   1.094433
    15  H    4.990405   4.146179   4.815446   2.799443   2.172468
    16  H    4.706928   4.207089   5.252093   2.819985   2.177033
    17  H    6.490021   6.395356   7.433713   5.482075   3.999046
                    6          7          8          9         10
     6  C    0.000000
     7  C    1.476252   0.000000
     8  O    2.377063   1.251615   0.000000
     9  O    2.459092   1.353451   2.237514   0.000000
    10  H    5.699433   6.773711   7.485091   7.298504   0.000000
    11  H    2.857269   4.221439   5.221570   4.718320   3.999003
    12  H    2.780086   4.165002   4.828410   5.055983   3.507366
    13  H    2.179628   2.777645   3.900083   2.831259   4.626476
    14  H    2.170501   2.766495   3.433147   3.409222   4.130880
    15  H    1.095635   2.111903   2.488323   3.351214   5.753665
    16  H    1.091685   2.087676   3.063566   2.724744   6.143816
    17  H    3.355061   2.035395   2.458648   0.981648   8.121866
                   11         12         13         14         15
    11  H    0.000000
    12  H    1.767679   0.000000
    13  H    2.487380   3.065064   0.000000
    14  H    3.076317   2.534948   1.770710   0.000000
    15  H    3.187454   2.548346   3.074623   2.509299   0.000000
    16  H    2.656292   3.101056   2.515882   3.070373   1.766477
    17  H    5.696761   5.976847   3.709986   4.165516   4.141522
                   16         17
    16  H    0.000000
    17  H    3.645320   0.000000
 Stoichiometry    C5H8O4
 Framework group  C1[X(C5H8O4)]
 Deg. of freedom    45
 Full point group                 C1      NOp   1
 Largest Abelian subgroup         C1      NOp   1
 Largest concise Abelian subgroup C1      NOp   1
                         Standard orientation:                         
 ---------------------------------------------------------------------
 Center     Atomic      Atomic             Coordinates (Angstroms)
 Number     Number       Type             X           Y           Z
 ---------------------------------------------------------------------
      1          8           0       -2.765615    1.303187   -0.064339
      2          6           0       -2.507881    0.081182    0.018132
      3          8           0       -3.366965   -0.798841   -0.546974
      4          6           0       -1.291265   -0.383943    0.710097
      5          6           0        0.006425    0.065694   -0.016265
      6          6           0        1.289512   -0.509550    0.643586
      7          6           0        2.529723   -0.088620   -0.037598
      8          8           0        3.296008   -0.929207   -0.559863
      9          8           0        2.877313    1.218322   -0.091588
     10          1           0       -4.160929   -0.474365   -1.022241
     11          1           0       -1.301672    0.004897    1.732207
     12          1           0       -1.314559   -1.475312    0.766026
     13          1           0        0.047864    1.158348   -0.010022
     14          1           0       -0.035451   -0.266296   -1.058288
     15          1           0        1.227843   -1.603437    0.648383
     16          1           0        1.348002   -0.175426    1.681236
     17          1           0        3.703885    1.495313   -0.542905
 ---------------------------------------------------------------------
 Rotational constants (GHZ):           4.2454636           0.5805646           0.5439991
 Leave Link  202 at Mon Feb 22 21:11:36 2021, MaxMem=   104857600 cpu:               0.8 elap:               0.1
 (Enter /sw/arch/RedHatEnterpriseServer7/EB_production/2019/software/Gaussian/g16.c01/l301.exe)
 Standard basis: TZVP (5D, 7F)
 Ernie: Thresh=  0.10000D-02 Tol=  0.10000D-05 Strict=F.
 There are   228 symmetry adapted cartesian basis functions of A   symmetry.
 There are   219 symmetry adapted basis functions of A   symmetry.
   219 basis functions,   379 primitive gaussians,   228 cartesian basis functions
    35 alpha electrons       35 beta electrons
       nuclear repulsion energy       432.8499158403 Hartrees.
 IExCor=  404 DFT=T Ex=B Corr=P86 ExCW=0 ScaHFX=  0.000000
 ScaDFX=  1.000000  1.000000  1.000000  1.000000 ScalE2=  1.000000  1.000000
 IRadAn=      5 IRanWt=     -1 IRanGd=            0 ICorTp=0 IEmpDi=131
 NAtoms=   17 NActive=   17 NUniq=   17 SFac= 1.00D+00 NAtFMM=   60 NAOKFM=F Big=F
 Integral buffers will be    131072 words long.
 Raffenetti 2 integral format.
 Two-electron integral symmetry is turned on.
 R6Disp:  Grimme-D3 Dispersion energy=       -0.0143504463 Hartrees.
 Nuclear repulsion after empirical dispersion term =      432.8355653940 Hartrees.
 ------------------------------------------------------------------------------
 Polarizable Continuum Model (PCM)
 =================================
 Model                : PCM.
 Atomic radii         : UFF (Universal Force Field).
 Polarization charges : Total charges.
 Charge compensation  : None.
 Solution method      : On-the-fly selection.
 Cavity type          : Scaled VdW (van der Waals Surface) (Alpha=1.100).
 Cavity algorithm     : GePol (No added spheres)
                        Default sphere list used, NSphG=   17.
                        Lebedev-Laikov grids with approx.  5.0 points / Ang**2.
                        Smoothing algorithm: York/Karplus (Gamma=1.0000).
                        Polarization charges: spherical gaussians, with
                                              point-specific exponents (IZeta= 3).
                        Self-potential: point-specific (ISelfS= 7).
                        Self-field    : sphere-specific E.n sum rule (ISelfD= 2).
 1st derivatives      : Analytical E(r).r(x)/FMM algorithm (CHGder, D1EAlg=3).
                        Cavity 1st derivative terms included.
 Solvent              : Water, Eps=  78.355300 Eps(inf)=   1.777849
 ------------------------------------------------------------------------------
 Spheres list:
 ISph  on   Nord     Re0    Alpha      Xe            Ye            Ze
    1   O      1    1.7500  1.100     -2.765615      1.303187     -0.064339
    2   C      2    1.9255  1.100     -2.507881      0.081182      0.018132
    3   O      3    1.7500  1.100     -3.366965     -0.798841     -0.546974
    4   C      4    1.9255  1.100     -1.291265     -0.383943      0.710097
    5   C      5    1.9255  1.100      0.006425      0.065694     -0.016265
    6   C      6    1.9255  1.100      1.289512     -0.509550      0.643586
    7   C      7    1.9255  1.100      2.529723     -0.088620     -0.037598
    8   O      8    1.7500  1.100      3.296008     -0.929207     -0.559863
    9   O      9    1.7500  1.100      2.877313      1.218322     -0.091588
   10   H     10    1.4430  1.100     -4.160929     -0.474365     -1.022241
   11   H     11    1.4430  1.100     -1.301672      0.004897      1.732207
   12   H     12    1.4430  1.100     -1.314559     -1.475312      0.766026
   13   H     13    1.4430  1.100      0.047864      1.158348     -0.010022
   14   H     14    1.4430  1.100     -0.035451     -0.266296     -1.058288
   15   H     15    1.4430  1.100      1.227843     -1.603437      0.648383
   16   H     16    1.4430  1.100      1.348002     -0.175426      1.681236
   17   H     17    1.4430  1.100      3.703885      1.495313     -0.542905
 ------------------------------------------------------------------------------
 GePol: Number of generator spheres                  =      17
 GePol: Total number of spheres                      =      17
 GePol: Number of exposed spheres                    =      17 (100.00%)
 GePol: Number of points                             =    1493
 GePol: Average weight of points                     =       0.14
 GePol: Minimum weight of points                     =   0.89D-09
 GePol: Maximum weight of points                     =    0.20577
 GePol: Number of points with low weight             =      87
 GePol: Fraction of low-weight points (<1% of avg)   =       5.83%
 GePol: Cavity surface area                          =    201.702 Ang**2
 GePol: Cavity volume                                =    190.233 Ang**3
 Leave Link  301 at Mon Feb 22 21:11:36 2021, MaxMem=   104857600 cpu:               1.9 elap:               0.1
 (Enter /sw/arch/RedHatEnterpriseServer7/EB_production/2019/software/Gaussian/g16.c01/l302.exe)
 NPDir=0 NMtPBC=     1 NCelOv=     1 NCel=       1 NClECP=     1 NCelD=      1
         NCelK=      1 NCelE2=     1 NClLst=     1 CellRange=     0.0.
 One-electron integrals computed using PRISM.
 One-electron integral symmetry used in STVInt
 PrsmSu:  requested number of processors reduced to:  29 ShMem   1 Linda.
 NBasis=   219 RedAO= T EigKep=  1.55D-04  NBF=   219
 NBsUse=   219 1.00D-06 EigRej= -1.00D+00 NBFU=   219
 Precomputing XC quadrature grid using
 IXCGrd= 4 IRadAn=           5 IRanWt=          -1 IRanGd=           0 AccXCQ= 0.00D+00.
 Generated NRdTot=       0 NPtTot=           0 NUsed=           0 NTot=          32
 NSgBfM=   227   226   226   226   227 MxSgAt=    17 MxSgA2=    17.
 Leave Link  302 at Mon Feb 22 21:11:36 2021, MaxMem=   104857600 cpu:               6.1 elap:               0.2
 (Enter /sw/arch/RedHatEnterpriseServer7/EB_production/2019/software/Gaussian/g16.c01/l303.exe)
 DipDrv:  MaxL=1.
 Leave Link  303 at Mon Feb 22 21:11:36 2021, MaxMem=   104857600 cpu:               1.1 elap:               0.1
 (Enter /sw/arch/RedHatEnterpriseServer7/EB_production/2019/software/Gaussian/g16.c01/l401.exe)
 ExpMin= 9.52D-02 ExpMax= 2.70D+04 ExpMxC= 9.22D+02 IAcc=3 IRadAn=         5 AccDes= 0.00D+00
 Harris functional with IExCor=  404 and IRadAn=       5 diagonalized for initial guess.
 HarFok:  IExCor=  404 AccDes= 0.00D+00 IRadAn=         5 IDoV= 1 UseB2=F ITyADJ=14
 ICtDFT=  3500011 ScaDFX=  1.000000  1.000000  1.000000  1.000000
 FoFCou: FMM=F IPFlag=           0 FMFlag=      100000 FMFlg1=           0
         NFxFlg=           0 DoJE=T BraDBF=F KetDBF=T FulRan=T
         wScrn=  0.000000 ICntrl=       500 IOpCl=  0 I1Cent=   200000004 NGrid=           0
         NMat0=    1 NMatS0=      1 NMatT0=    0 NMatD0=    1 NMtDS0=    0 NMtDT0=    0
 Petite list used in FoFCou.
 Harris En= -496.626152998919    
 JPrj=0 DoOrth=F DoCkMO=F.
 Leave Link  401 at Mon Feb 22 21:11:37 2021, MaxMem=   104857600 cpu:              10.9 elap:               0.4
 (Enter /sw/arch/RedHatEnterpriseServer7/EB_production/2019/software/Gaussian/g16.c01/l502.exe)
 Integral symmetry usage will be decided dynamically.
 Closed shell SCF:
 Using DIIS extrapolation, IDIIS=  1040.
 NGot=   104857600 LenX=   104743552 LenY=   104691127
 Requested convergence on RMS density matrix=1.00D-08 within 128 cycles.
 Requested convergence on MAX density matrix=1.00D-06.
 Requested convergence on             energy=1.00D-06.
 No special actions if energy rises.
 Fock matrices will be formed incrementally for  20 cycles.

 Cycle   1  Pass 1  IDiag  1:
 FoFJK:  IHMeth= 1 ICntrl=     500 DoSepK=F KAlg= 0 I1Cent=           0 FoldK=F
 IRaf= 890000000 NMat=       1 IRICut=       1 DoRegI=T DoRafI=F ISym2E= 0 IDoP0=0 IntGTp=1.
 FoFCou: FMM=F IPFlag=           0 FMFlag=      100000 FMFlg1=           0
         NFxFlg=           0 DoJE=T BraDBF=F KetDBF=F FulRan=T
         wScrn=  0.000000 ICntrl=       500 IOpCl=  0 I1Cent=           0 NGrid=           0
         NMat0=    1 NMatS0=      1 NMatT0=    0 NMatD0=    1 NMtDS0=    0 NMtDT0=    0
 Symmetry not used in FoFCou.
 Inv3:  Mode=1 IEnd=     6687147.
 Iteration    1 A*A^-1 deviation from unit magnitude is 3.11D-15 for   1268.
 Iteration    1 A*A^-1 deviation from orthogonality  is 2.44D-15 for   1390    182.
 Iteration    1 A^-1*A deviation from unit magnitude is 2.89D-15 for    213.
 Iteration    1 A^-1*A deviation from orthogonality  is 1.78D-15 for   1407    158.
 E= -496.200757148901    
 DIIS: error= 3.49D-02 at cycle   1 NSaved=   1.
 NSaved= 1 IEnMin= 1 EnMin= -496.200757148901     IErMin= 1 ErrMin= 3.49D-02
 ErrMax= 3.49D-02  0.00D+00 EMaxC= 1.00D-01 BMatC= 3.60D-01 BMatP= 3.60D-01
 IDIUse=3 WtCom= 6.51D-01 WtEn= 3.49D-01
 Coeff-Com:  0.100D+01
 Coeff-En:   0.100D+01
 Coeff:      0.100D+01
 Gap=     0.053 Goal=   None    Shift=    0.000
 GapD=    0.053 DampG=0.500 DampE=0.500 DampFc=0.2500 IDamp=-1.
 Damping current iteration by 2.50D-01
 RMSDP=1.02D-02 MaxDP=6.45D-01              OVMax= 3.27D-01

 Cycle   2  Pass 1  IDiag  1:
 RMSU=  2.56D-03    CP:  1.00D+00
 E= -496.294054010190     Delta-E=       -0.093296861290 Rises=F Damp=T
 DIIS: error= 1.31D-02 at cycle   2 NSaved=   2.
 NSaved= 2 IEnMin= 2 EnMin= -496.294054010190     IErMin= 2 ErrMin= 1.31D-02
 ErrMax= 1.31D-02  0.00D+00 EMaxC= 1.00D-01 BMatC= 3.99D-02 BMatP= 3.60D-01
 IDIUse=3 WtCom= 8.69D-01 WtEn= 1.31D-01
 Coeff-Com: -0.249D+00 0.125D+01
 Coeff-En:   0.838D-01 0.916D+00
 Coeff:     -0.205D+00 0.121D+01
 Gap=     0.153 Goal=   None    Shift=    0.000
 RMSDP=1.87D-03 MaxDP=4.39D-02 DE=-9.33D-02 OVMax= 2.77D-01

 Cycle   3  Pass 1  IDiag  1:
 RMSU=  1.86D-03    CP:  9.94D-01  9.33D-01
 E= -496.398685760173     Delta-E=       -0.104631749983 Rises=F Damp=F
 DIIS: error= 2.23D-02 at cycle   3 NSaved=   3.
 NSaved= 3 IEnMin= 3 EnMin= -496.398685760173     IErMin= 2 ErrMin= 1.31D-02
 ErrMax= 2.23D-02  0.00D+00 EMaxC= 1.00D-01 BMatC= 1.06D-01 BMatP= 3.99D-02
 IDIUse=2 WtCom= 0.00D+00 WtEn= 1.00D+00
 EnCoef did   100 forward-backward iterations
 Coeff-En:   0.739D-01 0.401D-02 0.922D+00
 Coeff:      0.739D-01 0.401D-02 0.922D+00
 Gap=     0.116 Goal=   None    Shift=    0.000
 RMSDP=4.64D-03 MaxDP=1.72D-01 DE=-1.05D-01 OVMax= 3.66D-01

 Cycle   4  Pass 1  IDiag  1:
 RMSU=  2.00D-03    CP:  1.01D+00  2.05D+00 -6.47D-01
 E= -495.760958319629     Delta-E=        0.637727440544 Rises=F Damp=F
 DIIS: error= 5.92D-02 at cycle   4 NSaved=   4.
 NSaved= 4 IEnMin= 3 EnMin= -496.398685760173     IErMin= 2 ErrMin= 1.31D-02
 ErrMax= 5.92D-02  0.00D+00 EMaxC= 1.00D-01 BMatC= 9.27D-01 BMatP= 3.99D-02
 IDIUse=2 WtCom= 0.00D+00 WtEn= 1.00D+00
 Coeff-En:   0.000D+00 0.000D+00 0.833D+00 0.167D+00
 Coeff:      0.000D+00 0.000D+00 0.833D+00 0.167D+00
 Gap=     0.146 Goal=   None    Shift=    0.000
 RMSDP=3.11D-03 MaxDP=1.60D-01 DE= 6.38D-01 OVMax= 2.10D-01

 Cycle   5  Pass 1  IDiag  1:
 RMSU=  4.28D-04    CP:  1.00D+00  1.04D+00  9.77D-02  5.36D-01
 E= -496.414645925141     Delta-E=       -0.653687605511 Rises=F Damp=F
 DIIS: error= 1.77D-02 at cycle   5 NSaved=   5.
 NSaved= 5 IEnMin= 5 EnMin= -496.414645925141     IErMin= 2 ErrMin= 1.31D-02
 ErrMax= 1.77D-02  0.00D+00 EMaxC= 1.00D-01 BMatC= 9.14D-02 BMatP= 3.99D-02
 IDIUse=2 WtCom= 0.00D+00 WtEn= 1.00D+00
 Coeff-En:   0.000D+00 0.000D+00 0.464D+00 0.000D+00 0.536D+00
 Coeff:      0.000D+00 0.000D+00 0.464D+00 0.000D+00 0.536D+00
 Gap=     0.165 Goal=   None    Shift=    0.000
 RMSDP=9.65D-04 MaxDP=2.35D-02 DE=-6.54D-01 OVMax= 7.90D-02

 Cycle   6  Pass 1  IDiag  1:
 RMSU=  2.32D-04    CP:  1.00D+00  9.94D-01  5.04D-01  2.68D-01  8.57D-01
 E= -496.482465757120     Delta-E=       -0.067819831979 Rises=F Damp=F
 DIIS: error= 3.32D-03 at cycle   6 NSaved=   6.
 NSaved= 6 IEnMin= 6 EnMin= -496.482465757120     IErMin= 6 ErrMin= 3.32D-03
 ErrMax= 3.32D-03  0.00D+00 EMaxC= 1.00D-01 BMatC= 3.31D-03 BMatP= 3.99D-02
 IDIUse=3 WtCom= 9.67D-01 WtEn= 3.32D-02
 Coeff-Com: -0.459D-01 0.836D-01 0.266D+00-0.434D-01 0.408D+00 0.332D+00
 Coeff-En:   0.000D+00 0.000D+00 0.000D+00 0.000D+00 0.000D+00 0.100D+01
 Coeff:     -0.444D-01 0.808D-01 0.257D+00-0.419D-01 0.394D+00 0.354D+00
 Gap=     0.168 Goal=   None    Shift=    0.000
 RMSDP=1.74D-04 MaxDP=4.48D-03 DE=-6.78D-02 OVMax= 1.34D-02

 Cycle   7  Pass 1  IDiag  1:
 RMSU=  7.36D-05    CP:  1.00D+00  9.72D-01  4.91D-01  2.95D-01  8.00D-01
                    CP:  4.27D-01
 E= -496.484720993665     Delta-E=       -0.002255236545 Rises=F Damp=F
 DIIS: error= 6.74D-04 at cycle   7 NSaved=   7.
 NSaved= 7 IEnMin= 7 EnMin= -496.484720993665     IErMin= 7 ErrMin= 6.74D-04
 ErrMax= 6.74D-04  0.00D+00 EMaxC= 1.00D-01 BMatC= 1.13D-04 BMatP= 3.31D-03
 IDIUse=3 WtCom= 9.93D-01 WtEn= 6.74D-03
 Coeff-Com: -0.542D-02 0.869D-02 0.729D-01-0.168D-01 0.126D+00 0.222D+00
 Coeff-Com:  0.593D+00
 Coeff-En:   0.000D+00 0.000D+00 0.000D+00 0.000D+00 0.000D+00 0.000D+00
 Coeff-En:   0.100D+01
 Coeff:     -0.538D-02 0.863D-02 0.725D-01-0.167D-01 0.125D+00 0.220D+00
 Coeff:      0.596D+00
 Gap=     0.168 Goal=   None    Shift=    0.000
 RMSDP=3.62D-05 MaxDP=8.55D-04 DE=-2.26D-03 OVMax= 1.79D-03

 Cycle   8  Pass 1  IDiag  1:
 RMSU=  2.35D-05    CP:  1.00D+00  9.73D-01  4.94D-01  2.90D-01  8.08D-01
                    CP:  4.76D-01  7.05D-01
 E= -496.484795905395     Delta-E=       -0.000074911730 Rises=F Damp=F
 DIIS: error= 1.81D-04 at cycle   8 NSaved=   8.
 NSaved= 8 IEnMin= 8 EnMin= -496.484795905395     IErMin= 8 ErrMin= 1.81D-04
 ErrMax= 1.81D-04  0.00D+00 EMaxC= 1.00D-01 BMatC= 1.14D-05 BMatP= 1.13D-04
 IDIUse=3 WtCom= 9.98D-01 WtEn= 1.81D-03
 Coeff-Com:  0.590D-02-0.956D-02 0.132D-01-0.274D-02 0.208D-01 0.962D-01
 Coeff-Com:  0.347D+00 0.530D+00
 Coeff-En:   0.000D+00 0.000D+00 0.000D+00 0.000D+00 0.000D+00 0.000D+00
 Coeff-En:   0.000D+00 0.100D+01
 Coeff:      0.589D-02-0.954D-02 0.132D-01-0.274D-02 0.208D-01 0.960D-01
 Coeff:      0.346D+00 0.530D+00
 Gap=     0.168 Goal=   None    Shift=    0.000
 RMSDP=2.03D-05 MaxDP=1.20D-03 DE=-7.49D-05 OVMax= 8.27D-04

 Cycle   9  Pass 1  IDiag  1:
 RMSU=  7.80D-06    CP:  1.00D+00  9.68D-01  4.96D-01  2.88D-01  8.04D-01
                    CP:  4.97D-01  7.50D-01  5.88D-01
 E= -496.484805004228     Delta-E=       -0.000009098833 Rises=F Damp=F
 DIIS: error= 7.31D-05 at cycle   9 NSaved=   9.
 NSaved= 9 IEnMin= 9 EnMin= -496.484805004228     IErMin= 9 ErrMin= 7.31D-05
 ErrMax= 7.31D-05  0.00D+00 EMaxC= 1.00D-01 BMatC= 1.07D-06 BMatP= 1.14D-05
 IDIUse=1 WtCom= 1.00D+00 WtEn= 0.00D+00
 Coeff-Com:  0.397D-02-0.607D-02 0.602D-02-0.123D-02 0.860D-02 0.529D-01
 Coeff-Com:  0.201D+00 0.344D+00 0.391D+00
 Coeff:      0.397D-02-0.607D-02 0.602D-02-0.123D-02 0.860D-02 0.529D-01
 Coeff:      0.201D+00 0.344D+00 0.391D+00
 Gap=     0.168 Goal=   None    Shift=    0.000
 RMSDP=5.06D-06 MaxDP=1.96D-04 DE=-9.10D-06 OVMax= 4.25D-04

 Cycle  10  Pass 1  IDiag  1:
 RMSU=  3.85D-06    CP:  1.00D+00  9.68D-01  4.96D-01  2.88D-01  8.05D-01
                    CP:  4.97D-01  7.50D-01  6.32D-01  6.11D-01
 E= -496.484805608537     Delta-E=       -0.000000604309 Rises=F Damp=F
 DIIS: error= 3.66D-05 at cycle  10 NSaved=  10.
 NSaved=10 IEnMin=10 EnMin= -496.484805608537     IErMin=10 ErrMin= 3.66D-05
 ErrMax= 3.66D-05  0.00D+00 EMaxC= 1.00D-01 BMatC= 2.54D-07 BMatP= 1.07D-06
 IDIUse=1 WtCom= 1.00D+00 WtEn= 0.00D+00
 Coeff-Com:  0.142D-02-0.191D-02 0.166D-02-0.350D-03 0.184D-02 0.150D-01
 Coeff-Com:  0.594D-01 0.112D+00 0.313D+00 0.498D+00
 Coeff:      0.142D-02-0.191D-02 0.166D-02-0.350D-03 0.184D-02 0.150D-01
 Coeff:      0.594D-01 0.112D+00 0.313D+00 0.498D+00
 Gap=     0.168 Goal=   None    Shift=    0.000
 RMSDP=2.07D-06 MaxDP=7.67D-05 DE=-6.04D-07 OVMax= 1.69D-04

 Cycle  11  Pass 1  IDiag  1:
 RMSU=  8.14D-07    CP:  1.00D+00  9.68D-01  4.96D-01  2.88D-01  8.05D-01
                    CP:  4.97D-01  7.52D-01  6.31D-01  6.93D-01  5.62D-01
 E= -496.484805792050     Delta-E=       -0.000000183513 Rises=F Damp=F
 DIIS: error= 6.60D-06 at cycle  11 NSaved=  11.
 NSaved=11 IEnMin=11 EnMin= -496.484805792050     IErMin=11 ErrMin= 6.60D-06
 ErrMax= 6.60D-06  0.00D+00 EMaxC= 1.00D-01 BMatC= 1.92D-08 BMatP= 2.54D-07
 IDIUse=1 WtCom= 1.00D+00 WtEn= 0.00D+00
 Coeff-Com:  0.543D-03-0.629D-03 0.647D-03-0.148D-03 0.598D-03 0.488D-02
 Coeff-Com:  0.204D-01 0.389D-01 0.160D+00 0.314D+00 0.461D+00
 Coeff:      0.543D-03-0.629D-03 0.647D-03-0.148D-03 0.598D-03 0.488D-02
 Coeff:      0.204D-01 0.389D-01 0.160D+00 0.314D+00 0.461D+00
 Gap=     0.168 Goal=   None    Shift=    0.000
 RMSDP=4.39D-07 MaxDP=1.11D-05 DE=-1.84D-07 OVMax= 2.94D-05

 Cycle  12  Pass 1  IDiag  1:
 RMSU=  3.12D-07    CP:  1.00D+00  9.68D-01  4.96D-01  2.88D-01  8.05D-01
                    CP:  4.97D-01  7.52D-01  6.30D-01  6.86D-01  5.91D-01
                    CP:  6.82D-01
 E= -496.484805791773     Delta-E=        0.000000000276 Rises=F Damp=F
 DIIS: error= 2.37D-06 at cycle  12 NSaved=  12.
 NSaved=12 IEnMin=11 EnMin= -496.484805792050     IErMin=12 ErrMin= 2.37D-06
 ErrMax= 2.37D-06  0.00D+00 EMaxC= 1.00D-01 BMatC= 1.46D-09 BMatP= 1.92D-08
 IDIUse=1 WtCom= 1.00D+00 WtEn= 0.00D+00
 Coeff-Com:  0.114D-03-0.107D-03 0.138D-03-0.286D-04 0.881D-04 0.485D-03
 Coeff-Com:  0.258D-02 0.393D-02 0.395D-01 0.980D-01 0.243D+00 0.612D+00
 Coeff:      0.114D-03-0.107D-03 0.138D-03-0.286D-04 0.881D-04 0.485D-03
 Coeff:      0.258D-02 0.393D-02 0.395D-01 0.980D-01 0.243D+00 0.612D+00
 Gap=     0.168 Goal=   None    Shift=    0.000
 RMSDP=1.62D-07 MaxDP=3.60D-06 DE= 2.76D-10 OVMax= 7.74D-06

 Cycle  13  Pass 1  IDiag  1:
 RMSU=  1.01D-07    CP:  1.00D+00  9.68D-01  4.96D-01  2.88D-01  8.04D-01
                    CP:  4.97D-01  7.52D-01  6.29D-01  6.87D-01  5.95D-01
                    CP:  6.94D-01  6.98D-01
 E= -496.484805792697     Delta-E=       -0.000000000924 Rises=F Damp=F
 DIIS: error= 7.34D-07 at cycle  13 NSaved=  13.
 NSaved=13 IEnMin=13 EnMin= -496.484805792697     IErMin=13 ErrMin= 7.34D-07
 ErrMax= 7.34D-07  0.00D+00 EMaxC= 1.00D-01 BMatC= 2.31D-10 BMatP= 1.46D-09
 IDIUse=1 WtCom= 1.00D+00 WtEn= 0.00D+00
 Coeff-Com:  0.377D-04-0.334D-04 0.443D-04-0.658D-05 0.175D-04-0.367D-04
 Coeff-Com:  0.166D-03-0.533D-03 0.123D-01 0.372D-01 0.117D+00 0.393D+00
 Coeff-Com:  0.441D+00
 Coeff:      0.377D-04-0.334D-04 0.443D-04-0.658D-05 0.175D-04-0.367D-04
 Coeff:      0.166D-03-0.533D-03 0.123D-01 0.372D-01 0.117D+00 0.393D+00
 Coeff:      0.441D+00
 Gap=     0.168 Goal=   None    Shift=    0.000
 RMSDP=4.97D-08 MaxDP=1.13D-06 DE=-9.24D-10 OVMax= 2.69D-06

 Cycle  14  Pass 1  IDiag  1:
 RMSU=  4.12D-08    CP:  1.00D+00  9.68D-01  4.96D-01  2.88D-01  8.04D-01
                    CP:  4.97D-01  7.52D-01  6.29D-01  6.87D-01  5.96D-01
                    CP:  6.93D-01  7.27D-01  7.88D-01
 E= -496.484805792867     Delta-E=       -0.000000000171 Rises=F Damp=F
 DIIS: error= 1.55D-07 at cycle  14 NSaved=  14.
 NSaved=14 IEnMin=14 EnMin= -496.484805792867     IErMin=14 ErrMin= 1.55D-07
 ErrMax= 1.55D-07  0.00D+00 EMaxC= 1.00D-01 BMatC= 8.82D-12 BMatP= 2.31D-10
 IDIUse=1 WtCom= 1.00D+00 WtEn= 0.00D+00
 Coeff-Com:  0.287D-05-0.778D-06 0.749D-05-0.896D-06 0.196D-05-0.630D-04
 Coeff-Com: -0.179D-03-0.579D-03 0.701D-03 0.409D-02 0.193D-01 0.906D-01
 Coeff-Com:  0.182D+00 0.704D+00
 Coeff:      0.287D-05-0.778D-06 0.749D-05-0.896D-06 0.196D-05-0.630D-04
 Coeff:     -0.179D-03-0.579D-03 0.701D-03 0.409D-02 0.193D-01 0.906D-01
 Coeff:      0.182D+00 0.704D+00
 Gap=     0.168 Goal=   None    Shift=    0.000
 RMSDP=1.60D-08 MaxDP=4.01D-07 DE=-1.71D-10 OVMax= 5.44D-07

 Cycle  15  Pass 1  IDiag  1:
 RMSU=  9.75D-09    CP:  1.00D+00  9.68D-01  4.96D-01  2.88D-01  8.04D-01
                    CP:  4.97D-01  7.52D-01  6.29D-01  6.86D-01  5.95D-01
                    CP:  6.99D-01  7.46D-01  7.90D-01  8.16D-01
 E= -496.484805792872     Delta-E=       -0.000000000004 Rises=F Damp=F
 DIIS: error= 2.50D-08 at cycle  15 NSaved=  15.
 NSaved=15 IEnMin=15 EnMin= -496.484805792872     IErMin=15 ErrMin= 2.50D-08
 ErrMax= 2.50D-08  0.00D+00 EMaxC= 1.00D-01 BMatC= 1.79D-13 BMatP= 8.82D-12
 IDIUse=1 WtCom= 1.00D+00 WtEn= 0.00D+00
 Coeff-Com: -0.258D-06 0.548D-06 0.901D-06-0.786D-07 0.109D-06-0.115D-04
 Coeff-Com: -0.458D-04-0.108D-03-0.281D-03-0.351D-03 0.597D-03 0.850D-02
 Coeff-Com:  0.305D-01 0.191D+00 0.770D+00
 Coeff:     -0.258D-06 0.548D-06 0.901D-06-0.786D-07 0.109D-06-0.115D-04
 Coeff:     -0.458D-04-0.108D-03-0.281D-03-0.351D-03 0.597D-03 0.850D-02
 Coeff:      0.305D-01 0.191D+00 0.770D+00
 Gap=     0.168 Goal=   None    Shift=    0.000
 RMSDP=3.25D-09 MaxDP=8.41D-08 DE=-4.26D-12 OVMax= 1.08D-07

 Error on total polarization charges =  0.01011
 SCF Done:  E(RB-P86) =  -496.484805793     A.U. after   15 cycles
            NFock= 15  Conv=0.33D-08     -V/T= 2.0044
 KE= 4.942973361999D+02 PE=-2.030142868322D+03 EE= 6.065251609348D+02
 Leave Link  502 at Mon Feb 22 21:11:48 2021, MaxMem=   104857600 cpu:             349.3 elap:              11.2
 (Enter /sw/arch/RedHatEnterpriseServer7/EB_production/2019/software/Gaussian/g16.c01/l601.exe)
 Copying SCF densities to generalized density rwf, IOpCl= 0 IROHF=0.

 **********************************************************************

            Population analysis using the SCF Density.

 **********************************************************************

 Orbital symmetries:
       Occupied  (A) (A) (A) (A) (A) (A) (A) (A) (A) (A) (A) (A)
                 (A) (A) (A) (A) (A) (A) (A) (A) (A) (A) (A) (A)
                 (A) (A) (A) (A) (A) (A) (A) (A) (A) (A) (A)
       Virtual   (A) (A) (A) (A) (A) (A) (A) (A) (A) (A) (A) (A)
                 (A) (A) (A) (A) (A) (A) (A) (A) (A) (A) (A) (A)
                 (A) (A) (A) (A) (A) (A) (A) (A) (A) (A) (A) (A)
                 (A) (A) (A) (A) (A) (A) (A) (A) (A) (A) (A) (A)
                 (A) (A) (A) (A) (A) (A) (A) (A) (A) (A) (A) (A)
                 (A) (A) (A) (A) (A) (A) (A) (A) (A) (A) (A) (A)
                 (A) (A) (A) (A) (A) (A) (A) (A) (A) (A) (A) (A)
                 (A) (A) (A) (A) (A) (A) (A) (A) (A) (A) (A) (A)
                 (A) (A) (A) (A) (A) (A) (A) (A) (A) (A) (A) (A)
                 (A) (A) (A) (A) (A) (A) (A) (A) (A) (A) (A) (A)
                 (A) (A) (A) (A) (A) (A) (A) (A) (A) (A) (A) (A)
                 (A) (A) (A) (A) (A) (A) (A) (A) (A) (A) (A) (A)
                 (A) (A) (A) (A) (A) (A) (A) (A) (A) (A) (A) (A)
                 (A) (A) (A) (A) (A) (A) (A) (A) (A) (A) (A) (A)
                 (A) (A) (A) (A) (A) (A) (A) (A) (A) (A) (A) (A)
                 (A) (A) (A) (A)
 The electronic state is 1-A.
 Alpha  occ. eigenvalues --  -18.82477 -18.82378 -18.76130 -18.76058 -10.03969
 Alpha  occ. eigenvalues --  -10.03905  -9.92522  -9.92454  -9.92415  -1.01952
 Alpha  occ. eigenvalues --   -1.01912  -0.92541  -0.92503  -0.75584  -0.70081
 Alpha  occ. eigenvalues --   -0.61910  -0.58160  -0.55777  -0.47544  -0.45387
 Alpha  occ. eigenvalues --   -0.43725  -0.43034  -0.42580  -0.41510  -0.39714
 Alpha  occ. eigenvalues --   -0.37221  -0.35194  -0.34796  -0.33314  -0.32788
 Alpha  occ. eigenvalues --   -0.31686  -0.28731  -0.28469  -0.23854  -0.23601
 Alpha virt. eigenvalues --   -0.06809  -0.04840   0.00855   0.01584   0.04413
 Alpha virt. eigenvalues --    0.06182   0.06430   0.07160   0.09887   0.10740
 Alpha virt. eigenvalues --    0.11019   0.13001   0.13771   0.15805   0.17214
 Alpha virt. eigenvalues --    0.17452   0.19323   0.20090   0.20699   0.23634
 Alpha virt. eigenvalues --    0.24926   0.25348   0.26051   0.27583   0.29662
 Alpha virt. eigenvalues --    0.29978   0.31757   0.32779   0.35143   0.35506
 Alpha virt. eigenvalues --    0.36057   0.37295   0.38368   0.38937   0.39818
 Alpha virt. eigenvalues --    0.40829   0.41258   0.42354   0.43254   0.43602
 Alpha virt. eigenvalues --    0.44839   0.45313   0.46417   0.46816   0.48029
 Alpha virt. eigenvalues --    0.48450   0.50162   0.51095   0.53210   0.55075
 Alpha virt. eigenvalues --    0.56741   0.57382   0.58715   0.61654   0.62353
 Alpha virt. eigenvalues --    0.65492   0.70016   0.72452   0.75815   0.78473
 Alpha virt. eigenvalues --    0.86347   0.87088   1.04804   1.09087   1.14885
 Alpha virt. eigenvalues --    1.16712   1.19126   1.21653   1.23830   1.24417
 Alpha virt. eigenvalues --    1.25607   1.27530   1.29518   1.30056   1.31432
 Alpha virt. eigenvalues --    1.32075   1.33987   1.35747   1.37621   1.39394
 Alpha virt. eigenvalues --    1.41509   1.43292   1.44271   1.46199   1.47496
 Alpha virt. eigenvalues --    1.49977   1.52255   1.54045   1.54429   1.55882
 Alpha virt. eigenvalues --    1.58634   1.59226   1.59856   1.64470   1.66976
 Alpha virt. eigenvalues --    1.71847   1.74711   1.76341   1.76947   1.77689
 Alpha virt. eigenvalues --    1.80847   1.88659   1.90219   1.92458   1.93463
 Alpha virt. eigenvalues --    1.93493   2.04203   2.05185   2.06153   2.08727
 Alpha virt. eigenvalues --    2.11244   2.15010   2.16725   2.18150   2.19732
 Alpha virt. eigenvalues --    2.23743   2.28420   2.29760   2.33850   2.39360
 Alpha virt. eigenvalues --    2.43069   2.44281   2.45741   2.45971   2.47683
 Alpha virt. eigenvalues --    2.50052   2.50901   2.51883   2.52131   2.53230
 Alpha virt. eigenvalues --    2.53435   2.55596   2.56006   2.56283   2.57589
 Alpha virt. eigenvalues --    2.58312   2.60580   2.61101   2.62609   2.63260
 Alpha virt. eigenvalues --    2.65591   2.67076   2.68622   2.72042   2.76171
 Alpha virt. eigenvalues --    2.76774   2.80751   2.83365   2.86839   2.88473
 Alpha virt. eigenvalues --    2.89309   2.92580   2.95310   3.01415   3.01800
 Alpha virt. eigenvalues --    3.02237   3.07474   3.07949   3.10590   3.13827
 Alpha virt. eigenvalues --    3.15833   3.23575   3.28523   3.30531   3.31558
 Alpha virt. eigenvalues --    3.31973   3.35002   3.44787   3.46192   3.81360
 Alpha virt. eigenvalues --    3.83556   4.00047   4.00441   4.17620   4.17945
 Alpha virt. eigenvalues --   21.63913  21.65677  21.75970  21.79946  21.82269
 Alpha virt. eigenvalues --   43.02783  43.04420  43.10627  43.11844
          Condensed to atoms (all electrons):
               1          2          3          4          5          6
     1  O    8.011371   0.592418  -0.126465  -0.122794  -0.004862  -0.000509
     2  C    0.592418   4.851409   0.358041   0.080193  -0.026341  -0.004008
     3  O   -0.126465   0.358041   7.865887  -0.110559  -0.010483  -0.000759
     4  C   -0.122794   0.080193  -0.110559   5.532799   0.205439  -0.000867
     5  C   -0.004862  -0.026341  -0.010483   0.205439   5.369541   0.121138
     6  C   -0.000509  -0.004008  -0.000759  -0.000867   0.121138   5.612374
     7  C    0.000077  -0.000860  -0.000027  -0.006967  -0.026229   0.087028
     8  O   -0.000000  -0.000003   0.000000  -0.001266  -0.006318  -0.137263
     9  O   -0.000002   0.000087   0.000000  -0.001884   0.015150  -0.132783
    10  H    0.002105  -0.022513   0.290532   0.016487  -0.000494   0.000050
    11  H   -0.005504  -0.018596  -0.000189   0.403565  -0.024269  -0.008847
    12  H    0.008997  -0.020612   0.014676   0.351764  -0.035866  -0.003719
    13  H    0.013938  -0.007894   0.001793  -0.027132   0.378743  -0.020791
    14  H   -0.001331   0.004578   0.001433  -0.049609   0.407687  -0.055501
    15  H   -0.000008  -0.000702   0.000019  -0.000376  -0.030887   0.430848
    16  H    0.000059   0.000480  -0.000002  -0.015358  -0.032736   0.345552
    17  H    0.000000  -0.000005   0.000000   0.000124   0.000074   0.013484
               7          8          9         10         11         12
     1  O    0.000077  -0.000000  -0.000002   0.002105  -0.005504   0.008997
     2  C   -0.000860  -0.000003   0.000087  -0.022513  -0.018596  -0.020612
     3  O   -0.000027   0.000000   0.000000   0.290532  -0.000189   0.014676
     4  C   -0.006967  -0.001266  -0.001884   0.016487   0.403565   0.351764
     5  C   -0.026229  -0.006318   0.015150  -0.000494  -0.024269  -0.035866
     6  C    0.087028  -0.137263  -0.132783   0.000050  -0.008847  -0.003719
     7  C    4.840427   0.632297   0.337115  -0.000000   0.001500  -0.002106
     8  O    0.632297   7.986709  -0.129880   0.000000   0.000043  -0.000133
     9  O    0.337115  -0.129880   7.892108   0.000000   0.000108  -0.000042
    10  H   -0.000000   0.000000   0.000000   0.379513  -0.000369  -0.000809
    11  H    0.001500   0.000043   0.000108  -0.000369   0.479497  -0.021097
    12  H   -0.002106  -0.000133  -0.000042  -0.000809  -0.021097   0.550783
    13  H   -0.013072   0.000283   0.004869  -0.000030  -0.004129   0.008046
    14  H    0.016440   0.003542  -0.000443  -0.000133   0.005292  -0.003837
    15  H   -0.060129   0.008187   0.004647   0.000003   0.000010   0.002900
    16  H    0.013796   0.004007   0.005251  -0.000001   0.003377  -0.000511
    17  H   -0.018926   0.001972   0.290392  -0.000000  -0.000005   0.000003
              13         14         15         16         17
     1  O    0.013938  -0.001331  -0.000008   0.000059   0.000000
     2  C   -0.007894   0.004578  -0.000702   0.000480  -0.000005
     3  O    0.001793   0.001433   0.000019  -0.000002   0.000000
     4  C   -0.027132  -0.049609  -0.000376  -0.015358   0.000124
     5  C    0.378743   0.407687  -0.030887  -0.032736   0.000074
     6  C   -0.020791  -0.055501   0.430848   0.345552   0.013484
     7  C   -0.013072   0.016440  -0.060129   0.013796  -0.018926
     8  O    0.000283   0.003542   0.008187   0.004007   0.001972
     9  O    0.004869  -0.000443   0.004647   0.005251   0.290392
    10  H   -0.000030  -0.000133   0.000003  -0.000001  -0.000000
    11  H   -0.004129   0.005292   0.000010   0.003377  -0.000005
    12  H    0.008046  -0.003837   0.002900  -0.000511   0.000003
    13  H    0.519097  -0.019090   0.004986  -0.003437  -0.000156
    14  H   -0.019090   0.530876  -0.003162   0.007158  -0.000201
    15  H    0.004986  -0.003162   0.491961  -0.018660  -0.000354
    16  H   -0.003437   0.007158  -0.018660   0.515085  -0.000484
    17  H   -0.000156  -0.000201  -0.000354  -0.000484   0.375768
 Mulliken charges:
               1
     1  O   -0.367488
     2  C    0.214327
     3  O   -0.283897
     4  C   -0.253561
     5  C   -0.299287
     6  C   -0.245426
     7  C    0.199635
     8  O   -0.362176
     9  O   -0.284695
    10  H    0.335660
    11  H    0.189613
    12  H    0.151563
    13  H    0.163977
    14  H    0.156302
    15  H    0.170717
    16  H    0.176422
    17  H    0.338315
 Sum of Mulliken charges =  -0.00000
 Mulliken charges with hydrogens summed into heavy atoms:
               1
     1  O   -0.367488
     2  C    0.214327
     3  O    0.051762
     4  C    0.087615
     5  C    0.020992
     6  C    0.101713
     7  C    0.199635
     8  O   -0.362176
     9  O    0.053620
 Electronic spatial extent (au):  <R**2>=           1932.1323
 Charge=             -0.0000 electrons
 Dipole moment (field-independent basis, Debye):
    X=             -1.0491    Y=             -0.4529    Z=              0.8830  Tot=              1.4441
 Quadrupole moment (field-independent basis, Debye-Ang):
   XX=            -52.4260   YY=            -59.8423   ZZ=            -49.2841
   XY=             16.9504   XZ=              4.9279   YZ=             -3.2442
 Traceless Quadrupole moment (field-independent basis, Debye-Ang):
   XX=              1.4248   YY=             -5.9915   ZZ=              4.5667
   XY=             16.9504   XZ=              4.9279   YZ=             -3.2442
 Octapole moment (field-independent basis, Debye-Ang**2):
  XXX=            -48.7295  YYY=              0.2943  ZZZ=             -2.2940  XYY=             16.6226
  XXY=             26.3804  XXZ=            -18.7412  XZZ=             -8.0818  YZZ=              2.0820
  YYZ=             -0.9261  XYZ=            -12.5333
 Hexadecapole moment (field-independent basis, Debye-Ang**3):
 XXXX=          -1649.7442 YYYY=           -265.0851 ZZZZ=           -126.4795 XXXY=            261.7100
 XXXZ=            109.6515 YYYX=             45.4345 YYYZ=             -7.5725 ZZZX=             12.3106
 ZZZY=              2.4726 XXYY=           -409.6278 XXZZ=           -311.7503 YYZZ=            -67.0632
 XXYZ=            -31.3878 YYXZ=             -7.1519 ZZXY=             12.1946
 N-N= 4.328355653940D+02 E-N=-2.030142867327D+03  KE= 4.942973361999D+02
 No NMR shielding tensors so no spin-rotation constants.
 Leave Link  601 at Mon Feb 22 21:11:48 2021, MaxMem=   104857600 cpu:               3.7 elap:               0.2
 (Enter /sw/arch/RedHatEnterpriseServer7/EB_production/2019/software/Gaussian/g16.c01/l701.exe)
 ... and contract with generalized density number  0.
 Compute integral first derivatives.
 R6Disp: Adding Grimme-D3 dispersion energy 1st derivatives to the gradient.
 PrsmSu:  requested number of processors reduced to:  29 ShMem   1 Linda.
 D1PCM: PCM CHGder 1st derivatives, ID1Alg=3 FixD1E=F DoIter=F DoCFld=F I1PDM=0.
 GePol: Maximum number of non-zero 1st derivatives   =     214
 CoulSu:  requested number of processors reduced to:  29 ShMem   1 Linda.
 CoulSu:  requested number of processors reduced to:  30 ShMem   1 Linda.
 Leave Link  701 at Mon Feb 22 21:11:49 2021, MaxMem=   104857600 cpu:              18.1 elap:               0.6
 (Enter /sw/arch/RedHatEnterpriseServer7/EB_production/2019/software/Gaussian/g16.c01/l702.exe)
 L702 exits ... SP integral derivatives will be done elsewhere.
 Leave Link  702 at Mon Feb 22 21:11:49 2021, MaxMem=   104857600 cpu:               0.8 elap:               0.1
 (Enter /sw/arch/RedHatEnterpriseServer7/EB_production/2019/software/Gaussian/g16.c01/l703.exe)
 Integral derivatives from FoFJK, PRISM(SPDF).
 Compute integral first derivatives, UseDBF=F ICtDFT=           0.
 Calling FoFJK, ICntrl=      2527 FMM=F ISym2X=0 I1Cent= 0 IOpClX= 0 NMat=1 NMatS=1 NMatT=0.
 FoFJK:  IHMeth= 1 ICntrl=    2527 DoSepK=F KAlg= 0 I1Cent=           0 FoldK=F
 IRaf=         0 NMat=       1 IRICut=       1 DoRegI=T DoRafI=F ISym2E= 0 IDoP0=0 IntGTp=1.
 FoFCou: FMM=F IPFlag=           0 FMFlag=      100000 FMFlg1=         800
         NFxFlg=           0 DoJE=F BraDBF=F KetDBF=F FulRan=T
         wScrn=  0.000000 ICntrl=      2527 IOpCl=  0 I1Cent=           0 NGrid=           0
         NMat0=    1 NMatS0=      1 NMatT0=    0 NMatD0=    1 NMtDS0=    0 NMtDT0=    0
 Symmetry not used in FoFCou.
 Leave Link  703 at Mon Feb 22 21:11:51 2021, MaxMem=   104857600 cpu:              39.3 elap:               1.3
 (Enter /sw/arch/RedHatEnterpriseServer7/EB_production/2019/software/Gaussian/g16.c01/l716.exe)
 Dipole        =-4.12738969D-01-1.78185715D-01 3.47398868D-01
 ***** Axes restored to original set *****
 -------------------------------------------------------------------
 Center     Atomic                   Forces (Hartrees/Bohr)
 Number     Number              X              Y              Z
 -------------------------------------------------------------------
      1        8           0.007661884    0.014800098    0.016746736
      2        6          -0.013205657   -0.053941903   -0.060403867
      3        8           0.011554097    0.026747180    0.030989672
      4        6           0.010565516    0.021070891    0.014294969
      5        6          -0.002604474   -0.003703616    0.002574616
      6        6           0.001774480   -0.026965242   -0.003842572
      7        6           0.008486000    0.080396452   -0.010683318
      8        8          -0.005208505   -0.023307215   -0.000342821
      9        8          -0.008319432   -0.041943946    0.001704407
     10        1          -0.018241909   -0.000629848   -0.005523096
     11        1          -0.002668375   -0.003233563    0.000592089
     12        1           0.001592336    0.002934120    0.005551523
     13        1          -0.001847215   -0.000815426   -0.003485950
     14        1           0.002504251    0.001673825   -0.002681858
     15        1          -0.001521577    0.005431143   -0.000912466
     16        1          -0.005246639   -0.004992269    0.003945481
     17        1           0.014725216    0.006479319    0.011476455
 -------------------------------------------------------------------
 Cartesian Forces:  Max     0.080396452 RMS     0.020113013
 Leave Link  716 at Mon Feb 22 21:11:51 2021, MaxMem=   104857600 cpu:               0.9 elap:               0.1
 (Enter /sw/arch/RedHatEnterpriseServer7/EB_production/2019/software/Gaussian/g16.c01/l103.exe)

 GradGradGradGradGradGradGradGradGradGradGradGradGradGradGradGradGradGrad
 Berny optimization.
 FormGI is forming the generalized inverse of G from B-inverse, IUseBI=4.
 GSVD:  received Info=                   1 from GESDD.
 Internal  Forces:  Max     0.036236491 RMS     0.010483237
 Search for a local minimum.
 Step number   1 out of a maximum of   86
 All quantities printed in internal units (Hartrees-Bohrs-Radians)
 RMS Force = .10483D-01 SwitMx=.10000D-02 MixMth= 1
 Mixed Optimization -- RFO/linear search
 Second derivative matrix not updated -- first step.
 ITU=  0
     Eigenvalues ---    0.00230   0.00230   0.01080   0.01098   0.01376
     Eigenvalues ---    0.01391   0.02308   0.02308   0.03488   0.04152
     Eigenvalues ---    0.04244   0.04780   0.05424   0.05431   0.08203
     Eigenvalues ---    0.09462   0.09563   0.12122   0.12833   0.12920
     Eigenvalues ---    0.16000   0.16000   0.21966   0.21982   0.21996
     Eigenvalues ---    0.24998   0.25000   0.25000   0.25000   0.27345
     Eigenvalues ---    0.27376   0.34169   0.34305   0.34397   0.34416
     Eigenvalues ---    0.34463   0.34619   0.35002   0.35161   0.51066
     Eigenvalues ---    0.51272   0.54294   0.54295   0.82643   0.82645
 RFO step:  Lambda=-3.09235714D-02 EMin= 2.30000000D-03
 Linear search not attempted -- first point.
 Maximum step size (   0.300) exceeded in Quadratic search.
    -- Step size scaled by   0.842
 Iteration  1 RMS(Cart)=  0.05324530 RMS(Int)=  0.00181946
 Iteration  2 RMS(Cart)=  0.00236973 RMS(Int)=  0.00007192
 Iteration  3 RMS(Cart)=  0.00000198 RMS(Int)=  0.00007190
 Iteration  4 RMS(Cart)=  0.00000000 RMS(Int)=  0.00007190
 ITry= 1 IFail=0 DXMaxC= 2.21D-01 DCOld= 1.00D+10 DXMaxT= 3.00D-01 DXLimC= 3.00D+00 Rises=F
 Variable       Old X    -DE/DX   Delta X   Delta X   Delta X     New X
                                 (Linear)    (Quad)   (Total)
    R1        2.36520  -0.02302   0.00000  -0.02261  -0.02261   2.34258
    R2        2.55764  -0.00903   0.00000  -0.01325  -0.01325   2.54439
    R3        2.78715   0.01385   0.00000   0.03049   0.03049   2.81764
    R4        1.85303  -0.00434   0.00000  -0.00672  -0.00672   1.84631
    R5        2.93594  -0.00580   0.00000  -0.01605  -0.01605   2.91989
    R6        2.06665   0.00374   0.00000   0.00840   0.00840   2.07505
    R7        2.06556   0.00579   0.00000   0.01299   0.01299   2.07855
    R8        2.93524  -0.00455   0.00000  -0.01258  -0.01258   2.92266
    R9        2.06634   0.00378   0.00000   0.00849   0.00849   2.07483
   R10        2.06818   0.00396   0.00000   0.00892   0.00892   2.07710
   R11        2.78971   0.01244   0.00000   0.02750   0.02750   2.81722
   R12        2.07045   0.00003   0.00000   0.00006   0.00006   2.07052
   R13        2.06299   0.00797   0.00000   0.01780   0.01780   2.08078
   R14        2.36521  -0.02336   0.00000  -0.02295  -0.02295   2.34226
   R15        2.55765  -0.00940   0.00000  -0.01380  -0.01380   2.54386
   R16        1.85505  -0.00593   0.00000  -0.00922  -0.00922   1.84583
    A1        2.06759   0.02340   0.00000   0.07015   0.07013   2.13773
    A2        2.10445   0.01085   0.00000   0.03252   0.03251   2.13695
    A3        2.11113  -0.03425   0.00000  -0.10271  -0.10272   2.00841
    A4        2.09573  -0.03439   0.00000  -0.15170  -0.15170   1.94402
    A5        1.95884  -0.00594   0.00000  -0.02073  -0.02084   1.93800
    A6        1.89495  -0.00047   0.00000  -0.01403  -0.01422   1.88073
    A7        1.89790   0.00457   0.00000   0.02781   0.02792   1.92583
    A8        1.91984   0.00205   0.00000   0.00099   0.00067   1.92051
    A9        1.90783   0.00094   0.00000   0.00746   0.00756   1.91539
   A10        1.88281  -0.00097   0.00000  -0.00059  -0.00052   1.88229
   A11        1.96512  -0.00683   0.00000  -0.02329  -0.02326   1.94186
   A12        1.89461   0.00223   0.00000   0.00763   0.00763   1.90224
   A13        1.90222   0.00227   0.00000   0.00781   0.00780   1.91002
   A14        1.91383   0.00210   0.00000   0.00677   0.00679   1.92062
   A15        1.90047   0.00198   0.00000   0.00590   0.00592   1.90639
   A16        1.88600  -0.00159   0.00000  -0.00423  -0.00429   1.88171
   A17        1.97399  -0.00151   0.00000  -0.00643  -0.00642   1.96757
   A18        1.90193   0.00492   0.00000   0.02461   0.02453   1.92647
   A19        1.91208  -0.00212   0.00000  -0.00873  -0.00873   1.90335
   A20        1.91133  -0.00435   0.00000  -0.02843  -0.02832   1.88300
   A21        1.88211   0.00291   0.00000   0.01418   0.01420   1.89631
   A22        1.88014   0.00014   0.00000   0.00500   0.00505   1.88518
   A23        2.11226   0.01231   0.00000   0.03701   0.03696   2.14922
   A24        2.10540  -0.03624   0.00000  -0.10856  -0.10860   1.99679
   A25        2.06536   0.02394   0.00000   0.07186   0.07182   2.13717
   A26        2.10257  -0.03495   0.00000  -0.15420  -0.15420   1.94836
    D1        0.01986  -0.00049   0.00000  -0.00816  -0.00824   0.01163
    D2       -3.11627   0.00000   0.00000   0.00060   0.00068  -3.11559
    D3       -1.13855   0.00104   0.00000   0.01901   0.01884  -1.11972
    D4        0.98745  -0.00055   0.00000  -0.00287  -0.00275   0.98470
    D5        3.03172   0.00055   0.00000   0.00399   0.00397   3.03569
    D6        1.99746   0.00058   0.00000   0.01017   0.01004   2.00751
    D7       -2.15972  -0.00102   0.00000  -0.01171  -0.01154  -2.17126
    D8       -0.11545   0.00009   0.00000  -0.00485  -0.00482  -0.12026
    D9       -3.06545  -0.00204   0.00000  -0.02358  -0.02355  -3.08900
   D10        1.09548  -0.00180   0.00000  -0.02229  -0.02225   1.07322
   D11       -0.95480  -0.00241   0.00000  -0.02588  -0.02587  -0.98066
   D12        1.10600   0.00111   0.00000   0.00747   0.00745   1.11344
   D13       -1.01626   0.00135   0.00000   0.00875   0.00875  -1.00751
   D14       -3.06653   0.00074   0.00000   0.00517   0.00513  -3.06140
   D15       -0.95827   0.00051   0.00000   0.00311   0.00311  -0.95516
   D16       -3.08052   0.00075   0.00000   0.00440   0.00441  -3.07612
   D17        1.15239   0.00013   0.00000   0.00081   0.00079   1.15318
   D18       -3.14110  -0.00135   0.00000  -0.00889  -0.00893   3.13315
   D19        1.01197   0.00168   0.00000   0.01410   0.01415   1.02611
   D20       -1.04103  -0.00012   0.00000  -0.00123  -0.00123  -1.04226
   D21       -1.02980  -0.00160   0.00000  -0.00997  -0.01003  -1.03983
   D22        3.12326   0.00144   0.00000   0.01301   0.01305   3.13632
   D23        1.07026  -0.00037   0.00000  -0.00231  -0.00232   1.06794
   D24        1.03043  -0.00115   0.00000  -0.00771  -0.00775   1.02268
   D25       -1.09969   0.00188   0.00000   0.01528   0.01533  -1.08436
   D26        3.13050   0.00007   0.00000  -0.00004  -0.00004   3.13045
   D27       -2.06659  -0.00090   0.00000   0.00222   0.00211  -2.06448
   D28        1.09529  -0.00194   0.00000  -0.01694  -0.01697   1.07832
   D29        0.05826   0.00126   0.00000   0.00892   0.00897   0.06724
   D30       -3.06304   0.00022   0.00000  -0.01024  -0.01011  -3.07315
   D31        2.09952   0.00070   0.00000   0.00745   0.00739   2.10691
   D32       -1.02178  -0.00034   0.00000  -0.01171  -0.01169  -1.03347
   D33        3.13846   0.00050   0.00000   0.00999   0.01011  -3.13461
   D34        0.01663  -0.00040   0.00000  -0.00833  -0.00845   0.00818
         Item               Value     Threshold  Converged?
 Maximum Force            0.036236     0.000450     NO 
 RMS     Force            0.010483     0.000300     NO 
 Maximum Displacement     0.221190     0.001800     NO 
 RMS     Displacement     0.054704     0.001200     NO 
 Predicted change in Energy=-1.653401D-02
 Lowest energy point so far.  Saving SCF results.
 GradGradGradGradGradGradGradGradGradGradGradGradGradGradGradGradGradGrad

 Leave Link  103 at Mon Feb 22 21:11:51 2021, MaxMem=   104857600 cpu:               2.4 elap:               0.1
 (Enter /sw/arch/RedHatEnterpriseServer7/EB_production/2019/software/Gaussian/g16.c01/l202.exe)
                          Input orientation:                          
 ---------------------------------------------------------------------
 Center     Atomic      Atomic             Coordinates (Angstroms)
 Number     Number       Type             X           Y           Z
 ---------------------------------------------------------------------
      1          8           0        0.992582   -3.207985   -1.342807
      2          6           0        1.626538   -2.580050   -0.482277
      3          8           0        2.947808   -2.752036   -0.288501
      4          6           0        0.985214   -1.564650    0.401371
      5          6           0        0.459144   -0.366851   -0.420812
      6          6           0       -0.139902    0.723874    0.497583
      7          6           0       -0.647739    1.901672   -0.262283
      8          8           0       -0.193854    3.046340   -0.120830
      9          8           0       -1.646965    1.621711   -1.119774
     10          1           0        3.316254   -3.410167   -0.909542
     11          1           0        0.154443   -2.054474    0.926391
     12          1           0        1.700255   -1.210330    1.158341
     13          1           0       -0.302310   -0.724634   -1.126275
     14          1           0        1.283177    0.065181   -1.006012
     15          1           0        0.614182    1.081144    1.207659
     16          1           0       -0.972326    0.291094    1.073951
     17          1           0       -1.943831    2.419101   -1.599481
 ---------------------------------------------------------------------
                    Distance matrix (angstroms):
                    1          2          3          4          5
     1  O    0.000000
     2  C    1.239643   0.000000
     3  O    2.267677   1.346434   0.000000
     4  C    2.396405   1.491029   2.395325   0.000000
     5  C    3.034250   2.502965   3.449646   1.545139   0.000000
     6  C    4.486543   3.872512   4.715276   2.551958   1.546605
     7  C    5.474192   5.030562   5.880955   3.888748   2.529134
     8  O    6.482086   5.924587   6.596917   4.787915   3.488018
     9  O    5.508440   5.364421   6.397860   4.403992   2.979702
    10  H    2.372350   1.930490   0.977027   3.249334   4.202821
    11  H    2.679986   2.104196   3.124971   1.098068   2.180795
    12  H    3.278287   2.138503   2.454912   1.099923   2.178425
    13  H    2.809033   2.752773   3.921160   2.167268   1.097952
    14  H    3.303254   2.718352   3.350004   2.173904   1.099155
    15  H    5.004467   4.157534   4.730494   2.790697   2.184638
    16  H    4.684563   4.173656   5.146296   2.779948   2.171707
    17  H    6.352362   6.243972   7.237918   5.334134   3.863299
                    6          7          8          9         10
     6  C    0.000000
     7  C    1.490806   0.000000
     8  O    2.403995   1.239469   0.000000
     9  O    2.386041   1.346150   2.266933   0.000000
    10  H    5.569139   6.659415   7.391171   7.070894   0.000000
    11  H    2.826611   4.208032   5.218839   4.576701   3.899436
    12  H    2.750259   4.149194   4.831477   4.941068   3.424452
    13  H    2.182078   2.786267   3.904218   2.704343   4.511438
    14  H    2.172517   2.766635   3.442743   3.319859   4.027499
    15  H    1.095669   2.103911   2.505953   3.289672   5.652929
    16  H    1.101102   2.117744   3.102402   2.652943   6.002124
    17  H    3.244323   1.932792   2.375342   0.976770   7.881933
                   11         12         13         14         15
    11  H    0.000000
    12  H    1.776490   0.000000
    13  H    2.488078   3.076628   0.000000
    14  H    3.082395   2.546626   1.775399   0.000000
    15  H    3.181598   2.536305   3.089990   2.525881   0.000000
    16  H    2.606352   3.066608   2.514282   3.076455   1.777375
    17  H    5.549383   5.835899   3.577930   4.038159   4.026611
                   16         17
    16  H    0.000000
    17  H    3.552390   0.000000
 Stoichiometry    C5H8O4
 Framework group  C1[X(C5H8O4)]
 Deg. of freedom    45
 Full point group                 C1      NOp   1
 RotChk:  IX=0 Diff= 1.08D-02
 Largest Abelian subgroup         C1      NOp   1
 Largest concise Abelian subgroup C1      NOp   1
                         Standard orientation:                         
 ---------------------------------------------------------------------
 Center     Atomic      Atomic             Coordinates (Angstroms)
 Number     Number       Type             X           Y           Z
 ---------------------------------------------------------------------
      1          8           0       -2.759923    1.308982   -0.092480
      2          6           0       -2.494972    0.102141    0.007764
      3          8           0       -3.280548   -0.856737   -0.517883
      4          6           0       -1.272488   -0.393244    0.702958
      5          6           0        0.007440    0.066184   -0.030640
      6          6           0        1.276224   -0.507015    0.642872
      7          6           0        2.531514   -0.092931   -0.046536
      8          8           0        3.316048   -0.898833   -0.567412
      9          8           0        2.747918    1.235667   -0.057391
     10          1           0       -4.051315   -0.472561   -0.979303
     11          1           0       -1.283809    0.006133    1.725759
     12          1           0       -1.288850   -1.491029    0.769520
     13          1           0        0.044667    1.163505   -0.030993
     14          1           0       -0.030125   -0.269335   -1.076660
     15          1           0        1.242247   -1.602128    0.650999
     16          1           0        1.316964   -0.159861    1.687023
     17          1           0        3.575954    1.461839   -0.523526
 ---------------------------------------------------------------------
 Rotational constants (GHZ):           4.2071351           0.5966202           0.5567345
 Leave Link  202 at Mon Feb 22 21:11:51 2021, MaxMem=   104857600 cpu:               0.6 elap:               0.0
 (Enter /sw/arch/RedHatEnterpriseServer7/EB_production/2019/software/Gaussian/g16.c01/l301.exe)
 Standard basis: TZVP (5D, 7F)
 Ernie: Thresh=  0.10000D-02 Tol=  0.10000D-05 Strict=F.
 There are   228 symmetry adapted cartesian basis functions of A   symmetry.
 There are   219 symmetry adapted basis functions of A   symmetry.
   219 basis functions,   379 primitive gaussians,   228 cartesian basis functions
    35 alpha electrons       35 beta electrons
       nuclear repulsion energy       435.5319993304 Hartrees.
 IExCor=  404 DFT=T Ex=B Corr=P86 ExCW=0 ScaHFX=  0.000000
 ScaDFX=  1.000000  1.000000  1.000000  1.000000 ScalE2=  1.000000  1.000000
 IRadAn=      5 IRanWt=     -1 IRanGd=            0 ICorTp=0 IEmpDi=131
 NAtoms=   17 NActive=   17 NUniq=   17 SFac= 1.00D+00 NAtFMM=   60 NAOKFM=F Big=F
 Integral buffers will be    131072 words long.
 Raffenetti 2 integral format.
 Two-electron integral symmetry is turned on.
 R6Disp:  Grimme-D3 Dispersion energy=       -0.0145996371 Hartrees.
 Nuclear repulsion after empirical dispersion term =      435.5173996933 Hartrees.
 ------------------------------------------------------------------------------
 Polarizable Continuum Model (PCM)
 =================================
 Model                : PCM.
 Atomic radii         : UFF (Universal Force Field).
 Polarization charges : Total charges.
 Charge compensation  : None.
 Solution method      : On-the-fly selection.
 Cavity type          : Scaled VdW (van der Waals Surface) (Alpha=1.100).
 Cavity algorithm     : GePol (No added spheres)
                        Default sphere list used, NSphG=   17.
                        Lebedev-Laikov grids with approx.  5.0 points / Ang**2.
                        Smoothing algorithm: York/Karplus (Gamma=1.0000).
                        Polarization charges: spherical gaussians, with
                                              point-specific exponents (IZeta= 3).
                        Self-potential: point-specific (ISelfS= 7).
                        Self-field    : sphere-specific E.n sum rule (ISelfD= 2).
 1st derivatives      : Analytical E(r).r(x)/FMM algorithm (CHGder, D1EAlg=3).
                        Cavity 1st derivative terms included.
 Solvent              : Water, Eps=  78.355300 Eps(inf)=   1.777849
 ------------------------------------------------------------------------------
 Spheres list:
 ISph  on   Nord     Re0    Alpha      Xe            Ye            Ze
    1   O      1    1.7500  1.100     -2.759923      1.308982     -0.092480
    2   C      2    1.9255  1.100     -2.494972      0.102141      0.007764
    3   O      3    1.7500  1.100     -3.280548     -0.856737     -0.517883
    4   C      4    1.9255  1.100     -1.272488     -0.393244      0.702958
    5   C      5    1.9255  1.100      0.007440      0.066184     -0.030640
    6   C      6    1.9255  1.100      1.276224     -0.507015      0.642872
    7   C      7    1.9255  1.100      2.531514     -0.092931     -0.046536
    8   O      8    1.7500  1.100      3.316048     -0.898833     -0.567412
    9   O      9    1.7500  1.100      2.747918      1.235667     -0.057391
   10   H     10    1.4430  1.100     -4.051315     -0.472561     -0.979303
   11   H     11    1.4430  1.100     -1.283809      0.006133      1.725759
   12   H     12    1.4430  1.100     -1.288850     -1.491029      0.769520
   13   H     13    1.4430  1.100      0.044667      1.163505     -0.030993
   14   H     14    1.4430  1.100     -0.030125     -0.269335     -1.076660
   15   H     15    1.4430  1.100      1.242247     -1.602128      0.650999
   16   H     16    1.4430  1.100      1.316964     -0.159861      1.687023
   17   H     17    1.4430  1.100      3.575954      1.461839     -0.523526
 ------------------------------------------------------------------------------
 GePol: Number of generator spheres                  =      17
 GePol: Total number of spheres                      =      17
 GePol: Number of exposed spheres                    =      17 (100.00%)
 GePol: Number of points                             =    1479
 GePol: Average weight of points                     =       0.13
 GePol: Minimum weight of points                     =   0.33D-08
 GePol: Maximum weight of points                     =    0.20577
 GePol: Number of points with low weight             =      75
 GePol: Fraction of low-weight points (<1% of avg)   =       5.07%
 GePol: Cavity surface area                          =    199.470 Ang**2
 GePol: Cavity volume                                =    189.035 Ang**3
 Leave Link  301 at Mon Feb 22 21:11:51 2021, MaxMem=   104857600 cpu:               1.6 elap:               0.1
 (Enter /sw/arch/RedHatEnterpriseServer7/EB_production/2019/software/Gaussian/g16.c01/l302.exe)
 NPDir=0 NMtPBC=     1 NCelOv=     1 NCel=       1 NClECP=     1 NCelD=      1
         NCelK=      1 NCelE2=     1 NClLst=     1 CellRange=     0.0.
 One-electron integrals computed using PRISM.
 One-electron integral symmetry used in STVInt
 PrsmSu:  requested number of processors reduced to:  29 ShMem   1 Linda.
 NBasis=   219 RedAO= T EigKep=  1.49D-04  NBF=   219
 NBsUse=   219 1.00D-06 EigRej= -1.00D+00 NBFU=   219
 Precomputing XC quadrature grid using
 IXCGrd= 4 IRadAn=           5 IRanWt=          -1 IRanGd=           0 AccXCQ= 0.00D+00.
 Generated NRdTot=       0 NPtTot=           0 NUsed=           0 NTot=          32
 NSgBfM=   227   226   226   227   227 MxSgAt=    17 MxSgA2=    17.
 Leave Link  302 at Mon Feb 22 21:11:52 2021, MaxMem=   104857600 cpu:              11.9 elap:               0.5
 (Enter /sw/arch/RedHatEnterpriseServer7/EB_production/2019/software/Gaussian/g16.c01/l303.exe)
 DipDrv:  MaxL=1.
 Leave Link  303 at Mon Feb 22 21:11:52 2021, MaxMem=   104857600 cpu:               2.4 elap:               0.1
 (Enter /sw/arch/RedHatEnterpriseServer7/EB_production/2019/software/Gaussian/g16.c01/l401.exe)
 Initial guess from the checkpoint file:  "JFCQEDHGNNZCLN-UHFFFAOYSA-N.chk"
 B after Tr=     0.000000   -0.000000   -0.000000
         Rot=    0.999988    0.001528    0.000875   -0.004626 Ang=   0.57 deg.
 Guess basis will be translated and rotated to current coordinates.
 JPrj=2 DoOrth=T DoCkMO=T.
 Generating alternative initial guess.
 ExpMin= 9.52D-02 ExpMax= 2.70D+04 ExpMxC= 9.22D+02 IAcc=3 IRadAn=         5 AccDes= 0.00D+00
 Harris functional with IExCor=  404 and IRadAn=       5 diagonalized for initial guess.
 HarFok:  IExCor=  404 AccDes= 0.00D+00 IRadAn=         5 IDoV= 1 UseB2=F ITyADJ=14
 ICtDFT=  3500011 ScaDFX=  1.000000  1.000000  1.000000  1.000000
 FoFCou: FMM=F IPFlag=           0 FMFlag=      100000 FMFlg1=           0
         NFxFlg=           0 DoJE=T BraDBF=F KetDBF=T FulRan=T
         wScrn=  0.000000 ICntrl=       500 IOpCl=  0 I1Cent=   200000004 NGrid=           0
         NMat0=    1 NMatS0=      1 NMatT0=    0 NMatD0=    1 NMtDS0=    0 NMtDT0=    0
 Petite list used in FoFCou.
 Harris En= -496.637860230142    
 Leave Link  401 at Mon Feb 22 21:11:52 2021, MaxMem=   104857600 cpu:              12.2 elap:               0.4
 (Enter /sw/arch/RedHatEnterpriseServer7/EB_production/2019/software/Gaussian/g16.c01/l502.exe)
 Integral symmetry usage will be decided dynamically.
 Closed shell SCF:
 Using DIIS extrapolation, IDIIS=  1040.
 NGot=   104857600 LenX=   104743552 LenY=   104691127
 Requested convergence on RMS density matrix=1.00D-08 within 128 cycles.
 Requested convergence on MAX density matrix=1.00D-06.
 Requested convergence on             energy=1.00D-06.
 No special actions if energy rises.
 Fock matrices will be formed incrementally for  20 cycles.

 Cycle   1  Pass 1  IDiag  1:
 FoFJK:  IHMeth= 1 ICntrl=     500 DoSepK=F KAlg= 0 I1Cent=           0 FoldK=F
 IRaf= 890000000 NMat=       1 IRICut=       1 DoRegI=T DoRafI=F ISym2E= 0 IDoP0=0 IntGTp=1.
 FoFCou: FMM=F IPFlag=           0 FMFlag=      100000 FMFlg1=           0
         NFxFlg=           0 DoJE=T BraDBF=F KetDBF=F FulRan=T
         wScrn=  0.000000 ICntrl=       500 IOpCl=  0 I1Cent=           0 NGrid=           0
         NMat0=    1 NMatS0=      1 NMatT0=    0 NMatD0=    1 NMtDS0=    0 NMtDT0=    0
 Symmetry not used in FoFCou.
 Inv3:  Mode=1 IEnd=     6562323.
[...]
 Standard basis: TZVP (5D, 7F)
 There are   228 symmetry adapted cartesian basis functions of A   symmetry.
 There are   219 symmetry adapted basis functions of A   symmetry.
   219 basis functions,   379 primitive gaussians,   228 cartesian basis functions
    35 alpha electrons       35 beta electrons
       nuclear repulsion energy       434.6415527595 Hartrees.
 NAtoms=   17 NActive=   17 NUniq=   17 SFac= 1.00D+00 NAtFMM=   60 NAOKFM=F Big=F
 Integral buffers will be    131072 words long.
 Raffenetti 2 integral format.
 Two-electron integral symmetry is turned on.
 Warning! Using old PCM defaults because the COSMOthermo output has been requested.
 These settings can be overridden by following keywords.
 ------------------------------------------------------------------------------
 Polarizable Continuum Model (PCM)
 =================================
 Model                : C-PCM.
 Atomic radii         : Klamt.
 XCosmo               : -1.000 (infinite dielectric limit)
 Polarization charges : Electronic and nuclear charges.
 Charge compensation  : Type 3 (Electronic density weighted correction).
 Solution method      : On-the-fly selection.
 Cavity type          : VdW (van der Waals Surface) (Alpha=1.000).
 Cavity algorithm     : GePol (No added spheres)
                        Default sphere list used, NSphG=   17.
                        Tesserae with average area of 0.200 Ang**2.
                        Smoothing algorithm: None.
                        Polarization charges: point-like.
                        Self-potential: constant (ISelfS= 1).
                        Self-field    : global E.n sum rule (ISelfD= 3).
 Solvent              : Water, Eps=  78.355300 Eps(inf)=   1.777849
 ------------------------------------------------------------------------------
 Spheres list:
 ISph  on   Nord     Re0    Alpha      Xe            Ye            Ze
    1   O      1    1.7200  1.000     -2.508586      1.301235     -0.489924
    2   C      2    2.0000  1.000     -2.494659      0.152018     -0.078167
    3   O      3    1.7200  1.000     -3.632480     -0.559582      0.162782
    4   C      4    2.0000  1.000     -1.260546     -0.665350      0.232480
    5   C      5    2.0000  1.000      0.041877      0.081792     -0.057077
    6   C      6    2.0000  1.000      1.268414     -0.790200      0.275880
    7   C      7    2.0000  1.000      2.576382     -0.099005     -0.035841
    8   O      8    1.7200  1.000      3.416267     -0.490578     -0.831983
    9   O      9    1.7200  1.000      2.725563      1.049964      0.683052
   10   H     10    1.3000  1.000     -4.395069      0.020016     -0.051521
   11   H     11    1.3000  1.000     -1.319227     -0.966550      1.292162
   12   H     12    1.3000  1.000     -1.323596     -1.601443     -0.346948
   13   H     13    1.3000  1.000      0.076419      1.010662      0.529945
   14   H     14    1.3000  1.000      0.070704      0.373975     -1.118262
   15   H     15    1.3000  1.000      1.249870     -1.728750     -0.294262
   16   H     16    1.3000  1.000      1.263024     -1.043423      1.349260
   17   H     17    1.3000  1.000      3.582964      1.451675      0.424561
 ------------------------------------------------------------------------------
 One-electron integrals computed using PRISM.
 PrsmSu:  requested number of processors reduced to:  29 ShMem   1 Linda.
 NBasis=   219 RedAO= T EigKep=  1.14D-04  NBF=   219
 NBsUse=   219 1.00D-06 EigRej= -1.00D+00 NBFU=   219
 Initial guess from the checkpoint file:  "JFCQEDHGNNZCLN-UHFFFAOYSA-N.chk"
 B after Tr=    -0.000000    0.000000    0.000000
         Rot=    1.000000    0.000000   -0.000000    0.000000 Ang=   0.00 deg.
 Requested convergence on RMS density matrix=1.00D-08 within 128 cycles.
 Requested convergence on MAX density matrix=1.00D-06.
 Requested convergence on             energy=1.00D-06.
 No special actions if energy rises.
 Inv3:  Mode=1 IEnd=     4605363.
 Iteration    1 A*A^-1 deviation from unit magnitude is 6.68D-14 for    551.
 Iteration    1 A*A^-1 deviation from orthogonality  is 1.71D-14 for    869    551.
 Iteration    1 A^-1*A deviation from unit magnitude is 3.29D-14 for    869.
 Iteration    1 A^-1*A deviation from orthogonality  is 3.69D-14 for    869    551.
 Error on nuclear    polarization charges =  0.00925
 Error on electronic polarization charges = -0.03572
 SCF Done:  E(RB-P86) =  -496.500886693     A.U. after   10 cycles
            NFock= 10  Conv=0.97D-08     -V/T= 2.0043
 --------------------------------------------------------------------
 Variational C-PCM results
 =========================
 <psi(f)|   H    |psi(f)>                     (a.u.) =    -496.473362
 <psi(f)|H+V(f)/2|psi(f)>                     (a.u.) =    -496.500887
 Total free energy in solution:
 - with all non electrostatic terms           (a.u.) =    -496.488765
 --------------------------------------------------------------------
 (Polarized solute)-Solvent               (kcal/mol) =     -17.27
 --------------------------------------------------------------------
 Cavitation energy                        (kcal/mol) =      22.10
 Dispersion energy                        (kcal/mol) =     -15.86
 Repulsion energy                         (kcal/mol) =       1.36
 Total non electrostatic                  (kcal/mol) =       7.61
 --------------------------------------------------------------------
 Partition over spheres:
 Sphere  on Atom  Surface  Charge   GEl     GCav    GDR
    1      O1      19.37   0.235   -3.40    2.41   -1.60
    2      C2      10.72  -0.035   -0.24    1.26   -0.74
    3      O3      15.91   0.093   -0.56    1.98   -1.44
    4      C4       8.64  -0.033   -0.35    1.01   -0.33
    5      C5       7.41  -0.007   -0.17    0.87   -0.23
    6      C6       9.01  -0.026   -0.23    1.06   -0.42
    7      C7      10.13  -0.032   -0.16    1.19   -0.56
    8      O8      20.46   0.249   -3.83    2.54   -1.82
    9      O9      15.18   0.088   -0.68    1.89   -1.30
   10      H10      8.47  -0.151   -2.86    1.20   -0.89
   11      H11      6.57  -0.045   -0.58    0.93   -0.76
   12      H12      6.57  -0.045   -0.54    0.93   -0.75
   13      H13      6.25  -0.028   -0.05    0.88   -0.56
   14      H14      6.55  -0.031   -0.12    0.92   -0.74
   15      H15      6.51  -0.038   -0.30    0.92   -0.71
   16      H16      6.57  -0.044   -0.54    0.93   -0.76
   17      H17      8.46  -0.150   -2.65    1.19   -0.90
 --------------------------------------------------------------------
 - cavitation energy not included in the total energy.
 - dispersion energy not included in the total energy.
 - repulsion  energy not included in the total energy.
 After PCM corrections, the energy is  -496.500886693     a.u.
 --------------------------------------------------------------------
 Writing COSMO formatted file "JFCQEDHGNNZCLN-UHFFFAOYSA-N.cosmo"
 Recomputed dielectric energy= -0.027551 old= -0.027525 diff=-2.66D-05

 **********************************************************************

            Population analysis using the SCF Density.

 **********************************************************************

 Orbital symmetries:
       Occupied  (A) (A) (A) (A) (A) (A) (A) (A) (A) (A) (A) (A)
                 (A) (A) (A) (A) (A) (A) (A) (A) (A) (A) (A) (A)
                 (A) (A) (A) (A) (A) (A) (A) (A) (A) (A) (A)
       Virtual   (A) (A) (A) (A) (A) (A) (A) (A) (A) (A) (A) (A)
                 (A) (A) (A) (A) (A) (A) (A) (A) (A) (A) (A) (A)
                 (A) (A) (A) (A) (A) (A) (A) (A) (A) (A) (A) (A)
                 (A) (A) (A) (A) (A) (A) (A) (A) (A) (A) (A) (A)
                 (A) (A) (A) (A) (A) (A) (A) (A) (A) (A) (A) (A)
                 (A) (A) (A) (A) (A) (A) (A) (A) (A) (A) (A) (A)
                 (A) (A) (A) (A) (A) (A) (A) (A) (A) (A) (A) (A)
                 (A) (A) (A) (A) (A) (A) (A) (A) (A) (A) (A) (A)
                 (A) (A) (A) (A) (A) (A) (A) (A) (A) (A) (A) (A)
                 (A) (A) (A) (A) (A) (A) (A) (A) (A) (A) (A) (A)
                 (A) (A) (A) (A) (A) (A) (A) (A) (A) (A) (A) (A)
                 (A) (A) (A) (A) (A) (A) (A) (A) (A) (A) (A) (A)
                 (A) (A) (A) (A) (A) (A) (A) (A) (A) (A) (A) (A)
                 (A) (A) (A) (A) (A) (A) (A) (A) (A) (A) (A) (A)
                 (A) (A) (A) (A) (A) (A) (A) (A) (A) (A) (A) (A)
                 (A) (A) (A) (A)
 The electronic state is 1-A.
 Alpha  occ. eigenvalues --  -18.82077 -18.82030 -18.77162 -18.77087 -10.03454
 Alpha  occ. eigenvalues --  -10.03404  -9.91535  -9.91410  -9.90924  -1.02274
 Alpha  occ. eigenvalues --   -1.02262  -0.94116  -0.94029  -0.74491  -0.68600
 Alpha  occ. eigenvalues --   -0.60403  -0.55249  -0.52926  -0.46241  -0.45132
 Alpha  occ. eigenvalues --   -0.44275  -0.43813  -0.42551  -0.41050  -0.39451
 Alpha  occ. eigenvalues --   -0.36439  -0.36032  -0.34652  -0.33389  -0.32337
 Alpha  occ. eigenvalues --   -0.30487  -0.29364  -0.29148  -0.25146  -0.24618
 Alpha virt. eigenvalues --   -0.05060  -0.04620   0.01946   0.03041   0.04861
 Alpha virt. eigenvalues --    0.07058   0.07221   0.07757   0.11112   0.11680
 Alpha virt. eigenvalues --    0.12619   0.13727   0.14472   0.15867   0.16800
 Alpha virt. eigenvalues --    0.17881   0.19197   0.20576   0.21904   0.23379
 Alpha virt. eigenvalues --    0.23829   0.25975   0.26537   0.28839   0.29940
 Alpha virt. eigenvalues --    0.31020   0.32069   0.33185   0.34988   0.35590
 Alpha virt. eigenvalues --    0.37377   0.37966   0.38565   0.39674   0.40576
 Alpha virt. eigenvalues --    0.40883   0.41719   0.41953   0.42431   0.44109
 Alpha virt. eigenvalues --    0.44511   0.45210   0.46555   0.47096   0.48473
 Alpha virt. eigenvalues --    0.49293   0.49694   0.52905   0.53338   0.55193
 Alpha virt. eigenvalues --    0.57620   0.58288   0.59732   0.60316   0.64606
 Alpha virt. eigenvalues --    0.68097   0.72507   0.74585   0.77758   0.81079
 Alpha virt. eigenvalues --    0.85518   0.90189   1.07035   1.09266   1.15496
 Alpha virt. eigenvalues --    1.17453   1.19748   1.22479   1.22875   1.24066
 Alpha virt. eigenvalues --    1.25497   1.28038   1.29248   1.30317   1.30708
 Alpha virt. eigenvalues --    1.33088   1.33411   1.35317   1.36282   1.37580
 Alpha virt. eigenvalues --    1.41126   1.44047   1.45032   1.48076   1.48861
 Alpha virt. eigenvalues --    1.49320   1.52016   1.53944   1.54595   1.58719
 Alpha virt. eigenvalues --    1.59005   1.61965   1.65647   1.67274   1.67756
 Alpha virt. eigenvalues --    1.71670   1.74545   1.77002   1.77794   1.78225
 Alpha virt. eigenvalues --    1.78973   1.87387   1.89211   1.90904   1.93572
 Alpha virt. eigenvalues --    1.96134   2.01125   2.02471   2.06359   2.08389
 Alpha virt. eigenvalues --    2.09929   2.14352   2.16783   2.18684   2.20842
 Alpha virt. eigenvalues --    2.25223   2.30151   2.32297   2.36082   2.41274
 Alpha virt. eigenvalues --    2.42146   2.43410   2.45081   2.45980   2.47179
 Alpha virt. eigenvalues --    2.48661   2.51102   2.51787   2.52591   2.52779
 Alpha virt. eigenvalues --    2.54063   2.55718   2.56260   2.56837   2.57901
 Alpha virt. eigenvalues --    2.58960   2.60083   2.61330   2.61500   2.63509
 Alpha virt. eigenvalues --    2.66401   2.66489   2.70765   2.75032   2.79796
 Alpha virt. eigenvalues --    2.80034   2.81636   2.85142   2.85414   2.86802
 Alpha virt. eigenvalues --    2.89204   2.99258   3.00449   3.01576   3.01728
 Alpha virt. eigenvalues --    3.04894   3.09286   3.10145   3.11475   3.13548
 Alpha virt. eigenvalues --    3.17516   3.26188   3.26807   3.28466   3.30927
 Alpha virt. eigenvalues --    3.33465   3.35414   3.42344   3.44542   3.79824
 Alpha virt. eigenvalues --    3.80107   4.08177   4.09002   4.18195   4.18364
 Alpha virt. eigenvalues --   21.67688  21.68582  21.74506  21.79965  21.84157
 Alpha virt. eigenvalues --   43.02528  43.05240  43.10966  43.15979
          Condensed to atoms (all electrons):
               1          2          3          4          5          6
     1  O    7.967357   0.617506  -0.104523  -0.165242   0.035187  -0.000265
     2  C    0.617506   4.826315   0.361391  -0.000172   0.046600  -0.003840
     3  O   -0.104523   0.361391   7.897639  -0.178698   0.014918  -0.000437
     4  C   -0.165242  -0.000172  -0.178698   5.861085   0.028710   0.026361
     5  C    0.035187   0.046600   0.014918   0.028710   5.418205   0.083300
     6  C   -0.000265  -0.003840  -0.000437   0.026361   0.083300   5.564984
     7  C    0.000077   0.000581   0.000007  -0.008076  -0.013688   0.138929
     8  O   -0.000000   0.000008  -0.000000  -0.001154  -0.004647  -0.120151
     9  O   -0.000003   0.000107  -0.000000  -0.001914   0.011421  -0.146958
    10  H    0.002017  -0.018210   0.284284   0.019660  -0.001814   0.000062
    11  H    0.001738  -0.009246   0.004979   0.381432  -0.034677  -0.002609
    12  H    0.002065  -0.009916   0.005935   0.382637  -0.034424  -0.002618
    13  H    0.003251  -0.011661   0.000205  -0.015713   0.398751  -0.027681
    14  H    0.002385  -0.009231   0.000008  -0.037072   0.404819  -0.042017
    15  H    0.000028   0.000330  -0.000010  -0.002212  -0.029492   0.421169
    16  H    0.000055   0.000904  -0.000015  -0.017300  -0.030237   0.364375
    17  H    0.000001  -0.000003   0.000000   0.000106   0.000209   0.013643
               7          8          9         10         11         12
     1  O    0.000077  -0.000000  -0.000003   0.002017   0.001738   0.002065
     2  C    0.000581   0.000008   0.000107  -0.018210  -0.009246  -0.009916
     3  O    0.000007  -0.000000  -0.000000   0.284284   0.004979   0.005935
     4  C   -0.008076  -0.001154  -0.001914   0.019660   0.381432   0.382637
     5  C   -0.013688  -0.004647   0.011421  -0.001814  -0.034677  -0.034424
     6  C    0.138929  -0.120151  -0.146958   0.000062  -0.002609  -0.002618
     7  C    4.821836   0.618319   0.302810  -0.000002   0.000960  -0.001205
     8  O    0.618319   7.962843  -0.110343   0.000000   0.000031  -0.000057
     9  O    0.302810  -0.110343   7.926677   0.000000   0.000074  -0.000015
    10  H   -0.000002   0.000000   0.000000   0.382870  -0.000347  -0.000379
    11  H    0.000960   0.000031   0.000074  -0.000347   0.477626  -0.015076
    12  H   -0.001205  -0.000057  -0.000015  -0.000379  -0.015076   0.481231
    13  H   -0.015397   0.000402   0.009104  -0.000009  -0.002596   0.004878
    14  H    0.011488   0.002588  -0.001496  -0.000003   0.005039  -0.002476
    15  H   -0.061292   0.009752   0.006440   0.000000   0.000602   0.001152
    16  H    0.005321   0.002660   0.002745  -0.000000   0.002672   0.000501
    17  H   -0.013996   0.001774   0.283128  -0.000000  -0.000005   0.000002
              13         14         15         16         17
     1  O    0.003251   0.002385   0.000028   0.000055   0.000001
     2  C   -0.011661  -0.009231   0.000330   0.000904  -0.000003
     3  O    0.000205   0.000008  -0.000010  -0.000015   0.000000
     4  C   -0.015713  -0.037072  -0.002212  -0.017300   0.000106
     5  C    0.398751   0.404819  -0.029492  -0.030237   0.000209
     6  C   -0.027681  -0.042017   0.421169   0.364375   0.013643
     7  C   -0.015397   0.011488  -0.061292   0.005321  -0.013996
     8  O    0.000402   0.002588   0.009752   0.002660   0.001774
     9  O    0.009104  -0.001496   0.006440   0.002745   0.283128
    10  H   -0.000009  -0.000003   0.000000  -0.000000  -0.000000
    11  H   -0.002596   0.005039   0.000602   0.002672  -0.000005
    12  H    0.004878  -0.002476   0.001152   0.000501   0.000002
    13  H    0.515988  -0.021847   0.005097  -0.003202  -0.000347
    14  H   -0.021847   0.530414  -0.003047   0.006482  -0.000227
    15  H    0.005097  -0.003047   0.505117  -0.017879  -0.000635
    16  H   -0.003202   0.006482  -0.017879   0.503543  -0.000383
    17  H   -0.000347  -0.000227  -0.000635  -0.000383   0.384303
 Mulliken charges:
               1
     1  O   -0.361634
     2  C    0.208538
     3  O   -0.285685
     4  C   -0.272439
     5  C   -0.293142
     6  C   -0.266248
     7  C    0.213328
     8  O   -0.362024
     9  O   -0.281775
    10  H    0.331872
    11  H    0.189402
    12  H    0.187766
    13  H    0.160779
    14  H    0.154193
    15  H    0.164880
    16  H    0.179759
    17  H    0.332430
 Sum of Mulliken charges =  -0.00000
 Mulliken charges with hydrogens summed into heavy atoms:
               1
     1  O   -0.361634
     2  C    0.208538
     3  O    0.046187
     4  C    0.104730
     5  C    0.021831
     6  C    0.078390
     7  C    0.213328
     8  O   -0.362024
     9  O    0.050655
 Electronic spatial extent (au):  <R**2>=           1926.4285
 Charge=             -0.0000 electrons
 Dipole moment (field-independent basis, Debye):
    X=             -1.7486    Y=             -1.1092    Z=              2.2775  Tot=              3.0782
 Quadrupole moment (field-independent basis, Debye-Ang):
   XX=            -51.1701   YY=            -55.7762   ZZ=            -54.6179
   XY=              9.8974   XZ=              5.3474   YZ=             -0.0387
 Traceless Quadrupole moment (field-independent basis, Debye-Ang):
   XX=              2.6846   YY=             -1.9214   ZZ=             -0.7632
   XY=              9.8974   XZ=              5.3474   YZ=             -0.0387
 Octapole moment (field-independent basis, Debye-Ang**2):
  XXX=            -74.0355  YYY=             -0.1406  ZZZ=              2.4926  XYY=             20.9655
  XXY=             36.1409  XXZ=             24.5692  XZZ=             -7.6956  YZZ=             -0.5577
  YYZ=              2.8107  XYZ=            -10.4993
 Hexadecapole moment (field-independent basis, Debye-Ang**3):
 XXXX=          -1648.0327 YYYY=           -243.5186 ZZZZ=           -125.4581 XXXY=            118.9116
 XXXZ=            115.7266 YYYX=             39.9182 YYYZ=              8.3032 ZZZX=              5.0087
 ZZZY=             -2.9166 XXYY=           -378.4447 XXZZ=           -378.8239 YYZZ=            -62.9481
 XXYZ=              4.9504 YYXZ=             -0.3301 ZZXY=              5.7900
 N-N= 4.346415527595D+02 E-N=-2.033765292217D+03  KE= 4.943865905825D+02
 Unable to Open any file for archive entry.
 1\1\GINC-TCN1649\SP\RBP86\TZVP\C5H8O4\ELENAA\22-Feb-2021\0\\# BP86/TZV
 P SCRF=COSMORS geom=CHECKPOINT guess=CHECKPOINT\\COSMO-file for #JFCQE
 DHGNNZCLN-UHFFFAOYSA-N\\0,1\O,0,1.7441018067,-2.469549026,-1.829263405
 7\C,0,1.7864760375,-2.46611576,-0.6091686525\O,0,2.4126954698,-3.44034
 23038,0.1104136068\C,0,1.173693641,-1.4224703079,0.2979862469\C,0,0.48
 98478523,-0.2893679807,-0.4680452625\C,0,-0.1188607334,0.7460436578,0.
 4978850597\C,0,-0.7696657586,1.9040227283,-0.2240831848\O,0,-0.4414730
 724,3.0769831134,-0.1290513291\O,0,-1.7924948223,1.49043413,-1.0253053
 439\H,0,2.784681861,-4.0868033722,-0.5276421985\H,0,0.4619399972,-1.93
 80694051,0.9648095587\H,0,1.9719989595,-1.0383989728,0.9546289544\H,0,
 -0.2974735231,-0.700376158,-1.1159527421\H,0,1.221078845,0.202865931,-
 1.1278345727\H,0,0.6500235357,1.1641749784,1.1614096487\H,0,-0.8845531
 567,0.2614735635,1.1265363685\H,0,-2.1593469392,2.2844351842,-1.470622
 7519\\Version=ES64L-G16RevC.01\State=1-A\HF=-496.5008867\RMSD=9.694e-0
 9\Dipole=-0.2145015,-0.953075,0.71572\Quadrupole=5.7149469,-4.1349058,
 -1.5800411,-4.3296134,2.3026448,-4.7908537\PG=C01 [X(C5H8O4)]\\@
 The archive entry for this job was punched.


 THE UNDERLYING PHYSICAL LAWS NECESSARY FOR THE 
 MATHEMATICAL THEORY OF A LARGE PART OF PHYSICS AND THE
 WHOLE OF CHEMISTRY ARE THUS COMPLETELY KNOWN, AND THE
 DIFFICULTY IS ONLY THAT THE EXACT APPLICATION OF THESE
 LAWS LEADS TO EQUATIONS MUCH TOO COMPLICATED 
 TO BE SOLUBLE.

                                        -- P. A. M. DIRAC, 1929
 Job cpu time:       0 days  0 hours  4 minutes  9.0 seconds.
 Elapsed time:       0 days  0 hours  0 minutes  8.2 seconds.
 File lengths (MBytes):  RWF=     44 Int=      0 D2E=      0 Chk=      8 Scr=      1
 Normal termination of Gaussian 16 at Mon Feb 22 21:16:11 2021.
