 Entering Gaussian System, Link 0=g16
 Input=JGOAIQNSOGZNBX-UHFFFAOYSA-N.gjf
 Output=JGOAIQNSOGZNBX-UHFFFAOYSA-N.log
 Initial command:
 /sw/arch/RedHatEnterpriseServer7/EB_production/2019/software/Gaussian/g16.c01/l1.exe "/scratch-local/elenaa.9715957/Gau-32196.inp" -scrdir="/scratch-local/elenaa.9715957/"
 Entering Link 1 = /sw/arch/RedHatEnterpriseServer7/EB_production/2019/software/Gaussian/g16.c01/l1.exe PID=     32197.
  
 Copyright (c) 1988-2019, Gaussian, Inc.  All Rights Reserved.
  
 This is part of the Gaussian(R) 16 program.  It is based on
 the Gaussian(R) 09 system (copyright 2009, Gaussian, Inc.),
 the Gaussian(R) 03 system (copyright 2003, Gaussian, Inc.),
 the Gaussian(R) 98 system (copyright 1998, Gaussian, Inc.),
 the Gaussian(R) 94 system (copyright 1995, Gaussian, Inc.),
 the Gaussian 92(TM) system (copyright 1992, Gaussian, Inc.),
 the Gaussian 90(TM) system (copyright 1990, Gaussian, Inc.),
 the Gaussian 88(TM) system (copyright 1988, Gaussian, Inc.),
 the Gaussian 86(TM) system (copyright 1986, Carnegie Mellon
 University), and the Gaussian 82(TM) system (copyright 1983,
 Carnegie Mellon University). Gaussian is a federally registered
 trademark of Gaussian, Inc.
  
 This software contains proprietary and confidential information,
 including trade secrets, belonging to Gaussian, Inc.
  
 This software is provided under written license and may be
 used, copied, transmitted, or stored only in accord with that
 written license.
  
 The following legend is applicable only to US Government
 contracts under FAR:
  
                    RESTRICTED RIGHTS LEGEND
  
 Use, reproduction and disclosure by the US Government is
 subject to restrictions as set forth in subparagraphs (a)
 and (c) of the Commercial Computer Software - Restricted
 Rights clause in FAR 52.227-19.
  
 Gaussian, Inc.
 340 Quinnipiac St., Bldg. 40, Wallingford CT 06492
  
  
 ---------------------------------------------------------------
 Warning -- This program may not be used in any manner that
 competes with the business of Gaussian, Inc. or will provide
 assistance to any competitor of Gaussian, Inc.  The licensee
 of this program is prohibited from giving any competitor of
 Gaussian, Inc. access to this program.  By using this program,
 the user acknowledges that Gaussian, Inc. is engaged in the
 business of creating and licensing software in the field of
 computational chemistry and represents and warrants to the
 licensee that it is not a competitor of Gaussian, Inc. and that
 it will not use this program in any manner prohibited above.
 ---------------------------------------------------------------
  

 Cite this work as:
 Gaussian 16, Revision C.01,
 M. J. Frisch, G. W. Trucks, H. B. Schlegel, G. E. Scuseria, 
 M. A. Robb, J. R. Cheeseman, G. Scalmani, V. Barone, 
 G. A. Petersson, H. Nakatsuji, X. Li, M. Caricato, A. V. Marenich, 
 J. Bloino, B. G. Janesko, R. Gomperts, B. Mennucci, H. P. Hratchian, 
 J. V. Ortiz, A. F. Izmaylov, J. L. Sonnenberg, D. Williams-Young, 
 F. Ding, F. Lipparini, F. Egidi, J. Goings, B. Peng, A. Petrone, 
 T. Henderson, D. Ranasinghe, V. G. Zakrzewski, J. Gao, N. Rega, 
 G. Zheng, W. Liang, M. Hada, M. Ehara, K. Toyota, R. Fukuda, 
 J. Hasegawa, M. Ishida, T. Nakajima, Y. Honda, O. Kitao, H. Nakai, 
 T. Vreven, K. Throssell, J. A. Montgomery, Jr., J. E. Peralta, 
 F. Ogliaro, M. J. Bearpark, J. J. Heyd, E. N. Brothers, K. N. Kudin, 
 V. N. Staroverov, T. A. Keith, R. Kobayashi, J. Normand, 
 K. Raghavachari, A. P. Rendell, J. C. Burant, S. S. Iyengar, 
 J. Tomasi, M. Cossi, J. M. Millam, M. Klene, C. Adamo, R. Cammi, 
 J. W. Ochterski, R. L. Martin, K. Morokuma, O. Farkas, 
 J. B. Foresman, and D. J. Fox, Gaussian, Inc., Wallingford CT, 2019.
 
 ******************************************
 Gaussian 16:  ES64L-G16RevC.01  3-Jul-2019
                23-Feb-2021 
 ******************************************
 %chk=JGOAIQNSOGZNBX-UHFFFAOYSA-N.chk
 %NProcShared=32
 Will use up to   32 processors via shared memory.
 -------------------------------------------------------------
 #P BP86/TZVP EmpiricalDispersion=GD3 SCRF=(Solvent=Water) Opt
 -------------------------------------------------------------
 1/18=20,19=15,26=3,38=1/1,3;
 2/9=110,12=2,17=6,18=5,40=1/2;
 3/5=19,7=101,11=2,25=1,30=1,70=2201,71=1,72=1,74=404,124=31/1,2,3;
 4//1;
 5/5=2,38=5,53=1/2;
 6/7=2,8=2,9=2,10=2,28=1/1;
 7//1,2,3,16;
 1/18=20,19=15,26=3/3(2);
 2/9=110/2;
 99//99;
 2/9=110/2;
 3/5=19,7=101,11=2,25=1,30=1,70=2205,71=1,72=1,74=404,124=31/1,2,3;
 4/5=5,16=3,69=1/1;
 5/5=2,38=5,53=1/2;
 7//1,2,3,16;
 1/18=20,19=15,26=3/3(-5);
 2/9=110/2;
 6/7=2,8=2,9=2,10=2,19=2,28=1/1;
 99/9=1/99;
 Leave Link    1 at Tue Feb 23 00:13:01 2021, MaxMem=           0 cpu:               2.4 elap:               0.1
 (Enter /sw/arch/RedHatEnterpriseServer7/EB_production/2019/software/Gaussian/g16.c01/l101.exe)
 -------------------------------------
 Particle #JGOAIQNSOGZNBX-UHFFFAOYSA-N
 -------------------------------------
 Symbolic Z-matrix:
 Charge =  0 Multiplicity = 1
 C                    -2.16701   8.31267  -4.7447 
 C                    -2.50005   7.46231  -3.49612 
 N                    -2.24794   5.99617  -3.73489 
 C                    -3.3871    5.32449  -4.45665 
 C                    -3.02476   3.97359  -5.12161 
 C                    -1.73287   5.23763  -2.54013 
 C                    -0.31923   5.67413  -2.07465 
 O                     0.29017   4.65776  -1.25797 
 C                     1.51433   4.74263  -0.64885 
 O                     2.18949   5.79543  -0.76358 
 C                     2.06052   3.64199   0.19781 
 C                     1.25275   2.37768   0.27886 
 C                     0.76545   1.71291  -0.87589 
 C                     0.03395   0.51366  -0.77368 
 C                    -0.22015  -0.05123   0.48804 
 C                     0.2578    0.58458   1.64622 
 C                     0.98992   1.78186   1.54026 
 C                     3.48229   3.3068   -0.14617 
 C                     3.86881   2.97385  -1.46991 
 C                     5.20581   2.6639   -1.77872 
 C                     6.18414   2.68428  -0.77017 
 C                     5.82269   3.00433   0.54931 
 C                     4.48581   3.31533   0.8559 
 H                    -1.17553   8.05147  -5.12171 
 H                    -2.90114   8.15257  -5.53625 
 H                    -2.17179   9.37415  -4.48637 
 H                    -1.87566   7.85167  -2.68977 
 H                    -3.53859   7.6413   -3.19723 
 H                    -3.74382   5.96885  -5.26456 
 H                    -4.22794   5.1726   -3.773 
 H                    -3.78814   3.69705  -5.85226 
 H                    -2.9753    3.17787  -4.37744 
 H                    -2.06352   4.04815  -5.63358 
 H                    -1.64522   4.17826  -2.78645 
 H                    -2.43534   5.31919  -1.7048 
 H                    -0.38677   6.59268  -1.48686 
 H                     0.30912   5.85947  -2.94963 
 H                     2.05045   4.09457   1.19456 
 H                     0.9379    2.09493  -1.80742 
 H                    -0.31032   0.04919  -1.61806 
 H                    -0.74851  -0.92412   0.56365 
 H                     0.07622   0.17438   2.56574 
 H                     1.33977   2.21122   2.40059 
 H                     3.17869   2.96253  -2.22361 
 H                     5.46575   2.42482  -2.73804 
 H                     7.1555    2.46307  -0.99561 
 H                     6.53141   3.00954   1.28608 
 H                     4.25102   3.54688   1.82451 
 
 ITRead=  0  0  0  0  0  0  0  0  0  0  0  0  0  0  0  0  0  0  0  0
 ITRead=  0  0  0  0  0  0  0  0  0  0  0  0  0  0  0  0  0  0  0  0
 ITRead=  0  0  0  0  0  0  0  0
 MicOpt= -1 -1 -1 -1 -1 -1 -1 -1 -1 -1 -1 -1 -1 -1 -1 -1 -1 -1 -1 -1
 MicOpt= -1 -1 -1 -1 -1 -1 -1 -1 -1 -1 -1 -1 -1 -1 -1 -1 -1 -1 -1 -1
 MicOpt= -1 -1 -1 -1 -1 -1 -1 -1
 NAtoms=     48 NQM=       48 NQMF=       0 NMMI=      0 NMMIF=      0
                NMic=       0 NMicF=      0.
                    Isotopes and Nuclear Properties:
 (Nuclear quadrupole moments (NQMom) in fm**2, nuclear magnetic moments (NMagM)
  in nuclear magnetons)

  Atom         1           2           3           4           5           6           7           8           9          10
 IAtWgt=          12          12          14          12          12          12          12          16          12          16
 AtmWgt=  12.0000000  12.0000000  14.0030740  12.0000000  12.0000000  12.0000000  12.0000000  15.9949146  12.0000000  15.9949146
 NucSpn=           0           0           2           0           0           0           0           0           0           0
 AtZEff=  -0.0000000  -0.0000000  -0.0000000  -0.0000000  -0.0000000  -0.0000000  -0.0000000  -0.0000000  -0.0000000  -0.0000000
 NQMom=    0.0000000   0.0000000   2.0440000   0.0000000   0.0000000   0.0000000   0.0000000   0.0000000   0.0000000   0.0000000
 NMagM=    0.0000000   0.0000000   0.4037610   0.0000000   0.0000000   0.0000000   0.0000000   0.0000000   0.0000000   0.0000000
 AtZNuc=   6.0000000   6.0000000   7.0000000   6.0000000   6.0000000   6.0000000   6.0000000   8.0000000   6.0000000   8.0000000

  Atom        11          12          13          14          15          16          17          18          19          20
 IAtWgt=          12          12          12          12          12          12          12          12          12          12
 AtmWgt=  12.0000000  12.0000000  12.0000000  12.0000000  12.0000000  12.0000000  12.0000000  12.0000000  12.0000000  12.0000000
 NucSpn=           0           0           0           0           0           0           0           0           0           0
 AtZEff=  -0.0000000  -0.0000000  -0.0000000  -0.0000000  -0.0000000  -0.0000000  -0.0000000  -0.0000000  -0.0000000  -0.0000000
 NQMom=    0.0000000   0.0000000   0.0000000   0.0000000   0.0000000   0.0000000   0.0000000   0.0000000   0.0000000   0.0000000
 NMagM=    0.0000000   0.0000000   0.0000000   0.0000000   0.0000000   0.0000000   0.0000000   0.0000000   0.0000000   0.0000000
 AtZNuc=   6.0000000   6.0000000   6.0000000   6.0000000   6.0000000   6.0000000   6.0000000   6.0000000   6.0000000   6.0000000

  Atom        21          22          23          24          25          26          27          28          29          30
 IAtWgt=          12          12          12           1           1           1           1           1           1           1
 AtmWgt=  12.0000000  12.0000000  12.0000000   1.0078250   1.0078250   1.0078250   1.0078250   1.0078250   1.0078250   1.0078250
 NucSpn=           0           0           0           1           1           1           1           1           1           1
 AtZEff=  -0.0000000  -0.0000000  -0.0000000  -0.0000000  -0.0000000  -0.0000000  -0.0000000  -0.0000000  -0.0000000  -0.0000000
 NQMom=    0.0000000   0.0000000   0.0000000   0.0000000   0.0000000   0.0000000   0.0000000   0.0000000   0.0000000   0.0000000
 NMagM=    0.0000000   0.0000000   0.0000000   2.7928460   2.7928460   2.7928460   2.7928460   2.7928460   2.7928460   2.7928460
 AtZNuc=   6.0000000   6.0000000   6.0000000   1.0000000   1.0000000   1.0000000   1.0000000   1.0000000   1.0000000   1.0000000

  Atom        31          32          33          34          35          36          37          38          39          40
 IAtWgt=           1           1           1           1           1           1           1           1           1           1
 AtmWgt=   1.0078250   1.0078250   1.0078250   1.0078250   1.0078250   1.0078250   1.0078250   1.0078250   1.0078250   1.0078250
 NucSpn=           1           1           1           1           1           1           1           1           1           1
 AtZEff=  -0.0000000  -0.0000000  -0.0000000  -0.0000000  -0.0000000  -0.0000000  -0.0000000  -0.0000000  -0.0000000  -0.0000000
 NQMom=    0.0000000   0.0000000   0.0000000   0.0000000   0.0000000   0.0000000   0.0000000   0.0000000   0.0000000   0.0000000
 NMagM=    2.7928460   2.7928460   2.7928460   2.7928460   2.7928460   2.7928460   2.7928460   2.7928460   2.7928460   2.7928460
 AtZNuc=   1.0000000   1.0000000   1.0000000   1.0000000   1.0000000   1.0000000   1.0000000   1.0000000   1.0000000   1.0000000

  Atom        41          42          43          44          45          46          47          48
 IAtWgt=           1           1           1           1           1           1           1           1
 AtmWgt=   1.0078250   1.0078250   1.0078250   1.0078250   1.0078250   1.0078250   1.0078250   1.0078250
 NucSpn=           1           1           1           1           1           1           1           1
 AtZEff=  -0.0000000  -0.0000000  -0.0000000  -0.0000000  -0.0000000  -0.0000000  -0.0000000  -0.0000000
 NQMom=    0.0000000   0.0000000   0.0000000   0.0000000   0.0000000   0.0000000   0.0000000   0.0000000
 NMagM=    2.7928460   2.7928460   2.7928460   2.7928460   2.7928460   2.7928460   2.7928460   2.7928460
 AtZNuc=   1.0000000   1.0000000   1.0000000   1.0000000   1.0000000   1.0000000   1.0000000   1.0000000
 Leave Link  101 at Tue Feb 23 00:13:01 2021, MaxMem=   104857600 cpu:               3.0 elap:               0.1
 (Enter /sw/arch/RedHatEnterpriseServer7/EB_production/2019/software/Gaussian/g16.c01/l103.exe)

 GradGradGradGradGradGradGradGradGradGradGradGradGradGradGradGradGradGrad
 Berny optimization.
 Initialization pass.
                           ----------------------------
                           !    Initial Parameters    !
                           ! (Angstroms and Degrees)  !
 --------------------------                            --------------------------
 ! Name  Definition              Value          Derivative Info.                !
 --------------------------------------------------------------------------------
 ! R1    R(1,2)                  1.5469         estimate D2E/DX2                !
 ! R2    R(1,24)                 1.0924         estimate D2E/DX2                !
 ! R3    R(1,25)                 1.0914         estimate D2E/DX2                !
 ! R4    R(1,26)                 1.0925         estimate D2E/DX2                !
 ! R5    R(2,3)                  1.5067         estimate D2E/DX2                !
 ! R6    R(2,27)                 1.0916         estimate D2E/DX2                !
 ! R7    R(2,28)                 1.0954         estimate D2E/DX2                !
 ! R8    R(3,4)                  1.5066         estimate D2E/DX2                !
 ! R9    R(3,6)                  1.506          estimate D2E/DX2                !
 ! R10   R(4,5)                  1.5487         estimate D2E/DX2                !
 ! R11   R(4,29)                 1.0932         estimate D2E/DX2                !
 ! R12   R(4,30)                 1.0943         estimate D2E/DX2                !
 ! R13   R(5,31)                 1.0923         estimate D2E/DX2                !
 ! R14   R(5,32)                 1.0906         estimate D2E/DX2                !
 ! R15   R(5,33)                 1.0916         estimate D2E/DX2                !
 ! R16   R(6,7)                  1.551          estimate D2E/DX2                !
 ! R17   R(6,34)                 1.0912         estimate D2E/DX2                !
 ! R18   R(6,35)                 1.0945         estimate D2E/DX2                !
 ! R19   R(7,8)                  1.4392         estimate D2E/DX2                !
 ! R20   R(7,36)                 1.0926         estimate D2E/DX2                !
 ! R21   R(7,37)                 1.0931         estimate D2E/DX2                !
 ! R22   R(8,9)                  1.37           estimate D2E/DX2                !
 ! R23   R(9,10)                 1.2559         estimate D2E/DX2                !
 ! R24   R(9,11)                 1.4922         estimate D2E/DX2                !
 ! R25   R(11,12)                1.5025         estimate D2E/DX2                !
 ! R26   R(11,18)                1.5007         estimate D2E/DX2                !
 ! R27   R(11,38)                1.0947         estimate D2E/DX2                !
 ! R28   R(12,13)                1.4187         estimate D2E/DX2                !
 ! R29   R(12,17)                1.4196         estimate D2E/DX2                !
 ! R30   R(13,14)                1.4085         estimate D2E/DX2                !
 ! R31   R(13,39)                1.0215         estimate D2E/DX2                !
 ! R32   R(14,15)                1.4056         estimate D2E/DX2                !
 ! R33   R(14,40)                1.0233         estimate D2E/DX2                !
 ! R34   R(15,16)                1.405          estimate D2E/DX2                !
 ! R35   R(15,41)                1.0231         estimate D2E/DX2                !
 ! R36   R(16,17)                1.4074         estimate D2E/DX2                !
 ! R37   R(16,42)                1.0231         estimate D2E/DX2                !
 ! R38   R(17,43)                1.0232         estimate D2E/DX2                !
 ! R39   R(18,19)                1.4186         estimate D2E/DX2                !
 ! R40   R(18,23)                1.4182         estimate D2E/DX2                !
 ! R41   R(19,20)                1.4068         estimate D2E/DX2                !
 ! R42   R(19,44)                1.022          estimate D2E/DX2                !
 ! R43   R(20,21)                1.4052         estimate D2E/DX2                !
 ! R44   R(20,45)                1.0223         estimate D2E/DX2                !
 ! R45   R(21,22)                1.405          estimate D2E/DX2                !
 ! R46   R(21,46)                1.0214         estimate D2E/DX2                !
 ! R47   R(22,23)                1.4064         estimate D2E/DX2                !
 ! R48   R(22,47)                1.0223         estimate D2E/DX2                !
 ! R49   R(23,48)                1.0232         estimate D2E/DX2                !
 ! A1    A(2,1,24)             110.0301         estimate D2E/DX2                !
 ! A2    A(2,1,25)             111.0962         estimate D2E/DX2                !
 ! A3    A(2,1,26)             110.0179         estimate D2E/DX2                !
 ! A4    A(24,1,25)            108.9732         estimate D2E/DX2                !
 ! A5    A(24,1,26)            108.5357         estimate D2E/DX2                !
 ! A6    A(25,1,26)            108.1248         estimate D2E/DX2                !
 ! A7    A(1,2,3)              111.7761         estimate D2E/DX2                !
 ! A8    A(1,2,27)             106.0807         estimate D2E/DX2                !
 ! A9    A(1,2,28)             109.5435         estimate D2E/DX2                !
 ! A10   A(3,2,27)             111.6186         estimate D2E/DX2                !
 ! A11   A(3,2,28)             111.1542         estimate D2E/DX2                !
 ! A12   A(27,2,28)            106.4065         estimate D2E/DX2                !
 ! A13   A(2,3,4)              112.534          estimate D2E/DX2                !
 ! A14   A(2,3,6)              114.9368         estimate D2E/DX2                !
 ! A15   A(4,3,6)              114.4628         estimate D2E/DX2                !
 ! A16   A(3,4,5)              114.6888         estimate D2E/DX2                !
 ! A17   A(3,4,29)             109.7541         estimate D2E/DX2                !
 ! A18   A(3,4,30)             110.0954         estimate D2E/DX2                !
 ! A19   A(5,4,29)             105.8529         estimate D2E/DX2                !
 ! A20   A(5,4,30)             109.0838         estimate D2E/DX2                !
 ! A21   A(29,4,30)            107.0244         estimate D2E/DX2                !
 ! A22   A(4,5,31)             110.1541         estimate D2E/DX2                !
 ! A23   A(4,5,32)             110.7364         estimate D2E/DX2                !
 ! A24   A(4,5,33)             110.3539         estimate D2E/DX2                !
 ! A25   A(31,5,32)            107.6627         estimate D2E/DX2                !
 ! A26   A(31,5,33)            108.6012         estimate D2E/DX2                !
 ! A27   A(32,5,33)            109.2639         estimate D2E/DX2                !
 ! A28   A(3,6,7)              114.0828         estimate D2E/DX2                !
 ! A29   A(3,6,34)             109.7175         estimate D2E/DX2                !
 ! A30   A(3,6,35)             110.3915         estimate D2E/DX2                !
 ! A31   A(7,6,34)             105.5316         estimate D2E/DX2                !
 ! A32   A(7,6,35)             109.5702         estimate D2E/DX2                !
 ! A33   A(34,6,35)            107.2293         estimate D2E/DX2                !
 ! A34   A(6,7,8)              110.9456         estimate D2E/DX2                !
 ! A35   A(6,7,36)             109.9812         estimate D2E/DX2                !
 ! A36   A(6,7,37)             109.3555         estimate D2E/DX2                !
 ! A37   A(8,7,36)             108.3367         estimate D2E/DX2                !
 ! A38   A(8,7,37)             109.3035         estimate D2E/DX2                !
 ! A39   A(36,7,37)            108.8823         estimate D2E/DX2                !
 ! A40   A(7,8,9)              125.9382         estimate D2E/DX2                !
 ! A41   A(8,9,10)             119.4506         estimate D2E/DX2                !
 ! A42   A(8,9,11)             122.2536         estimate D2E/DX2                !
 ! A43   A(10,9,11)            118.253          estimate D2E/DX2                !
 ! A44   A(9,11,12)            117.0324         estimate D2E/DX2                !
 ! A45   A(9,11,18)            112.4253         estimate D2E/DX2                !
 ! A46   A(9,11,38)            102.0234         estimate D2E/DX2                !
 ! A47   A(12,11,18)           109.4969         estimate D2E/DX2                !
 ! A48   A(12,11,38)           107.0865         estimate D2E/DX2                !
 ! A49   A(18,11,38)           108.0442         estimate D2E/DX2                !
 ! A50   A(11,12,13)           122.3459         estimate D2E/DX2                !
 ! A51   A(11,12,17)           120.0427         estimate D2E/DX2                !
 ! A52   A(13,12,17)           117.5793         estimate D2E/DX2                !
 ! A53   A(12,13,14)           121.2175         estimate D2E/DX2                !
 ! A54   A(12,13,39)           120.5991         estimate D2E/DX2                !
 ! A55   A(14,13,39)           118.1834         estimate D2E/DX2                !
 ! A56   A(13,14,15)           120.0817         estimate D2E/DX2                !
 ! A57   A(13,14,40)           120.0863         estimate D2E/DX2                !
 ! A58   A(15,14,40)           119.8314         estimate D2E/DX2                !
 ! A59   A(14,15,16)           119.7748         estimate D2E/DX2                !
 ! A60   A(14,15,41)           120.1702         estimate D2E/DX2                !
 ! A61   A(16,15,41)           120.0546         estimate D2E/DX2                !
 ! A62   A(15,16,17)           119.9915         estimate D2E/DX2                !
 ! A63   A(15,16,42)           119.937          estimate D2E/DX2                !
 ! A64   A(17,16,42)           120.071          estimate D2E/DX2                !
 ! A65   A(12,17,16)           121.3505         estimate D2E/DX2                !
 ! A66   A(12,17,43)           120.5114         estimate D2E/DX2                !
 ! A67   A(16,17,43)           118.1349         estimate D2E/DX2                !
 ! A68   A(11,18,19)           121.6297         estimate D2E/DX2                !
 ! A69   A(11,18,23)           120.47           estimate D2E/DX2                !
 ! A70   A(19,18,23)           117.9003         estimate D2E/DX2                !
 ! A71   A(18,19,20)           121.0301         estimate D2E/DX2                !
 ! A72   A(18,19,44)           120.4487         estimate D2E/DX2                !
 ! A73   A(20,19,44)           118.5191         estimate D2E/DX2                !
 ! A74   A(19,20,21)           120.0613         estimate D2E/DX2                !
 ! A75   A(19,20,45)           119.9469         estimate D2E/DX2                !
 ! A76   A(21,20,45)           119.9918         estimate D2E/DX2                !
 ! A77   A(20,21,22)           119.8815         estimate D2E/DX2                !
 ! A78   A(20,21,46)           120.0351         estimate D2E/DX2                !
 ! A79   A(22,21,46)           120.0829         estimate D2E/DX2                !
 ! A80   A(21,22,23)           119.9757         estimate D2E/DX2                !
 ! A81   A(21,22,47)           119.9751         estimate D2E/DX2                !
 ! A82   A(23,22,47)           120.0492         estimate D2E/DX2                !
 ! A83   A(18,23,22)           121.1489         estimate D2E/DX2                !
 ! A84   A(18,23,48)           120.5222         estimate D2E/DX2                !
 ! A85   A(22,23,48)           118.3287         estimate D2E/DX2                !
 ! D1    D(24,1,2,3)           -49.5292         estimate D2E/DX2                !
 ! D2    D(24,1,2,27)           72.3448         estimate D2E/DX2                !
 ! D3    D(24,1,2,28)         -173.183          estimate D2E/DX2                !
 ! D4    D(25,1,2,3)            71.2388         estimate D2E/DX2                !
 ! D5    D(25,1,2,27)         -166.8872         estimate D2E/DX2                !
 ! D6    D(25,1,2,28)          -52.415          estimate D2E/DX2                !
 ! D7    D(26,1,2,3)          -169.0631         estimate D2E/DX2                !
 ! D8    D(26,1,2,27)          -47.1891         estimate D2E/DX2                !
 ! D9    D(26,1,2,28)           67.283          estimate D2E/DX2                !
 ! D10   D(1,2,3,4)            -81.8915         estimate D2E/DX2                !
 ! D11   D(1,2,3,6)            144.6883         estimate D2E/DX2                !
 ! D12   D(27,2,3,4)           159.4777         estimate D2E/DX2                !
 ! D13   D(27,2,3,6)            26.0575         estimate D2E/DX2                !
 ! D14   D(28,2,3,4)            40.8493         estimate D2E/DX2                !
 ! D15   D(28,2,3,6)           -92.5709         estimate D2E/DX2                !
 ! D16   D(2,3,4,5)            161.5176         estimate D2E/DX2                !
 ! D17   D(2,3,4,29)            42.5353         estimate D2E/DX2                !
 ! D18   D(2,3,4,30)           -75.0221         estimate D2E/DX2                !
 ! D19   D(6,3,4,5)            -64.8328         estimate D2E/DX2                !
 ! D20   D(6,3,4,29)           176.1849         estimate D2E/DX2                !
 ! D21   D(6,3,4,30)            58.6275         estimate D2E/DX2                !
 ! D22   D(2,3,6,7)            -65.6785         estimate D2E/DX2                !
 ! D23   D(2,3,6,34)           176.1731         estimate D2E/DX2                !
 ! D24   D(2,3,6,35)            58.2098         estimate D2E/DX2                !
 ! D25   D(4,3,6,7)            161.8017         estimate D2E/DX2                !
 ! D26   D(4,3,6,34)            43.6532         estimate D2E/DX2                !
 ! D27   D(4,3,6,35)           -74.3101         estimate D2E/DX2                !
 ! D28   D(3,4,5,31)          -163.509          estimate D2E/DX2                !
 ! D29   D(3,4,5,32)            77.5086         estimate D2E/DX2                !
 ! D30   D(3,4,5,33)           -43.6036         estimate D2E/DX2                !
 ! D31   D(29,4,5,31)          -42.3619         estimate D2E/DX2                !
 ! D32   D(29,4,5,32)         -161.3442         estimate D2E/DX2                !
 ! D33   D(29,4,5,33)           77.5435         estimate D2E/DX2                !
 ! D34   D(30,4,5,31)           72.4915         estimate D2E/DX2                !
 ! D35   D(30,4,5,32)          -46.4909         estimate D2E/DX2                !
 ! D36   D(30,4,5,33)         -167.6031         estimate D2E/DX2                !
 ! D37   D(3,6,7,8)           -160.717          estimate D2E/DX2                !
 ! D38   D(3,6,7,36)            79.4408         estimate D2E/DX2                !
 ! D39   D(3,6,7,37)           -40.0779         estimate D2E/DX2                !
 ! D40   D(34,6,7,8)           -40.2012         estimate D2E/DX2                !
 ! D41   D(34,6,7,36)         -160.0434         estimate D2E/DX2                !
 ! D42   D(34,6,7,37)           80.4378         estimate D2E/DX2                !
 ! D43   D(35,6,7,8)            74.9538         estimate D2E/DX2                !
 ! D44   D(35,6,7,36)          -44.8884         estimate D2E/DX2                !
 ! D45   D(35,6,7,37)         -164.4071         estimate D2E/DX2                !
 ! D46   D(6,7,8,9)           -177.6313         estimate D2E/DX2                !
 ! D47   D(36,7,8,9)           -56.8125         estimate D2E/DX2                !
 ! D48   D(37,7,8,9)            61.6989         estimate D2E/DX2                !
 ! D49   D(7,8,9,10)             1.5845         estimate D2E/DX2                !
 ! D50   D(7,8,9,11)           179.1638         estimate D2E/DX2                !
 ! D51   D(8,9,11,12)            4.3926         estimate D2E/DX2                !
 ! D52   D(8,9,11,18)          132.4109         estimate D2E/DX2                !
 ! D53   D(8,9,11,38)         -112.0897         estimate D2E/DX2                !
 ! D54   D(10,9,11,12)        -178.0003         estimate D2E/DX2                !
 ! D55   D(10,9,11,18)         -49.982          estimate D2E/DX2                !
 ! D56   D(10,9,11,38)          65.5175         estimate D2E/DX2                !
 ! D57   D(9,11,12,13)          49.8629         estimate D2E/DX2                !
 ! D58   D(9,11,12,17)        -132.2506         estimate D2E/DX2                !
 ! D59   D(18,11,12,13)        -79.555          estimate D2E/DX2                !
 ! D60   D(18,11,12,17)         98.3316         estimate D2E/DX2                !
 ! D61   D(38,11,12,13)        163.5347         estimate D2E/DX2                !
 ! D62   D(38,11,12,17)        -18.5788         estimate D2E/DX2                !
 ! D63   D(9,11,18,19)         -54.535          estimate D2E/DX2                !
 ! D64   D(9,11,18,23)         125.4463         estimate D2E/DX2                !
 ! D65   D(12,11,18,19)         77.3547         estimate D2E/DX2                !
 ! D66   D(12,11,18,23)       -102.664          estimate D2E/DX2                !
 ! D67   D(38,11,18,19)       -166.3402         estimate D2E/DX2                !
 ! D68   D(38,11,18,23)         13.6411         estimate D2E/DX2                !
 ! D69   D(11,12,13,14)        178.6652         estimate D2E/DX2                !
 ! D70   D(11,12,13,39)         -1.3268         estimate D2E/DX2                !
 ! D71   D(17,12,13,14)          0.7293         estimate D2E/DX2                !
 ! D72   D(17,12,13,39)       -179.2627         estimate D2E/DX2                !
 ! D73   D(11,12,17,16)       -178.8016         estimate D2E/DX2                !
 ! D74   D(11,12,17,43)          0.5446         estimate D2E/DX2                !
 ! D75   D(13,12,17,16)         -0.816          estimate D2E/DX2                !
 ! D76   D(13,12,17,43)        178.5302         estimate D2E/DX2                !
 ! D77   D(12,13,14,15)         -0.3405         estimate D2E/DX2                !
 ! D78   D(12,13,14,40)        179.9307         estimate D2E/DX2                !
 ! D79   D(39,13,14,15)        179.6517         estimate D2E/DX2                !
 ! D80   D(39,13,14,40)         -0.0771         estimate D2E/DX2                !
 ! D81   D(13,14,15,16)          0.0098         estimate D2E/DX2                !
 ! D82   D(13,14,15,41)       -179.7809         estimate D2E/DX2                !
 ! D83   D(40,14,15,16)        179.7393         estimate D2E/DX2                !
 ! D84   D(40,14,15,41)         -0.0514         estimate D2E/DX2                !
 ! D85   D(14,15,16,17)         -0.0941         estimate D2E/DX2                !
 ! D86   D(14,15,16,42)       -179.8523         estimate D2E/DX2                !
 ! D87   D(41,15,16,17)        179.6968         estimate D2E/DX2                !
 ! D88   D(41,15,16,42)         -0.0614         estimate D2E/DX2                !
 ! D89   D(15,16,17,12)          0.5124         estimate D2E/DX2                !
 ! D90   D(15,16,17,43)       -178.8489         estimate D2E/DX2                !
 ! D91   D(42,16,17,12)       -179.7298         estimate D2E/DX2                !
 ! D92   D(42,16,17,43)          0.9089         estimate D2E/DX2                !
 ! D93   D(11,18,19,20)        179.8912         estimate D2E/DX2                !
 ! D94   D(11,18,19,44)          0.4365         estimate D2E/DX2                !
 ! D95   D(23,18,19,20)         -0.0906         estimate D2E/DX2                !
 ! D96   D(23,18,19,44)       -179.5453         estimate D2E/DX2                !
 ! D97   D(11,18,23,22)       -179.9606         estimate D2E/DX2                !
 ! D98   D(11,18,23,48)          0.2094         estimate D2E/DX2                !
 ! D99   D(19,18,23,22)          0.0214         estimate D2E/DX2                !
 ! D100  D(19,18,23,48)       -179.8086         estimate D2E/DX2                !
 ! D101  D(18,19,20,21)         -0.174          estimate D2E/DX2                !
 ! D102  D(18,19,20,45)        179.9034         estimate D2E/DX2                !
 ! D103  D(44,19,20,21)        179.291          estimate D2E/DX2                !
 ! D104  D(44,19,20,45)         -0.6317         estimate D2E/DX2                !
 ! D105  D(19,20,21,22)          0.5091         estimate D2E/DX2                !
 ! D106  D(19,20,21,46)       -179.7379         estimate D2E/DX2                !
 ! D107  D(45,20,21,22)       -179.5683         estimate D2E/DX2                !
 ! D108  D(45,20,21,46)          0.1847         estimate D2E/DX2                !
 ! D109  D(20,21,22,23)         -0.5771         estimate D2E/DX2                !
 ! D110  D(20,21,22,47)        179.3277         estimate D2E/DX2                !
 ! D111  D(46,21,22,23)        179.6701         estimate D2E/DX2                !
 ! D112  D(46,21,22,47)         -0.4252         estimate D2E/DX2                !
 ! D113  D(21,22,23,18)          0.3123         estimate D2E/DX2                !
 ! D114  D(21,22,23,48)       -179.8541         estimate D2E/DX2                !
 ! D115  D(47,22,23,18)       -179.5924         estimate D2E/DX2                !
 ! D116  D(47,22,23,48)          0.2413         estimate D2E/DX2                !
 --------------------------------------------------------------------------------
 Trust Radius=3.00D-01 FncErr=1.00D-07 GrdErr=1.00D-06 EigMax=2.50D+02 EigMin=1.00D-04
 Number of steps in this run=    260 maximum allowed number of steps=    288.
 GradGradGradGradGradGradGradGradGradGradGradGradGradGradGradGradGradGrad

 Leave Link  103 at Tue Feb 23 00:13:01 2021, MaxMem=   104857600 cpu:               0.7 elap:               0.1
 (Enter /sw/arch/RedHatEnterpriseServer7/EB_production/2019/software/Gaussian/g16.c01/l202.exe)
                          Input orientation:                          
 ---------------------------------------------------------------------
 Center     Atomic      Atomic             Coordinates (Angstroms)
 Number     Number       Type             X           Y           Z
 ---------------------------------------------------------------------
      1          6           0       -2.167010    8.312670   -4.744700
      2          6           0       -2.500050    7.462310   -3.496120
      3          7           0       -2.247940    5.996170   -3.734890
      4          6           0       -3.387100    5.324490   -4.456650
      5          6           0       -3.024760    3.973590   -5.121610
      6          6           0       -1.732870    5.237630   -2.540130
      7          6           0       -0.319230    5.674130   -2.074650
      8          8           0        0.290170    4.657760   -1.257970
      9          6           0        1.514330    4.742630   -0.648850
     10          8           0        2.189490    5.795430   -0.763580
     11          6           0        2.060520    3.641990    0.197810
     12          6           0        1.252750    2.377680    0.278860
     13          6           0        0.765450    1.712910   -0.875890
     14          6           0        0.033950    0.513660   -0.773680
     15          6           0       -0.220150   -0.051230    0.488040
     16          6           0        0.257800    0.584580    1.646220
     17          6           0        0.989920    1.781860    1.540260
     18          6           0        3.482290    3.306800   -0.146170
     19          6           0        3.868810    2.973850   -1.469910
     20          6           0        5.205810    2.663900   -1.778720
     21          6           0        6.184140    2.684280   -0.770170
     22          6           0        5.822690    3.004330    0.549310
     23          6           0        4.485810    3.315330    0.855900
     24          1           0       -1.175530    8.051470   -5.121710
     25          1           0       -2.901140    8.152570   -5.536250
     26          1           0       -2.171790    9.374150   -4.486370
     27          1           0       -1.875660    7.851670   -2.689770
     28          1           0       -3.538590    7.641300   -3.197230
     29          1           0       -3.743820    5.968850   -5.264560
     30          1           0       -4.227940    5.172600   -3.773000
     31          1           0       -3.788140    3.697050   -5.852260
     32          1           0       -2.975300    3.177870   -4.377440
     33          1           0       -2.063520    4.048150   -5.633580
     34          1           0       -1.645220    4.178260   -2.786450
     35          1           0       -2.435340    5.319190   -1.704800
     36          1           0       -0.386770    6.592680   -1.486860
     37          1           0        0.309120    5.859470   -2.949630
     38          1           0        2.050450    4.094570    1.194560
     39          1           0        0.937900    2.094930   -1.807420
     40          1           0       -0.310320    0.049190   -1.618060
     41          1           0       -0.748510   -0.924120    0.563650
     42          1           0        0.076220    0.174380    2.565740
     43          1           0        1.339770    2.211220    2.400590
     44          1           0        3.178690    2.962530   -2.223610
     45          1           0        5.465750    2.424820   -2.738040
     46          1           0        7.155500    2.463070   -0.995610
     47          1           0        6.531410    3.009540    1.286080
     48          1           0        4.251020    3.546880    1.824510
 ---------------------------------------------------------------------
                    Distance matrix (angstroms):
                    1          2          3          4          5
     1  C    0.000000
     2  C    1.546926   0.000000
     3  N    2.528327   1.506697   0.000000
     4  C    3.240496   2.505943   1.506578   0.000000
     5  C    4.439078   3.884418   2.572406   1.548675   0.000000
     6  C    3.808474   2.540016   1.506032   2.533194   3.151320
     7  C    4.183940   3.158186   2.565157   3.899743   4.415393
     8  O    5.617240   4.545343   3.790577   4.919187   5.136591
     9  C    6.563036   5.623064   5.024906   6.233933   6.418749
    10  O    6.415988   5.677768   5.344134   6.705140   7.035619
    11  C    8.007226   7.002768   6.290558   7.360120   7.366564
    12  C    8.494411   7.361212   6.438827   7.255133   7.071711
    13  C    8.192914   7.112292   5.966634   6.565746   6.123929
    14  C    9.024288   7.881407   6.635790   6.957869   6.342816
    15  C   10.056175   8.804814   7.649583   7.961024   7.452059
    16  C   10.317312   9.019566   8.032458   8.543832   8.250098
    17  C    9.597834   8.355389   7.488081   8.226267   8.080956
    18  C    8.838541   8.017407   7.276480   8.357023   8.218352
    19  C    8.698182   8.050725   7.188823   8.191114   7.864839
    20  C    9.750083   9.238749   8.395774   9.385529   8.979559
    21  C   10.826697  10.279860   9.531954  10.591009  10.266508
    22  C   10.956291  10.271664   9.614601  10.736061  10.553491
    23  C   10.029962   9.216277   8.579373   9.707864   9.621465
    24  H    1.092426   2.178074   2.701405   3.573481   4.477584
    25  H    1.091389   2.190768   2.884723   3.065898   4.201319
    26  H    1.092473   2.177954   3.461397   4.228192   5.504283
    27  H    2.126063   1.091634   2.161885   3.434087   4.719511
    28  H    2.174082   1.095417   2.159006   2.641344   4.173650
    29  H    2.872295   2.627692   2.139695   1.093237   2.125687
    30  H    3.879649   2.881846   2.144789   1.094285   2.168874
    31  H    5.015845   4.624690   3.484455   2.181083   1.092279
    32  H    5.210987   4.399888   2.980728   2.187197   1.090599
    33  H    4.357402   4.051639   2.726503   2.183134   1.091629
    34  H    4.604384   3.466893   2.137196   2.671621   2.719925
    35  H    4.274800   2.793918   2.148182   2.911796   3.719227
    36  H    4.091594   3.042915   2.978828   4.407940   5.199041
    37  H    3.920674   3.280119   2.678409   4.027326   4.403271
    38  H    8.417490   7.351952   6.811146   7.938251   8.103480
    39  H    7.545089   6.593935   5.392995   6.012828   5.496898
    40  H    9.028193   7.954645   6.603174   6.734461   5.919794
    41  H   10.747512   9.480603   8.283487   8.438643   7.841623
    42  H   11.167201   9.823301   8.887795   9.371882   9.118411
    43  H   10.028976   8.780054   8.052430   8.891428   8.873475
    44  H    7.972227   7.356316   6.398066   7.326317   6.921231
    45  H    9.846445   9.455420   8.558578   9.472838   8.953706
    46  H   11.626809  11.156818  10.412067  11.459186  11.087977
    47  H   11.838750  11.147370  10.545477  11.692510  11.545920
    48  H   10.346902   9.445456   8.896203  10.047574  10.068150
                    6          7          8          9         10
     6  C    0.000000
     7  C    1.550994   0.000000
     8  O    2.464320   1.439216   0.000000
     9  C    3.790287   2.502507   1.369963   0.000000
    10  O    4.341910   2.833248   2.268509   1.255943   0.000000
    11  C    4.942893   3.867412   2.507035   1.492168   2.361823
    12  C    5.003993   4.344734   2.913275   2.553832   3.693938
    13  C    4.629789   4.278413   3.007327   3.129149   4.325214
    14  C    5.343958   5.333639   4.180162   4.482331   5.704695
    15  C    6.279345   6.273511   5.048125   5.223221   6.446422
    16  C    6.568041   6.330984   5.002616   4.912799   6.057353
    17  C    6.000460   5.470943   4.073149   3.719324   4.780731
    18  C    6.054506   4.875945   3.640168   2.487401   2.871551
    19  C    6.135869   5.019652   3.960699   3.057172   3.358620
    20  C    7.439698   6.298819   5.330120   4.384604   4.464882
    21  C    8.504787   7.275623   6.234698   5.104767   5.063253
    22  C    8.462786   7.192787   6.050526   4.797837   4.765927
    23  C    7.341678   6.102497   4.886099   3.623693   3.747892
    24  H    3.859129   3.958481   5.347339   6.179826   5.950325
    25  H    4.340330   4.979116   6.379799   7.416923   7.365392
    26  H    4.592526   4.789417   6.223194   7.054433   6.759228
    27  H    2.622210   2.746366   4.116058   5.032248   4.946087
    28  H    3.077342   3.936270   5.227011   6.358343   6.491594
    29  H    3.464263   4.689371   5.834792   7.103276   7.449367
    30  H    2.783805   4.291147   5.196514   6.551248   7.115331
    31  H    4.191387   5.496592   6.217964   7.502326   8.125880
    32  H    3.026872   4.311480   4.752311   6.042155   6.825442
    33  H    3.330709   4.283963   5.005741   6.175018   6.697610
    34  H    1.091156   2.121918   2.512351   3.856242   4.627336
    35  H    1.094483   2.177313   2.839991   4.128843   4.743601
    36  H    2.181175   1.092608   2.062657   2.781929   2.792106
    37  H    2.173499   1.093053   2.075134   2.827269   2.884217
    38  H    5.437647   4.335681   3.070940   2.026220   2.597416
    39  H    4.188847   3.802954   2.699916   2.947011   4.043486
    40  H    5.458367   5.643448   4.661456   5.128069   6.324434
    41  H    6.969188   7.119116   5.962763   6.221146   7.452901
    42  H    7.414797   7.206723   5.896374   5.768072   6.866330
    43  H    6.558276   5.896762   4.524630   3.967063   4.855982
    44  H    5.422148   4.428364   3.485658   2.901503   3.336994
    45  H    7.731184   6.668140   5.827800   5.034946   5.098371
    46  H    9.438583   8.206511   7.212368   6.094213   5.984958
    47  H    9.375638   8.082439   6.938436   5.649659   5.551086
    48  H    7.597082   6.373055   5.140435   3.877731   4.000512
                   11         12         13         14         15
    11  C    0.000000
    12  C    1.502512   0.000000
    13  C    2.559568   1.418742   0.000000
    14  C    3.851912   2.463308   1.408453   0.000000
    15  C    4.350352   2.848297   2.438012   1.405562   0.000000
    16  C    3.833464   2.464712   2.809248   2.431266   1.405017
    17  C    2.531490   1.419581   2.427534   2.806515   2.435499
    18  C    1.500701   2.452501   3.233295   4.481791   5.038517
    19  C    2.549042   3.202715   3.402010   4.609059   5.450162
    20  C    3.841377   4.465674   4.629933   5.690499   6.476973
    21  C    4.342630   5.051047   5.506082   6.521997   7.076796
    22  C    3.831982   4.620626   5.410604   6.439196   6.771714
    23  C    2.534131   3.415383   4.405443   5.506718   5.797854
    24  H    7.629733   8.200890   7.872213   8.785601   9.901303
    25  H    8.822859   9.188017   8.753974   9.468356  10.525308
    26  H    8.527113   9.131565   8.964237   9.856857  10.834733
    27  H    6.446165   6.968808   6.924594   7.820767   8.677270
    28  H    7.672732   7.921227   7.684998   8.333060   9.152501
    29  H    8.303140   8.282012   7.596510   8.012406   9.041572
    30  H    7.593078   7.366621   6.730278   6.990375   7.842655
    31  H    8.415058   8.046238   7.031092   7.108749   8.184104
    32  H    6.819663   6.340177   5.329181   5.398211   6.456844
    33  H    7.153865   6.981767   6.007664   6.364796   7.594548
    34  H    4.788100   4.586550   3.942020   4.505569   5.535494
    35  H    5.161946   5.117558   4.892587   5.482472   6.209430
    36  H    4.187352   4.855102   5.051044   6.135154   6.933219
    37  H    4.229775   4.841120   4.658604   5.778249   6.858139
    38  H    1.094733   2.102984   3.407388   4.556661   4.779378
    39  H    2.770310   2.128765   1.021482   2.094316   3.349062
    40  H    4.671882   3.385758   2.115670   1.023343   2.110420
    41  H    5.373439   3.871438   3.364265   2.113742   1.023141
    42  H    4.644228   3.386528   3.832353   3.356877   2.110823
    43  H    2.723752   2.130028   3.363551   3.829212   3.348116
    44  H    2.752316   3.211487   3.033418   4.241303   5.290360
    45  H    4.657930   5.182015   5.105609   6.084052   6.990556
    46  H    5.364040   6.039373   6.435046   7.386875   7.932410
    47  H    4.644694   5.410914   6.292985   7.258720   7.455786
    48  H    2.730108   3.570110   4.775438   5.808158   5.892700
                   16         17         18         19         20
    16  C    0.000000
    17  C    1.407376   0.000000
    18  C    4.584810   3.373633   0.000000
    19  C    5.334629   4.332432   1.418641   0.000000
    20  C    6.366835   5.437587   2.459484   1.406770   0.000000
    21  C    6.735665   5.756072   2.841989   2.436030   1.405247
    22  C    6.166555   5.082527   2.460214   2.809951   2.432315
    23  C    5.094867   3.878289   1.418192   2.430368   2.807843
    24  H   10.179084   9.401012   8.304407   8.035125   8.995721
    25  H   10.901433  10.286073   9.658293   9.443860  10.486523
    26  H   10.989454  10.196055   9.360486   9.303318  10.333819
    27  H    8.727145   7.933933   7.472173   7.634142   8.825542
    28  H    9.363166   8.791146   8.797137   8.924029  10.161260
    29  H    9.631314   9.286805   9.246680   9.017845  10.157246
    30  H    8.398794   8.182537   8.722543   8.700350   9.963251
    31  H    9.071070   9.008172   9.250455   8.851943   9.927349
    32  H    7.311810   7.258856   7.721447   7.438898   8.599306
    33  H    8.389299   8.119332   7.836918   7.326855   8.343815
    34  H    6.015362   5.604205   5.832828   5.795551   7.088400
    35  H    6.395222   5.897078   6.441846   6.730386   8.089697
    36  H    6.806536   5.848309   5.250151   5.586249   6.840866
    37  H    6.996352   6.103237   4.944140   4.815368   5.963243
    38  H    3.967067   2.567657   2.113836   3.414945   4.565469
    39  H    3.830316   3.362689   3.271437   3.078416   4.305764
    40  H    3.356326   3.829850   5.211753   5.103010   6.106571
    41  H    2.112059   3.361285   6.025296   6.375671   7.335837
    42  H    1.023109   2.114344   5.363564   6.205420   7.168315
    43  H    2.094204   1.023188   3.503808   4.685981   5.711201
    44  H    5.400169   4.511254   2.127546   1.021987   2.096741
    45  H    7.052018   6.224974   3.380798   2.111825   1.022264
    46  H    7.621434   6.701422   3.863405   3.359790   2.110660
    47  H    6.735601   5.681542   3.381839   3.832257   3.357035
    48  H    4.975220   3.718987   2.128888   3.365658   3.830737
                   21         22         23         24         25
    21  C    0.000000
    22  C    1.405029   0.000000
    23  C    2.434472   1.406402   0.000000
    24  H   10.094918  10.325172   9.498085   0.000000
    25  H   11.625834  11.817090  10.900711   1.777581   0.000000
    26  H   11.330758  11.394928  10.467702   1.773605   1.768179
    27  H    9.764587   9.656756   8.580120   2.538589   3.040493
    28  H   11.180078  11.098271   9.976616   3.075047   2.477651
    29  H   11.382106  11.580483  10.593772   3.309656   2.356387
    30  H   11.118459  11.153426  10.040200   4.407280   3.708055
    31  H   11.238314  11.568406  10.658488   5.130342   4.553931
    32  H    9.856539  10.085019   9.114544   5.248341   5.108422
    33  H    9.671442  10.075217   9.249005   4.132446   4.190148
    34  H    8.221693   8.262874   7.183376   4.547065   4.993383
    35  H    9.061552   8.867618   7.646892   4.552774   4.788008
    36  H    7.678938   7.455175   6.322308   3.995290   5.015264
    37  H    7.024794   7.126981   6.196729   3.424468   4.717487
    38  H    4.789204   3.979292   2.579318   8.121531   9.289209
    39  H    5.380172   5.499305   4.601121   7.136629   8.083156
    40  H    7.059789   7.144519   6.308012   8.778419   9.366394
    41  H    7.928509   7.655952   6.742140  10.633291  11.145802
    42  H    7.398282   6.715395   5.677465  11.077559  11.754081
    43  H    5.809081   4.914553   3.674601   9.849886  10.783246
    44  H    3.350021   3.831654   3.363988   7.297638   8.653001
    45  H    2.110904   3.357068   3.830104   9.024836  10.518648
    46  H    1.021419   2.110953   3.358821  10.847164  12.414662
    47  H    2.110582   1.022321   2.112591  11.219526  12.726663
    48  H    3.348641   2.095386   1.023204   9.898927  11.249292
                   26         27         28         29         30
    26  H    0.000000
    27  H    2.373481   0.000000
    28  H    2.555933   1.751316   0.000000
    29  H    3.830526   3.696563   2.667032   0.000000
    30  H    4.731773   3.726127   2.627012   1.758732   0.000000
    31  H    6.058689   5.560557   4.761152   2.347005   2.587275
    32  H    6.249110   5.089385   4.651064   3.027734   2.431749
    33  H    5.449228   4.813322   4.585015   2.578502   3.067712
    34  H    5.492201   3.681900   3.968153   3.708283   2.938101
    35  H    4.924357   2.774322   2.972659   3.847866   2.740867
    36  H    4.463175   2.291035   3.736166   5.092147   4.690165
    37  H    4.568310   2.968106   4.247481   4.668746   4.662043
    38  H    8.830302   6.679683   7.943833   8.877315   8.078179
    39  H    8.356673   6.467976   7.261732   6.991250   6.326252
    40  H    9.932127   8.029791   8.399740   7.754241   6.800062
    41  H   11.557802   9.427073   9.761925   9.510676   8.251240
    42  H   11.807691   9.506366  10.101167  10.463374   9.148094
    43  H   10.538920   8.250178   9.198900   9.935653   8.825099
    44  H    8.651970   7.047514   8.243826   8.136737   7.883095
    45  H   10.472911   9.129586  10.416365  10.186247  10.128626
    46  H   12.122160  10.652185  12.084070  12.219231  12.026560
    47  H   12.230091  10.484867  11.956512  12.539886  12.084566
    48  H   10.725520   8.743349  10.132136  10.956200  10.289210
                   31         32         33         34         35
    31  H    0.000000
    32  H    1.762201   0.000000
    33  H    1.773529   1.779499   0.000000
    34  H    3.771321   2.302421   2.880634   0.000000
    35  H    4.654335   3.466960   4.145975   1.759539   0.000000
    36  H    6.245855   5.168836   5.146009   3.016961   2.421965
    37  H    5.467071   4.474040   4.014211   2.583126   3.061628
    38  H    9.159958   7.559477   7.971850   5.432626   5.479808
    39  H    6.423626   4.805299   5.240524   3.459953   4.667455
    40  H    6.582596   4.950246   5.932098   4.494031   5.682969
    41  H    8.471037   6.797006   8.053470   6.169404   6.853479
    42  H    9.909854   8.157235   9.317372   6.902199   7.142445
    43  H    9.829175   8.092956   8.916534   6.299587   6.384760
    44  H    7.889445   6.523569   6.347222   5.006485   6.110675
    45  H    9.846391   8.631688   8.228564   7.324124   8.477747
    46  H   12.036321  10.704243  10.440957   9.143394  10.032177
    47  H   12.566689  11.067128  11.083015   9.209163   9.730491
    48  H   11.116809   9.529956   9.785080   7.511674   7.765599
                   36         37         38         39         40
    36  H    0.000000
    37  H    1.778076   0.000000
    38  H    4.401205   4.829225   0.000000
    39  H    4.699709   3.983939   3.774680   0.000000
    40  H    6.545252   5.993007   5.463439   2.403947   0.000000
    41  H    7.799854   7.712251   5.780958   4.192924   2.428827
    42  H    7.604768   7.924254   4.598435   4.853404   4.203483
    43  H    6.106587   6.557196   2.346611   4.228755   4.852496
    44  H    5.141332   4.141714   3.773371   2.438664   4.585568
    45  H    7.293045   6.199389   5.469706   4.634254   6.345152
    46  H    8.612830   7.888387   5.789661   6.281171   7.871006
    47  H    8.269783   8.048617   4.611363   6.457059   8.000436
    48  H    6.461514   6.609014   2.353574   5.125996   6.700071
                   41         42         43         44         45
    41  H    0.000000
    42  H    2.428013   0.000000
    43  H    4.191136   2.402613   0.000000
    44  H    6.188519   6.351140   5.032824   0.000000
    45  H    7.793175   7.889334   6.593546   2.405081   0.000000
    46  H    8.739435   8.248486   6.739460   4.191952   2.427505
    47  H    8.306192   7.165552   5.369597   4.853954   4.203697
    48  H    6.824581   5.417761   3.254417   4.228313   4.852984
                   46         47         48
    46  H    0.000000
    47  H    2.427803   0.000000
    48  H    4.190910   2.403918   0.000000
 Stoichiometry    C20H25NO2
 Framework group  C1[X(C20H25NO2)]
 Deg. of freedom   138
 Full point group                 C1      NOp   1
 Largest Abelian subgroup         C1      NOp   1
 Largest concise Abelian subgroup C1      NOp   1
                         Standard orientation:                         
 ---------------------------------------------------------------------
 Center     Atomic      Atomic             Coordinates (Angstroms)
 Number     Number       Type             X           Y           Z
 ---------------------------------------------------------------------
      1          6           0       -5.904147   -2.222324   -0.238945
      2          6           0       -5.131194   -1.070712   -0.924010
      3          7           0       -4.393516   -0.219643    0.076815
      4          6           0       -5.282754    0.807472    0.728021
      5          6           0       -4.731134    1.395561    2.050238
      6          6           0       -3.068012    0.314480   -0.398456
      7          6           0       -1.998328   -0.779947   -0.650619
      8          8           0       -0.675196   -0.213749   -0.659752
      9          6           0        0.489059   -0.894534   -0.900251
     10          8           0        0.443293   -2.120585   -1.168759
     11          6           0        1.819576   -0.219079   -0.907362
     12          6           0        1.848275    1.236861   -0.537287
     13          6           0        1.216315    1.735744    0.630861
     14          6           0        1.281695    3.101285    0.969629
     15          6           0        1.988121    3.997652    0.149206
     16          6           0        2.628238    3.526730   -1.009480
     17          6           0        2.562334    2.161277   -1.344000
     18          6           0        2.842900   -0.961625   -0.098945
     19          6           0        2.614387   -1.301377    1.259323
     20          6           0        3.581648   -1.999741    2.004773
     21          6           0        4.795836   -2.375691    1.405501
     22          6           0        5.046508   -2.043461    0.063528
     23          6           0        4.077738   -1.346508   -0.680589
     24          1           0       -5.246781   -2.755149    0.451969
     25          1           0       -6.766261   -1.843256    0.312596
     26          1           0       -6.265017   -2.929099   -0.989769
     27          1           0       -4.447292   -1.544134   -1.630985
     28          1           0       -5.824558   -0.468001   -1.520604
     29          1           0       -6.245556    0.355557    0.980911
     30          1           0       -5.486184    1.625353    0.030063
     31          1           0       -5.530683    1.893822    2.602987
     32          1           0       -3.956118    2.136215    1.849766
     33          1           0       -4.317763    0.601934    2.675486
     34          1           0       -2.641333    0.970352    0.362068
     35          1           0       -3.200976    0.912971   -1.305111
     36          1           0       -2.174203   -1.258278   -1.617086
     37          1           0       -2.062075   -1.536768    0.135462
     38          1           0        2.104976   -0.288584   -1.961950
     39          1           0        0.699730    1.109154    1.250498
     40          1           0        0.818505    3.442646    1.815891
     41          1           0        2.039304    4.989313    0.395795
     42          1           0        3.145031    4.176623   -1.607239
     43          1           0        3.053733    1.846128   -2.184310
     44          1           0        1.735269   -1.049222    1.715423
     45          1           0        3.400241   -2.234813    2.982963
     46          1           0        5.496205   -2.886251    1.945973
     47          1           0        5.933564   -2.307248   -0.370857
     48          1           0        4.285701   -1.119469   -1.656371
 ---------------------------------------------------------------------
 Rotational constants (GHZ):           0.3509743           0.1258528           0.1057250
 Leave Link  202 at Tue Feb 23 00:13:01 2021, MaxMem=   104857600 cpu:               0.3 elap:               0.0
 (Enter /sw/arch/RedHatEnterpriseServer7/EB_production/2019/software/Gaussian/g16.c01/l301.exe)
 Standard basis: TZVP (5D, 7F)
 Ernie: Thresh=  0.10000D-02 Tol=  0.10000D-05 Strict=F.
 There are   610 symmetry adapted cartesian basis functions of A   symmetry.
 There are   587 symmetry adapted basis functions of A   symmetry.
   587 basis functions,  1005 primitive gaussians,   610 cartesian basis functions
    84 alpha electrons       84 beta electrons
       nuclear repulsion energy      1834.4114037622 Hartrees.
 IExCor=  404 DFT=T Ex=B Corr=P86 ExCW=0 ScaHFX=  0.000000
 ScaDFX=  1.000000  1.000000  1.000000  1.000000 ScalE2=  1.000000  1.000000
 IRadAn=      5 IRanWt=     -1 IRanGd=            0 ICorTp=0 IEmpDi=131
 NAtoms=   48 NActive=   48 NUniq=   48 SFac= 1.00D+00 NAtFMM=   60 NAOKFM=F Big=F
 Integral buffers will be    131072 words long.
 Raffenetti 2 integral format.
 Two-electron integral symmetry is turned on.
 R6Disp:  Grimme-D3 Dispersion energy=       -0.0520058745 Hartrees.
 Nuclear repulsion after empirical dispersion term =     1834.3593978877 Hartrees.
 ------------------------------------------------------------------------------
 Polarizable Continuum Model (PCM)
 =================================
 Model                : PCM.
 Atomic radii         : UFF (Universal Force Field).
 Polarization charges : Total charges.
 Charge compensation  : None.
 Solution method      : On-the-fly selection.
 Cavity type          : Scaled VdW (van der Waals Surface) (Alpha=1.100).
 Cavity algorithm     : GePol (No added spheres)
                        Default sphere list used, NSphG=   48.
                        Lebedev-Laikov grids with approx.  5.0 points / Ang**2.
                        Smoothing algorithm: York/Karplus (Gamma=1.0000).
                        Polarization charges: spherical gaussians, with
                                              point-specific exponents (IZeta= 3).
                        Self-potential: point-specific (ISelfS= 7).
                        Self-field    : sphere-specific E.n sum rule (ISelfD= 2).
 1st derivatives      : Analytical E(r).r(x)/FMM algorithm (CHGder, D1EAlg=3).
                        Cavity 1st derivative terms included.
 Solvent              : Water, Eps=  78.355300 Eps(inf)=   1.777849
 ------------------------------------------------------------------------------
 GePol: Number of generator spheres                  =      48
 GePol: Total number of spheres                      =      48
 GePol: Number of exposed spheres                    =      48 (100.00%)
 GePol: Number of points                             =    3464
 GePol: Average weight of points                     =       0.13
 GePol: Minimum weight of points                     =   0.29D-11
 GePol: Maximum weight of points                     =    0.20577
 GePol: Number of points with low weight             =     230
 GePol: Fraction of low-weight points (<1% of avg)   =       6.64%
 GePol: Cavity surface area                          =    446.264 Ang**2
 GePol: Cavity volume                                =    478.252 Ang**3
 Leave Link  301 at Tue Feb 23 00:13:01 2021, MaxMem=   104857600 cpu:               3.7 elap:               0.2
 (Enter /sw/arch/RedHatEnterpriseServer7/EB_production/2019/software/Gaussian/g16.c01/l302.exe)
 NPDir=0 NMtPBC=     1 NCelOv=     1 NCel=       1 NClECP=     1 NCelD=      1
         NCelK=      1 NCelE2=     1 NClLst=     1 CellRange=     0.0.
 One-electron integrals computed using PRISM.
 One-electron integral symmetry used in STVInt
 PrsmSu:  requested number of processors reduced to:  23 ShMem   1 Linda.
 NBasis=   587 RedAO= T EigKep=  7.37D-06  NBF=   587
 NBsUse=   587 1.00D-06 EigRej= -1.00D+00 NBFU=   587
 Precomputing XC quadrature grid using
 IXCGrd= 4 IRadAn=           5 IRanWt=          -1 IRanGd=           0 AccXCQ= 0.00D+00.
 Generated NRdTot=       0 NPtTot=           0 NUsed=           0 NTot=          32
 NSgBfM=   584   584   584   584   584 MxSgAt=    48 MxSgA2=    48.
 Leave Link  302 at Tue Feb 23 00:13:02 2021, MaxMem=   104857600 cpu:              23.2 elap:               0.8
 (Enter /sw/arch/RedHatEnterpriseServer7/EB_production/2019/software/Gaussian/g16.c01/l303.exe)
 DipDrv:  MaxL=1.
 Leave Link  303 at Tue Feb 23 00:13:03 2021, MaxMem=   104857600 cpu:               4.1 elap:               0.2
 (Enter /sw/arch/RedHatEnterpriseServer7/EB_production/2019/software/Gaussian/g16.c01/l401.exe)
 ExpMin= 9.52D-02 ExpMax= 2.70D+04 ExpMxC= 9.22D+02 IAcc=3 IRadAn=         5 AccDes= 0.00D+00
 Harris functional with IExCor=  404 and IRadAn=       5 diagonalized for initial guess.
 HarFok:  IExCor=  404 AccDes= 0.00D+00 IRadAn=         5 IDoV= 1 UseB2=F ITyADJ=14
 ICtDFT=  3500011 ScaDFX=  1.000000  1.000000  1.000000  1.000000
 FoFCou: FMM=F IPFlag=           0 FMFlag=      100000 FMFlg1=           0
         NFxFlg=           0 DoJE=T BraDBF=F KetDBF=T FulRan=T
         wScrn=  0.000000 ICntrl=       500 IOpCl=  0 I1Cent=   200000004 NGrid=           0
         NMat0=    1 NMatS0=      1 NMatT0=    0 NMatD0=    1 NMtDS0=    0 NMtDT0=    0
 Petite list used in FoFCou.
 Harris En= -983.147692586517    
 JPrj=0 DoOrth=F DoCkMO=F.
 Leave Link  401 at Tue Feb 23 00:13:04 2021, MaxMem=   104857600 cpu:              45.1 elap:               1.5
 (Enter /sw/arch/RedHatEnterpriseServer7/EB_production/2019/software/Gaussian/g16.c01/l502.exe)
 Integral symmetry usage will be decided dynamically.
 Closed shell SCF:
 Using DIIS extrapolation, IDIIS=  1040.
 NGot=   104857600 LenX=   104086568 LenY=   103713858
 Requested convergence on RMS density matrix=1.00D-08 within 128 cycles.
 Requested convergence on MAX density matrix=1.00D-06.
 Requested convergence on             energy=1.00D-06.
 No special actions if energy rises.
 Fock matrices will be formed incrementally for  20 cycles.

 Cycle   1  Pass 1  IDiag  1:
 FoFJK:  IHMeth= 1 ICntrl=     500 DoSepK=F KAlg= 0 I1Cent=           0 FoldK=F
 IRaf= 720000000 NMat=       1 IRICut=       1 DoRegI=T DoRafI=F ISym2E= 0 IDoP0=0 IntGTp=1.
 FoFCou: FMM=F IPFlag=           0 FMFlag=      100000 FMFlg1=           0
         NFxFlg=           0 DoJE=T BraDBF=F KetDBF=F FulRan=T
         wScrn=  0.000000 ICntrl=       500 IOpCl=  0 I1Cent=           0 NGrid=           0
         NMat0=    1 NMatS0=      1 NMatT0=    0 NMatD0=    1 NMtDS0=    0 NMtDT0=    0
 Symmetry not used in FoFCou.
 Inv3:  Mode=1 IEnd=    35997888.
 Iteration    1 A*A^-1 deviation from unit magnitude is 3.55D-15 for   2046.
 Iteration    1 A*A^-1 deviation from orthogonality  is 3.11D-15 for   3363   1645.
 Iteration    1 A^-1*A deviation from unit magnitude is 3.77D-15 for   2046.
 Iteration    1 A^-1*A deviation from orthogonality  is 2.33D-15 for   2330   1883.
 E= -982.139936960555    
 DIIS: error= 2.88D-02 at cycle   1 NSaved=   1.
 NSaved= 1 IEnMin= 1 EnMin= -982.139936960555     IErMin= 1 ErrMin= 2.88D-02
 ErrMax= 2.88D-02  0.00D+00 EMaxC= 1.00D-01 BMatC= 5.53D-01 BMatP= 5.53D-01
 IDIUse=3 WtCom= 7.12D-01 WtEn= 2.88D-01
 Coeff-Com:  0.100D+01
 Coeff-En:   0.100D+01
 Coeff:      0.100D+01
 Gap=     0.108 Goal=   None    Shift=    0.000
 GapD=    0.108 DampG=1.000 DampE=0.500 DampFc=0.5000 IDamp=-1.
 Damping current iteration by 5.00D-01
 RMSDP=5.62D-03 MaxDP=1.02D+00              OVMax= 3.16D-01

 Cycle   2  Pass 1  IDiag  1:
 RMSU=  2.80D-03    CP:  1.02D+00
 E= -982.237053981111     Delta-E=       -0.097117020556 Rises=F Damp=T
 DIIS: error= 2.18D-02 at cycle   2 NSaved=   2.
 NSaved= 2 IEnMin= 2 EnMin= -982.237053981111     IErMin= 2 ErrMin= 2.18D-02
 ErrMax= 2.18D-02  0.00D+00 EMaxC= 1.00D-01 BMatC= 1.37D-01 BMatP= 5.53D-01
 IDIUse=3 WtCom= 7.82D-01 WtEn= 2.18D-01
 Coeff-Com:  0.281D+00 0.719D+00
 Coeff-En:   0.414D+00 0.586D+00
 Coeff:      0.310D+00 0.690D+00
 Gap=     0.079 Goal=   None    Shift=    0.000
 RMSDP=2.37D-03 MaxDP=3.30D-01 DE=-9.71D-02 OVMax= 2.10D-01

 Cycle   3  Pass 1  IDiag  1:
 RMSU=  1.58D-03    CP:  9.64D-01  3.92D-01
 E= -982.529493669723     Delta-E=       -0.292439688612 Rises=F Damp=F
 DIIS: error= 3.53D-02 at cycle   3 NSaved=   3.
 NSaved= 3 IEnMin= 3 EnMin= -982.529493669723     IErMin= 2 ErrMin= 2.18D-02
 ErrMax= 3.53D-02  0.00D+00 EMaxC= 1.00D-01 BMatC= 1.94D-01 BMatP= 1.37D-01
 IDIUse=2 WtCom= 0.00D+00 WtEn= 1.00D+00
 Coeff-En:   0.000D+00 0.746D-01 0.925D+00
 Coeff:      0.000D+00 0.746D-01 0.925D+00
 Gap=     0.082 Goal=   None    Shift=    0.000
 RMSDP=5.66D-03 MaxDP=1.03D+00 DE=-2.92D-01 OVMax= 3.89D-01

 Cycle   4  Pass 1  IDiag  1:
 RMSU=  2.90D-03    CP:  1.07D+00  1.68D+00 -9.95D-01
 E= -981.302519342733     Delta-E=        1.226974326990 Rises=F Damp=F
 DIIS: error= 7.72D-02 at cycle   4 NSaved=   4.
 NSaved= 4 IEnMin= 3 EnMin= -982.529493669723     IErMin= 2 ErrMin= 2.18D-02
 ErrMax= 7.72D-02  0.00D+00 EMaxC= 1.00D-01 BMatC= 1.62D+00 BMatP= 1.37D-01
 IDIUse=2 WtCom= 0.00D+00 WtEn= 1.00D+00
 Coeff-En:   0.000D+00 0.000D+00 0.826D+00 0.174D+00
 Coeff:      0.000D+00 0.000D+00 0.826D+00 0.174D+00
 Gap=     0.113 Goal=   None    Shift=    0.000
 RMSDP=3.99D-03 MaxDP=8.02D-01 DE= 1.23D+00 OVMax= 2.70D-01

 Cycle   5  Pass 1  IDiag  1:
 RMSU=  7.52D-04    CP:  1.01D+00  7.44D-01  5.92D-02  1.89D-01
 E= -982.562372643177     Delta-E=       -1.259853300444 Rises=F Damp=F
 DIIS: error= 3.19D-02 at cycle   5 NSaved=   5.
 NSaved= 5 IEnMin= 5 EnMin= -982.562372643177     IErMin= 2 ErrMin= 2.18D-02
 ErrMax= 3.19D-02  0.00D+00 EMaxC= 1.00D-01 BMatC= 1.60D-01 BMatP= 1.37D-01
 IDIUse=2 WtCom= 0.00D+00 WtEn= 1.00D+00
 Coeff-En:   0.000D+00 0.000D+00 0.461D+00 0.000D+00 0.539D+00
 Coeff:      0.000D+00 0.000D+00 0.461D+00 0.000D+00 0.539D+00
 Gap=     0.114 Goal=   None    Shift=    0.000
 RMSDP=1.19D-03 MaxDP=1.95D-01 DE=-1.26D+00 OVMax= 1.36D-01

 Cycle   6  Pass 1  IDiag  1:
 RMSU=  1.90D-04    CP:  9.85D-01  4.92D-01  5.30D-01  3.60D-02  5.99D-01
 E= -982.687973580177     Delta-E=       -0.125600937000 Rises=F Damp=F
 DIIS: error= 4.89D-03 at cycle   6 NSaved=   6.
 NSaved= 6 IEnMin= 6 EnMin= -982.687973580177     IErMin= 6 ErrMin= 4.89D-03
 ErrMax= 4.89D-03  0.00D+00 EMaxC= 1.00D-01 BMatC= 3.70D-03 BMatP= 1.37D-01
 IDIUse=3 WtCom= 9.51D-01 WtEn= 4.89D-02
 Coeff-Com: -0.909D-02 0.170D-01 0.168D+00-0.343D-01 0.339D+00 0.519D+00
 Coeff-En:   0.000D+00 0.000D+00 0.000D+00 0.000D+00 0.000D+00 0.100D+01
 Coeff:     -0.864D-02 0.162D-01 0.160D+00-0.326D-01 0.322D+00 0.543D+00
 Gap=     0.112 Goal=   None    Shift=    0.000
 RMSDP=2.32D-04 MaxDP=3.02D-02 DE=-1.26D-01 OVMax= 3.12D-02

 Cycle   7  Pass 1  IDiag  1:
 RMSU=  9.13D-05    CP:  9.88D-01  5.47D-01  4.66D-01  5.63D-02  6.92D-01
                    CP:  7.44D-01
 E= -982.690237469585     Delta-E=       -0.002263889409 Rises=F Damp=F
 DIIS: error= 2.55D-03 at cycle   7 NSaved=   7.
 NSaved= 7 IEnMin= 7 EnMin= -982.690237469585     IErMin= 7 ErrMin= 2.55D-03
 ErrMax= 2.55D-03  0.00D+00 EMaxC= 1.00D-01 BMatC= 1.07D-03 BMatP= 3.70D-03
 IDIUse=3 WtCom= 9.75D-01 WtEn= 2.55D-02
 Coeff-Com: -0.596D-02 0.572D-02 0.352D-01-0.989D-02 0.833D-01 0.398D+00
 Coeff-Com:  0.494D+00
 Coeff-En:   0.000D+00 0.000D+00 0.000D+00 0.000D+00 0.000D+00 0.279D+00
 Coeff-En:   0.721D+00
 Coeff:     -0.581D-02 0.558D-02 0.343D-01-0.964D-02 0.812D-01 0.395D+00
 Coeff:      0.500D+00
 Gap=     0.111 Goal=   None    Shift=    0.000
 RMSDP=7.05D-05 MaxDP=5.65D-03 DE=-2.26D-03 OVMax= 1.06D-02

 Cycle   8  Pass 1  IDiag  1:
 RMSU=  3.71D-05    CP:  9.88D-01  5.41D-01  4.85D-01  5.29D-02  6.78D-01
                    CP:  7.93D-01  4.99D-01
 E= -982.691010082387     Delta-E=       -0.000772612801 Rises=F Damp=F
 DIIS: error= 3.18D-04 at cycle   8 NSaved=   8.
 NSaved= 8 IEnMin= 8 EnMin= -982.691010082387     IErMin= 8 ErrMin= 3.18D-04
 ErrMax= 3.18D-04  0.00D+00 EMaxC= 1.00D-01 BMatC= 7.08D-05 BMatP= 1.07D-03
 IDIUse=3 WtCom= 9.97D-01 WtEn= 3.18D-03
 Coeff-Com: -0.248D-02-0.357D-03 0.453D-02-0.961D-03 0.105D-01 0.215D+00
 Coeff-Com:  0.326D+00 0.447D+00
 Coeff-En:   0.000D+00 0.000D+00 0.000D+00 0.000D+00 0.000D+00 0.000D+00
 Coeff-En:   0.000D+00 0.100D+01
 Coeff:     -0.247D-02-0.356D-03 0.452D-02-0.958D-03 0.105D-01 0.215D+00
 Coeff:      0.325D+00 0.449D+00
 Gap=     0.111 Goal=   None    Shift=    0.000
 RMSDP=3.20D-05 MaxDP=8.24D-03 DE=-7.73D-04 OVMax= 2.34D-03

 Cycle   9  Pass 1  IDiag  1:
 RMSU=  1.09D-05    CP:  9.87D-01  5.35D-01  4.88D-01  5.12D-02  6.73D-01
                    CP:  8.24D-01  5.76D-01  4.83D-01
 E= -982.691067980819     Delta-E=       -0.000057898432 Rises=F Damp=F
 DIIS: error= 1.58D-04 at cycle   9 NSaved=   9.
 NSaved= 9 IEnMin= 9 EnMin= -982.691067980819     IErMin= 9 ErrMin= 1.58D-04
 ErrMax= 1.58D-04  0.00D+00 EMaxC= 1.00D-01 BMatC= 5.72D-06 BMatP= 7.08D-05
 IDIUse=3 WtCom= 9.98D-01 WtEn= 1.58D-03
 Coeff-Com: -0.609D-03-0.208D-04 0.908D-03 0.443D-04-0.120D-02 0.944D-01
 Coeff-Com:  0.161D+00 0.292D+00 0.454D+00
 Coeff-En:   0.000D+00 0.000D+00 0.000D+00 0.000D+00 0.000D+00 0.000D+00
 Coeff-En:   0.000D+00 0.000D+00 0.100D+01
 Coeff:     -0.608D-03-0.208D-04 0.907D-03 0.442D-04-0.120D-02 0.942D-01
 Coeff:      0.160D+00 0.291D+00 0.455D+00
 Gap=     0.111 Goal=   None    Shift=    0.000
 RMSDP=6.89D-06 MaxDP=8.97D-04 DE=-5.79D-05 OVMax= 8.78D-04

 Cycle  10  Pass 1  IDiag  1:
 RMSU=  3.29D-06    CP:  9.87D-01  5.35D-01  4.89D-01  5.10D-02  6.72D-01
                    CP:  8.20D-01  5.64D-01  5.46D-01  5.16D-01
 E= -982.691072736064     Delta-E=       -0.000004755245 Rises=F Damp=F
 DIIS: error= 3.27D-05 at cycle  10 NSaved=  10.
 NSaved=10 IEnMin=10 EnMin= -982.691072736064     IErMin=10 ErrMin= 3.27D-05
 ErrMax= 3.27D-05  0.00D+00 EMaxC= 1.00D-01 BMatC= 5.14D-07 BMatP= 5.72D-06
 IDIUse=1 WtCom= 1.00D+00 WtEn= 0.00D+00
 Coeff-Com: -0.152D-03-0.633D-04 0.380D-03 0.206D-04-0.132D-02 0.411D-01
 Coeff-Com:  0.730D-01 0.144D+00 0.298D+00 0.445D+00
 Coeff:     -0.152D-03-0.633D-04 0.380D-03 0.206D-04-0.132D-02 0.411D-01
 Coeff:      0.730D-01 0.144D+00 0.298D+00 0.445D+00
 Gap=     0.111 Goal=   None    Shift=    0.000
 RMSDP=2.34D-06 MaxDP=2.17D-04 DE=-4.76D-06 OVMax= 2.53D-04

 Cycle  11  Pass 1  IDiag  1:
 RMSU=  1.07D-06    CP:  9.87D-01  5.35D-01  4.89D-01  5.09D-02  6.71D-01
                    CP:  8.21D-01  5.71D-01  5.35D-01  5.63D-01  5.20D-01
 E= -982.691073302152     Delta-E=       -0.000000566088 Rises=F Damp=F
 DIIS: error= 7.71D-06 at cycle  11 NSaved=  11.
 NSaved=11 IEnMin=11 EnMin= -982.691073302152     IErMin=11 ErrMin= 7.71D-06
 ErrMax= 7.71D-06  0.00D+00 EMaxC= 1.00D-01 BMatC= 3.89D-08 BMatP= 5.14D-07
 IDIUse=1 WtCom= 1.00D+00 WtEn= 0.00D+00
 Coeff-Com: -0.185D-04-0.415D-04 0.180D-03 0.860D-05-0.718D-03 0.157D-01
 Coeff-Com:  0.289D-01 0.589D-01 0.136D+00 0.271D+00 0.490D+00
 Coeff:     -0.185D-04-0.415D-04 0.180D-03 0.860D-05-0.718D-03 0.157D-01
 Coeff:      0.289D-01 0.589D-01 0.136D+00 0.271D+00 0.490D+00
 Gap=     0.111 Goal=   None    Shift=    0.000
 RMSDP=5.17D-07 MaxDP=5.22D-05 DE=-5.66D-07 OVMax= 5.78D-05

 Cycle  12  Pass 1  IDiag  1:
 RMSU=  3.73D-07    CP:  9.87D-01  5.35D-01  4.89D-01  5.09D-02  6.71D-01
                    CP:  8.21D-01  5.71D-01  5.40D-01  5.51D-01  5.68D-01
                    CP:  8.45D-01
 E= -982.691073331634     Delta-E=       -0.000000029482 Rises=F Damp=F
 DIIS: error= 2.38D-06 at cycle  12 NSaved=  12.
 NSaved=12 IEnMin=12 EnMin= -982.691073331634     IErMin=12 ErrMin= 2.38D-06
 ErrMax= 2.38D-06  0.00D+00 EMaxC= 1.00D-01 BMatC= 4.40D-09 BMatP= 3.89D-08
 IDIUse=1 WtCom= 1.00D+00 WtEn= 0.00D+00
 Coeff-Com:  0.192D-04-0.292D-04 0.450D-04 0.101D-04-0.255D-03 0.265D-02
 Coeff-Com:  0.542D-02 0.116D-01 0.329D-01 0.923D-01 0.297D+00 0.559D+00
 Coeff:      0.192D-04-0.292D-04 0.450D-04 0.101D-04-0.255D-03 0.265D-02
 Coeff:      0.542D-02 0.116D-01 0.329D-01 0.923D-01 0.297D+00 0.559D+00
 Gap=     0.111 Goal=   None    Shift=    0.000
 RMSDP=2.41D-07 MaxDP=3.68D-05 DE=-2.95D-08 OVMax= 1.59D-05

 Cycle  13  Pass 1  IDiag  1:
 RMSU=  1.10D-07    CP:  9.87D-01  5.35D-01  4.89D-01  5.09D-02  6.71D-01
                    CP:  8.21D-01  5.71D-01  5.39D-01  5.58D-01  5.77D-01
                    CP:  8.31D-01  5.93D-01
 E= -982.691073335374     Delta-E=       -0.000000003739 Rises=F Damp=F
 DIIS: error= 6.14D-07 at cycle  13 NSaved=  13.
 NSaved=13 IEnMin=13 EnMin= -982.691073335374     IErMin=13 ErrMin= 6.14D-07
 ErrMax= 6.14D-07  0.00D+00 EMaxC= 1.00D-01 BMatC= 2.88D-10 BMatP= 4.40D-09
 IDIUse=1 WtCom= 1.00D+00 WtEn= 0.00D+00
 Coeff-Com:  0.850D-05-0.188D-04 0.108D-04 0.654D-05-0.105D-03 0.851D-03
 Coeff-Com:  0.179D-02 0.375D-02 0.123D-01 0.387D-01 0.142D+00 0.314D+00
 Coeff-Com:  0.487D+00
 Coeff:      0.850D-05-0.188D-04 0.108D-04 0.654D-05-0.105D-03 0.851D-03
 Coeff:      0.179D-02 0.375D-02 0.123D-01 0.387D-01 0.142D+00 0.314D+00
 Coeff:      0.487D+00
 Gap=     0.111 Goal=   None    Shift=    0.000
 RMSDP=5.13D-08 MaxDP=3.50D-06 DE=-3.74D-09 OVMax= 5.51D-06

 Cycle  14  Pass 1  IDiag  1:
 RMSU=  2.89D-08    CP:  9.87D-01  5.35D-01  4.89D-01  5.09D-02  6.71D-01
                    CP:  8.21D-01  5.71D-01  5.39D-01  5.58D-01  5.77D-01
                    CP:  8.35D-01  6.54D-01  7.44D-01
 E= -982.691073335629     Delta-E=       -0.000000000255 Rises=F Damp=F
 DIIS: error= 2.77D-07 at cycle  14 NSaved=  14.
 NSaved=14 IEnMin=14 EnMin= -982.691073335629     IErMin=14 ErrMin= 2.77D-07
 ErrMax= 2.77D-07  0.00D+00 EMaxC= 1.00D-01 BMatC= 3.74D-11 BMatP= 2.88D-10
 IDIUse=1 WtCom= 1.00D+00 WtEn= 0.00D+00
 Coeff-Com:  0.252D-05-0.563D-05 0.150D-05 0.154D-05-0.232D-04 0.132D-03
 Coeff-Com:  0.319D-03 0.643D-03 0.299D-02 0.108D-01 0.457D-01 0.114D+00
 Coeff-Com:  0.289D+00 0.536D+00
 Coeff:      0.252D-05-0.563D-05 0.150D-05 0.154D-05-0.232D-04 0.132D-03
 Coeff:      0.319D-03 0.643D-03 0.299D-02 0.108D-01 0.457D-01 0.114D+00
 Coeff:      0.289D+00 0.536D+00
 Gap=     0.111 Goal=   None    Shift=    0.000
 RMSDP=1.81D-08 MaxDP=2.67D-06 DE=-2.55D-10 OVMax= 2.56D-06

 Cycle  15  Pass 1  IDiag  1:
 RMSU=  1.10D-08    CP:  9.87D-01  5.35D-01  4.89D-01  5.09D-02  6.71D-01
                    CP:  8.21D-01  5.71D-01  5.39D-01  5.58D-01  5.77D-01
                    CP:  8.40D-01  6.57D-01  7.37D-01  7.01D-01
 E= -982.691073335681     Delta-E=       -0.000000000053 Rises=F Damp=F
 DIIS: error= 8.63D-08 at cycle  15 NSaved=  15.
 NSaved=15 IEnMin=15 EnMin= -982.691073335681     IErMin=15 ErrMin= 8.63D-08
 ErrMax= 8.63D-08  0.00D+00 EMaxC= 1.00D-01 BMatC= 6.06D-12 BMatP= 3.74D-11
 IDIUse=1 WtCom= 1.00D+00 WtEn= 0.00D+00
 Coeff-Com:  0.109D-05-0.126D-05 0.172D-06 0.304D-06-0.530D-05-0.129D-04
 Coeff-Com:  0.157D-04 0.397D-04 0.787D-03 0.348D-02 0.169D-01 0.455D-01
 Coeff-Com:  0.142D+00 0.355D+00 0.436D+00
 Coeff:      0.109D-05-0.126D-05 0.172D-06 0.304D-06-0.530D-05-0.129D-04
 Coeff:      0.157D-04 0.397D-04 0.787D-03 0.348D-02 0.169D-01 0.455D-01
 Coeff:      0.142D+00 0.355D+00 0.436D+00
 Gap=     0.111 Goal=   None    Shift=    0.000
 RMSDP=6.80D-09 MaxDP=2.01D-07 DE=-5.25D-11 OVMax= 7.75D-07

 Error on total polarization charges =  0.02096
 SCF Done:  E(RB-P86) =  -982.691073336     A.U. after   15 cycles
            NFock= 15  Conv=0.68D-08     -V/T= 2.0042
 KE= 9.785674739301D+02 PE=-5.955132786890D+03 EE= 2.159514841736D+03
 Leave Link  502 at Tue Feb 23 00:14:43 2021, MaxMem=   104857600 cpu:            3101.9 elap:              98.5
 (Enter /sw/arch/RedHatEnterpriseServer7/EB_production/2019/software/Gaussian/g16.c01/l601.exe)
 Copying SCF densities to generalized density rwf, IOpCl= 0 IROHF=0.

 **********************************************************************

            Population analysis using the SCF Density.

 **********************************************************************

 Orbital symmetries:
       Occupied  (A) (A) (A) (A) (A) (A) (A) (A) (A) (A) (A) (A)
                 (A) (A) (A) (A) (A) (A) (A) (A) (A) (A) (A) (A)
                 (A) (A) (A) (A) (A) (A) (A) (A) (A) (A) (A) (A)
                 (A) (A) (A) (A) (A) (A) (A) (A) (A) (A) (A) (A)
                 (A) (A) (A) (A) (A) (A) (A) (A) (A) (A) (A) (A)
                 (A) (A) (A) (A) (A) (A) (A) (A) (A) (A) (A) (A)
                 (A) (A) (A) (A) (A) (A) (A) (A) (A) (A) (A) (A)
       Virtual   (A) (A) (A) (A) (A) (A) (A) (A) (A) (A) (A) (A)
                 (A) (A) (A) (A) (A) (A) (A) (A) (A) (A) (A) (A)
                 (A) (A) (A) (A) (A) (A) (A) (A) (A) (A) (A) (A)
                 (A) (A) (A) (A) (A) (A) (A) (A) (A) (A) (A) (A)
                 (A) (A) (A) (A) (A) (A) (A) (A) (A) (A) (A) (A)
                 (A) (A) (A) (A) (A) (A) (A) (A) (A) (A) (A) (A)
                 (A) (A) (A) (A) (A) (A) (A) (A) (A) (A) (A) (A)
                 (A) (A) (A) (A) (A) (A) (A) (A) (A) (A) (A) (A)
[...]
    18  C    0.000000  -0.000000   0.000005  -0.000000  -0.000000   0.000000
    19  C   -0.000000  -0.000000  -0.000002  -0.000000  -0.000000  -0.000003
    20  C   -0.000000   0.000000  -0.000000   0.000000  -0.000000   0.000000
    21  C    0.000000  -0.000000   0.000000  -0.000000   0.000000   0.000000
    22  C   -0.000000  -0.000000  -0.000000  -0.000000  -0.000000  -0.000000
    23  C    0.000000   0.000000   0.000000   0.000000   0.000000   0.000000
    24  H   -0.032500  -0.017850  -0.009290   0.010529  -0.000332   0.000430
    25  H    0.553949  -0.026237   0.007706  -0.008000   0.006319  -0.000046
    26  H   -0.026237   0.545813  -0.004930   0.006661  -0.000893   0.000346
    27  H    0.007706  -0.004930   0.549437  -0.040546   0.001148  -0.001030
    28  H   -0.008000   0.006661  -0.040546   0.609992  -0.006457   0.016843
    29  H    0.006319  -0.000893   0.001148  -0.006457   0.554656  -0.040764
    30  H   -0.000046   0.000346  -0.001030   0.016843  -0.040764   0.610545
    31  H    0.000056   0.000010   0.000010   0.000275  -0.005303   0.007252
    32  H   -0.000023   0.000000   0.000021  -0.000052   0.007508  -0.006878
    33  H   -0.000022   0.000049  -0.000090   0.000437  -0.009200   0.010558
    34  H    0.000031   0.000016   0.000978  -0.000473   0.000783  -0.003348
    35  H   -0.000106   0.000248  -0.006891   0.014484  -0.000687   0.011549
    36  H   -0.000015   0.000098   0.001881   0.000523   0.000016  -0.000006
    37  H    0.000009   0.000030   0.000128   0.000250  -0.000041   0.000439
    38  H   -0.000000  -0.000000   0.000000  -0.000000  -0.000000  -0.000000
    39  H   -0.000000   0.000000   0.000000   0.000000   0.000000   0.000000
    40  H    0.000000  -0.000000   0.000000  -0.000000  -0.000000  -0.000000
    41  H    0.000000  -0.000000  -0.000000   0.000000   0.000000   0.000000
    42  H    0.000000  -0.000000   0.000000  -0.000000  -0.000000  -0.000000
    43  H    0.000000   0.000000   0.000000   0.000000   0.000000   0.000000
    44  H   -0.000000   0.000000  -0.000002   0.000002   0.000001   0.000009
    45  H   -0.000000  -0.000000   0.000000  -0.000000   0.000000  -0.000000
    46  H    0.000000  -0.000000   0.000000  -0.000000  -0.000000  -0.000000
    47  H    0.000000  -0.000000  -0.000000  -0.000000   0.000000  -0.000000
    48  H    0.000000   0.000000   0.000000   0.000000   0.000000   0.000000
              31         32         33         34         35         36
     1  C    0.000264  -0.000170   0.001138  -0.001171   0.001534  -0.002396
     2  C   -0.001338   0.000633  -0.003347   0.011502  -0.015979   0.006627
     3  N    0.010051  -0.009304   0.017466  -0.047226  -0.040246   0.002782
     4  C   -0.040080  -0.030336  -0.053312   0.013717  -0.015189   0.001244
     5  C    0.383102   0.396946   0.402460  -0.008889   0.001724  -0.000121
     6  C   -0.000392   0.013341  -0.007977   0.417637   0.386942  -0.022821
     7  C    0.000200  -0.005285   0.001808  -0.044139  -0.048900   0.393831
     8  O    0.000004   0.000087   0.000007   0.003902   0.013185  -0.034993
     9  C    0.000002   0.000008   0.000012  -0.001374   0.002166  -0.015928
    10  O   -0.000000   0.000000   0.000000  -0.000000   0.000016   0.009648
    11  C   -0.000000  -0.000008   0.000000   0.000308  -0.000950   0.003555
    12  C    0.000000   0.000001   0.000000  -0.000046   0.000262  -0.001889
    13  C   -0.000000  -0.000001  -0.000000   0.000205  -0.000076   0.000157
    14  C   -0.000000  -0.000000  -0.000000  -0.000023   0.000164  -0.000064
    15  C   -0.000000   0.000000   0.000000  -0.000006   0.000087   0.000007
    16  C   -0.000000  -0.000000  -0.000000   0.000004  -0.000079   0.000055
    17  C    0.000000   0.000000   0.000000  -0.000031   0.000429  -0.000105
    18  C   -0.000000  -0.000001   0.000000  -0.000047  -0.000009  -0.000602
    19  C   -0.000001  -0.000048  -0.000001   0.000180  -0.000052   0.000039
    20  C    0.000000  -0.000000   0.000001   0.000040   0.000007   0.000022
    21  C    0.000000   0.000000   0.000000  -0.000000  -0.000000   0.000000
    22  C   -0.000000   0.000000   0.000000  -0.000001   0.000000  -0.000002
    23  C    0.000000  -0.000000   0.000000   0.000008  -0.000002   0.000024
    24  H    0.000046   0.000015   0.000399  -0.000045   0.000434   0.000239
    25  H    0.000056  -0.000023  -0.000022   0.000031  -0.000106  -0.000015
    26  H    0.000010   0.000000   0.000049   0.000016   0.000248   0.000098
    27  H    0.000010   0.000021  -0.000090   0.000978  -0.006891   0.001881
    28  H    0.000275  -0.000052   0.000437  -0.000473   0.014484   0.000523
    29  H   -0.005303   0.007508  -0.009200   0.000783  -0.000687   0.000016
    30  H    0.007252  -0.006878   0.010558  -0.003348   0.011549  -0.000006
    31  H    0.547359  -0.026820  -0.016513  -0.000682   0.000250   0.000001
    32  H   -0.026820   0.551267  -0.030898   0.002884   0.000375  -0.000041
    33  H   -0.016513  -0.030898   0.554672   0.000355   0.000322   0.000035
    34  H   -0.000682   0.002884   0.000355   0.507035  -0.032194   0.005470
    35  H    0.000250   0.000375   0.000322  -0.032194   0.576844  -0.008393
    36  H    0.000001  -0.000041   0.000035   0.005470  -0.008393   0.538049
    37  H    0.000079   0.000421   0.000516  -0.010142   0.009833  -0.041565
    38  H   -0.000000  -0.000000  -0.000000   0.000000  -0.000010   0.000031
    39  H    0.000000   0.000001   0.000000   0.000014   0.000055  -0.000007
    40  H   -0.000000  -0.000000  -0.000000  -0.000003   0.000004  -0.000001
    41  H   -0.000000   0.000000   0.000000  -0.000000  -0.000001  -0.000000
    42  H   -0.000000  -0.000000  -0.000000  -0.000000  -0.000000  -0.000000
    43  H    0.000000   0.000000   0.000000  -0.000001   0.000011  -0.000031
    44  H    0.000004   0.000162   0.000003   0.000362   0.000219   0.000407
    45  H   -0.000000   0.000002  -0.000000   0.000006  -0.000000  -0.000000
    46  H   -0.000000  -0.000000  -0.000000   0.000000  -0.000000   0.000000
    47  H   -0.000000   0.000000   0.000000  -0.000000  -0.000000  -0.000000
    48  H    0.000000  -0.000000   0.000000  -0.000000  -0.000000   0.000000
              37         38         39         40         41         42
     1  C    0.000559   0.000000   0.000000   0.000000  -0.000000   0.000000
     2  C   -0.002449   0.000000   0.000001   0.000000  -0.000000   0.000000
     3  N    0.020578  -0.000001  -0.000001   0.000000  -0.000000  -0.000000
     4  C   -0.003854   0.000000  -0.000000   0.000000  -0.000000   0.000000
     5  C    0.000918  -0.000000  -0.000000   0.000000  -0.000000  -0.000000
     6  C   -0.049760   0.000035   0.000032   0.000000  -0.000001   0.000000
     7  C    0.403963  -0.000075  -0.000243   0.000002   0.000001  -0.000001
     8  O   -0.032822   0.005768  -0.000129   0.000006  -0.000005   0.000004
     9  C   -0.003135  -0.067724  -0.005094  -0.000028   0.000007   0.000026
    10  O    0.007338   0.004656   0.000035  -0.000000   0.000000  -0.000002
    11  C   -0.003596   0.509849  -0.029003  -0.000913  -0.000060  -0.001157
    12  C    0.001082  -0.068469  -0.049886   0.017290  -0.004406   0.017182
    13  C    0.000052   0.010327   0.429976  -0.053933   0.017780  -0.002245
    14  C    0.000014  -0.000103  -0.047670   0.429232  -0.059926   0.014747
    15  C    0.000001   0.000079   0.014020  -0.062713   0.436652  -0.063729
    16  C   -0.000007   0.001509  -0.003638   0.013445  -0.064098   0.433340
    17  C    0.000034  -0.005404   0.013452  -0.000978   0.017137  -0.058296
    18  C   -0.000067  -0.085038   0.012144   0.000003   0.000001   0.000066
    19  C    0.000795   0.017017  -0.004124   0.000160   0.000003  -0.000002
    20  C   -0.000140  -0.001307   0.000186  -0.000014   0.000000  -0.000000
    21  C    0.000001   0.000455  -0.000009  -0.000003  -0.000000  -0.000000
    22  C    0.000009   0.001096   0.000422  -0.000005  -0.000000   0.000000
    23  C   -0.000090  -0.005078   0.003397   0.000017  -0.000002   0.000001
    24  H    0.000252  -0.000000   0.000000  -0.000000   0.000000  -0.000000
    25  H    0.000009  -0.000000  -0.000000   0.000000   0.000000   0.000000
    26  H    0.000030  -0.000000   0.000000  -0.000000  -0.000000  -0.000000
    27  H    0.000128   0.000000   0.000000   0.000000  -0.000000   0.000000
    28  H    0.000250  -0.000000   0.000000  -0.000000   0.000000  -0.000000
    29  H   -0.000041  -0.000000   0.000000  -0.000000   0.000000  -0.000000
    30  H    0.000439  -0.000000   0.000000  -0.000000   0.000000  -0.000000
    31  H    0.000079  -0.000000   0.000000  -0.000000  -0.000000  -0.000000
    32  H    0.000421  -0.000000   0.000001  -0.000000   0.000000  -0.000000
    33  H    0.000516  -0.000000   0.000000  -0.000000   0.000000  -0.000000
    34  H   -0.010142   0.000000   0.000014  -0.000003  -0.000000  -0.000000
    35  H    0.009833  -0.000010   0.000055   0.000004  -0.000001  -0.000000
    36  H   -0.041565   0.000031  -0.000007  -0.000001  -0.000000  -0.000000
    37  H    0.542241  -0.000015   0.000026   0.000000  -0.000000   0.000000
    38  H   -0.000015   0.441337  -0.000433   0.000005   0.000000  -0.000050
    39  H    0.000026  -0.000433   0.500838  -0.005976  -0.000199   0.000026
    40  H    0.000000   0.000005  -0.005976   0.525563  -0.006358  -0.000172
    41  H   -0.000000   0.000000  -0.000199  -0.006358   0.521808  -0.006756
    42  H    0.000000  -0.000050   0.000026  -0.000172  -0.006756   0.525925
    43  H    0.000007   0.000496   0.000067   0.000021  -0.000128  -0.006192
    44  H   -0.000335   0.000151  -0.000197  -0.000009  -0.000000   0.000000
    45  H   -0.000008   0.000001   0.000036  -0.000000   0.000000  -0.000000
    46  H   -0.000000  -0.000002  -0.000009   0.000000  -0.000000   0.000000
    47  H    0.000000  -0.000037  -0.000006   0.000000  -0.000000   0.000000
    48  H   -0.000000   0.002736  -0.000008  -0.000000  -0.000000  -0.000001
              43         44         45         46         47         48
     1  C    0.000000   0.000000  -0.000000  -0.000000   0.000000  -0.000000
     2  C    0.000000  -0.000004   0.000000   0.000000  -0.000000  -0.000000
     3  N   -0.000000   0.000098  -0.000000  -0.000000  -0.000000   0.000000
     4  C   -0.000000  -0.000020  -0.000000   0.000000  -0.000000   0.000000
     5  C    0.000000   0.000038   0.000000  -0.000000  -0.000000  -0.000000
     6  C   -0.000028   0.002529  -0.000012  -0.000000   0.000000   0.000001
     7  C   -0.000025  -0.008057   0.000038   0.000000   0.000000  -0.000000
     8  O    0.000553  -0.003498   0.000049   0.000000  -0.000001  -0.000047
     9  C   -0.005590   0.003787  -0.000072  -0.000007   0.000021   0.000831
    10  O   -0.000079   0.000704  -0.000010   0.000000  -0.000001  -0.000088
    11  C   -0.012787   0.002955  -0.001057  -0.000094  -0.001438  -0.012399
    12  C   -0.063994  -0.009664   0.000073   0.000018   0.000063  -0.004889
    13  C    0.020990   0.003334  -0.000109  -0.000008   0.000020   0.001554
    14  C   -0.005613  -0.000125  -0.000007   0.000001   0.000005  -0.000210
    15  C    0.016184   0.000018   0.000000  -0.000000  -0.000000   0.000035
    16  C   -0.067623   0.000006  -0.000000   0.000000  -0.000000  -0.000157
    17  C    0.447984  -0.000253   0.000001  -0.000000  -0.000012  -0.000284
    18  C    0.002058  -0.071316   0.018899  -0.005556   0.017399  -0.058438
    19  C   -0.000258   0.427054  -0.059564   0.018663  -0.001515   0.022297
    20  C    0.000004  -0.041954   0.434362  -0.062170   0.013832  -0.006046
    21  C   -0.000002   0.012258  -0.062875   0.439418  -0.061988   0.015817
    22  C    0.000012  -0.003060   0.014059  -0.065849   0.434420  -0.062554
    23  C    0.000521   0.010202  -0.001239   0.018652  -0.061053   0.436057
    24  H    0.000000   0.000000   0.000000  -0.000000  -0.000000  -0.000000
    25  H    0.000000  -0.000000  -0.000000   0.000000   0.000000   0.000000
    26  H    0.000000   0.000000  -0.000000  -0.000000  -0.000000   0.000000
    27  H    0.000000  -0.000002   0.000000   0.000000  -0.000000   0.000000
    28  H    0.000000   0.000002  -0.000000  -0.000000  -0.000000   0.000000
    29  H    0.000000   0.000001   0.000000  -0.000000   0.000000   0.000000
    30  H    0.000000   0.000009  -0.000000  -0.000000  -0.000000   0.000000
    31  H    0.000000   0.000004  -0.000000  -0.000000  -0.000000   0.000000
    32  H    0.000000   0.000162   0.000002  -0.000000   0.000000  -0.000000
    33  H    0.000000   0.000003  -0.000000  -0.000000   0.000000   0.000000
    34  H   -0.000001   0.000362   0.000006   0.000000  -0.000000  -0.000000
    35  H    0.000011   0.000219  -0.000000  -0.000000  -0.000000  -0.000000
    36  H   -0.000031   0.000407  -0.000000   0.000000  -0.000000   0.000000
    37  H    0.000007  -0.000335  -0.000008  -0.000000   0.000000  -0.000000
    38  H    0.000496   0.000151   0.000001  -0.000002  -0.000037   0.002736
    39  H    0.000067  -0.000197   0.000036  -0.000009  -0.000006  -0.000008
    40  H    0.000021  -0.000009  -0.000000   0.000000   0.000000  -0.000000
    41  H   -0.000128  -0.000000   0.000000  -0.000000  -0.000000  -0.000000
    42  H   -0.006192   0.000000  -0.000000   0.000000   0.000000  -0.000001
    43  H    0.528325   0.000000   0.000000  -0.000000  -0.000000   0.000083
    44  H    0.000000   0.477932  -0.005745  -0.000133   0.000019   0.000035
    45  H    0.000000  -0.005745   0.523432  -0.006607  -0.000174   0.000009
    46  H   -0.000000  -0.000133  -0.006607   0.521099  -0.006760  -0.000100
    47  H   -0.000000   0.000019  -0.000174  -0.006760   0.524862  -0.006055
    48  H    0.000083   0.000035   0.000009  -0.000100  -0.006055   0.520407
 Mulliken charges:
               1
     1  C   -0.396658
     2  C   -0.208225
     3  N   -0.218446
     4  C   -0.214029
     5  C   -0.390902
     6  C   -0.280365
     7  C   -0.118457
     8  O   -0.144911
     9  C    0.202395
    10  O   -0.345205
    11  C   -0.245630
    12  C   -0.057582
    13  C   -0.095125
    14  C   -0.149272
    15  C   -0.146006
    16  C   -0.125441
    17  C   -0.146362
    18  C   -0.096746
    19  C   -0.116121
    20  C   -0.147967
    21  C   -0.137853
    22  C   -0.137403
    23  C   -0.129819
    24  H    0.131149
    25  H    0.135219
    26  H    0.142401
    27  H    0.162051
    28  H    0.129248
    29  H    0.157889
    30  H    0.128797
    31  H    0.142163
    32  H    0.136194
    33  H    0.131121
    34  H    0.184403
    35  H    0.148622
    36  H    0.164238
    37  H    0.158451
    38  H    0.238199
    39  H    0.171905
    40  H    0.145358
    41  H    0.148550
    42  H    0.147288
    43  H    0.145034
    44  H    0.202085
    45  H    0.146511
    46  H    0.149444
    47  H    0.148395
    48  H    0.151416
 Sum of Mulliken charges =  -0.00000
 Mulliken charges with hydrogens summed into heavy atoms:
               1
     1  C    0.012111
     2  C    0.083073
     3  N   -0.218446
     4  C    0.072657
     5  C    0.018575
     6  C    0.052660
     7  C    0.204232
     8  O   -0.144911
     9  C    0.202395
    10  O   -0.345205
    11  C   -0.007431
    12  C   -0.057582
    13  C    0.076781
    14  C   -0.003914
    15  C    0.002544
    16  C    0.021847
    17  C   -0.001328
    18  C   -0.096746
    19  C    0.085963
    20  C   -0.001456
    21  C    0.011591
    22  C    0.010991
    23  C    0.021597
 Electronic spatial extent (au):  <R**2>=           9717.3173
 Charge=              0.0000 electrons
 Dipole moment (field-independent basis, Debye):
    X=             -0.8398    Y=              1.3322    Z=              3.4684  Tot=              3.8092
 Quadrupole moment (field-independent basis, Debye-Ang):
   XX=           -124.1095   YY=           -129.4213   ZZ=           -143.9052
   XY=             -3.4365   XZ=             -4.8428   YZ=             -9.5045
 Traceless Quadrupole moment (field-independent basis, Debye-Ang):
   XX=              8.3692   YY=              3.0573   ZZ=            -11.4265
   XY=             -3.4365   XZ=             -4.8428   YZ=             -9.5045
 Octapole moment (field-independent basis, Debye-Ang**2):
  XXX=            -30.2835  YYY=             23.3267  ZZZ=             35.5455  XYY=             20.5679
  XXY=            -17.8937  XXZ=             -8.3933  XZZ=             -6.1712  YZZ=             22.8331
  YYZ=             18.0933  XYZ=             -3.5475
 Hexadecapole moment (field-independent basis, Debye-Ang**3):
 XXXX=          -8332.1026 YYYY=          -3084.1443 ZZZZ=          -1401.5794 XXXY=           -254.8329
 XXXZ=           -180.8340 YYYX=             15.5891 YYYZ=            -51.3830 ZZZX=              4.2140
 ZZZY=            -13.4663 XXYY=          -1957.2055 XXZZ=          -1674.6520 YYZZ=           -731.7939
 XXYZ=            -89.6391 YYXZ=             55.6101 ZZXY=             45.8974
 N-N= 1.863669279379D+03 E-N=-6.013205310693D+03  KE= 9.779336930916D+02
 Unable to Open any file for archive entry.
 1\1\GINC-TCN1684\SP\RBP86\TZVP\C20H25N1O2\ELENAA\23-Feb-2021\0\\# BP86
 /TZVP SCRF=COSMORS geom=CHECKPOINT guess=CHECKPOINT\\COSMO-file for #J
 GOAIQNSOGZNBX-UHFFFAOYSA-N\\0,1\C,0,-3.4063608011,7.7328424096,-3.5909
 149122\C,0,-2.9798647604,6.3620171044,-3.0638069395\N,0,-1.8385864278,
 5.7888171962,-3.8068791558\C,0,-2.2538717428,5.2155627665,-5.101993427
 7\C,0,-1.1012002207,5.1108201918,-6.1018151156\C,0,-1.0997904066,4.818
 0014117,-2.9882100943\C,0,-0.0602017588,5.5378911585,-2.1379036557\O,0
 ,0.5649701149,4.5223640396,-1.2923292616\C,0,1.538335603,4.9496751958,
 -0.4589764232\O,0,1.8857704562,6.1163632928,-0.3566367962\C,0,2.184407
 9847,3.7931509799,0.3145598846\C,0,1.1720534139,2.7396190285,0.7618086
 701\C,0,0.8899362998,1.6003064438,-0.0063260292\C,0,-0.069643615,0.675
 5320525,0.4201146492\C,0,-0.7577243155,0.8757771421,1.6235718316\C,0,-
 0.4784821958,2.0081071925,2.3986874464\C,0,0.4809000089,2.932143442,1.
 9694333436\C,0,3.3601866997,3.2204437687,-0.4755503795\C,0,3.327981338
 4,3.0729240891,-1.8720121873\C,0,4.411643041,2.5025800212,-2.551291417
 6\C,0,5.5398725108,2.0718148089,-1.8444082215\C,0,5.5799538962,2.21692
 71317,-0.4515986076\C,0,4.498516512,2.7890904677,0.2258326342\H,0,-2.5
 685273981,8.4433997016,-3.5299180903\H,0,-3.7397514094,7.6878917323,-4
 .6385442253\H,0,-4.2432861092,8.1269574077,-2.9942968792\H,0,-2.677499
 2902,6.469914144,-2.0107986781\H,0,-3.8431955279,5.6591395214,-3.06778
 06455\H,0,-3.0272291973,5.8732814629,-5.5250018249\H,0,-2.7336905359,4
 .221159128,-4.9588109074\H,0,-1.4593444968,4.6922250518,-7.0548270311\
 H,0,-0.2946177448,4.456847446,-5.7366797948\H,0,-0.6709665934,6.104652
 564,-6.2961089727\H,0,-0.576001998,4.1066703904,-3.6425329737\H,0,-1.7
 722514435,4.2198439088,-2.3373091659\H,0,-0.5074408548,6.3105460478,-1
 .4948560901\H,0,0.7074635482,6.0100620437,-2.7684564288\H,0,2.59682936
 13,4.2698242476,1.2164242404\H,0,1.4246106885,1.4343213018,-0.94339882
 18\H,0,-0.2777305033,-0.2072945084,-0.1885465643\H,0,-1.5036477041,0.1
 514600155,1.957518011\H,0,-1.0045743615,2.1710230883,3.341910942\H,0,0
 .6965451322,3.8139121287,2.5790362656\H,0,2.4505603968,3.3982483959,-2
 .4344025546\H,0,4.371570658,2.3958673356,-3.6374585345\H,0,6.384779639
 2,1.6280152948,-2.3749891265\H,0,6.4574819129,1.8876840859,0.109098088
 9\H,0,4.5341721958,2.9006167285,1.3125639264\\Version=ES64L-G16RevC.01
 \State=1-A\HF=-982.7055898\RMSD=5.740e-09\Dipole=-0.9033741,-1.1041459
 ,-0.4590123\Quadrupole=4.9234093,-10.5046462,5.581237,-6.6631205,0.427
 5398,0.0585286\PG=C01 [X(C20H25N1O2)]\\@
 The archive entry for this job was punched.


 IF YOU'RE NOT PART OF THE SOLUTION,
 THEN YOU'RE PART OF THE PRECIPITATE.
 Job cpu time:       0 days  0 hours 39 minutes  7.4 seconds.
 Elapsed time:       0 days  0 hours  1 minutes 15.1 seconds.
 File lengths (MBytes):  RWF=    260 Int=      0 D2E=      0 Chk=     32 Scr=      1
 Normal termination of Gaussian 16 at Tue Feb 23 01:15:04 2021.
