 Entering Gaussian System, Link 0=g16
 Input=JRMUNVKIHCOMHV-UHFFFAOYSA-M.gjf
 Output=JRMUNVKIHCOMHV-UHFFFAOYSA-M.log
 Initial command:
 /sw/arch/RedHatEnterpriseServer7/EB_production/2020/software/Gaussian/g16.c01/l1.exe "/scratch-local/elenaa.10684693/Gau-3435.inp" -scrdir="/scratch-local/elenaa.10684693/"
 Entering Link 1 = /sw/arch/RedHatEnterpriseServer7/EB_production/2020/software/Gaussian/g16.c01/l1.exe PID=      3436.
  
 Copyright (c) 1988-2019, Gaussian, Inc.  All Rights Reserved.
  
 This is part of the Gaussian(R) 16 program.  It is based on
 the Gaussian(R) 09 system (copyright 2009, Gaussian, Inc.),
 the Gaussian(R) 03 system (copyright 2003, Gaussian, Inc.),
 the Gaussian(R) 98 system (copyright 1998, Gaussian, Inc.),
 the Gaussian(R) 94 system (copyright 1995, Gaussian, Inc.),
 the Gaussian 92(TM) system (copyright 1992, Gaussian, Inc.),
 the Gaussian 90(TM) system (copyright 1990, Gaussian, Inc.),
 the Gaussian 88(TM) system (copyright 1988, Gaussian, Inc.),
 the Gaussian 86(TM) system (copyright 1986, Carnegie Mellon
 University), and the Gaussian 82(TM) system (copyright 1983,
 Carnegie Mellon University). Gaussian is a federally registered
 trademark of Gaussian, Inc.
  
 This software contains proprietary and confidential information,
 including trade secrets, belonging to Gaussian, Inc.
  
 This software is provided under written license and may be
 used, copied, transmitted, or stored only in accord with that
 written license.
  
 The following legend is applicable only to US Government
 contracts under FAR:
  
                    RESTRICTED RIGHTS LEGEND
  
 Use, reproduction and disclosure by the US Government is
 subject to restrictions as set forth in subparagraphs (a)
 and (c) of the Commercial Computer Software - Restricted
 Rights clause in FAR 52.227-19.
  
 Gaussian, Inc.
 340 Quinnipiac St., Bldg. 40, Wallingford CT 06492
  
  
 ---------------------------------------------------------------
 Warning -- This program may not be used in any manner that
 competes with the business of Gaussian, Inc. or will provide
 assistance to any competitor of Gaussian, Inc.  The licensee
 of this program is prohibited from giving any competitor of
 Gaussian, Inc. access to this program.  By using this program,
 the user acknowledges that Gaussian, Inc. is engaged in the
 business of creating and licensing software in the field of
 computational chemistry and represents and warrants to the
 licensee that it is not a competitor of Gaussian, Inc. and that
 it will not use this program in any manner prohibited above.
 ---------------------------------------------------------------
  

 Cite this work as:
 Gaussian 16, Revision C.01,
 M. J. Frisch, G. W. Trucks, H. B. Schlegel, G. E. Scuseria, 
 M. A. Robb, J. R. Cheeseman, G. Scalmani, V. Barone, 
 G. A. Petersson, H. Nakatsuji, X. Li, M. Caricato, A. V. Marenich, 
 J. Bloino, B. G. Janesko, R. Gomperts, B. Mennucci, H. P. Hratchian, 
 J. V. Ortiz, A. F. Izmaylov, J. L. Sonnenberg, D. Williams-Young, 
 F. Ding, F. Lipparini, F. Egidi, J. Goings, B. Peng, A. Petrone, 
 T. Henderson, D. Ranasinghe, V. G. Zakrzewski, J. Gao, N. Rega, 
 G. Zheng, W. Liang, M. Hada, M. Ehara, K. Toyota, R. Fukuda, 
 J. Hasegawa, M. Ishida, T. Nakajima, Y. Honda, O. Kitao, H. Nakai, 
 T. Vreven, K. Throssell, J. A. Montgomery, Jr., J. E. Peralta, 
 F. Ogliaro, M. J. Bearpark, J. J. Heyd, E. N. Brothers, K. N. Kudin, 
 V. N. Staroverov, T. A. Keith, R. Kobayashi, J. Normand, 
 K. Raghavachari, A. P. Rendell, J. C. Burant, S. S. Iyengar, 
 J. Tomasi, M. Cossi, J. M. Millam, M. Klene, C. Adamo, R. Cammi, 
 J. W. Ochterski, R. L. Martin, K. Morokuma, O. Farkas, 
 J. B. Foresman, and D. J. Fox, Gaussian, Inc., Wallingford CT, 2019.
 
 ******************************************
 Gaussian 16:  ES64L-G16RevC.01  3-Jul-2019
                21-Aug-2021 
 ******************************************
 %chk=JRMUNVKIHCOMHV-UHFFFAOYSA-M.chk
 %NProcShared=24
 Will use up to   24 processors via shared memory.
 -------------------------------------------------------------
 #P BP86/TZVP EmpiricalDispersion=GD3 SCRF=(Solvent=Water) Opt
 -------------------------------------------------------------
 1/18=20,19=15,26=3,38=1/1,3;
 2/9=110,12=2,17=6,18=5,40=1/2;
 3/5=19,7=101,11=2,25=1,30=1,70=2201,71=1,72=1,74=404,124=31/1,2,3;
 4//1;
 5/5=2,38=5,53=1/2;
 6/7=2,8=2,9=2,10=2,28=1/1;
 7//1,2,3,16;
 1/18=20,19=15,26=3/3(2);
 2/9=110/2;
 99//99;
 2/9=110/2;
 3/5=19,7=101,11=2,25=1,30=1,70=2205,71=1,72=1,74=404,124=31/1,2,3;
 4/5=5,16=3,69=1/1;
 5/5=2,38=5,53=1/2;
 7//1,2,3,16;
 1/18=20,19=15,26=3/3(-5);
 2/9=110/2;
 6/7=2,8=2,9=2,10=2,19=2,28=1/1;
 99/9=1/99;
 Leave Link    1 at Sat Aug 21 09:32:11 2021, MaxMem=           0 cpu:               2.0 elap:               0.1
 (Enter /sw/arch/RedHatEnterpriseServer7/EB_production/2020/software/Gaussian/g16.c01/l101.exe)
 -------------------------------------
 Particle #JRMUNVKIHCOMHV-UHFFFAOYSA-M
 -------------------------------------
 Symbolic Z-matrix:
 Charge =  0 Multiplicity = 1
 C                     3.51651  -2.4543    0.51547 
 C                     3.34455  -1.09559  -0.16344 
 C                     2.10633  -0.33113   0.3344 
 C                     0.77524  -1.02768  -0.07573 
 N                    -0.5066   -0.24465   0.08047 
 C                    -1.65667  -1.19633   0.31755 
 C                    -1.92079  -2.25784  -0.78029 
 C                    -2.97717  -3.29149  -0.34913 
 C                    -2.41868  -4.3544    0.59877 
 C                    -0.86333   0.63582  -1.09074 
 C                     0.25167   1.56737  -1.62406 
 C                    -0.26752   2.57105  -2.66937 
 C                    -0.6128    1.92256  -4.00883 
 C                    -0.44638   0.65488   1.29649 
 C                    -0.29753  -0.05779   2.67295 
 C                     0.31181   0.85516   3.74907 
 C                    -0.59808   2.02992   4.10651 
 Br                   -3.77792   1.7537    0.47911 
 H                     2.71493  -3.15441   0.20092 
 H                     3.49958  -2.34251   1.62047 
 H                     4.49246  -2.89338   0.21952 
 H                     3.29146  -1.23371  -1.26529 
 H                     4.24641  -0.48237   0.05265 
 H                     2.18017  -0.23579   1.4365 
 H                     2.17716   0.68839  -0.07938 
 H                     0.89568  -1.35798  -1.10678 
 H                     0.72132  -1.96539   0.52023 
 H                    -1.48781  -1.77086   1.24848 
 H                    -2.60165  -0.62578   0.47389 
 H                    -0.99     -2.79572  -1.05001 
 H                    -2.32636  -1.76793  -1.68705 
 H                    -3.84395  -2.78335   0.12682 
 H                    -3.35331  -3.80995  -1.25811 
 H                    -2.13873  -3.91211   1.57636 
 H                    -3.19464  -5.12724   0.78192 
 H                    -1.53098  -4.84847   0.14975 
 H                    -1.73965   1.27309  -0.83024 
 H                    -1.23635   0.05134  -1.93435 
 H                     0.6663    2.17932  -0.80071 
 H                     1.07183   0.96941  -2.07457 
 H                    -1.15755   3.10895  -2.27654 
 H                     0.52493   3.32979  -2.84994 
 H                    -1.48175   1.24073  -3.90579 
 H                    -0.88159   2.71263  -4.74122 
 H                     0.25987   1.36113  -4.4041 
 H                     0.36958   1.39741   1.20036 
 H                    -1.37392   1.26862   1.36775 
 H                     0.34317  -0.95841   2.59407 
 H                    -1.29433  -0.39843   3.0294 
 H                     1.2989    1.23842   3.41093 
 H                     0.48358   0.25281   4.66741 
 H                    -0.15086   2.60101   4.94715 
 H                    -0.71026   2.71592   3.24105 
 H                    -1.59886   1.66397   4.41995 
 
 Add virtual bond connecting atoms H37        and Br18       Dist= 4.67D+00.
 Add virtual bond connecting atoms H47        and Br18       Dist= 4.93D+00.
 ITRead=  0  0  0  0  0  0  0  0  0  0  0  0  0  0  0  0  0  0  0  0
 ITRead=  0  0  0  0  0  0  0  0  0  0  0  0  0  0  0  0  0  0  0  0
 ITRead=  0  0  0  0  0  0  0  0  0  0  0  0  0  0
 MicOpt= -1 -1 -1 -1 -1 -1 -1 -1 -1 -1 -1 -1 -1 -1 -1 -1 -1 -1 -1 -1
 MicOpt= -1 -1 -1 -1 -1 -1 -1 -1 -1 -1 -1 -1 -1 -1 -1 -1 -1 -1 -1 -1
 MicOpt= -1 -1 -1 -1 -1 -1 -1 -1 -1 -1 -1 -1 -1 -1
 NAtoms=     54 NQM=       54 NQMF=       0 NMMI=      0 NMMIF=      0
                NMic=       0 NMicF=      0.
                    Isotopes and Nuclear Properties:
 (Nuclear quadrupole moments (NQMom) in fm**2, nuclear magnetic moments (NMagM)
  in nuclear magnetons)

  Atom         1           2           3           4           5           6           7           8           9          10
 IAtWgt=          12          12          12          12          14          12          12          12          12          12
 AtmWgt=  12.0000000  12.0000000  12.0000000  12.0000000  14.0030740  12.0000000  12.0000000  12.0000000  12.0000000  12.0000000
 NucSpn=           0           0           0           0           2           0           0           0           0           0
 AtZEff=  -0.0000000  -0.0000000  -0.0000000  -0.0000000  -0.0000000  -0.0000000  -0.0000000  -0.0000000  -0.0000000  -0.0000000
 NQMom=    0.0000000   0.0000000   0.0000000   0.0000000   2.0440000   0.0000000   0.0000000   0.0000000   0.0000000   0.0000000
 NMagM=    0.0000000   0.0000000   0.0000000   0.0000000   0.4037610   0.0000000   0.0000000   0.0000000   0.0000000   0.0000000
 AtZNuc=   6.0000000   6.0000000   6.0000000   6.0000000   7.0000000   6.0000000   6.0000000   6.0000000   6.0000000   6.0000000

  Atom        11          12          13          14          15          16          17          18          19          20
 IAtWgt=          12          12          12          12          12          12          12          79           1           1
 AtmWgt=  12.0000000  12.0000000  12.0000000  12.0000000  12.0000000  12.0000000  12.0000000  78.9183361   1.0078250   1.0078250
 NucSpn=           0           0           0           0           0           0           0           3           1           1
 AtZEff=  -0.0000000  -0.0000000  -0.0000000  -0.0000000  -0.0000000  -0.0000000  -0.0000000  -0.0000000  -0.0000000  -0.0000000
 NQMom=    0.0000000   0.0000000   0.0000000   0.0000000   0.0000000   0.0000000   0.0000000  31.3000000   0.0000000   0.0000000
 NMagM=    0.0000000   0.0000000   0.0000000   0.0000000   0.0000000   0.0000000   0.0000000   2.1063990   2.7928460   2.7928460
 AtZNuc=   6.0000000   6.0000000   6.0000000   6.0000000   6.0000000   6.0000000   6.0000000  35.0000000   1.0000000   1.0000000

  Atom        21          22          23          24          25          26          27          28          29          30
 IAtWgt=           1           1           1           1           1           1           1           1           1           1
 AtmWgt=   1.0078250   1.0078250   1.0078250   1.0078250   1.0078250   1.0078250   1.0078250   1.0078250   1.0078250   1.0078250
 NucSpn=           1           1           1           1           1           1           1           1           1           1
 AtZEff=  -0.0000000  -0.0000000  -0.0000000  -0.0000000  -0.0000000  -0.0000000  -0.0000000  -0.0000000  -0.0000000  -0.0000000
 NQMom=    0.0000000   0.0000000   0.0000000   0.0000000   0.0000000   0.0000000   0.0000000   0.0000000   0.0000000   0.0000000
 NMagM=    2.7928460   2.7928460   2.7928460   2.7928460   2.7928460   2.7928460   2.7928460   2.7928460   2.7928460   2.7928460
 AtZNuc=   1.0000000   1.0000000   1.0000000   1.0000000   1.0000000   1.0000000   1.0000000   1.0000000   1.0000000   1.0000000

  Atom        31          32          33          34          35          36          37          38          39          40
 IAtWgt=           1           1           1           1           1           1           1           1           1           1
 AtmWgt=   1.0078250   1.0078250   1.0078250   1.0078250   1.0078250   1.0078250   1.0078250   1.0078250   1.0078250   1.0078250
 NucSpn=           1           1           1           1           1           1           1           1           1           1
 AtZEff=  -0.0000000  -0.0000000  -0.0000000  -0.0000000  -0.0000000  -0.0000000  -0.0000000  -0.0000000  -0.0000000  -0.0000000
 NQMom=    0.0000000   0.0000000   0.0000000   0.0000000   0.0000000   0.0000000   0.0000000   0.0000000   0.0000000   0.0000000
 NMagM=    2.7928460   2.7928460   2.7928460   2.7928460   2.7928460   2.7928460   2.7928460   2.7928460   2.7928460   2.7928460
 AtZNuc=   1.0000000   1.0000000   1.0000000   1.0000000   1.0000000   1.0000000   1.0000000   1.0000000   1.0000000   1.0000000

  Atom        41          42          43          44          45          46          47          48          49          50
 IAtWgt=           1           1           1           1           1           1           1           1           1           1
 AtmWgt=   1.0078250   1.0078250   1.0078250   1.0078250   1.0078250   1.0078250   1.0078250   1.0078250   1.0078250   1.0078250
 NucSpn=           1           1           1           1           1           1           1           1           1           1
 AtZEff=  -0.0000000  -0.0000000  -0.0000000  -0.0000000  -0.0000000  -0.0000000  -0.0000000  -0.0000000  -0.0000000  -0.0000000
 NQMom=    0.0000000   0.0000000   0.0000000   0.0000000   0.0000000   0.0000000   0.0000000   0.0000000   0.0000000   0.0000000
 NMagM=    2.7928460   2.7928460   2.7928460   2.7928460   2.7928460   2.7928460   2.7928460   2.7928460   2.7928460   2.7928460
 AtZNuc=   1.0000000   1.0000000   1.0000000   1.0000000   1.0000000   1.0000000   1.0000000   1.0000000   1.0000000   1.0000000

  Atom        51          52          53          54
 IAtWgt=           1           1           1           1
 AtmWgt=   1.0078250   1.0078250   1.0078250   1.0078250
 NucSpn=           1           1           1           1
 AtZEff=  -0.0000000  -0.0000000  -0.0000000  -0.0000000
 NQMom=    0.0000000   0.0000000   0.0000000   0.0000000
 NMagM=    2.7928460   2.7928460   2.7928460   2.7928460
 AtZNuc=   1.0000000   1.0000000   1.0000000   1.0000000
 Leave Link  101 at Sat Aug 21 09:32:11 2021, MaxMem=   104857600 cpu:               1.9 elap:               0.1
 (Enter /sw/arch/RedHatEnterpriseServer7/EB_production/2020/software/Gaussian/g16.c01/l103.exe)

 GradGradGradGradGradGradGradGradGradGradGradGradGradGradGradGradGradGrad
 Berny optimization.
 Initialization pass.
                           ----------------------------
                           !    Initial Parameters    !
                           ! (Angstroms and Degrees)  !
 --------------------------                            --------------------------
 ! Name  Definition              Value          Derivative Info.                !
 --------------------------------------------------------------------------------
 ! R1    R(1,2)                  1.5286         estimate D2E/DX2                !
 ! R2    R(1,19)                 1.1098         estimate D2E/DX2                !
 ! R3    R(1,20)                 1.1108         estimate D2E/DX2                !
 ! R4    R(1,21)                 1.1103         estimate D2E/DX2                !
 ! R5    R(2,3)                  1.538          estimate D2E/DX2                !
 ! R6    R(2,22)                 1.1118         estimate D2E/DX2                !
 ! R7    R(2,23)                 1.1118         estimate D2E/DX2                !
 ! R8    R(3,4)                  1.5573         estimate D2E/DX2                !
 ! R9    R(3,24)                 1.1087         estimate D2E/DX2                !
 ! R10   R(3,25)                 1.1026         estimate D2E/DX2                !
 ! R11   R(4,5)                  1.5102         estimate D2E/DX2                !
 ! R12   R(4,26)                 1.0893         estimate D2E/DX2                !
 ! R13   R(4,27)                 1.1124         estimate D2E/DX2                !
 ! R14   R(5,6)                  1.5115         estimate D2E/DX2                !
 ! R15   R(5,10)                 1.508          estimate D2E/DX2                !
 ! R16   R(5,14)                 1.5138         estimate D2E/DX2                !
 ! R17   R(6,7)                  1.5498         estimate D2E/DX2                !
 ! R18   R(6,28)                 1.1069         estimate D2E/DX2                !
 ! R19   R(6,29)                 1.1149         estimate D2E/DX2                !
 ! R20   R(7,8)                  1.5396         estimate D2E/DX2                !
 ! R21   R(7,30)                 1.1083         estimate D2E/DX2                !
 ! R22   R(7,31)                 1.1076         estimate D2E/DX2                !
 ! R23   R(8,9)                  1.5298         estimate D2E/DX2                !
 ! R24   R(8,32)                 1.1118         estimate D2E/DX2                !
 ! R25   R(8,33)                 1.112          estimate D2E/DX2                !
 ! R26   R(9,34)                 1.1089         estimate D2E/DX2                !
 ! R27   R(9,35)                 1.1104         estimate D2E/DX2                !
 ! R28   R(9,36)                 1.1107         estimate D2E/DX2                !
 ! R29   R(10,11)                1.5477         estimate D2E/DX2                !
 ! R30   R(10,37)                1.1144         estimate D2E/DX2                !
 ! R31   R(10,38)                1.092          estimate D2E/DX2                !
 ! R32   R(11,12)                1.5393         estimate D2E/DX2                !
 ! R33   R(11,39)                1.1065         estimate D2E/DX2                !
 ! R34   R(11,40)                1.1105         estimate D2E/DX2                !
 ! R35   R(12,13)                1.5277         estimate D2E/DX2                !
 ! R36   R(12,41)                1.1117         estimate D2E/DX2                !
 ! R37   R(12,42)                1.1119         estimate D2E/DX2                !
 ! R38   R(13,43)                1.1093         estimate D2E/DX2                !
 ! R39   R(13,44)                1.1103         estimate D2E/DX2                !
 ! R40   R(13,45)                1.1104         estimate D2E/DX2                !
 ! R41   R(14,15)                1.5571         estimate D2E/DX2                !
 ! R42   R(14,46)                1.1074         estimate D2E/DX2                !
 ! R43   R(14,47)                1.1145         estimate D2E/DX2                !
 ! R44   R(15,16)                1.5371         estimate D2E/DX2                !
 ! R45   R(15,48)                1.1081         estimate D2E/DX2                !
 ! R46   R(15,49)                1.1121         estimate D2E/DX2                !
 ! R47   R(16,17)                1.5283         estimate D2E/DX2                !
 ! R48   R(16,50)                1.1116         estimate D2E/DX2                !
 ! R49   R(16,51)                1.1116         estimate D2E/DX2                !
 ! R50   R(17,52)                1.1103         estimate D2E/DX2                !
 ! R51   R(17,53)                1.11           estimate D2E/DX2                !
 ! R52   R(17,54)                1.1107         estimate D2E/DX2                !
 ! R53   R(18,37)                2.4698         estimate D2E/DX2                !
 ! R54   R(18,47)                2.6085         estimate D2E/DX2                !
 ! A1    A(2,1,19)             110.7084         estimate D2E/DX2                !
 ! A2    A(2,1,20)             110.5279         estimate D2E/DX2                !
 ! A3    A(2,1,21)             109.3901         estimate D2E/DX2                !
 ! A4    A(19,1,20)            109.5386         estimate D2E/DX2                !
 ! A5    A(19,1,21)            108.0498         estimate D2E/DX2                !
 ! A6    A(20,1,21)            108.5629         estimate D2E/DX2                !
 ! A7    A(1,2,3)              112.8684         estimate D2E/DX2                !
 ! A8    A(1,2,22)             109.5805         estimate D2E/DX2                !
 ! A9    A(1,2,23)             108.2216         estimate D2E/DX2                !
 ! A10   A(3,2,22)             110.1277         estimate D2E/DX2                !
 ! A11   A(3,2,23)             108.4214         estimate D2E/DX2                !
 ! A12   A(22,2,23)            107.4507         estimate D2E/DX2                !
 ! A13   A(2,3,4)              112.3692         estimate D2E/DX2                !
 ! A14   A(2,3,24)             108.1134         estimate D2E/DX2                !
 ! A15   A(2,3,25)             106.6438         estimate D2E/DX2                !
 ! A16   A(4,3,24)             110.927          estimate D2E/DX2                !
 ! A17   A(4,3,25)             111.6948         estimate D2E/DX2                !
 ! A18   A(24,3,25)            106.8142         estimate D2E/DX2                !
 ! A19   A(3,4,5)              117.7973         estimate D2E/DX2                !
 ! A20   A(3,4,26)             106.8808         estimate D2E/DX2                !
 ! A21   A(3,4,27)             106.1043         estimate D2E/DX2                !
 ! A22   A(5,4,26)             110.4234         estimate D2E/DX2                !
 ! A23   A(5,4,27)             109.9092         estimate D2E/DX2                !
 ! A24   A(26,4,27)            104.8832         estimate D2E/DX2                !
 ! A25   A(4,5,6)              109.6087         estimate D2E/DX2                !
 ! A26   A(4,5,10)             115.0354         estimate D2E/DX2                !
 ! A27   A(4,5,14)             110.9428         estimate D2E/DX2                !
 ! A28   A(6,5,10)             108.0255         estimate D2E/DX2                !
 ! A29   A(6,5,14)             106.1658         estimate D2E/DX2                !
 ! A30   A(10,5,14)            106.6397         estimate D2E/DX2                !
 ! A31   A(5,6,7)              116.7326         estimate D2E/DX2                !
 ! A32   A(5,6,28)             110.0385         estimate D2E/DX2                !
 ! A33   A(5,6,29)             110.1639         estimate D2E/DX2                !
 ! A34   A(7,6,28)             105.4414         estimate D2E/DX2                !
 ! A35   A(7,6,29)             107.7828         estimate D2E/DX2                !
 ! A36   A(28,6,29)            106.081          estimate D2E/DX2                !
 ! A37   A(6,7,8)              112.2358         estimate D2E/DX2                !
 ! A38   A(6,7,30)             111.2029         estimate D2E/DX2                !
 ! A39   A(6,7,31)             109.8391         estimate D2E/DX2                !
 ! A40   A(8,7,30)             108.5759         estimate D2E/DX2                !
 ! A41   A(8,7,31)             105.9615         estimate D2E/DX2                !
 ! A42   A(30,7,31)            108.8413         estimate D2E/DX2                !
 ! A43   A(7,8,9)              112.9249         estimate D2E/DX2                !
 ! A44   A(7,8,32)             110.3643         estimate D2E/DX2                !
 ! A45   A(7,8,33)             108.434          estimate D2E/DX2                !
 ! A46   A(9,8,32)             109.6894         estimate D2E/DX2                !
 ! A47   A(9,8,33)             107.8209         estimate D2E/DX2                !
 ! A48   A(32,8,33)            107.4168         estimate D2E/DX2                !
 ! A49   A(8,9,34)             111.1795         estimate D2E/DX2                !
 ! A50   A(8,9,35)             109.3105         estimate D2E/DX2                !
 ! A51   A(8,9,36)             110.5084         estimate D2E/DX2                !
 ! A52   A(34,9,35)            107.9761         estimate D2E/DX2                !
 ! A53   A(34,9,36)            109.392          estimate D2E/DX2                !
 ! A54   A(35,9,36)            108.396          estimate D2E/DX2                !
 ! A55   A(5,10,11)            116.6548         estimate D2E/DX2                !
 ! A56   A(5,10,37)            109.7755         estimate D2E/DX2                !
 ! A57   A(5,10,38)            111.611          estimate D2E/DX2                !
 ! A58   A(11,10,37)           107.6291         estimate D2E/DX2                !
 ! A59   A(11,10,38)           107.5799         estimate D2E/DX2                !
 ! A60   A(37,10,38)           102.5944         estimate D2E/DX2                !
 ! A61   A(10,11,12)           112.5479         estimate D2E/DX2                !
 ! A62   A(10,11,39)           110.269          estimate D2E/DX2                !
 ! A63   A(10,11,40)           110.3503         estimate D2E/DX2                !
 ! A64   A(12,11,39)           105.7289         estimate D2E/DX2                !
 ! A65   A(12,11,40)           108.9474         estimate D2E/DX2                !
 ! A66   A(39,11,40)           108.8398         estimate D2E/DX2                !
 ! A67   A(11,12,13)           113.2561         estimate D2E/DX2                !
 ! A68   A(11,12,41)           110.216          estimate D2E/DX2                !
 ! A69   A(11,12,42)           108.3504         estimate D2E/DX2                !
 ! A70   A(13,12,41)           109.5282         estimate D2E/DX2                !
 ! A71   A(13,12,42)           107.9607         estimate D2E/DX2                !
 ! A72   A(41,12,42)           107.3261         estimate D2E/DX2                !
 ! A73   A(12,13,43)           110.8859         estimate D2E/DX2                !
 ! A74   A(12,13,44)           109.3291         estimate D2E/DX2                !
 ! A75   A(12,13,45)           110.4323         estimate D2E/DX2                !
 ! A76   A(43,13,44)           107.9987         estimate D2E/DX2                !
 ! A77   A(43,13,45)           109.7501         estimate D2E/DX2                !
 ! A78   A(44,13,45)           108.3737         estimate D2E/DX2                !
 ! A79   A(5,14,15)            116.2272         estimate D2E/DX2                !
 ! A80   A(5,14,46)            110.9785         estimate D2E/DX2                !
 ! A81   A(5,14,47)            110.2124         estimate D2E/DX2                !
 ! A82   A(15,14,46)           108.2501         estimate D2E/DX2                !
 ! A83   A(15,14,47)           105.9662         estimate D2E/DX2                !
 ! A84   A(46,14,47)           104.4497         estimate D2E/DX2                !
 ! A85   A(14,15,16)           112.6388         estimate D2E/DX2                !
 ! A86   A(14,15,48)           111.367          estimate D2E/DX2                !
 ! A87   A(14,15,49)           109.7455         estimate D2E/DX2                !
 ! A88   A(16,15,48)           107.6595         estimate D2E/DX2                !
 ! A89   A(16,15,49)           108.2307         estimate D2E/DX2                !
 ! A90   A(48,15,49)           106.9851         estimate D2E/DX2                !
 ! A91   A(15,16,17)           112.5977         estimate D2E/DX2                !
 ! A92   A(15,16,50)           110.1104         estimate D2E/DX2                !
 ! A93   A(15,16,51)           108.529          estimate D2E/DX2                !
 ! A94   A(17,16,50)           109.5608         estimate D2E/DX2                !
 ! A95   A(17,16,51)           108.3791         estimate D2E/DX2                !
 ! A96   A(50,16,51)           107.5132         estimate D2E/DX2                !
 ! A97   A(16,17,52)           109.4286         estimate D2E/DX2                !
 ! A98   A(16,17,53)           110.6614         estimate D2E/DX2                !
 ! A99   A(16,17,54)           110.4367         estimate D2E/DX2                !
 ! A100  A(52,17,53)           108.248          estimate D2E/DX2                !
 ! A101  A(52,17,54)           108.586          estimate D2E/DX2                !
 ! A102  A(53,17,54)           109.4247         estimate D2E/DX2                !
 ! A103  A(37,18,47)            51.9635         estimate D2E/DX2                !
 ! A104  A(10,37,18)           152.1484         estimate D2E/DX2                !
 ! A105  A(14,47,18)           147.9555         estimate D2E/DX2                !
 ! D1    D(19,1,2,3)            68.662          estimate D2E/DX2                !
 ! D2    D(19,1,2,22)          -54.4594         estimate D2E/DX2                !
 ! D3    D(19,1,2,23)         -171.3438         estimate D2E/DX2                !
 ! D4    D(20,1,2,3)           -52.8943         estimate D2E/DX2                !
 ! D5    D(20,1,2,22)         -176.0157         estimate D2E/DX2                !
 ! D6    D(20,1,2,23)           67.0998         estimate D2E/DX2                !
 ! D7    D(21,1,2,3)          -172.3769         estimate D2E/DX2                !
 ! D8    D(21,1,2,22)           64.5017         estimate D2E/DX2                !
 ! D9    D(21,1,2,23)          -52.3828         estimate D2E/DX2                !
 ! D10   D(1,2,3,4)            -67.0421         estimate D2E/DX2                !
 ! D11   D(1,2,3,24)            55.7096         estimate D2E/DX2                !
 ! D12   D(1,2,3,25)           170.2571         estimate D2E/DX2                !
 ! D13   D(22,2,3,4)            55.7747         estimate D2E/DX2                !
 ! D14   D(22,2,3,24)          178.5264         estimate D2E/DX2                !
 ! D15   D(22,2,3,25)          -66.9261         estimate D2E/DX2                !
 ! D16   D(23,2,3,4)           173.0786         estimate D2E/DX2                !
 ! D17   D(23,2,3,24)          -64.1697         estimate D2E/DX2                !
 ! D18   D(23,2,3,25)           50.3779         estimate D2E/DX2                !
 ! D19   D(2,3,4,5)           -167.0026         estimate D2E/DX2                !
 ! D20   D(2,3,4,26)           -42.0977         estimate D2E/DX2                !
 ! D21   D(2,3,4,27)            69.4325         estimate D2E/DX2                !
 ! D22   D(24,3,4,5)            71.8452         estimate D2E/DX2                !
 ! D23   D(24,3,4,26)         -163.25           estimate D2E/DX2                !
 ! D24   D(24,3,4,27)          -51.7198         estimate D2E/DX2                !
 ! D25   D(25,3,4,5)           -47.1963         estimate D2E/DX2                !
 ! D26   D(25,3,4,26)           77.7085         estimate D2E/DX2                !
 ! D27   D(25,3,4,27)         -170.7613         estimate D2E/DX2                !
 ! D28   D(3,4,5,6)           -151.7689         estimate D2E/DX2                !
 ! D29   D(3,4,5,10)            86.2968         estimate D2E/DX2                !
 ! D30   D(3,4,5,14)           -34.8447         estimate D2E/DX2                !
 ! D31   D(26,4,5,6)            85.0983         estimate D2E/DX2                !
 ! D32   D(26,4,5,10)          -36.836          estimate D2E/DX2                !
 ! D33   D(26,4,5,14)         -157.9775         estimate D2E/DX2                !
 ! D34   D(27,4,5,6)           -30.1385         estimate D2E/DX2                !
 ! D35   D(27,4,5,10)         -152.0728         estimate D2E/DX2                !
 ! D36   D(27,4,5,14)           86.7857         estimate D2E/DX2                !
 ! D37   D(4,5,6,7)            -58.888          estimate D2E/DX2                !
 ! D38   D(4,5,6,28)            61.1799         estimate D2E/DX2                !
 ! D39   D(4,5,6,29)           177.7973         estimate D2E/DX2                !
 ! D40   D(10,5,6,7)            67.1518         estimate D2E/DX2                !
 ! D41   D(10,5,6,28)         -172.7803         estimate D2E/DX2                !
 ! D42   D(10,5,6,29)          -56.1629         estimate D2E/DX2                !
 ! D43   D(14,5,6,7)          -178.7778         estimate D2E/DX2                !
 ! D44   D(14,5,6,28)          -58.7098         estimate D2E/DX2                !
 ! D45   D(14,5,6,29)           57.9075         estimate D2E/DX2                !
 ! D46   D(4,5,10,11)          -49.5939         estimate D2E/DX2                !
 ! D47   D(4,5,10,37)         -172.317          estimate D2E/DX2                !
 ! D48   D(4,5,10,38)           74.625          estimate D2E/DX2                !
 ! D49   D(6,5,10,11)         -172.3797         estimate D2E/DX2                !
 ! D50   D(6,5,10,37)           64.8972         estimate D2E/DX2                !
 ! D51   D(6,5,10,38)          -48.1608         estimate D2E/DX2                !
 ! D52   D(14,5,10,11)          73.8644         estimate D2E/DX2                !
 ! D53   D(14,5,10,37)         -48.8586         estimate D2E/DX2                !
 ! D54   D(14,5,10,38)        -161.9167         estimate D2E/DX2                !
 ! D55   D(4,5,14,15)          -62.6439         estimate D2E/DX2                !
 ! D56   D(4,5,14,46)           61.6049         estimate D2E/DX2                !
 ! D57   D(4,5,14,47)          176.8159         estimate D2E/DX2                !
 ! D58   D(6,5,14,15)           56.3731         estimate D2E/DX2                !
 ! D59   D(6,5,14,46)         -179.3781         estimate D2E/DX2                !
 ! D60   D(6,5,14,47)          -64.1671         estimate D2E/DX2                !
 ! D61   D(10,5,14,15)         171.3907         estimate D2E/DX2                !
 ! D62   D(10,5,14,46)         -64.3605         estimate D2E/DX2                !
 ! D63   D(10,5,14,47)          50.8505         estimate D2E/DX2                !
 ! D64   D(5,6,7,8)            171.936          estimate D2E/DX2                !
 ! D65   D(5,6,7,30)            50.0833         estimate D2E/DX2                !
 ! D66   D(5,6,7,31)           -70.4618         estimate D2E/DX2                !
 ! D67   D(28,6,7,8)            49.4463         estimate D2E/DX2                !
 ! D68   D(28,6,7,30)          -72.4064         estimate D2E/DX2                !
 ! D69   D(28,6,7,31)          167.0484         estimate D2E/DX2                !
 ! D70   D(29,6,7,8)           -63.532          estimate D2E/DX2                !
 ! D71   D(29,6,7,30)          174.6153         estimate D2E/DX2                !
 ! D72   D(29,6,7,31)           54.0702         estimate D2E/DX2                !
 ! D73   D(6,7,8,9)            -78.3161         estimate D2E/DX2                !
 ! D74   D(6,7,8,32)            44.8583         estimate D2E/DX2                !
 ! D75   D(6,7,8,33)           162.2625         estimate D2E/DX2                !
 ! D76   D(30,7,8,9)            45.0232         estimate D2E/DX2                !
 ! D77   D(30,7,8,32)          168.1975         estimate D2E/DX2                !
 ! D78   D(30,7,8,33)          -74.3982         estimate D2E/DX2                !
 ! D79   D(31,7,8,9)           161.7977         estimate D2E/DX2                !
 ! D80   D(31,7,8,32)          -75.0279         estimate D2E/DX2                !
 ! D81   D(31,7,8,33)           42.3763         estimate D2E/DX2                !
 ! D82   D(7,8,9,34)            67.051          estimate D2E/DX2                !
 ! D83   D(7,8,9,35)          -173.8398         estimate D2E/DX2                !
 ! D84   D(7,8,9,36)           -54.6246         estimate D2E/DX2                !
 ! D85   D(32,8,9,34)          -56.497          estimate D2E/DX2                !
 ! D86   D(32,8,9,35)           62.6122         estimate D2E/DX2                !
 ! D87   D(32,8,9,36)         -178.1726         estimate D2E/DX2                !
 ! D88   D(33,8,9,34)         -173.1743         estimate D2E/DX2                !
 ! D89   D(33,8,9,35)          -54.0651         estimate D2E/DX2                !
 ! D90   D(33,8,9,36)           65.1501         estimate D2E/DX2                !
 ! D91   D(5,10,11,12)        -171.2578         estimate D2E/DX2                !
 ! D92   D(5,10,11,39)         -53.4681         estimate D2E/DX2                !
 ! D93   D(5,10,11,40)          66.8057         estimate D2E/DX2                !
 ! D94   D(37,10,11,12)        -47.4276         estimate D2E/DX2                !
 ! D95   D(37,10,11,39)         70.3622         estimate D2E/DX2                !
 ! D96   D(37,10,11,40)       -169.364          estimate D2E/DX2                !
 ! D97   D(38,10,11,12)         62.491          estimate D2E/DX2                !
 ! D98   D(38,10,11,39)       -179.7193         estimate D2E/DX2                !
 ! D99   D(38,10,11,40)        -59.4455         estimate D2E/DX2                !
 ! D100  D(5,10,37,18)         -23.8662         estimate D2E/DX2                !
 ! D101  D(11,10,37,18)       -151.78           estimate D2E/DX2                !
 ! D102  D(38,10,37,18)         94.9083         estimate D2E/DX2                !
 ! D103  D(10,11,12,13)        -71.6168         estimate D2E/DX2                !
 ! D104  D(10,11,12,41)         51.4744         estimate D2E/DX2                !
 ! D105  D(10,11,12,42)        168.6365         estimate D2E/DX2                !
 ! D106  D(39,11,12,13)        167.9439         estimate D2E/DX2                !
 ! D107  D(39,11,12,41)        -68.9648         estimate D2E/DX2                !
 ! D108  D(39,11,12,42)         48.1972         estimate D2E/DX2                !
 ! D109  D(40,11,12,13)         51.1111         estimate D2E/DX2                !
 ! D110  D(40,11,12,41)        174.2023         estimate D2E/DX2                !
 ! D111  D(40,11,12,42)        -68.6356         estimate D2E/DX2                !
 ! D112  D(11,12,13,43)         66.6372         estimate D2E/DX2                !
 ! D113  D(11,12,13,44)       -174.3944         estimate D2E/DX2                !
 ! D114  D(11,12,13,45)        -55.2414         estimate D2E/DX2                !
 ! D115  D(41,12,13,43)        -56.8329         estimate D2E/DX2                !
 ! D116  D(41,12,13,44)         62.1356         estimate D2E/DX2                !
 ! D117  D(41,12,13,45)       -178.7114         estimate D2E/DX2                !
 ! D118  D(42,12,13,43)       -173.3935         estimate D2E/DX2                !
 ! D119  D(42,12,13,44)        -54.425          estimate D2E/DX2                !
 ! D120  D(42,12,13,45)         64.7279         estimate D2E/DX2                !
 ! D121  D(5,14,15,16)         156.7985         estimate D2E/DX2                !
 ! D122  D(5,14,15,48)          35.7269         estimate D2E/DX2                !
 ! D123  D(5,14,15,49)         -82.5486         estimate D2E/DX2                !
 ! D124  D(46,14,15,16)         31.1581         estimate D2E/DX2                !
 ! D125  D(46,14,15,48)        -89.9135         estimate D2E/DX2                !
 ! D126  D(46,14,15,49)        151.811          estimate D2E/DX2                !
 ! D127  D(47,14,15,16)        -80.4116         estimate D2E/DX2                !
 ! D128  D(47,14,15,48)        158.5167         estimate D2E/DX2                !
 ! D129  D(47,14,15,49)         40.2412         estimate D2E/DX2                !
 ! D130  D(5,14,47,18)           8.3059         estimate D2E/DX2                !
 ! D131  D(15,14,47,18)       -118.2186         estimate D2E/DX2                !
 ! D132  D(46,14,47,18)        127.5706         estimate D2E/DX2                !
 ! D133  D(14,15,16,17)         65.7565         estimate D2E/DX2                !
 ! D134  D(14,15,16,50)        -56.8315         estimate D2E/DX2                !
 ! D135  D(14,15,16,51)       -174.2639         estimate D2E/DX2                !
 ! D136  D(48,15,16,17)       -171.0784         estimate D2E/DX2                !
 ! D137  D(48,15,16,50)         66.3337         estimate D2E/DX2                !
 ! D138  D(48,15,16,51)        -51.0988         estimate D2E/DX2                !
 ! D139  D(49,15,16,17)        -55.761          estimate D2E/DX2                !
 ! D140  D(49,15,16,50)       -178.3489         estimate D2E/DX2                !
 ! D141  D(49,15,16,51)         64.2186         estimate D2E/DX2                !
 ! D142  D(15,16,17,52)        175.0228         estimate D2E/DX2                !
 ! D143  D(15,16,17,53)        -65.7765         estimate D2E/DX2                !
 ! D144  D(15,16,17,54)         55.5437         estimate D2E/DX2                !
 ! D145  D(50,16,17,52)        -62.081          estimate D2E/DX2                !
 ! D146  D(50,16,17,53)         57.1198         estimate D2E/DX2                !
 ! D147  D(50,16,17,54)        178.4399         estimate D2E/DX2                !
 ! D148  D(51,16,17,52)         54.9566         estimate D2E/DX2                !
 ! D149  D(51,16,17,53)        174.1573         estimate D2E/DX2                !
 ! D150  D(51,16,17,54)        -64.5225         estimate D2E/DX2                !
 ! D151  D(47,18,37,10)         55.8375         estimate D2E/DX2                !
 ! D152  D(37,18,47,14)        -43.0008         estimate D2E/DX2                !
 --------------------------------------------------------------------------------
 Trust Radius=3.00D-01 FncErr=1.00D-07 GrdErr=1.00D-06 EigMax=2.50D+02 EigMin=1.00D-04
 Number of steps in this run=    321 maximum allowed number of steps=    324.
 GradGradGradGradGradGradGradGradGradGradGradGradGradGradGradGradGradGrad

 Leave Link  103 at Sat Aug 21 09:32:11 2021, MaxMem=   104857600 cpu:               0.4 elap:               0.0
 (Enter /sw/arch/RedHatEnterpriseServer7/EB_production/2020/software/Gaussian/g16.c01/l202.exe)
 Stoichiometry    C16H36BrN
 Framework group  C1[X(C16H36BrN)]
 Deg. of freedom   156
 Full point group                 C1      NOp   1
 Largest Abelian subgroup         C1      NOp   1
 Largest concise Abelian subgroup C1      NOp   1
                         Standard orientation:                         
 ---------------------------------------------------------------------
 Center     Atomic      Atomic             Coordinates (Angstroms)
 Number     Number       Type             X           Y           Z
 ---------------------------------------------------------------------
      1          6           0       -5.056054    0.059083   -0.079360
      2          6           0       -4.173180    1.202733   -0.578521
      3          6           0       -2.747794    0.746550   -0.932903
      4          6           0       -1.943560    0.288387    0.319496
      5          7           0       -0.452431    0.102106    0.169541
      6          6           0        0.030008   -0.939712    1.152615
      7          6           0       -0.228779   -0.654442    2.653773
      8          6           0        0.120625   -1.860460    3.544659
      9          6           0       -0.955995   -2.947074    3.525684
     10          6           0        0.370036    1.349987    0.370890
     11          6           0       -0.076370    2.609339   -0.410260
     12          6           0        0.941544    3.759486   -0.307260
     13          6           0        0.977815    4.411007    1.074085
     14          6           0       -0.108849   -0.426103   -1.206835
     15          6           0       -0.678463   -1.829811   -1.567167
     16          6           0       -0.790360   -2.051348   -3.084142
     17          6           0        0.572538   -2.084670   -3.774880
     18         35           0        3.353009   -0.373292   -0.213152
     19          1           0       -4.712240   -0.297379    0.913788
     20          1           0       -5.045102   -0.785054   -0.801244
     21          1           0       -6.100859    0.419476    0.027253
     22          1           0       -4.137897    2.007780    0.187405
     23          1           0       -4.642064    1.631066   -1.491082
     24          1           0       -2.822830   -0.072215   -1.676650
     25          1           0       -2.261694    1.595629   -1.441240
     26          1           0       -2.159497    1.002920    1.112893
     27          1           0       -2.412149   -0.662641    0.656169
     28          1           0       -0.461156   -1.910365    0.948140
     29          1           0        1.123559   -1.113520    1.022639
     30          1           0       -1.287135   -0.378192    2.832668
     31          1           0        0.420225    0.175239    2.996055
     32          1           0        1.097517   -2.295715    3.240888
     33          1           0        0.226380   -1.504434    4.592797
     34          1           0       -1.022329   -3.427977    2.528675
     35          1           0       -0.698951   -3.731657    4.268171
     36          1           0       -1.945059   -2.519664    3.795524
     37          1           0        1.433348    1.147614    0.105686
     38          1           0        0.435589    1.622523    1.426289
     39          1           0       -0.162306    2.380583   -1.489426
     40          1           0       -1.060916    2.964902   -0.039548
     41          1           0        1.958224    3.397752   -0.574313
     42          1           0        0.662994    4.540824   -1.047663
     43          1           0        1.365660    3.703209    1.835124
     44          1           0        1.654331    5.291058    1.047697
     45          1           0       -0.035959    4.757467    1.366011
     46          1           0       -0.420521    0.287268   -1.994455
     47          1           0        0.996651   -0.504488   -1.324278
     48          1           0       -1.685402   -1.981228   -1.130165
     49          1           0       -0.019821   -2.621563   -1.147593
     50          1           0       -1.419793   -1.257183   -3.540961
     51          1           0       -1.297619   -3.024234   -3.262594
     52          1           0        0.436752   -2.335937   -4.847846
     53          1           0        1.068845   -1.093872   -3.710019
     54          1           0        1.223951   -2.855226   -3.310518
 ---------------------------------------------------------------------
 Rotational constants (GHZ):           0.2499963           0.1851947           0.1790354
 Leave Link  202 at Sat Aug 21 09:32:12 2021, MaxMem=   104857600 cpu:               0.7 elap:               0.1
 (Enter /sw/arch/RedHatEnterpriseServer7/EB_production/2020/software/Gaussian/g16.c01/l301.exe)
 Standard basis: TZVP (5D, 7F)
 Ernie: Thresh=  0.10000D-02 Tol=  0.10000D-05 Strict=F.
 There are   595 symmetry adapted cartesian basis functions of A   symmetry.
 There are   575 symmetry adapted basis functions of A   symmetry.
   575 basis functions,   981 primitive gaussians,   595 cartesian basis functions
    87 alpha electrons       87 beta electrons
       nuclear repulsion energy      1901.3230318310 Hartrees.
 IExCor=  404 DFT=T Ex=B Corr=P86 ExCW=0 ScaHFX=  0.000000
 ScaDFX=  1.000000  1.000000  1.000000  1.000000 ScalE2=  1.000000  1.000000
 IRadAn=      5 IRanWt=     -1 IRanGd=            0 ICorTp=0 IEmpDi=131
 NAtoms=   54 NActive=   54 NUniq=   54 SFac= 1.00D+00 NAtFMM=   60 NAOKFM=F Big=F
 Integral buffers will be    131072 words long.
 Raffenetti 2 integral format.
 Two-electron integral symmetry is turned on.
 R6Disp:  Grimme-D3 Dispersion energy=       -0.0736520823 Hartrees.
 Nuclear repulsion after empirical dispersion term =     1901.2493797487 Hartrees.
 ------------------------------------------------------------------------------
 Polarizable Continuum Model (PCM)
 =================================
 Model                : PCM.
 Atomic radii         : UFF (Universal Force Field).
 Polarization charges : Total charges.
 Charge compensation  : None.
 Solution method      : On-the-fly selection.
 Cavity type          : Scaled VdW (van der Waals Surface) (Alpha=1.100).
 Cavity algorithm     : GePol (No added spheres)
                        Default sphere list used, NSphG=   54.
                        Lebedev-Laikov grids with approx.  5.0 points / Ang**2.
                        Smoothing algorithm: York/Karplus (Gamma=1.0000).
                        Polarization charges: spherical gaussians, with
                                              point-specific exponents (IZeta= 3).
                        Self-potential: point-specific (ISelfS= 7).
                        Self-field    : sphere-specific E.n sum rule (ISelfD= 2).
 1st derivatives      : Analytical E(r).r(x)/FMM algorithm (CHGder, D1EAlg=3).
                        Cavity 1st derivative terms included.
 Solvent              : Water, Eps=  78.355300 Eps(inf)=   1.777849
 ------------------------------------------------------------------------------
 GePol: Number of generator spheres                  =      54
 GePol: Total number of spheres                      =      54
 GePol: Number of exposed spheres                    =      53 ( 98.15%)
 GePol: Number of points                             =    3337
 GePol: Average weight of points                     =       0.13
 GePol: Minimum weight of points                     =   0.56D-11
 GePol: Maximum weight of points                     =    0.20577
 GePol: Number of points with low weight             =     231
 GePol: Fraction of low-weight points (<1% of avg)   =       6.92%
 GePol: Cavity surface area                          =    442.178 Ang**2
 GePol: Cavity volume                                =    488.716 Ang**3
 Leave Link  301 at Sat Aug 21 09:32:13 2021, MaxMem=   104857600 cpu:               2.3 elap:               0.1
 (Enter /sw/arch/RedHatEnterpriseServer7/EB_production/2020/software/Gaussian/g16.c01/l302.exe)
 NPDir=0 NMtPBC=     1 NCelOv=     1 NCel=       1 NClECP=     1 NCelD=      1
         NCelK=      1 NCelE2=     1 NClLst=     1 CellRange=     0.0.
 One-electron integrals computed using PRISM.
 One-electron integral symmetry used in STVInt
 PrsmSu:  requested number of processors reduced to:  13 ShMem   1 Linda.
 NBasis=   575 RedAO= T EigKep=  1.20D-04  NBF=   575
 NBsUse=   575 1.00D-06 EigRej= -1.00D+00 NBFU=   575
 Precomputing XC quadrature grid using
 IXCGrd= 4 IRadAn=           5 IRanWt=          -1 IRanGd=           0 AccXCQ= 0.00D+00.
 Generated NRdTot=       0 NPtTot=           0 NUsed=           0 NTot=          32
 NSgBfM=   580   576   576   580   580 MxSgAt=    54 MxSgA2=    54.
 Leave Link  302 at Sat Aug 21 09:32:14 2021, MaxMem=   104857600 cpu:              18.5 elap:               0.8
 (Enter /sw/arch/RedHatEnterpriseServer7/EB_production/2020/software/Gaussian/g16.c01/l303.exe)
 DipDrv:  MaxL=1.
 Leave Link  303 at Sat Aug 21 09:32:14 2021, MaxMem=   104857600 cpu:               2.5 elap:               0.1
 (Enter /sw/arch/RedHatEnterpriseServer7/EB_production/2020/software/Gaussian/g16.c01/l401.exe)
 ExpMin= 9.52D-02 ExpMax= 5.65D+05 ExpMxC= 5.46D+03 IAcc=3 IRadAn=         5 AccDes= 0.00D+00
 Harris functional with IExCor=  404 and IRadAn=       5 diagonalized for initial guess.
 HarFok:  IExCor=  404 AccDes= 0.00D+00 IRadAn=         5 IDoV= 1 UseB2=F ITyADJ=14
 ICtDFT=  3500011 ScaDFX=  1.000000  1.000000  1.000000  1.000000
 FoFCou: FMM=F IPFlag=           0 FMFlag=      100000 FMFlg1=           0
         NFxFlg=           0 DoJE=T BraDBF=F KetDBF=T FulRan=T
         wScrn=  0.000000 ICntrl=       500 IOpCl=  0 I1Cent=   200000004 NGrid=           0
         NMat0=    1 NMatS0=      1 NMatT0=    0 NMatD0=    1 NMtDS0=    0 NMtDT0=    0
 Petite list used in FoFCou.
 Harris En= -3261.39359966258    
 JPrj=0 DoOrth=F DoCkMO=F.
 Leave Link  401 at Sat Aug 21 09:32:17 2021, MaxMem=   104857600 cpu:              48.0 elap:               2.1
 (Enter /sw/arch/RedHatEnterpriseServer7/EB_production/2020/software/Gaussian/g16.c01/l502.exe)
 Integral symmetry usage will be decided dynamically.
 Closed shell SCF:
 Using DIIS extrapolation, IDIIS=  1040.
 NGot=   104857600 LenX=   104127732 LenY=   103773112
 Requested convergence on RMS density matrix=1.00D-08 within 128 cycles.
 Requested convergence on MAX density matrix=1.00D-06.
 Requested convergence on             energy=1.00D-06.
 No special actions if energy rises.
 Fock matrices will be formed incrementally for  20 cycles.

 Cycle   1  Pass 1  IDiag  1:
 FoFJK:  IHMeth= 1 ICntrl=     500 DoSepK=F KAlg= 0 I1Cent=           0 FoldK=F
 IRaf= 820000000 NMat=       1 IRICut=       1 DoRegI=T DoRafI=F ISym2E= 0 IDoP0=0 IntGTp=1.
 FoFCou: FMM=F IPFlag=           0 FMFlag=      100000 FMFlg1=           0
         NFxFlg=           0 DoJE=T BraDBF=F KetDBF=F FulRan=T
         wScrn=  0.000000 ICntrl=       500 IOpCl=  0 I1Cent=           0 NGrid=           0
         NMat0=    1 NMatS0=      1 NMatT0=    0 NMatD0=    1 NMtDS0=    0 NMtDT0=    0
 Symmetry not used in FoFCou.
 CoulSu:  requested number of processors reduced to:  23 ShMem   1 Linda.
 Inv3:  Mode=1 IEnd=    33406707.
 Iteration    1 A*A^-1 deviation from unit magnitude is 3.11D-15 for   1850.
 Iteration    1 A*A^-1 deviation from orthogonality  is 2.33D-15 for   2296    632.
 Iteration    1 A^-1*A deviation from unit magnitude is 3.11D-15 for    968.
 Iteration    1 A^-1*A deviation from orthogonality  is 1.94D-15 for   1498    271.
 CoulSu:  requested number of processors reduced to:  23 ShMem   1 Linda.
 CoulSu:  requested number of processors reduced to:  23 ShMem   1 Linda.
 E= -3260.22447421288    
 DIIS: error= 2.13D-02 at cycle   1 NSaved=   1.
 NSaved= 1 IEnMin= 1 EnMin= -3260.22447421288     IErMin= 1 ErrMin= 2.13D-02
 ErrMax= 2.13D-02  0.00D+00 EMaxC= 1.00D-01 BMatC= 6.86D-01 BMatP= 6.86D-01
 IDIUse=3 WtCom= 7.87D-01 WtEn= 2.13D-01
 Coeff-Com:  0.100D+01
 Coeff-En:   0.100D+01
 Coeff:      0.100D+01
 Gap=     0.184 Goal=   None    Shift=    0.000
 GapD=    0.184 DampG=1.000 DampE=0.500 DampFc=0.5000 IDamp=-1.
 Damping current iteration by 5.00D-01
 RMSDP=3.31D-03 MaxDP=1.87D-01              OVMax= 2.03D-01

 Cycle   2  Pass 1  IDiag  1:
 RMSU=  1.65D-03    CP:  9.84D-01
 E= -3260.38441481512     Delta-E=       -0.159940602237 Rises=F Damp=T
 DIIS: error= 1.17D-02 at cycle   2 NSaved=   2.
 NSaved= 2 IEnMin= 2 EnMin= -3260.38441481512     IErMin= 2 ErrMin= 1.17D-02
 ErrMax= 1.17D-02  0.00D+00 EMaxC= 1.00D-01 BMatC= 9.91D-02 BMatP= 6.86D-01
 IDIUse=3 WtCom= 8.83D-01 WtEn= 1.17D-01
 Coeff-Com:  0.205D+00 0.795D+00
 Coeff-En:   0.367D+00 0.633D+00
 Coeff:      0.224D+00 0.776D+00
 Gap=     0.194 Goal=   None    Shift=    0.000
 RMSDP=1.03D-03 MaxDP=5.49D-02 DE=-1.60D-01 OVMax= 1.34D-01

 Cycle   3  Pass 1  IDiag  1:
 RMSU=  9.06D-04    CP:  9.87D-01  7.09D-01
 E= -3260.81414812960     Delta-E=       -0.429733314480 Rises=F Damp=F
 DIIS: error= 9.31D-03 at cycle   3 NSaved=   3.
 NSaved= 3 IEnMin= 3 EnMin= -3260.81414812960     IErMin= 3 ErrMin= 9.31D-03
 ErrMax= 9.31D-03  0.00D+00 EMaxC= 1.00D-01 BMatC= 4.06D-02 BMatP= 9.91D-02
 IDIUse=3 WtCom= 9.07D-01 WtEn= 9.31D-02
 Coeff-Com:  0.478D-01 0.381D+00 0.571D+00
 Coeff-En:   0.000D+00 0.000D+00 0.100D+01
 Coeff:      0.433D-01 0.346D+00 0.611D+00
 Gap=     0.199 Goal=   None    Shift=    0.000
 RMSDP=5.62D-04 MaxDP=4.39D-02 DE=-4.30D-01 OVMax= 4.10D-02

 Cycle   4  Pass 1  IDiag  1:
 RMSU=  4.00D-04    CP:  9.91D-01  7.93D-01  5.94D-01
 E= -3260.83029369189     Delta-E=       -0.016145562295 Rises=F Damp=F
 DIIS: error= 6.52D-03 at cycle   4 NSaved=   4.
 NSaved= 4 IEnMin= 4 EnMin= -3260.83029369189     IErMin= 4 ErrMin= 6.52D-03
 ErrMax= 6.52D-03  0.00D+00 EMaxC= 1.00D-01 BMatC= 1.88D-02 BMatP= 4.06D-02
 IDIUse=3 WtCom= 9.35D-01 WtEn= 6.52D-02
 Coeff-Com:  0.852D-02 0.133D+00 0.413D+00 0.445D+00
 Coeff-En:   0.000D+00 0.000D+00 0.364D+00 0.636D+00
 Coeff:      0.797D-02 0.125D+00 0.410D+00 0.458D+00
 Gap=     0.204 Goal=   None    Shift=    0.000
 RMSDP=2.81D-04 MaxDP=2.72D-02 DE=-1.61D-02 OVMax= 1.91D-02

 Cycle   5  Pass 1  IDiag  1:
 RMSU=  1.23D-04    CP:  9.88D-01  7.57D-01  6.79D-01  4.21D-01
 E= -3260.84648019034     Delta-E=       -0.016186498448 Rises=F Damp=F
 DIIS: error= 7.29D-04 at cycle   5 NSaved=   5.
 NSaved= 5 IEnMin= 5 EnMin= -3260.84648019034     IErMin= 5 ErrMin= 7.29D-04
 ErrMax= 7.29D-04  0.00D+00 EMaxC= 1.00D-01 BMatC= 4.36D-04 BMatP= 1.88D-02
 IDIUse=3 WtCom= 9.93D-01 WtEn= 7.29D-03
 Coeff-Com: -0.215D-03 0.132D-01 0.111D+00 0.201D+00 0.675D+00
 Coeff-En:   0.000D+00 0.000D+00 0.000D+00 0.000D+00 0.100D+01
 Coeff:     -0.214D-03 0.131D-01 0.110D+00 0.199D+00 0.677D+00
 Gap=     0.198 Goal=   None    Shift=    0.000
 RMSDP=5.61D-05 MaxDP=3.65D-03 DE=-1.62D-02 OVMax= 3.96D-03

 Cycle   6  Pass 1  IDiag  1:
 RMSU=  2.45D-05    CP:  9.88D-01  7.63D-01  7.08D-01  4.81D-01  7.20D-01
 E= -3260.84684260632     Delta-E=       -0.000362415980 Rises=F Damp=F
 DIIS: error= 2.54D-04 at cycle   6 NSaved=   6.
 NSaved= 6 IEnMin= 6 EnMin= -3260.84684260632     IErMin= 6 ErrMin= 2.54D-04
 ErrMax= 2.54D-04  0.00D+00 EMaxC= 1.00D-01 BMatC= 2.49D-05 BMatP= 4.36D-04
 IDIUse=3 WtCom= 9.97D-01 WtEn= 2.54D-03
 Coeff-Com: -0.687D-03 0.435D-02 0.564D-01 0.105D+00 0.368D+00 0.467D+00
 Coeff-En:   0.000D+00 0.000D+00 0.000D+00 0.000D+00 0.000D+00 0.100D+01
 Coeff:     -0.685D-03 0.434D-02 0.562D-01 0.105D+00 0.367D+00 0.468D+00
 Gap=     0.199 Goal=   None    Shift=    0.000
 RMSDP=1.30D-05 MaxDP=1.33D-03 DE=-3.62D-04 OVMax= 1.14D-03

 Cycle   7  Pass 1  IDiag  1:
 RMSU=  6.34D-06    CP:  9.89D-01  7.62D-01  7.00D-01  4.87D-01  7.56D-01
                    CP:  7.40D-01
 E= -3260.84686381608     Delta-E=       -0.000021209758 Rises=F Damp=F
 DIIS: error= 4.44D-05 at cycle   7 NSaved=   7.
 NSaved= 7 IEnMin= 7 EnMin= -3260.84686381608     IErMin= 7 ErrMin= 4.44D-05
 ErrMax= 4.44D-05  0.00D+00 EMaxC= 1.00D-01 BMatC= 8.82D-07 BMatP= 2.49D-05
 IDIUse=1 WtCom= 1.00D+00 WtEn= 0.00D+00
 Coeff-Com: -0.103D-03 0.538D-03 0.115D-01 0.222D-01 0.816D-01 0.188D+00
 Coeff-Com:  0.697D+00
 Coeff:     -0.103D-03 0.538D-03 0.115D-01 0.222D-01 0.816D-01 0.188D+00
 Coeff:      0.697D+00
 Gap=     0.199 Goal=   None    Shift=    0.000
 RMSDP=2.20D-06 MaxDP=8.72D-05 DE=-2.12D-05 OVMax= 1.36D-04

 Cycle   8  Pass 1  IDiag  1:
 RMSU=  1.91D-06    CP:  9.89D-01  7.62D-01  7.00D-01  4.88D-01  7.58D-01
                    CP:  7.34D-01  8.50D-01
 E= -3260.84686452166     Delta-E=       -0.000000705583 Rises=F Damp=F
 DIIS: error= 1.30D-05 at cycle   8 NSaved=   8.
 NSaved= 8 IEnMin= 8 EnMin= -3260.84686452166     IErMin= 8 ErrMin= 1.30D-05
 ErrMax= 1.30D-05  0.00D+00 EMaxC= 1.00D-01 BMatC= 1.27D-07 BMatP= 8.82D-07
 IDIUse=1 WtCom= 1.00D+00 WtEn= 0.00D+00
 Coeff-Com:  0.189D-04 0.344D-04 0.291D-02 0.601D-02 0.246D-01 0.717D-01
 Coeff-Com:  0.359D+00 0.536D+00
 Coeff:      0.189D-04 0.344D-04 0.291D-02 0.601D-02 0.246D-01 0.717D-01
 Coeff:      0.359D+00 0.536D+00
 Gap=     0.199 Goal=   None    Shift=    0.000
 RMSDP=1.02D-06 MaxDP=8.85D-05 DE=-7.06D-07 OVMax= 9.56D-05

 Cycle   9  Pass 1  IDiag  1:
 RMSU=  4.94D-07    CP:  9.89D-01  7.62D-01  7.00D-01  4.88D-01  7.55D-01
                    CP:  7.49D-01  8.67D-01  7.22D-01
 E= -3260.84686458296     Delta-E=       -0.000000061300 Rises=F Damp=F
 DIIS: error= 6.95D-06 at cycle   9 NSaved=   9.
 NSaved= 9 IEnMin= 9 EnMin= -3260.84686458296     IErMin= 9 ErrMin= 6.95D-06
 ErrMax= 6.95D-06  0.00D+00 EMaxC= 1.00D-01 BMatC= 1.22D-08 BMatP= 1.27D-07
 IDIUse=1 WtCom= 1.00D+00 WtEn= 0.00D+00
 Coeff-Com:  0.136D-04-0.428D-04 0.220D-03 0.426D-03 0.244D-02 0.146D-01
 Coeff-Com:  0.110D+00 0.274D+00 0.598D+00
 Coeff:      0.136D-04-0.428D-04 0.220D-03 0.426D-03 0.244D-02 0.146D-01
 Coeff:      0.110D+00 0.274D+00 0.598D+00
 Gap=     0.199 Goal=   None    Shift=    0.000
 RMSDP=2.84D-07 MaxDP=3.17D-05 DE=-6.13D-08 OVMax= 2.79D-05

 Cycle  10  Pass 1  IDiag  1:
 RMSU=  1.73D-07    CP:  9.89D-01  7.62D-01  7.00D-01  4.88D-01  7.56D-01
                    CP:  7.49D-01  8.72D-01  7.38D-01  7.26D-01
 E= -3260.84686454914     Delta-E=        0.000000033817 Rises=F Damp=F
 DIIS: error= 4.63D-07 at cycle  10 NSaved=  10.
 NSaved=10 IEnMin= 9 EnMin= -3260.84686458296     IErMin=10 ErrMin= 4.63D-07
 ErrMax= 4.63D-07  0.00D+00 EMaxC= 1.00D-01 BMatC= 2.86D-10 BMatP= 1.22D-08
 IDIUse=1 WtCom= 1.00D+00 WtEn= 0.00D+00
 Coeff-Com:  0.509D-05-0.198D-04 0.911D-05 0.150D-04 0.463D-03 0.422D-02
 Coeff-Com:  0.360D-01 0.101D+00 0.263D+00 0.596D+00
 Coeff:      0.509D-05-0.198D-04 0.911D-05 0.150D-04 0.463D-03 0.422D-02
 Coeff:      0.360D-01 0.101D+00 0.263D+00 0.596D+00
 Gap=     0.199 Goal=   None    Shift=    0.000
 RMSDP=5.89D-08 MaxDP=2.40D-06 DE= 3.38D-08 OVMax= 3.59D-06

 Cycle  11  Pass 1  IDiag  1:
 RMSU=  3.54D-08    CP:  9.89D-01  7.62D-01  7.00D-01  4.88D-01  7.56D-01
                    CP:  7.49D-01  8.73D-01  7.43D-01  7.47D-01  7.74D-01
 E= -3260.84686456351     Delta-E=       -0.000000014370 Rises=F Damp=F
 DIIS: error= 1.33D-07 at cycle  11 NSaved=  11.
 NSaved=11 IEnMin= 9 EnMin= -3260.84686458296     IErMin=11 ErrMin= 1.33D-07
 ErrMax= 1.33D-07  0.00D+00 EMaxC= 1.00D-01 BMatC= 3.15D-11 BMatP= 2.86D-10
 IDIUse=1 WtCom= 1.00D+00 WtEn= 0.00D+00
 Coeff-Com:  0.116D-05-0.517D-05-0.678D-05-0.140D-04 0.972D-04 0.850D-03
 Coeff-Com:  0.839D-02 0.265D-01 0.774D-01 0.302D+00 0.585D+00
 Coeff:      0.116D-05-0.517D-05-0.678D-05-0.140D-04 0.972D-04 0.850D-03
 Coeff:      0.839D-02 0.265D-01 0.774D-01 0.302D+00 0.585D+00
 Gap=     0.199 Goal=   None    Shift=    0.000
 RMSDP=1.31D-08 MaxDP=6.70D-07 DE=-1.44D-08 OVMax= 7.12D-07

 Cycle  12  Pass 1  IDiag  1:
 RMSU=  9.22D-09    CP:  9.89D-01  7.62D-01  7.00D-01  4.88D-01  7.56D-01
                    CP:  7.49D-01  8.73D-01  7.44D-01  7.54D-01  7.92D-01
                    CP:  8.53D-01
 E= -3260.84686456357     Delta-E=       -0.000000000051 Rises=F Damp=F
 DIIS: error= 4.89D-08 at cycle  12 NSaved=  12.
 NSaved=12 IEnMin= 9 EnMin= -3260.84686458296     IErMin=12 ErrMin= 4.89D-08
 ErrMax= 4.89D-08  0.00D+00 EMaxC= 1.00D-01 BMatC= 2.52D-12 BMatP= 3.15D-11
 IDIUse=1 WtCom= 1.00D+00 WtEn= 0.00D+00
 Coeff-Com: -0.373D-07-0.708D-06-0.407D-05-0.843D-05 0.354D-05 0.889D-05
 Coeff-Com:  0.919D-03 0.408D-02 0.131D-01 0.943D-01 0.290D+00 0.597D+00
 Coeff:     -0.373D-07-0.708D-06-0.407D-05-0.843D-05 0.354D-05 0.889D-05
 Coeff:      0.919D-03 0.408D-02 0.131D-01 0.943D-01 0.290D+00 0.597D+00
 Gap=     0.199 Goal=   None    Shift=    0.000
 RMSDP=5.60D-09 MaxDP=4.27D-07 DE=-5.14D-11 OVMax= 4.05D-07

 Error on total polarization charges =  0.02509
 SCF Done:  E(RB-P86) =  -3260.84686456     A.U. after   12 cycles
            NFock= 12  Conv=0.56D-08     -V/T= 2.0027
 KE= 3.252104207369D+03 PE=-1.154307346315D+04 EE= 3.128873011469D+03
 Leave Link  502 at Sat Aug 21 09:34:20 2021, MaxMem=   104857600 cpu:            2928.2 elap:             123.4
 (Enter /sw/arch/RedHatEnterpriseServer7/EB_production/2020/software/Gaussian/g16.c01/l601.exe)
 Copying SCF densities to generalized density rwf, IOpCl= 0 IROHF=0.

 **********************************************************************

            Population analysis using the SCF Density.

 **********************************************************************

 Orbital symmetries:
       Occupied  (A) (A) (A) (A) (A) (A) (A) (A) (A) (A) (A) (A)
                 (A) (A) (A) (A) (A) (A) (A) (A) (A) (A) (A) (A)
                 (A) (A) (A) (A) (A) (A) (A) (A) (A) (A) (A) (A)
                 (A) (A) (A) (A) (A) (A) (A) (A) (A) (A) (A) (A)
                 (A) (A) (A) (A) (A) (A) (A) (A) (A) (A) (A) (A)
                 (A) (A) (A) (A) (A) (A) (A) (A) (A) (A) (A) (A)
                 (A) (A) (A) (A) (A) (A) (A) (A) (A) (A) (A) (A)
                 (A) (A) (A)
       Virtual   (A) (A) (A) (A) (A) (A) (A) (A) (A) (A) (A) (A)
                 (A) (A) (A) (A) (A) (A) (A) (A) (A) (A) (A) (A)
                 (A) (A) (A) (A) (A) (A) (A) (A) (A) (A) (A) (A)
                 (A) (A) (A) (A) (A) (A) (A) (A) (A) (A) (A) (A)
                 (A) (A) (A) (A) (A) (A) (A) (A) (A) (A) (A) (A)
                 (A) (A) (A) (A) (A) (A) (A) (A) (A) (A) (A) (A)
                 (A) (A) (A) (A) (A) (A) (A) (A) (A) (A) (A) (A)
                 (A) (A) (A) (A) (A) (A) (A) (A) (A) (A) (A) (A)
                 (A) (A) (A) (A) (A) (A) (A) (A) (A) (A) (A) (A)
                 (A) (A) (A) (A) (A) (A) (A) (A) (A) (A) (A) (A)
                 (A) (A) (A) (A) (A) (A) (A) (A) (A) (A) (A) (A)
                 (A) (A) (A) (A) (A) (A) (A) (A) (A) (A) (A) (A)
                 (A) (A) (A) (A) (A) (A) (A) (A) (A) (A) (A) (A)
                 (A) (A) (A) (A) (A) (A) (A) (A) (A) (A) (A) (A)
                 (A) (A) (A) (A) (A) (A) (A) (A) (A) (A) (A) (A)
                 (A) (A) (A) (A) (A) (A) (A) (A) (A) (A) (A) (A)
                 (A) (A) (A) (A) (A) (A) (A) (A) (A) (A) (A) (A)
                 (A) (A) (A) (A) (A) (A) (A) (A) (A) (A) (A) (A)
                 (A) (A) (A) (A) (A) (A) (A) (A) (A) (A) (A) (A)
                 (A) (A) (A) (A) (A) (A) (A) (A) (A) (A) (A) (A)
                 (A) (A) (A) (A) (A) (A) (A) (A) (A) (A) (A) (A)
                 (A) (A) (A) (A) (A) (A) (A) (A) (A) (A) (A) (A)
                 (A) (A) (A) (A) (A) (A) (A) (A) (A) (A) (A) (A)
                 (A) (A) (A) (A) (A) (A) (A) (A) (A) (A) (A) (A)
                 (A) (A) (A) (A) (A) (A) (A) (A) (A) (A) (A) (A)
                 (A) (A) (A) (A) (A) (A) (A) (A) (A) (A) (A) (A)
                 (A) (A) (A) (A) (A) (A) (A) (A) (A) (A) (A) (A)
                 (A) (A) (A) (A) (A) (A) (A) (A) (A) (A) (A) (A)
                 (A) (A) (A) (A) (A) (A) (A) (A) (A) (A) (A) (A)
                 (A) (A) (A) (A) (A) (A) (A) (A) (A) (A) (A) (A)
                 (A) (A) (A) (A) (A) (A) (A) (A) (A) (A) (A) (A)
                 (A) (A) (A) (A) (A) (A) (A) (A) (A) (A) (A) (A)
                 (A) (A) (A) (A) (A) (A) (A) (A) (A) (A) (A) (A)
                 (A) (A) (A) (A) (A) (A) (A) (A) (A) (A) (A) (A)
                 (A) (A) (A) (A) (A) (A) (A) (A) (A) (A) (A) (A)
                 (A) (A) (A) (A) (A) (A) (A) (A) (A) (A) (A) (A)
                 (A) (A) (A) (A) (A) (A) (A) (A) (A) (A) (A) (A)
                 (A) (A) (A) (A) (A) (A) (A) (A) (A) (A) (A) (A)
                 (A) (A) (A) (A) (A) (A) (A) (A) (A) (A) (A) (A)
                 (A) (A) (A) (A) (A) (A) (A) (A) (A) (A) (A) (A)
                 (A) (A) (A) (A) (A) (A) (A) (A)
 The electronic state is 1-A.
 Alpha  occ. eigenvalues -- -481.05749 -61.74961 -55.66085 -55.66083 -55.66079
 Alpha  occ. eigenvalues --  -14.14219  -9.96131  -9.95148  -9.95049  -9.94636
 Alpha  occ. eigenvalues --   -9.91437  -9.91282  -9.91171  -9.91156  -9.90559
 Alpha  occ. eigenvalues --   -9.90437  -9.90400  -9.90336  -9.89240  -9.89139
 Alpha  occ. eigenvalues --   -9.89105  -9.89076  -8.32329  -6.19363  -6.19358
 Alpha  occ. eigenvalues --   -6.19350  -2.39837  -2.39837  -2.39833  -2.39828
 Alpha  occ. eigenvalues --   -2.39827  -0.94419  -0.74669  -0.74399  -0.74197
 Alpha  occ. eigenvalues --   -0.72848  -0.68311  -0.67762  -0.67630  -0.64141
 Alpha  occ. eigenvalues --   -0.61478  -0.60899  -0.60025  -0.59910  -0.55860
 Alpha  occ. eigenvalues --   -0.53110  -0.52756  -0.52614  -0.51324  -0.48636
 Alpha  occ. eigenvalues --   -0.47782  -0.47342  -0.43244  -0.42912  -0.41871
 Alpha  occ. eigenvalues --   -0.41637  -0.40202  -0.39925  -0.39554  -0.39293
 Alpha  occ. eigenvalues --   -0.38635  -0.37574  -0.37419  -0.37172  -0.36086
 Alpha  occ. eigenvalues --   -0.35108  -0.34886  -0.34783  -0.34129  -0.33356
 Alpha  occ. eigenvalues --   -0.33138  -0.32987  -0.31021  -0.30655  -0.30559
 Alpha  occ. eigenvalues --   -0.30406  -0.30167  -0.30074  -0.29857  -0.29706
 Alpha  occ. eigenvalues --   -0.29292  -0.29139  -0.28999  -0.28602  -0.20596
 Alpha  occ. eigenvalues --   -0.20544  -0.20134
 Alpha virt. eigenvalues --   -0.00218   0.01133   0.01569   0.02109   0.02635
 Alpha virt. eigenvalues --    0.03039   0.03406   0.03915   0.04273   0.04358
 Alpha virt. eigenvalues --    0.05845   0.06360   0.06769   0.06907   0.07058
 Alpha virt. eigenvalues --    0.07107   0.07689   0.07859   0.08148   0.08316
 Alpha virt. eigenvalues --    0.08489   0.09110   0.09351   0.09540   0.09746
 Alpha virt. eigenvalues --    0.10213   0.10362   0.10708   0.11356   0.11597
 Alpha virt. eigenvalues --    0.11715   0.12224   0.12623   0.12935   0.13215
 Alpha virt. eigenvalues --    0.13808   0.14261   0.14335   0.14769   0.14888
 Alpha virt. eigenvalues --    0.15463   0.15650   0.16028   0.16757   0.17146
 Alpha virt. eigenvalues --    0.17308   0.17613   0.17892   0.18150   0.18493
 Alpha virt. eigenvalues --    0.19480   0.19993   0.20233   0.20580   0.21138
 Alpha virt. eigenvalues --    0.21368   0.21873   0.22149   0.22606   0.22663
 Alpha virt. eigenvalues --    0.23000   0.23419   0.23898   0.24940   0.25177
 Alpha virt. eigenvalues --    0.25413   0.25843   0.26973   0.27509   0.27716
 Alpha virt. eigenvalues --    0.28240   0.28979   0.29546   0.30761   0.30884
 Alpha virt. eigenvalues --    0.31480   0.32315   0.33406   0.34049   0.34581
 Alpha virt. eigenvalues --    0.34902   0.35430   0.36121   0.36768   0.37070
 Alpha virt. eigenvalues --    0.37219   0.37800   0.38055   0.38248   0.38822
 Alpha virt. eigenvalues --    0.39289   0.39400   0.39615   0.40027   0.40150
 Alpha virt. eigenvalues --    0.40200   0.40363   0.40721   0.41054   0.41313
 Alpha virt. eigenvalues --    0.41603   0.41773   0.42042   0.42225   0.42528
 Alpha virt. eigenvalues --    0.42779   0.42957   0.43401   0.43526   0.43726
 Alpha virt. eigenvalues --    0.44046   0.44193   0.44631   0.45234   0.45682
 Alpha virt. eigenvalues --    0.45913   0.46239   0.46385   0.46914   0.47055
 Alpha virt. eigenvalues --    0.47606   0.48293   0.48807   0.49484   0.49684
 Alpha virt. eigenvalues --    0.50020   0.50233   0.50902   0.51594   0.51822
 Alpha virt. eigenvalues --    0.52376   0.52663   0.52900   0.53924   0.54183
 Alpha virt. eigenvalues --    0.55168   0.55568   0.56968   0.57336   0.58412
 Alpha virt. eigenvalues --    0.58646   0.59683   0.60277   0.60598   0.60974
 Alpha virt. eigenvalues --    0.61821   0.62381   0.63430   0.63672   0.65097
 Alpha virt. eigenvalues --    0.65151   0.66255   0.68184   0.68613   0.69840
 Alpha virt. eigenvalues --    0.71447   0.71916   0.74486   0.75836   0.75994
 Alpha virt. eigenvalues --    0.76932   0.79151   0.81371   0.86031   0.89620
 Alpha virt. eigenvalues --    1.04118   1.04766   1.08800   1.09898   1.10607
 Alpha virt. eigenvalues --    1.12078   1.12477   1.13778   1.15639   1.16388
 Alpha virt. eigenvalues --    1.17652   1.19025   1.19367   1.19941   1.20410
 Alpha virt. eigenvalues --    1.21025   1.21560   1.21894   1.22092   1.22598
 Alpha virt. eigenvalues --    1.23075   1.23164   1.23652   1.23947   1.24279
 Alpha virt. eigenvalues --    1.24881   1.25322   1.25645   1.25918   1.26970
 Alpha virt. eigenvalues --    1.27302   1.27605   1.27705   1.28762   1.29286
 Alpha virt. eigenvalues --    1.29705   1.30056   1.30865   1.31186   1.31580
 Alpha virt. eigenvalues --    1.32669   1.32995   1.33350   1.33862   1.34195
 Alpha virt. eigenvalues --    1.34289   1.34795   1.35180   1.36176   1.37216
 Alpha virt. eigenvalues --    1.37509   1.38491   1.38596   1.39217   1.40008
 Alpha virt. eigenvalues --    1.40696   1.40906   1.41639   1.42999   1.44013
 Alpha virt. eigenvalues --    1.44350   1.44979   1.46067   1.46681   1.48536
 Alpha virt. eigenvalues --    1.49054   1.49621   1.49976   1.50173   1.51200
 Alpha virt. eigenvalues --    1.52874   1.53086   1.53510   1.54174   1.54845
 Alpha virt. eigenvalues --    1.55787   1.56403   1.57040   1.57528   1.57878
 Alpha virt. eigenvalues --    1.58070   1.59169   1.60205   1.60777   1.61537
 Alpha virt. eigenvalues --    1.62015   1.62152   1.62759   1.63468   1.63950
 Alpha virt. eigenvalues --    1.64145   1.65028   1.65416   1.66563   1.66911
 Alpha virt. eigenvalues --    1.67676   1.67951   1.68065   1.68628   1.69155
 Alpha virt. eigenvalues --    1.69663   1.70415   1.70660   1.71024   1.71302
 Alpha virt. eigenvalues --    1.71725   1.72131   1.72495   1.72604   1.73241
 Alpha virt. eigenvalues --    1.73308   1.73696   1.74069   1.74438   1.74661
 Alpha virt. eigenvalues --    1.74871   1.75529   1.75985   1.76545   1.76872
 Alpha virt. eigenvalues --    1.77042   1.77355   1.77450   1.77943   1.78522
 Alpha virt. eigenvalues --    1.78997   1.79346   1.80858   1.81391   1.81819
 Alpha virt. eigenvalues --    1.82349   1.83124   1.84360   1.84991   1.85232
 Alpha virt. eigenvalues --    1.85575   1.86007   1.87341   1.87488   1.88160
 Alpha virt. eigenvalues --    1.89455   1.89992   1.91535   1.91779   1.92324
 Alpha virt. eigenvalues --    1.93359   1.94414   1.95735   1.97468   1.97702
 Alpha virt. eigenvalues --    1.98309   1.99709   2.01554   2.02468   2.04590
 Alpha virt. eigenvalues --    2.06017   2.07273   2.08498   2.09435   2.10693
 Alpha virt. eigenvalues --    2.11722   2.12446   2.14347   2.14484   2.14864
 Alpha virt. eigenvalues --    2.16330   2.16693   2.17619   2.18464   2.18782
 Alpha virt. eigenvalues --    2.19718   2.20858   2.21454   2.22191   2.23081
 Alpha virt. eigenvalues --    2.25085   2.25911   2.26634   2.27197   2.28933
 Alpha virt. eigenvalues --    2.29439   2.30480   2.31133   2.31770   2.32031
 Alpha virt. eigenvalues --    2.32475   2.33374   2.33409   2.34439   2.35114
 Alpha virt. eigenvalues --    2.36013   2.37606   2.38448   2.39293   2.40805
 Alpha virt. eigenvalues --    2.42245   2.42474   2.43521   2.44114   2.44534
 Alpha virt. eigenvalues --    2.45162   2.45889   2.47123   2.47633   2.48445
 Alpha virt. eigenvalues --    2.48848   2.50160   2.50872   2.51004   2.51562
 Alpha virt. eigenvalues --    2.52702   2.53266   2.53507   2.54994   2.55758
 Alpha virt. eigenvalues --    2.56690   2.57450   2.57970   2.58257   2.58825
 Alpha virt. eigenvalues --    2.59909   2.60071   2.60547   2.60999   2.61303
 Alpha virt. eigenvalues --    2.62176   2.62724   2.62948   2.63304   2.64168
 Alpha virt. eigenvalues --    2.64574   2.64777   2.66020   2.67234   2.68113
 Alpha virt. eigenvalues --    2.69795   2.70528   2.71202   2.72396   2.73236
 Alpha virt. eigenvalues --    2.75058   2.76070   2.76544   2.77561   2.78132
 Alpha virt. eigenvalues --    2.79034   2.79741   2.80565   2.83631   2.85338
 Alpha virt. eigenvalues --    2.87457   2.88271   2.91255   2.91738   2.94390
 Alpha virt. eigenvalues --    2.94752   2.96564   2.99384   3.00711   3.03502
 Alpha virt. eigenvalues --    3.03718   3.03959   3.05923   3.07738   3.10331
 Alpha virt. eigenvalues --    3.11232   3.12790   3.14968   3.16746   3.19441
 Alpha virt. eigenvalues --    3.20054   3.20219   3.20851   3.21377   3.22602
 Alpha virt. eigenvalues --    3.23094   3.24269   3.24865   3.25318   3.25747
 Alpha virt. eigenvalues --    3.27071   3.27755   3.28138   3.29258   3.29815
 Alpha virt. eigenvalues --    3.30122   3.31363   3.32392   3.32779   3.33587
 Alpha virt. eigenvalues --    3.35292   3.36170   3.36675   3.36776   3.37731
 Alpha virt. eigenvalues --    3.38045   3.38958   3.39256   3.40658   3.41235
 Alpha virt. eigenvalues --    3.44556   3.44920   3.65875   3.66431   3.67746
 Alpha virt. eigenvalues --    7.24443  21.72354  21.73156  21.73974  21.74010
 Alpha virt. eigenvalues --   21.79816  21.80685  21.81151  21.81277  21.83938
 Alpha virt. eigenvalues --   21.86285  21.87219  21.89442  21.94739  21.96285
 Alpha virt. eigenvalues --   21.98166  22.00784  31.85137
          Condensed to atoms (all electrons):
 Mulliken charges:
               1
     1  C   -0.428370
     2  C   -0.240489
     3  C   -0.258024
     4  C   -0.404174
     5  N   -0.044864
     6  C   -0.298839
     7  C   -0.234046
     8  C   -0.262243
     9  C   -0.406572
    10  C   -0.220490
    11  C   -0.297951
    12  C   -0.251202
    13  C   -0.423616
    14  C   -0.327633
    15  C   -0.304802
    16  C   -0.260190
    17  C   -0.415121
    18  Br  -0.876476
    19  H    0.145517
    20  H    0.134414
    21  H    0.146641
    22  H    0.142342
    23  H    0.153425
    24  H    0.164614
    25  H    0.197416
    26  H    0.227445
    27  H    0.245121
    28  H    0.230226
    29  H    0.178568
    30  H    0.170449
    31  H    0.161133
    32  H    0.139911
    33  H    0.154893
    34  H    0.134250
    35  H    0.144669
    36  H    0.130914
    37  H    0.164498
    38  H    0.214757
    39  H    0.172945
    40  H    0.169241
    41  H    0.137922
    42  H    0.153257
    43  H    0.139638
    44  H    0.144765
    45  H    0.130281
    46  H    0.228718
    47  H    0.213105
    48  H    0.194011
    49  H    0.174204
    50  H    0.141664
    51  H    0.153580
    52  H    0.144045
    53  H    0.142597
    54  H    0.133926
 Sum of Mulliken charges =  -0.00000
 Mulliken charges with hydrogens summed into heavy atoms:
               1
     1  C   -0.001798
     2  C    0.055278
     3  C    0.104006
     4  C    0.068392
     5  N   -0.044864
     6  C    0.109954
     7  C    0.097536
     8  C    0.032560
     9  C    0.003261
    10  C    0.158766
    11  C    0.044235
    12  C    0.039977
    13  C   -0.008932
    14  C    0.114190
    15  C    0.063413
    16  C    0.035054
    17  C    0.005447
    18  Br  -0.876476
 Electronic spatial extent (au):  <R**2>=           7942.4556
 Charge=              0.0000 electrons
 Dipole moment (field-independent basis, Debye):
    X=            -16.9502    Y=              2.1154    Z=              1.4000  Tot=             17.1390
 Quadrupole moment (field-independent basis, Debye-Ang):
   XX=           -174.8285   YY=           -125.2899   ZZ=           -124.9234
   XY=              4.6711   XZ=              4.8652   YZ=             -1.2112
 Traceless Quadrupole moment (field-independent basis, Debye-Ang):
   XX=            -33.1479   YY=             16.3907   ZZ=             16.7572
   XY=              4.6711   XZ=              4.8652   YZ=             -1.2112
 Octapole moment (field-independent basis, Debye-Ang**2):
  XXX=           -138.0996  YYY=              5.5716  ZZZ=              4.6540  XYY=             20.3891
  XXY=             29.4261  XXZ=              7.0490  XZZ=             12.6745  YZZ=            -15.0085
  YYZ=             -6.9198  XYZ=             -4.1872
 Hexadecapole moment (field-independent basis, Debye-Ang**3):
 XXXX=          -4759.8289 YYYY=          -3186.3533 ZZZZ=          -2892.5247 XXXY=            -12.0427
 XXXZ=             51.4770 YYYX=            -20.0721 YYYZ=             -9.9064 ZZZX=              8.6004
 ZZZY=            -19.0112 XXYY=          -1258.5741 XXZZ=          -1216.8586 YYZZ=          -1022.4777
 XXYZ=             -3.4172 YYXZ=              8.9228 ZZXY=             -9.5969
 N-N= 1.901249379749D+03 E-N=-1.154307349570D+04  KE= 3.252104207369D+03
 No NMR shielding tensors so no spin-rotation constants.
 Leave Link  601 at Sat Aug 21 09:34:21 2021, MaxMem=   104857600 cpu:               7.4 elap:               0.4
 (Enter /sw/arch/RedHatEnterpriseServer7/EB_production/2020/software/Gaussian/g16.c01/l701.exe)
 ... and contract with generalized density number  0.
 Compute integral first derivatives.
 R6Disp: Adding Grimme-D3 dispersion energy 1st derivatives to the gradient.
 PrsmSu:  requested number of processors reduced to:  10 ShMem   1 Linda.
 D1PCM: PCM CHGder 1st derivatives, ID1Alg=3 FixD1E=F DoIter=F DoCFld=F I1PDM=0.
 GePol: Maximum number of non-zero 1st derivatives   =     358
 CoulSu:  requested number of processors reduced to:  13 ShMem   1 Linda.
 CoulSu:  requested number of processors reduced to:  13 ShMem   1 Linda.
 Leave Link  701 at Sat Aug 21 09:34:24 2021, MaxMem=   104857600 cpu:              75.6 elap:               3.4
 (Enter /sw/arch/RedHatEnterpriseServer7/EB_production/2020/software/Gaussian/g16.c01/l702.exe)
 L702 exits ... SP integral derivatives will be done elsewhere.
 Leave Link  702 at Sat Aug 21 09:34:24 2021, MaxMem=   104857600 cpu:               0.4 elap:               0.0
 (Enter /sw/arch/RedHatEnterpriseServer7/EB_production/2020/software/Gaussian/g16.c01/l703.exe)
 Integral derivatives from FoFJK, PRISM(SPDF).
 Compute integral first derivatives, UseDBF=F ICtDFT=           0.
 Calling FoFJK, ICntrl=      2527 FMM=F ISym2X=0 I1Cent= 0 IOpClX= 0 NMat=1 NMatS=1 NMatT=0.
 FoFJK:  IHMeth= 1 ICntrl=    2527 DoSepK=F KAlg= 0 I1Cent=           0 FoldK=F
 IRaf=         0 NMat=       1 IRICut=       1 DoRegI=T DoRafI=F ISym2E= 0 IDoP0=0 IntGTp=1.
 FoFCou: FMM=F IPFlag=           0 FMFlag=      100000 FMFlg1=         800
         NFxFlg=           0 DoJE=F BraDBF=F KetDBF=F FulRan=T
         wScrn=  0.000000 ICntrl=      2527 IOpCl=  0 I1Cent=           0 NGrid=           0
         NMat0=    1 NMatS0=      1 NMatT0=    0 NMatD0=    1 NMtDS0=    0 NMtDT0=    0
 Symmetry not used in FoFCou.
[...]
   51      H51      6.55  -0.022   -0.21    0.93   -0.91
   52      H52      6.54  -0.021   -0.06    0.92   -0.82
   53      H53      5.99  -0.019    0.05    0.85   -0.45
   54      H54      6.55  -0.016    0.09    0.93   -0.59
 --------------------------------------------------------------------
 - cavitation energy not included in the total energy.
 - dispersion energy not included in the total energy.
 - repulsion  energy not included in the total energy.
 After PCM corrections, the energy is  -3260.80395394     a.u.
 --------------------------------------------------------------------
 Writing COSMO formatted file "JRMUNVKIHCOMHV-UHFFFAOYSA-M.cosmo"
 Recomputed dielectric energy= -0.067407 old= -0.067424 diff= 1.70D-05

 **********************************************************************

            Population analysis using the SCF Density.

 **********************************************************************

 Orbital symmetries:
       Occupied  (A) (A) (A) (A) (A) (A) (A) (A) (A) (A) (A) (A)
                 (A) (A) (A) (A) (A) (A) (A) (A) (A) (A) (A) (A)
                 (A) (A) (A) (A) (A) (A) (A) (A) (A) (A) (A) (A)
                 (A) (A) (A) (A) (A) (A) (A) (A) (A) (A) (A) (A)
                 (A) (A) (A) (A) (A) (A) (A) (A) (A) (A) (A) (A)
                 (A) (A) (A) (A) (A) (A) (A) (A) (A) (A) (A) (A)
                 (A) (A) (A) (A) (A) (A) (A) (A) (A) (A) (A) (A)
                 (A) (A) (A)
       Virtual   (A) (A) (A) (A) (A) (A) (A) (A) (A) (A) (A) (A)
                 (A) (A) (A) (A) (A) (A) (A) (A) (A) (A) (A) (A)
                 (A) (A) (A) (A) (A) (A) (A) (A) (A) (A) (A) (A)
                 (A) (A) (A) (A) (A) (A) (A) (A) (A) (A) (A) (A)
                 (A) (A) (A) (A) (A) (A) (A) (A) (A) (A) (A) (A)
                 (A) (A) (A) (A) (A) (A) (A) (A) (A) (A) (A) (A)
                 (A) (A) (A) (A) (A) (A) (A) (A) (A) (A) (A) (A)
                 (A) (A) (A) (A) (A) (A) (A) (A) (A) (A) (A) (A)
                 (A) (A) (A) (A) (A) (A) (A) (A) (A) (A) (A) (A)
                 (A) (A) (A) (A) (A) (A) (A) (A) (A) (A) (A) (A)
                 (A) (A) (A) (A) (A) (A) (A) (A) (A) (A) (A) (A)
                 (A) (A) (A) (A) (A) (A) (A) (A) (A) (A) (A) (A)
                 (A) (A) (A) (A) (A) (A) (A) (A) (A) (A) (A) (A)
                 (A) (A) (A) (A) (A) (A) (A) (A) (A) (A) (A) (A)
                 (A) (A) (A) (A) (A) (A) (A) (A) (A) (A) (A) (A)
                 (A) (A) (A) (A) (A) (A) (A) (A) (A) (A) (A) (A)
                 (A) (A) (A) (A) (A) (A) (A) (A) (A) (A) (A) (A)
                 (A) (A) (A) (A) (A) (A) (A) (A) (A) (A) (A) (A)
                 (A) (A) (A) (A) (A) (A) (A) (A) (A) (A) (A) (A)
                 (A) (A) (A) (A) (A) (A) (A) (A) (A) (A) (A) (A)
                 (A) (A) (A) (A) (A) (A) (A) (A) (A) (A) (A) (A)
                 (A) (A) (A) (A) (A) (A) (A) (A) (A) (A) (A) (A)
                 (A) (A) (A) (A) (A) (A) (A) (A) (A) (A) (A) (A)
                 (A) (A) (A) (A) (A) (A) (A) (A) (A) (A) (A) (A)
                 (A) (A) (A) (A) (A) (A) (A) (A) (A) (A) (A) (A)
                 (A) (A) (A) (A) (A) (A) (A) (A) (A) (A) (A) (A)
                 (A) (A) (A) (A) (A) (A) (A) (A) (A) (A) (A) (A)
                 (A) (A) (A) (A) (A) (A) (A) (A) (A) (A) (A) (A)
                 (A) (A) (A) (A) (A) (A) (A) (A) (A) (A) (A) (A)
                 (A) (A) (A) (A) (A) (A) (A) (A) (A) (A) (A) (A)
                 (A) (A) (A) (A) (A) (A) (A) (A) (A) (A) (A) (A)
                 (A) (A) (A) (A) (A) (A) (A) (A) (A) (A) (A) (A)
                 (A) (A) (A) (A) (A) (A) (A) (A) (A) (A) (A) (A)
                 (A) (A) (A) (A) (A) (A) (A) (A) (A) (A) (A) (A)
                 (A) (A) (A) (A) (A) (A) (A) (A) (A) (A) (A) (A)
                 (A) (A) (A) (A) (A) (A) (A) (A) (A) (A) (A) (A)
                 (A) (A) (A) (A) (A) (A) (A) (A) (A) (A) (A) (A)
                 (A) (A) (A) (A) (A) (A) (A) (A) (A) (A) (A) (A)
                 (A) (A) (A) (A) (A) (A) (A) (A) (A) (A) (A) (A)
                 (A) (A) (A) (A) (A) (A) (A) (A) (A) (A) (A) (A)
                 (A) (A) (A) (A) (A) (A) (A) (A)
 The electronic state is 1-A.
 Alpha  occ. eigenvalues -- -481.06298 -61.75503 -55.66626 -55.66626 -55.66625
 Alpha  occ. eigenvalues --  -14.12082  -9.94505  -9.94172  -9.94111  -9.94040
 Alpha  occ. eigenvalues --   -9.90241  -9.90229  -9.90222  -9.90212  -9.89709
 Alpha  occ. eigenvalues --   -9.89703  -9.89672  -9.89639  -9.88367  -9.88355
 Alpha  occ. eigenvalues --   -9.88353  -9.88322  -8.32864  -6.19893  -6.19892
 Alpha  occ. eigenvalues --   -6.19892  -2.40366  -2.40366  -2.40365  -2.40365
 Alpha  occ. eigenvalues --   -2.40365  -0.92041  -0.73967  -0.73848  -0.73607
 Alpha  occ. eigenvalues --   -0.72133  -0.67101  -0.66952  -0.66860  -0.63510
 Alpha  occ. eigenvalues --   -0.61710  -0.60351  -0.59688  -0.59327  -0.55168
 Alpha  occ. eigenvalues --   -0.52699  -0.52450  -0.52186  -0.50639  -0.47019
 Alpha  occ. eigenvalues --   -0.46494  -0.45706  -0.42761  -0.42564  -0.41194
 Alpha  occ. eigenvalues --   -0.41028  -0.39370  -0.38988  -0.38657  -0.38583
 Alpha  occ. eigenvalues --   -0.37907  -0.36624  -0.36505  -0.36244  -0.35715
 Alpha  occ. eigenvalues --   -0.35113  -0.34395  -0.34344  -0.33547  -0.33024
 Alpha  occ. eigenvalues --   -0.32580  -0.32286  -0.30654  -0.30295  -0.30113
 Alpha  occ. eigenvalues --   -0.29791  -0.29463  -0.29321  -0.29182  -0.29022
 Alpha  occ. eigenvalues --   -0.28847  -0.28661  -0.28511  -0.28457  -0.21193
 Alpha  occ. eigenvalues --   -0.21178  -0.20906
 Alpha virt. eigenvalues --    0.00723   0.02177   0.02395   0.02633   0.03232
 Alpha virt. eigenvalues --    0.03853   0.04395   0.04449   0.04881   0.05208
 Alpha virt. eigenvalues --    0.06696   0.07036   0.07411   0.07747   0.07928
 Alpha virt. eigenvalues --    0.08170   0.08377   0.08871   0.09128   0.09309
 Alpha virt. eigenvalues --    0.09393   0.10040   0.10116   0.10450   0.10629
 Alpha virt. eigenvalues --    0.10875   0.11225   0.11398   0.11804   0.12285
 Alpha virt. eigenvalues --    0.12465   0.12749   0.13435   0.13577   0.14137
 Alpha virt. eigenvalues --    0.14311   0.15056   0.15193   0.15374   0.15664
 Alpha virt. eigenvalues --    0.16271   0.16423   0.16676   0.17417   0.17492
 Alpha virt. eigenvalues --    0.17765   0.18323   0.18800   0.19191   0.19354
 Alpha virt. eigenvalues --    0.20035   0.20504   0.20789   0.20935   0.21479
 Alpha virt. eigenvalues --    0.21662   0.22003   0.22366   0.22679   0.22898
 Alpha virt. eigenvalues --    0.23166   0.24119   0.24281   0.25064   0.25641
 Alpha virt. eigenvalues --    0.26116   0.26486   0.27806   0.28612   0.29144
 Alpha virt. eigenvalues --    0.29173   0.29910   0.30479   0.31607   0.32375
 Alpha virt. eigenvalues --    0.32749   0.33447   0.34142   0.35586   0.35759
 Alpha virt. eigenvalues --    0.36172   0.36452   0.37312   0.37697   0.37822
 Alpha virt. eigenvalues --    0.38258   0.38414   0.39059   0.39313   0.39376
 Alpha virt. eigenvalues --    0.39720   0.39976   0.40432   0.40759   0.41101
 Alpha virt. eigenvalues --    0.41106   0.41200   0.41391   0.41952   0.42167
 Alpha virt. eigenvalues --    0.42242   0.42377   0.42715   0.43137   0.43246
 Alpha virt. eigenvalues --    0.43440   0.43963   0.44029   0.44180   0.44389
 Alpha virt. eigenvalues --    0.44902   0.45122   0.45201   0.46040   0.46493
 Alpha virt. eigenvalues --    0.46759   0.46865   0.46969   0.47339   0.47729
 Alpha virt. eigenvalues --    0.48196   0.49030   0.49659   0.49773   0.50568
 Alpha virt. eigenvalues --    0.50782   0.51243   0.51591   0.51965   0.52375
 Alpha virt. eigenvalues --    0.52734   0.53263   0.53685   0.54496   0.54823
 Alpha virt. eigenvalues --    0.55204   0.56303   0.56544   0.57325   0.58444
 Alpha virt. eigenvalues --    0.59375   0.59953   0.60909   0.61297   0.62533
 Alpha virt. eigenvalues --    0.62812   0.63398   0.63824   0.64443   0.65257
 Alpha virt. eigenvalues --    0.66496   0.67766   0.68606   0.69204   0.70000
 Alpha virt. eigenvalues --    0.71011   0.72772   0.73018   0.74631   0.76692
 Alpha virt. eigenvalues --    0.78308   0.80552   0.81654   0.87384   0.91421
 Alpha virt. eigenvalues --    1.05889   1.06844   1.09154   1.10056   1.10404
 Alpha virt. eigenvalues --    1.12029   1.12304   1.14692   1.15280   1.16147
 Alpha virt. eigenvalues --    1.17782   1.19069   1.20190   1.20599   1.21304
 Alpha virt. eigenvalues --    1.21740   1.22379   1.22577   1.23061   1.23720
 Alpha virt. eigenvalues --    1.23758   1.23794   1.24437   1.24851   1.25044
 Alpha virt. eigenvalues --    1.25517   1.25823   1.26385   1.26813   1.27633
 Alpha virt. eigenvalues --    1.27968   1.28287   1.28435   1.29800   1.30290
 Alpha virt. eigenvalues --    1.30674   1.31199   1.31930   1.32310   1.32335
 Alpha virt. eigenvalues --    1.32520   1.33788   1.33891   1.34155   1.34737
 Alpha virt. eigenvalues --    1.35195   1.35799   1.36312   1.36944   1.37649
 Alpha virt. eigenvalues --    1.38599   1.39625   1.40130   1.40538   1.41592
 Alpha virt. eigenvalues --    1.41835   1.43044   1.43686   1.44229   1.45316
 Alpha virt. eigenvalues --    1.45843   1.46224   1.46651   1.47990   1.49611
 Alpha virt. eigenvalues --    1.49726   1.50720   1.51096   1.52970   1.53159
 Alpha virt. eigenvalues --    1.53524   1.54222   1.54574   1.55692   1.56213
 Alpha virt. eigenvalues --    1.56896   1.57144   1.57475   1.58052   1.58431
 Alpha virt. eigenvalues --    1.59652   1.60570   1.60758   1.61232   1.61606
 Alpha virt. eigenvalues --    1.62017   1.62684   1.63196   1.63368   1.64283
 Alpha virt. eigenvalues --    1.64429   1.65493   1.66089   1.66333   1.67435
 Alpha virt. eigenvalues --    1.68141   1.68699   1.69134   1.69401   1.70064
 Alpha virt. eigenvalues --    1.70352   1.70692   1.70822   1.71526   1.72122
 Alpha virt. eigenvalues --    1.72420   1.72875   1.73116   1.73665   1.74046
 Alpha virt. eigenvalues --    1.74289   1.74626   1.75260   1.75520   1.75705
 Alpha virt. eigenvalues --    1.76359   1.76948   1.77507   1.77672   1.78190
 Alpha virt. eigenvalues --    1.78409   1.78942   1.79184   1.79812   1.80353
 Alpha virt. eigenvalues --    1.80789   1.81282   1.81993   1.82579   1.82811
 Alpha virt. eigenvalues --    1.83218   1.84035   1.84768   1.85084   1.85861
 Alpha virt. eigenvalues --    1.86421   1.87093   1.87694   1.87878   1.88452
 Alpha virt. eigenvalues --    1.89847   1.91227   1.91931   1.92558   1.93156
 Alpha virt. eigenvalues --    1.93942   1.94399   1.96059   1.97806   1.98975
 Alpha virt. eigenvalues --    2.00090   2.01799   2.02632   2.03155   2.05889
 Alpha virt. eigenvalues --    2.06702   2.08739   2.10697   2.11091   2.12126
 Alpha virt. eigenvalues --    2.13705   2.15294   2.16338   2.17165   2.17900
 Alpha virt. eigenvalues --    2.18159   2.18460   2.19372   2.19780   2.20623
 Alpha virt. eigenvalues --    2.21395   2.22381   2.24060   2.24754   2.25614
 Alpha virt. eigenvalues --    2.26485   2.27258   2.27626   2.28176   2.30283
 Alpha virt. eigenvalues --    2.30976   2.31684   2.32820   2.33479   2.34046
 Alpha virt. eigenvalues --    2.34307   2.34360   2.35338   2.35868   2.37052
 Alpha virt. eigenvalues --    2.37880   2.38372   2.39568   2.41901   2.42524
 Alpha virt. eigenvalues --    2.44256   2.44553   2.45424   2.46241   2.46607
 Alpha virt. eigenvalues --    2.47057   2.48187   2.48396   2.49041   2.50314
 Alpha virt. eigenvalues --    2.50835   2.51727   2.52070   2.52909   2.53356
 Alpha virt. eigenvalues --    2.53952   2.55040   2.56027   2.57163   2.57645
 Alpha virt. eigenvalues --    2.58116   2.58908   2.59383   2.60113   2.60636
 Alpha virt. eigenvalues --    2.61450   2.61715   2.62016   2.62185   2.63172
 Alpha virt. eigenvalues --    2.63334   2.63914   2.64577   2.64845   2.65365
 Alpha virt. eigenvalues --    2.66655   2.67172   2.67599   2.69020   2.70502
 Alpha virt. eigenvalues --    2.71801   2.72190   2.73106   2.73689   2.74988
 Alpha virt. eigenvalues --    2.76140   2.76477   2.77391   2.77851   2.78756
 Alpha virt. eigenvalues --    2.79925   2.80478   2.81921   2.85014   2.85489
 Alpha virt. eigenvalues --    2.86858   2.89584   2.90737   2.91428   2.93467
 Alpha virt. eigenvalues --    2.97099   2.98774   3.01018   3.03229   3.04096
 Alpha virt. eigenvalues --    3.04384   3.08062   3.09506   3.11274   3.11873
 Alpha virt. eigenvalues --    3.13515   3.15220   3.18210   3.19770   3.19860
 Alpha virt. eigenvalues --    3.23580   3.23740   3.24413   3.25032   3.25080
 Alpha virt. eigenvalues --    3.25579   3.26076   3.27051   3.27153   3.27506
 Alpha virt. eigenvalues --    3.28464   3.28731   3.29356   3.30553   3.30949
 Alpha virt. eigenvalues --    3.32237   3.32741   3.34333   3.34987   3.35432
 Alpha virt. eigenvalues --    3.36093   3.36439   3.37326   3.37938   3.38507
 Alpha virt. eigenvalues --    3.39170   3.39412   3.40527   3.41461   3.42253
 Alpha virt. eigenvalues --    3.42802   3.43704   3.65111   3.65890   3.67087
 Alpha virt. eigenvalues --    7.17614  21.75742  21.76466  21.77040  21.77280
 Alpha virt. eigenvalues --   21.81071  21.81984  21.82095  21.82908  21.85909
 Alpha virt. eigenvalues --   21.87783  21.88978  21.90172  21.93795  21.97126
 Alpha virt. eigenvalues --   21.99400  22.03395  31.90883
          Condensed to atoms (all electrons):
 Mulliken charges:
               1
     1  C   -0.457005
     2  C   -0.250480
     3  C   -0.257516
     4  C   -0.342539
     5  N   -0.104404
     6  C   -0.286227
     7  C   -0.262412
     8  C   -0.255700
     9  C   -0.443377
    10  C   -0.264989
    11  C   -0.278036
    12  C   -0.259988
    13  C   -0.460164
    14  C   -0.318837
    15  C   -0.273575
    16  C   -0.258770
    17  C   -0.450176
    18  Br  -0.919361
    19  H    0.153611
    20  H    0.138547
    21  H    0.151878
    22  H    0.144075
    23  H    0.155254
    24  H    0.171034
    25  H    0.199299
    26  H    0.212443
    27  H    0.246153
    28  H    0.245982
    29  H    0.177657
    30  H    0.179234
    31  H    0.179706
    32  H    0.138235
    33  H    0.159114
    34  H    0.144205
    35  H    0.151125
    36  H    0.136941
    37  H    0.175242
    38  H    0.243629
    39  H    0.189984
    40  H    0.168098
    41  H    0.138768
    42  H    0.157531
    43  H    0.154380
    44  H    0.151708
    45  H    0.138939
    46  H    0.234457
    47  H    0.196850
    48  H    0.195098
    49  H    0.175977
    50  H    0.145002
    51  H    0.155281
    52  H    0.150459
    53  H    0.150716
    54  H    0.136946
 Sum of Mulliken charges =  -0.00000
 Mulliken charges with hydrogens summed into heavy atoms:
               1
     1  C   -0.012969
     2  C    0.048848
     3  C    0.112816
     4  C    0.116057
     5  N   -0.104404
     6  C    0.137412
     7  C    0.096528
     8  C    0.041648
     9  C   -0.011107
    10  C    0.153882
    11  C    0.080046
    12  C    0.036311
    13  C   -0.015137
    14  C    0.112470
    15  C    0.097500
    16  C    0.041513
    17  C   -0.012055
    18  Br  -0.919361
 Electronic spatial extent (au):  <R**2>=           8042.4696
 Charge=              0.0000 electrons
 Dipole moment (field-independent basis, Debye):
    X=            -19.1393    Y=              1.8499    Z=              0.3851  Tot=             19.2323
 Quadrupole moment (field-independent basis, Debye-Ang):
   XX=           -181.3950   YY=           -125.1210   ZZ=           -124.3302
   XY=              3.7412   XZ=              1.4546   YZ=             -0.3046
 Traceless Quadrupole moment (field-independent basis, Debye-Ang):
   XX=            -37.7796   YY=             18.4944   ZZ=             19.2852
   XY=              3.7412   XZ=              1.4546   YZ=             -0.3046
 Octapole moment (field-independent basis, Debye-Ang**2):
  XXX=           -170.6506  YYY=              5.0312  ZZZ=              9.6794  XYY=             18.7737
  XXY=             21.4085  XXZ=             -2.7994  XZZ=             13.8201  YZZ=             -6.8041
  YYZ=             -8.0927  XYZ=             -1.6803
 Hexadecapole moment (field-independent basis, Debye-Ang**3):
 XXXX=          -5147.6737 YYYY=          -3098.7829 ZZZZ=          -2833.1358 XXXY=              7.0897
 XXXZ=             35.2726 YYYX=            -10.1202 YYYZ=             -7.4509 ZZZX=              8.5895
 ZZZY=             -5.5541 XXYY=          -1289.9620 XXZZ=          -1242.6588 YYZZ=           -995.4314
 XXYZ=             -1.1254 YYXZ=              8.5275 ZZXY=            -10.8163
 N-N= 1.888954264373D+03 E-N=-1.151838904683D+04  KE= 3.252423383640D+03
 Unable to Open any file for archive entry.
 1\1\GINC-TCN979\SP\RBP86\TZVP\C16H36Br1N1\ELENAA\21-Aug-2021\0\\# BP86
 /TZVP SCRF=COSMORS geom=CHECKPOINT guess=CHECKPOINT\\COSMO-file for #J
 RMUNVKIHCOMHV-UHFFFAOYSA-M\\0,1\C,0,3.485007858,-2.5975167916,0.493225
 1814\C,0,3.3936947487,-1.2325239025,-0.2031125723\C,0,2.1944193556,-0.
 3738292059,0.24484404\C,0,0.8749534165,-1.0657309644,-0.0995298905\N,0
 ,-0.4107141866,-0.2554478944,0.1133664307\C,0,-1.5806297282,-1.2275378
 378,0.3387642029\C,0,-1.9235763584,-2.1516728243,-0.827713677\C,0,-2.9
 61102795,-3.2078147044,-0.3920052849\C,0,-2.4171358707,-4.2580619771,0
 .58618212\C,0,-0.7579079693,0.5924489924,-1.1160346646\C,0,0.211624767
 6,1.7057214781,-1.503050558\C,0,-0.4051866305,2.5893215452,-2.60713631
 16\C,0,-0.6876694387,1.848972788,-3.9216492735\C,0,-0.3300962301,0.657
 5070677,1.3362976595\C,0,-0.2018863642,-0.0583144881,2.6813272343\C,0,
 0.2291455027,0.9284460261,3.7826681735\C,0,-0.7718502401,2.0688437114,
 4.0146176206\Br,0,-3.8973055214,1.8397725901,0.7334951885\H,0,2.656211
 1882,-3.264278433,0.2105645324\H,0,3.464361076,-2.4819403239,1.5888821
 898\H,0,4.4207066745,-3.1106723101,0.2263397654\H,0,3.3546697968,-1.36
 99682932,-1.297384973\H,0,4.3095438792,-0.6560062084,0.002687026\H,0,2
 .265017239,-0.2034051729,1.330416999\H,0,2.2612888611,0.6085707846,-0.
 2399953394\H,0,0.8679494448,-1.3671288743,-1.1554199085\H,0,0.75931968
 31,-1.9740474608,0.5046576218\H,0,-1.3007653441,-1.8167733042,1.218591
 5205\H,0,-2.4423033252,-0.5919691707,0.5978383035\H,0,-1.0257614902,-2
 .6697596851,-1.2012262726\H,0,-2.3412894349,-1.5723228167,-1.663496193
 \H,0,-3.8367195653,-2.6993884472,0.0470319893\H,0,-3.324464891,-3.7134
 146916,-1.3006799555\H,0,-2.1277347151,-3.819268934,1.5532168429\H,0,-
 3.1748766348,-5.0282566059,0.7936324666\H,0,-1.5305101911,-4.760947948
 4,0.168147602\H,0,-1.7523635363,1.0126211368,-0.893655853\H,0,-0.85471
 59108,-0.119107362,-1.9429641702\H,0,0.4456940306,2.343136794,-0.63816
 91872\H,0,1.1586618022,1.2825085344,-1.8723025989\H,0,-1.3348608008,3.
 0451433388,-2.2253027822\H,0,0.2921614854,3.4204892201,-2.7982332342\H
 ,0,-1.4821211281,1.0953723224,-3.8102120219\H,0,-1.0126254849,2.551073
 6274,-4.7037769167\H,0,0.2159672595,1.3336250633,-4.2852971299\H,0,0.5
 283188312,1.3197716188,1.1780364525\H,0,-1.2477370701,1.2634592839,1.2
 969959078\H,0,0.5347296521,-0.8752757912,2.6229698934\H,0,-1.164436455
 ,-0.5111855536,2.9651353504\H,0,1.2203051599,1.3437992914,3.5300798785
 \H,0,0.3611807708,0.3590507105,4.716505671\H,0,-0.4666792046,2.6921030
 741,4.8682646876\H,0,-0.8551904455,2.7288038865,3.1376531914\H,0,-1.77
 72871914,1.6714415596,4.2265802752\\Version=ES64L-G16RevC.01\State=1-A
 \HF=-3260.8039539\RMSD=8.776e-10\Dipole=6.4359017,-3.8097082,-1.148266
 5\Quadrupole=-16.0092493,2.7986078,13.2106415,18.787084,4.5807814,-2.7
 369437\PG=C01 [X(C16H36Br1N1)]\\@
 The archive entry for this job was punched.


     SCHOPENHAUER'S LAW OF ENTROPY
 IF YOU PUT A SPOONFUL OF WINE IN A BARREL FULL
 OF SEWAGE, YOU GET SEWAGE.
 IF YOU PUT A SPOONFUL OF SEWAGE IN A BARREL FULL
 OF WINE, YOU GET SEWAGE.
 Job cpu time:       0 days  0 hours 43 minutes 48.6 seconds.
 Elapsed time:       0 days  0 hours  1 minutes 51.1 seconds.
 File lengths (MBytes):  RWF=    255 Int=      0 D2E=      0 Chk=     32 Scr=      1
 Normal termination of Gaussian 16 at Sat Aug 21 10:18:17 2021.
