 Entering Gaussian System, Link 0=g16
 Input=JUZXDNPBRPUIOR-UHFFFAOYSA-N.gjf
 Output=JUZXDNPBRPUIOR-UHFFFAOYSA-N.log
 Initial command:
 /sw/arch/RedHatEnterpriseServer7/EB_production/2019/software/Gaussian/g16.c01/l1.exe "/scratch-local/elenaa.9715940/Gau-22516.inp" -scrdir="/scratch-local/elenaa.9715940/"
 Entering Link 1 = /sw/arch/RedHatEnterpriseServer7/EB_production/2019/software/Gaussian/g16.c01/l1.exe PID=     22519.
  
 Copyright (c) 1988-2019, Gaussian, Inc.  All Rights Reserved.
  
 This is part of the Gaussian(R) 16 program.  It is based on
 the Gaussian(R) 09 system (copyright 2009, Gaussian, Inc.),
 the Gaussian(R) 03 system (copyright 2003, Gaussian, Inc.),
 the Gaussian(R) 98 system (copyright 1998, Gaussian, Inc.),
 the Gaussian(R) 94 system (copyright 1995, Gaussian, Inc.),
 the Gaussian 92(TM) system (copyright 1992, Gaussian, Inc.),
 the Gaussian 90(TM) system (copyright 1990, Gaussian, Inc.),
 the Gaussian 88(TM) system (copyright 1988, Gaussian, Inc.),
 the Gaussian 86(TM) system (copyright 1986, Carnegie Mellon
 University), and the Gaussian 82(TM) system (copyright 1983,
 Carnegie Mellon University). Gaussian is a federally registered
 trademark of Gaussian, Inc.
  
 This software contains proprietary and confidential information,
 including trade secrets, belonging to Gaussian, Inc.
  
 This software is provided under written license and may be
 used, copied, transmitted, or stored only in accord with that
 written license.
  
 The following legend is applicable only to US Government
 contracts under FAR:
  
                    RESTRICTED RIGHTS LEGEND
  
 Use, reproduction and disclosure by the US Government is
 subject to restrictions as set forth in subparagraphs (a)
 and (c) of the Commercial Computer Software - Restricted
 Rights clause in FAR 52.227-19.
  
 Gaussian, Inc.
 340 Quinnipiac St., Bldg. 40, Wallingford CT 06492
  
  
 ---------------------------------------------------------------
 Warning -- This program may not be used in any manner that
 competes with the business of Gaussian, Inc. or will provide
 assistance to any competitor of Gaussian, Inc.  The licensee
 of this program is prohibited from giving any competitor of
 Gaussian, Inc. access to this program.  By using this program,
 the user acknowledges that Gaussian, Inc. is engaged in the
 business of creating and licensing software in the field of
 computational chemistry and represents and warrants to the
 licensee that it is not a competitor of Gaussian, Inc. and that
 it will not use this program in any manner prohibited above.
 ---------------------------------------------------------------
  

 Cite this work as:
 Gaussian 16, Revision C.01,
 M. J. Frisch, G. W. Trucks, H. B. Schlegel, G. E. Scuseria, 
 M. A. Robb, J. R. Cheeseman, G. Scalmani, V. Barone, 
 G. A. Petersson, H. Nakatsuji, X. Li, M. Caricato, A. V. Marenich, 
 J. Bloino, B. G. Janesko, R. Gomperts, B. Mennucci, H. P. Hratchian, 
 J. V. Ortiz, A. F. Izmaylov, J. L. Sonnenberg, D. Williams-Young, 
 F. Ding, F. Lipparini, F. Egidi, J. Goings, B. Peng, A. Petrone, 
 T. Henderson, D. Ranasinghe, V. G. Zakrzewski, J. Gao, N. Rega, 
 G. Zheng, W. Liang, M. Hada, M. Ehara, K. Toyota, R. Fukuda, 
 J. Hasegawa, M. Ishida, T. Nakajima, Y. Honda, O. Kitao, H. Nakai, 
 T. Vreven, K. Throssell, J. A. Montgomery, Jr., J. E. Peralta, 
 F. Ogliaro, M. J. Bearpark, J. J. Heyd, E. N. Brothers, K. N. Kudin, 
 V. N. Staroverov, T. A. Keith, R. Kobayashi, J. Normand, 
 K. Raghavachari, A. P. Rendell, J. C. Burant, S. S. Iyengar, 
 J. Tomasi, M. Cossi, J. M. Millam, M. Klene, C. Adamo, R. Cammi, 
 J. W. Ochterski, R. L. Martin, K. Morokuma, O. Farkas, 
 J. B. Foresman, and D. J. Fox, Gaussian, Inc., Wallingford CT, 2019.
 
 ******************************************
 Gaussian 16:  ES64L-G16RevC.01  3-Jul-2019
                23-Feb-2021 
 ******************************************
 %chk=JUZXDNPBRPUIOR-UHFFFAOYSA-N.chk
 %NProcShared=32
 Will use up to   32 processors via shared memory.
 -------------------------------------------------------------
 #P BP86/TZVP EmpiricalDispersion=GD3 SCRF=(Solvent=Water) Opt
 -------------------------------------------------------------
 1/18=20,19=15,26=3,38=1/1,3;
 2/9=110,12=2,17=6,18=5,40=1/2;
 3/5=19,7=101,11=2,25=1,30=1,70=2201,71=1,72=1,74=404,124=31/1,2,3;
 4//1;
 5/5=2,38=5,53=1/2;
 6/7=2,8=2,9=2,10=2,28=1/1;
 7//1,2,3,16;
 1/18=20,19=15,26=3/3(2);
 2/9=110/2;
 99//99;
 2/9=110/2;
 3/5=19,7=101,11=2,25=1,30=1,70=2205,71=1,72=1,74=404,124=31/1,2,3;
 4/5=5,16=3,69=1/1;
 5/5=2,38=5,53=1/2;
 7//1,2,3,16;
 1/18=20,19=15,26=3/3(-5);
 2/9=110/2;
 6/7=2,8=2,9=2,10=2,19=2,28=1/1;
 99/9=1/99;
 Leave Link    1 at Tue Feb 23 00:11:08 2021, MaxMem=           0 cpu:               2.8 elap:               0.1
 (Enter /sw/arch/RedHatEnterpriseServer7/EB_production/2019/software/Gaussian/g16.c01/l101.exe)
 -------------------------------------
 Particle #JUZXDNPBRPUIOR-UHFFFAOYSA-N
 -------------------------------------
 Symbolic Z-matrix:
 Charge =  1 Multiplicity = 1
 C                    -2.11796   1.8568   -0.32055 
 N                    -1.1113    2.0283    0.79109 
 C                    -0.97191   3.50902   1.07701 
 C                    -1.62208   1.35406   2.0413 
 C                     0.25242   1.48026   0.38812 
 C                     0.37412  -0.03181   0.04071 
 Cl                    2.03101  -0.44788  -0.39573 
 H                    -2.31956   0.80332  -0.5249 
 H                    -1.76489   2.31347  -1.25024 
 H                    -3.07756   2.32005  -0.07073 
 H                    -1.92706   3.95677   1.37286 
 H                    -0.2629    3.69693   1.8883 
 H                    -0.61757   4.05652   0.19901 
 H                    -1.81504   0.29181   1.87814 
 H                    -0.90176   1.4384    2.86079 
 H                    -2.56231   1.79766   2.38339 
 H                     0.96737   1.67298   1.19405 
 H                     0.61467   2.03056  -0.48582 
 H                     0.09647  -0.65329   0.89186 
 H                    -0.26013  -0.29175  -0.80661 
 
 ITRead=  0  0  0  0  0  0  0  0  0  0  0  0  0  0  0  0  0  0  0  0
 MicOpt= -1 -1 -1 -1 -1 -1 -1 -1 -1 -1 -1 -1 -1 -1 -1 -1 -1 -1 -1 -1
 NAtoms=     20 NQM=       20 NQMF=       0 NMMI=      0 NMMIF=      0
                NMic=       0 NMicF=      0.
                    Isotopes and Nuclear Properties:
 (Nuclear quadrupole moments (NQMom) in fm**2, nuclear magnetic moments (NMagM)
  in nuclear magnetons)

  Atom         1           2           3           4           5           6           7           8           9          10
 IAtWgt=          12          14          12          12          12          12          35           1           1           1
 AtmWgt=  12.0000000  14.0030740  12.0000000  12.0000000  12.0000000  12.0000000  34.9688527   1.0078250   1.0078250   1.0078250
 NucSpn=           0           2           0           0           0           0           3           1           1           1
 AtZEff=  -0.0000000  -0.0000000  -0.0000000  -0.0000000  -0.0000000  -0.0000000  -0.0000000  -0.0000000  -0.0000000  -0.0000000
 NQMom=    0.0000000   2.0440000   0.0000000   0.0000000   0.0000000   0.0000000  -8.1650000   0.0000000   0.0000000   0.0000000
 NMagM=    0.0000000   0.4037610   0.0000000   0.0000000   0.0000000   0.0000000   0.8218740   2.7928460   2.7928460   2.7928460
 AtZNuc=   6.0000000   7.0000000   6.0000000   6.0000000   6.0000000   6.0000000  17.0000000   1.0000000   1.0000000   1.0000000

  Atom        11          12          13          14          15          16          17          18          19          20
 IAtWgt=           1           1           1           1           1           1           1           1           1           1
 AtmWgt=   1.0078250   1.0078250   1.0078250   1.0078250   1.0078250   1.0078250   1.0078250   1.0078250   1.0078250   1.0078250
 NucSpn=           1           1           1           1           1           1           1           1           1           1
 AtZEff=  -0.0000000  -0.0000000  -0.0000000  -0.0000000  -0.0000000  -0.0000000  -0.0000000  -0.0000000  -0.0000000  -0.0000000
 NQMom=    0.0000000   0.0000000   0.0000000   0.0000000   0.0000000   0.0000000   0.0000000   0.0000000   0.0000000   0.0000000
 NMagM=    2.7928460   2.7928460   2.7928460   2.7928460   2.7928460   2.7928460   2.7928460   2.7928460   2.7928460   2.7928460
 AtZNuc=   1.0000000   1.0000000   1.0000000   1.0000000   1.0000000   1.0000000   1.0000000   1.0000000   1.0000000   1.0000000
 Leave Link  101 at Tue Feb 23 00:11:08 2021, MaxMem=   104857600 cpu:               2.9 elap:               0.1
 (Enter /sw/arch/RedHatEnterpriseServer7/EB_production/2019/software/Gaussian/g16.c01/l103.exe)

 GradGradGradGradGradGradGradGradGradGradGradGradGradGradGradGradGradGrad
 Berny optimization.
 Initialization pass.
                           ----------------------------
                           !    Initial Parameters    !
                           ! (Angstroms and Degrees)  !
 --------------------------                            --------------------------
 ! Name  Definition              Value          Derivative Info.                !
 --------------------------------------------------------------------------------
 ! R1    R(1,2)                  1.5095         estimate D2E/DX2                !
 ! R2    R(1,8)                  1.0919         estimate D2E/DX2                !
 ! R3    R(1,9)                  1.0943         estimate D2E/DX2                !
 ! R4    R(1,10)                 1.0945         estimate D2E/DX2                !
 ! R5    R(2,3)                  1.5145         estimate D2E/DX2                !
 ! R6    R(2,4)                  1.5095         estimate D2E/DX2                !
 ! R7    R(2,5)                  1.524          estimate D2E/DX2                !
 ! R8    R(3,11)                 1.0956         estimate D2E/DX2                !
 ! R9    R(3,12)                 1.0937         estimate D2E/DX2                !
 ! R10   R(3,13)                 1.0937         estimate D2E/DX2                !
 ! R11   R(4,14)                 1.0919         estimate D2E/DX2                !
 ! R12   R(4,15)                 1.0943         estimate D2E/DX2                !
 ! R13   R(4,16)                 1.0945         estimate D2E/DX2                !
 ! R14   R(5,6)                  1.5562         estimate D2E/DX2                !
 ! R15   R(5,17)                 1.0944         estimate D2E/DX2                !
 ! R16   R(5,18)                 1.0945         estimate D2E/DX2                !
 ! R17   R(6,7)                  1.7632         estimate D2E/DX2                !
 ! R18   R(6,19)                 1.0899         estimate D2E/DX2                !
 ! R19   R(6,20)                 1.0899         estimate D2E/DX2                !
 ! A1    A(2,1,8)              111.7512         estimate D2E/DX2                !
 ! A2    A(2,1,9)              111.289          estimate D2E/DX2                !
 ! A3    A(2,1,10)             111.625          estimate D2E/DX2                !
 ! A4    A(8,1,9)              107.6501         estimate D2E/DX2                !
 ! A5    A(8,1,10)             106.8109         estimate D2E/DX2                !
 ! A6    A(9,1,10)             107.4678         estimate D2E/DX2                !
 ! A7    A(1,2,3)              108.1491         estimate D2E/DX2                !
 ! A8    A(1,2,4)              109.4836         estimate D2E/DX2                !
 ! A9    A(1,2,5)              111.1727         estimate D2E/DX2                !
 ! A10   A(3,2,4)              108.149          estimate D2E/DX2                !
 ! A11   A(3,2,5)              108.6118         estimate D2E/DX2                !
 ! A12   A(4,2,5)              111.1725         estimate D2E/DX2                !
 ! A13   A(2,3,11)             111.7347         estimate D2E/DX2                !
 ! A14   A(2,3,12)             111.5727         estimate D2E/DX2                !
 ! A15   A(2,3,13)             111.5732         estimate D2E/DX2                !
 ! A16   A(11,3,12)            107.1359         estimate D2E/DX2                !
 ! A17   A(11,3,13)            107.1363         estimate D2E/DX2                !
 ! A18   A(12,3,13)            107.4246         estimate D2E/DX2                !
 ! A19   A(2,4,14)             111.7515         estimate D2E/DX2                !
 ! A20   A(2,4,15)             111.2891         estimate D2E/DX2                !
 ! A21   A(2,4,16)             111.6253         estimate D2E/DX2                !
 ! A22   A(14,4,15)            107.6501         estimate D2E/DX2                !
 ! A23   A(14,4,16)            106.8101         estimate D2E/DX2                !
 ! A24   A(15,4,16)            107.468          estimate D2E/DX2                !
 ! A25   A(2,5,6)              118.5821         estimate D2E/DX2                !
 ! A26   A(2,5,17)             109.0579         estimate D2E/DX2                !
 ! A27   A(2,5,18)             109.0573         estimate D2E/DX2                !
 ! A28   A(6,5,17)             106.5226         estimate D2E/DX2                !
 ! A29   A(6,5,18)             106.5228         estimate D2E/DX2                !
 ! A30   A(17,5,18)            106.4546         estimate D2E/DX2                !
 ! A31   A(5,6,7)              110.9787         estimate D2E/DX2                !
 ! A32   A(5,6,19)             111.0875         estimate D2E/DX2                !
 ! A33   A(5,6,20)             111.0872         estimate D2E/DX2                !
 ! A34   A(7,6,19)             107.3464         estimate D2E/DX2                !
 ! A35   A(7,6,20)             107.3461         estimate D2E/DX2                !
 ! A36   A(19,6,20)            108.839          estimate D2E/DX2                !
 ! D1    D(8,1,2,3)           -175.7774         estimate D2E/DX2                !
 ! D2    D(8,1,2,4)            -58.1524         estimate D2E/DX2                !
 ! D3    D(8,1,2,5)             65.0696         estimate D2E/DX2                !
 ! D4    D(9,1,2,3)             63.8366         estimate D2E/DX2                !
 ! D5    D(9,1,2,4)           -178.5384         estimate D2E/DX2                !
 ! D6    D(9,1,2,5)            -55.3164         estimate D2E/DX2                !
 ! D7    D(10,1,2,3)           -56.2309         estimate D2E/DX2                !
 ! D8    D(10,1,2,4)            61.3942         estimate D2E/DX2                !
 ! D9    D(10,1,2,5)          -175.3838         estimate D2E/DX2                !
 ! D10   D(1,2,3,11)            59.2394         estimate D2E/DX2                !
 ! D11   D(1,2,3,12)           179.1534         estimate D2E/DX2                !
 ! D12   D(1,2,3,13)           -60.6752         estimate D2E/DX2                !
 ! D13   D(4,2,3,11)           -59.239          estimate D2E/DX2                !
 ! D14   D(4,2,3,12)            60.6749         estimate D2E/DX2                !
 ! D15   D(4,2,3,13)          -179.1537         estimate D2E/DX2                !
 ! D16   D(5,2,3,11)          -179.9996         estimate D2E/DX2                !
 ! D17   D(5,2,3,12)           -60.0857         estimate D2E/DX2                !
 ! D18   D(5,2,3,13)            60.0857         estimate D2E/DX2                !
 ! D19   D(1,2,4,14)            58.1521         estimate D2E/DX2                !
 ! D20   D(1,2,4,15)           178.5382         estimate D2E/DX2                !
 ! D21   D(1,2,4,16)           -61.3938         estimate D2E/DX2                !
 ! D22   D(3,2,4,14)           175.7772         estimate D2E/DX2                !
 ! D23   D(3,2,4,15)           -63.8367         estimate D2E/DX2                !
 ! D24   D(3,2,4,16)            56.2313         estimate D2E/DX2                !
 ! D25   D(5,2,4,14)           -65.07           estimate D2E/DX2                !
 ! D26   D(5,2,4,15)            55.3161         estimate D2E/DX2                !
 ! D27   D(5,2,4,16)           175.3841         estimate D2E/DX2                !
 ! D28   D(1,2,5,6)            -61.1242         estimate D2E/DX2                !
 ! D29   D(1,2,5,17)           176.8128         estimate D2E/DX2                !
 ! D30   D(1,2,5,18)            60.9386         estimate D2E/DX2                !
 ! D31   D(3,2,5,6)           -180.0            estimate D2E/DX2                !
 ! D32   D(3,2,5,17)            57.9369         estimate D2E/DX2                !
 ! D33   D(3,2,5,18)           -57.9372         estimate D2E/DX2                !
 ! D34   D(4,2,5,6)             61.1245         estimate D2E/DX2                !
 ! D35   D(4,2,5,17)           -60.9386         estimate D2E/DX2                !
 ! D36   D(4,2,5,18)          -176.8128         estimate D2E/DX2                !
 ! D37   D(2,5,6,7)            179.9997         estimate D2E/DX2                !
 ! D38   D(2,5,6,19)           -60.6536         estimate D2E/DX2                !
 ! D39   D(2,5,6,20)            60.6535         estimate D2E/DX2                !
 ! D40   D(17,5,6,7)           -56.6698         estimate D2E/DX2                !
 ! D41   D(17,5,6,19)           62.677          estimate D2E/DX2                !
 ! D42   D(17,5,6,20)         -176.0159         estimate D2E/DX2                !
 ! D43   D(18,5,6,7)            56.6698         estimate D2E/DX2                !
 ! D44   D(18,5,6,19)          176.0166         estimate D2E/DX2                !
 ! D45   D(18,5,6,20)          -62.6764         estimate D2E/DX2                !
 --------------------------------------------------------------------------------
 Trust Radius=3.00D-01 FncErr=1.00D-07 GrdErr=1.00D-06 EigMax=2.50D+02 EigMin=1.00D-04
 Number of steps in this run=    110 maximum allowed number of steps=    120.
 GradGradGradGradGradGradGradGradGradGradGradGradGradGradGradGradGradGrad

 Leave Link  103 at Tue Feb 23 00:11:08 2021, MaxMem=   104857600 cpu:               0.3 elap:               0.0
 (Enter /sw/arch/RedHatEnterpriseServer7/EB_production/2019/software/Gaussian/g16.c01/l202.exe)
                          Input orientation:                          
 ---------------------------------------------------------------------
 Center     Atomic      Atomic             Coordinates (Angstroms)
 Number     Number       Type             X           Y           Z
 ---------------------------------------------------------------------
      1          6           0       -2.117960    1.856800   -0.320550
      2          7           0       -1.111300    2.028300    0.791090
      3          6           0       -0.971910    3.509020    1.077010
      4          6           0       -1.622080    1.354060    2.041300
      5          6           0        0.252420    1.480260    0.388120
      6          6           0        0.374120   -0.031810    0.040710
      7         17           0        2.031010   -0.447880   -0.395730
      8          1           0       -2.319560    0.803320   -0.524900
      9          1           0       -1.764890    2.313470   -1.250240
     10          1           0       -3.077560    2.320050   -0.070730
     11          1           0       -1.927060    3.956770    1.372860
     12          1           0       -0.262900    3.696930    1.888300
     13          1           0       -0.617570    4.056520    0.199010
     14          1           0       -1.815040    0.291810    1.878140
     15          1           0       -0.901760    1.438400    2.860790
     16          1           0       -2.562310    1.797660    2.383390
     17          1           0        0.967370    1.672980    1.194050
     18          1           0        0.614670    2.030560   -0.485820
     19          1           0        0.096470   -0.653290    0.891860
     20          1           0       -0.260130   -0.291750   -0.806610
 ---------------------------------------------------------------------
                    Distance matrix (angstroms):
                    1          2          3          4          5
     1  C    0.000000
     2  N    1.509477   0.000000
     3  C    2.448762   1.514500   0.000000
     4  C    2.465153   1.509477   2.448761   0.000000
     5  C    2.502538   1.523964   2.467675   2.502535   0.000000
     6  C    3.147669   2.648319   3.927237   3.147667   1.556233
     7  Cl   4.746699   4.173023   5.181076   4.746701   2.737796
     8  H    1.091889   2.166171   3.420978   2.715727   2.811927
     9  H    1.094317   2.162297   2.733907   3.431486   2.729103
    10  H    1.094460   2.166571   2.676699   2.740845   3.464759
    11  H    2.704432   2.173227   1.095591   2.704427   3.442811
    12  H    3.421454   2.169788   1.093708   2.712899   2.725751
    13  H    2.712910   2.169794   1.093708   3.421456   2.725759
    14  H    2.715730   2.166178   3.420982   1.091893   2.811932
    15  H    3.431490   2.162301   2.733909   1.094321   2.729099
    16  H    2.740846   2.166574   2.676706   1.094458   3.464758
    17  H    3.441956   2.146974   2.673116   2.743136   1.094449
    18  H    2.743132   2.146969   2.673110   3.441953   1.094453
    19  H    3.560083   2.942752   4.301226   2.881680   2.197751
    20  H    2.881676   2.942748   4.301222   3.560083   2.197750
                    6          7          8          9         10
     6  C    0.000000
     7  Cl   1.763201   0.000000
     8  H    2.876329   4.528758   0.000000
     9  H    3.426697   4.771174   1.764746   0.000000
    10  H    4.178248   5.819325   1.755364   1.764763   0.000000
    11  H    4.793623   6.180224   3.701324   3.099579   2.467074
    12  H    4.209856   5.259113   4.292594   3.744378   3.695390
    13  H    4.209863   5.259117   3.742209   2.540648   3.023184
    14  H    2.876335   4.528767   2.508144   3.725102   3.083149
    15  H    3.426695   4.771175   3.725101   4.290840   3.755692
    16  H    4.178245   5.819325   3.083146   3.755690   2.561460
    17  H    2.142066   2.856007   3.809856   3.721562   4.287170
    18  H    2.142071   2.856011   3.180778   2.515290   3.726750
    19  H    1.089855   2.332922   3.156917   4.105474   4.454413
    20  H    1.089859   2.332921   2.349423   3.041099   3.911640
                   11         12         13         14         15
    11  H    0.000000
    12  H    1.761427   0.000000
    13  H    1.761431   1.763178   0.000000
    14  H    3.701322   3.742203   4.292604   0.000000
    15  H    3.099575   2.540637   3.744381   1.764752   0.000000
    16  H    2.467077   3.023182   3.695400   1.755356   1.764768
    17  H    3.691259   2.468182   3.030413   3.180788   2.515293
    18  H    3.691256   3.030407   2.468182   3.809862   3.721560
    19  H    5.057538   4.477327   4.813752   2.349432   3.041104
    20  H    5.057536   4.813742   4.477330   3.156924   4.105476
                   16         17         18         19         20
    16  H    0.000000
    17  H    3.726757   0.000000
    18  H    4.287168   1.753347   0.000000
    19  H    3.911640   2.502263   3.060978   0.000000
    20  H    4.454410   3.060974   2.502260   1.772759   0.000000
 Stoichiometry    C5H13ClN(1+)
 Framework group  C1[X(C5H13ClN)]
 Deg. of freedom    54
 Full point group                 C1      NOp   1
 Largest Abelian subgroup         C1      NOp   1
 Largest concise Abelian subgroup C1      NOp   1
                         Standard orientation:                         
 ---------------------------------------------------------------------
 Center     Atomic      Atomic             Coordinates (Angstroms)
 Number     Number       Type             X           Y           Z
 ---------------------------------------------------------------------
      1          6           0        1.631189   -0.774641    1.232579
      2          7           0        1.319784    0.039177    0.000001
      3          6           0        2.218610    1.258120   -0.000001
      4          6           0        1.631192   -0.774645   -1.232574
      5          6           0       -0.131287    0.504857   -0.000004
      6          6           0       -1.257792   -0.568850   -0.000002
      7         17           0       -2.850608    0.187336    0.000000
      8          1           0        1.066244   -1.708770    1.254074
      9          1           0        1.391410   -0.220784    2.145420
     10          1           0        2.690797   -1.044374    1.280733
     11          1           0        3.278487    0.980666   -0.000005
     12          1           0        2.049029    1.882806   -0.881594
     13          1           0        2.049031    1.882819    0.881584
     14          1           0        1.066251   -1.708780   -1.254069
     15          1           0        1.391410   -0.220790   -2.145420
     16          1           0        2.690795   -1.044386   -1.280727
     17          1           0       -0.303751    1.136933   -0.876676
     18          1           0       -0.303746    1.136937    0.876671
     19          1           0       -1.197798   -1.200138   -0.886376
     20          1           0       -1.197796   -1.200130    0.886383
 ---------------------------------------------------------------------
 Rotational constants (GHZ):           4.2023888           0.9216977           0.9110149
 Leave Link  202 at Tue Feb 23 00:11:09 2021, MaxMem=   104857600 cpu:               0.8 elap:               0.1
 (Enter /sw/arch/RedHatEnterpriseServer7/EB_production/2019/software/Gaussian/g16.c01/l301.exe)
 Standard basis: TZVP (5D, 7F)
 Ernie: Thresh=  0.10000D-02 Tol=  0.10000D-05 Strict=F.
 There are   221 symmetry adapted cartesian basis functions of A   symmetry.
 There are   214 symmetry adapted basis functions of A   symmetry.
   214 basis functions,   361 primitive gaussians,   221 cartesian basis functions
    33 alpha electrons       33 beta electrons
       nuclear repulsion energy       398.7328747231 Hartrees.
 IExCor=  404 DFT=T Ex=B Corr=P86 ExCW=0 ScaHFX=  0.000000
 ScaDFX=  1.000000  1.000000  1.000000  1.000000 ScalE2=  1.000000  1.000000
 IRadAn=      5 IRanWt=     -1 IRanGd=            0 ICorTp=0 IEmpDi=131
 NAtoms=   20 NActive=   20 NUniq=   20 SFac= 1.00D+00 NAtFMM=   60 NAOKFM=F Big=F
 Integral buffers will be    131072 words long.
 Raffenetti 2 integral format.
 Two-electron integral symmetry is turned on.
 R6Disp:  Grimme-D3 Dispersion energy=       -0.0212994993 Hartrees.
 Nuclear repulsion after empirical dispersion term =      398.7115752237 Hartrees.
 ------------------------------------------------------------------------------
 Polarizable Continuum Model (PCM)
 =================================
 Model                : PCM.
 Atomic radii         : UFF (Universal Force Field).
 Polarization charges : Total charges.
 Charge compensation  : None.
 Solution method      : On-the-fly selection.
 Cavity type          : Scaled VdW (van der Waals Surface) (Alpha=1.100).
 Cavity algorithm     : GePol (No added spheres)
                        Default sphere list used, NSphG=   20.
                        Lebedev-Laikov grids with approx.  5.0 points / Ang**2.
                        Smoothing algorithm: York/Karplus (Gamma=1.0000).
                        Polarization charges: spherical gaussians, with
                                              point-specific exponents (IZeta= 3).
                        Self-potential: point-specific (ISelfS= 7).
                        Self-field    : sphere-specific E.n sum rule (ISelfD= 2).
 1st derivatives      : Analytical E(r).r(x)/FMM algorithm (CHGder, D1EAlg=3).
                        Cavity 1st derivative terms included.
 Solvent              : Water, Eps=  78.355300 Eps(inf)=   1.777849
 ------------------------------------------------------------------------------
 Spheres list:
 ISph  on   Nord     Re0    Alpha      Xe            Ye            Ze
    1   C      1    1.9255  1.100      1.631189     -0.774641      1.232579
    2   N      2    1.8300  1.100      1.319784      0.039177      0.000001
    3   C      3    1.9255  1.100      2.218610      1.258120     -0.000001
    4   C      4    1.9255  1.100      1.631192     -0.774645     -1.232574
    5   C      5    1.9255  1.100     -0.131287      0.504857     -0.000004
    6   C      6    1.9255  1.100     -1.257792     -0.568850     -0.000002
    7  Cl      7    1.9735  1.100     -2.850608      0.187336      0.000000
    8   H      8    1.4430  1.100      1.066244     -1.708770      1.254074
    9   H      9    1.4430  1.100      1.391410     -0.220784      2.145420
   10   H     10    1.4430  1.100      2.690797     -1.044374      1.280733
   11   H     11    1.4430  1.100      3.278487      0.980666     -0.000005
   12   H     12    1.4430  1.100      2.049029      1.882806     -0.881594
   13   H     13    1.4430  1.100      2.049031      1.882819      0.881584
   14   H     14    1.4430  1.100      1.066251     -1.708780     -1.254069
   15   H     15    1.4430  1.100      1.391410     -0.220790     -2.145420
   16   H     16    1.4430  1.100      2.690795     -1.044386     -1.280727
   17   H     17    1.4430  1.100     -0.303751      1.136933     -0.876676
   18   H     18    1.4430  1.100     -0.303746      1.136937      0.876671
   19   H     19    1.4430  1.100     -1.197798     -1.200138     -0.886376
   20   H     20    1.4430  1.100     -1.197796     -1.200130      0.886383
 ------------------------------------------------------------------------------
 GePol: Number of generator spheres                  =      20
 GePol: Total number of spheres                      =      20
 GePol: Number of exposed spheres                    =      20 (100.00%)
 GePol: Number of points                             =    1390
 GePol: Average weight of points                     =       0.14
 GePol: Minimum weight of points                     =   0.34D-08
 GePol: Maximum weight of points                     =    0.21616
 GePol: Number of points with low weight             =      97
 GePol: Fraction of low-weight points (<1% of avg)   =       6.98%
 GePol: Cavity surface area                          =    198.528 Ang**2
 GePol: Cavity volume                                =    198.428 Ang**3
 Leave Link  301 at Tue Feb 23 00:11:09 2021, MaxMem=   104857600 cpu:               1.9 elap:               0.1
 (Enter /sw/arch/RedHatEnterpriseServer7/EB_production/2019/software/Gaussian/g16.c01/l302.exe)
 NPDir=0 NMtPBC=     1 NCelOv=     1 NCel=       1 NClECP=     1 NCelD=      1
         NCelK=      1 NCelE2=     1 NClLst=     1 CellRange=     0.0.
 One-electron integrals computed using PRISM.
 One-electron integral symmetry used in STVInt
 PrsmSu:  requested number of processors reduced to:  29 ShMem   1 Linda.
 NBasis=   214 RedAO= T EigKep=  3.84D-04  NBF=   214
 NBsUse=   214 1.00D-06 EigRej= -1.00D+00 NBFU=   214
 Precomputing XC quadrature grid using
 IXCGrd= 4 IRadAn=           5 IRanWt=          -1 IRanGd=           0 AccXCQ= 0.00D+00.
 Generated NRdTot=       0 NPtTot=           0 NUsed=           0 NTot=          32
 NSgBfM=   220   220   220   220   220 MxSgAt=    20 MxSgA2=    20.
 Leave Link  302 at Tue Feb 23 00:11:09 2021, MaxMem=   104857600 cpu:               8.7 elap:               0.3
 (Enter /sw/arch/RedHatEnterpriseServer7/EB_production/2019/software/Gaussian/g16.c01/l303.exe)
 DipDrv:  MaxL=1.
 Leave Link  303 at Tue Feb 23 00:11:09 2021, MaxMem=   104857600 cpu:               1.0 elap:               0.1
 (Enter /sw/arch/RedHatEnterpriseServer7/EB_production/2019/software/Gaussian/g16.c01/l401.exe)
 ExpMin= 9.52D-02 ExpMax= 6.95D+04 ExpMxC= 2.37D+03 IAcc=3 IRadAn=         5 AccDes= 0.00D+00
 Harris functional with IExCor=  404 and IRadAn=       5 diagonalized for initial guess.
 HarFok:  IExCor=  404 AccDes= 0.00D+00 IRadAn=         5 IDoV= 1 UseB2=F ITyADJ=14
 ICtDFT=  3500011 ScaDFX=  1.000000  1.000000  1.000000  1.000000
 FoFCou: FMM=F IPFlag=           0 FMFlag=      100000 FMFlg1=           0
         NFxFlg=           0 DoJE=T BraDBF=F KetDBF=T FulRan=T
         wScrn=  0.000000 ICntrl=       500 IOpCl=  0 I1Cent=   200000004 NGrid=           0
         NMat0=    1 NMatS0=      1 NMatT0=    0 NMatD0=    1 NMtDS0=    0 NMtDT0=    0
 Petite list used in FoFCou.
 Harris En= -713.301612386997    
 JPrj=0 DoOrth=F DoCkMO=F.
 Leave Link  401 at Tue Feb 23 00:11:10 2021, MaxMem=   104857600 cpu:              11.6 elap:               0.4
 (Enter /sw/arch/RedHatEnterpriseServer7/EB_production/2019/software/Gaussian/g16.c01/l502.exe)
 Integral symmetry usage will be decided dynamically.
 Closed shell SCF:
 Using DIIS extrapolation, IDIIS=  1040.
 NGot=   104857600 LenX=   104749944 LenY=   104700662
 Requested convergence on RMS density matrix=1.00D-08 within 128 cycles.
 Requested convergence on MAX density matrix=1.00D-06.
 Requested convergence on             energy=1.00D-06.
 No special actions if energy rises.
 Fock matrices will be formed incrementally for  20 cycles.

 Cycle   1  Pass 1  IDiag  1:
 FoFJK:  IHMeth= 1 ICntrl=     500 DoSepK=F KAlg= 0 I1Cent=           0 FoldK=F
 IRaf= 960000000 NMat=       1 IRICut=       1 DoRegI=T DoRafI=F ISym2E= 0 IDoP0=0 IntGTp=1.
 FoFCou: FMM=F IPFlag=           0 FMFlag=      100000 FMFlg1=           0
         NFxFlg=           0 DoJE=T BraDBF=F KetDBF=F FulRan=T
         wScrn=  0.000000 ICntrl=       500 IOpCl=  0 I1Cent=           0 NGrid=           0
         NMat0=    1 NMatS0=      1 NMatT0=    0 NMatD0=    1 NMtDS0=    0 NMtDT0=    0
 Symmetry not used in FoFCou.
 Inv3:  Mode=1 IEnd=     5796300.
 Iteration    1 A*A^-1 deviation from unit magnitude is 3.11D-15 for    765.
 Iteration    1 A*A^-1 deviation from orthogonality  is 2.44D-15 for   1242    969.
 Iteration    1 A^-1*A deviation from unit magnitude is 2.89D-15 for    765.
 Iteration    1 A^-1*A deviation from orthogonality  is 7.57D-13 for   1287   1241.
 E= -713.131478626050    
 DIIS: error= 2.40D-02 at cycle   1 NSaved=   1.
 NSaved= 1 IEnMin= 1 EnMin= -713.131478626050     IErMin= 1 ErrMin= 2.40D-02
 ErrMax= 2.40D-02  0.00D+00 EMaxC= 1.00D-01 BMatC= 1.83D-01 BMatP= 1.83D-01
 IDIUse=3 WtCom= 7.60D-01 WtEn= 2.40D-01
 Coeff-Com:  0.100D+01
 Coeff-En:   0.100D+01
 Coeff:      0.100D+01
 Gap=     0.292 Goal=   None    Shift=    0.000
 GapD=    0.292 DampG=1.000 DampE=0.500 DampFc=0.5000 IDamp=-1.
 Damping current iteration by 5.00D-01
 RMSDP=3.06D-03 MaxDP=7.21D-02              OVMax= 1.67D-01

 Cycle   2  Pass 1  IDiag  1:
 RMSU=  1.53D-03    CP:  9.94D-01
 E= -713.173369539901     Delta-E=       -0.041890913851 Rises=F Damp=T
 DIIS: error= 1.31D-02 at cycle   2 NSaved=   2.
 NSaved= 2 IEnMin= 2 EnMin= -713.173369539901     IErMin= 2 ErrMin= 1.31D-02
 ErrMax= 1.31D-02  0.00D+00 EMaxC= 1.00D-01 BMatC= 2.91D-02 BMatP= 1.83D-01
 IDIUse=3 WtCom= 8.69D-01 WtEn= 1.31D-01
 Coeff-Com:  0.220D+00 0.780D+00
 Coeff-En:   0.355D+00 0.645D+00
 Coeff:      0.238D+00 0.762D+00
 Gap=     0.257 Goal=   None    Shift=    0.000
 RMSDP=7.07D-04 MaxDP=2.92D-02 DE=-4.19D-02 OVMax= 9.62D-02

 Cycle   3  Pass 1  IDiag  1:
 RMSU=  6.79D-04    CP:  9.95D-01  8.70D-01
 E= -713.277398801599     Delta-E=       -0.104029261698 Rises=F Damp=F
 DIIS: error= 6.95D-03 at cycle   3 NSaved=   3.
 NSaved= 3 IEnMin= 3 EnMin= -713.277398801599     IErMin= 3 ErrMin= 6.95D-03
 ErrMax= 6.95D-03  0.00D+00 EMaxC= 1.00D-01 BMatC= 7.92D-03 BMatP= 2.91D-02
 IDIUse=3 WtCom= 9.31D-01 WtEn= 6.95D-02
 Coeff-Com:  0.510D-01 0.332D+00 0.617D+00
 Coeff-En:   0.000D+00 0.000D+00 0.100D+01
 Coeff:      0.474D-01 0.309D+00 0.644D+00
 Gap=     0.234 Goal=   None    Shift=    0.000
 RMSDP=4.16D-04 MaxDP=1.37D-02 DE=-1.04D-01 OVMax= 2.18D-02

 Cycle   4  Pass 1  IDiag  1:
 RMSU=  3.25D-04    CP:  9.97D-01  8.63D-01  6.21D-01
 E= -713.280722084322     Delta-E=       -0.003323282723 Rises=F Damp=F
 DIIS: error= 4.23D-03 at cycle   4 NSaved=   4.
 NSaved= 4 IEnMin= 4 EnMin= -713.280722084322     IErMin= 4 ErrMin= 4.23D-03
 ErrMax= 4.23D-03  0.00D+00 EMaxC= 1.00D-01 BMatC= 3.32D-03 BMatP= 7.92D-03
 IDIUse=3 WtCom= 9.58D-01 WtEn= 4.23D-02
 Coeff-Com:  0.982D-02 0.103D+00 0.409D+00 0.478D+00
 Coeff-En:   0.000D+00 0.000D+00 0.347D+00 0.653D+00
 Coeff:      0.940D-02 0.982D-01 0.407D+00 0.486D+00
 Gap=     0.239 Goal=   None    Shift=    0.000
 RMSDP=2.35D-04 MaxDP=6.47D-03 DE=-3.32D-03 OVMax= 9.90D-03

 Cycle   5  Pass 1  IDiag  1:
 RMSU=  1.15D-04    CP:  9.95D-01  8.64D-01  6.62D-01  3.80D-01
 E= -713.283735274498     Delta-E=       -0.003013190176 Rises=F Damp=F
 DIIS: error= 5.72D-04 at cycle   5 NSaved=   5.
 NSaved= 5 IEnMin= 5 EnMin= -713.283735274498     IErMin= 5 ErrMin= 5.72D-04
 ErrMax= 5.72D-04  0.00D+00 EMaxC= 1.00D-01 BMatC= 8.45D-05 BMatP= 3.32D-03
 IDIUse=3 WtCom= 9.94D-01 WtEn= 5.72D-03
 Coeff-Com:  0.870D-03 0.214D-01 0.129D+00 0.223D+00 0.626D+00
 Coeff-En:   0.000D+00 0.000D+00 0.000D+00 0.000D+00 0.100D+01
 Coeff:      0.865D-03 0.213D-01 0.128D+00 0.221D+00 0.628D+00
 Gap=     0.237 Goal=   None    Shift=    0.000
 RMSDP=6.18D-05 MaxDP=1.34D-03 DE=-3.01D-03 OVMax= 2.69D-03

 Cycle   6  Pass 1  IDiag  1:
 RMSU=  2.50D-05    CP:  9.95D-01  8.61D-01  6.95D-01  4.53D-01  6.06D-01
 E= -713.283809607516     Delta-E=       -0.000074333019 Rises=F Damp=F
 DIIS: error= 2.77D-04 at cycle   6 NSaved=   6.
 NSaved= 6 IEnMin= 6 EnMin= -713.283809607516     IErMin= 6 ErrMin= 2.77D-04
 ErrMax= 2.77D-04  0.00D+00 EMaxC= 1.00D-01 BMatC= 1.29D-05 BMatP= 8.45D-05
 IDIUse=3 WtCom= 9.97D-01 WtEn= 2.77D-03
 Coeff-Com:  0.571D-05 0.893D-02 0.639D-01 0.122D+00 0.397D+00 0.409D+00
 Coeff-En:   0.000D+00 0.000D+00 0.000D+00 0.000D+00 0.284D-01 0.972D+00
 Coeff:      0.570D-05 0.891D-02 0.638D-01 0.121D+00 0.396D+00 0.411D+00
 Gap=     0.237 Goal=   None    Shift=    0.000
 RMSDP=1.68D-05 MaxDP=4.33D-04 DE=-7.43D-05 OVMax= 9.66D-04

 Cycle   7  Pass 1  IDiag  1:
 RMSU=  6.19D-06    CP:  9.95D-01  8.64D-01  6.88D-01  4.57D-01  6.67D-01
                    CP:  5.26D-01
 E= -713.283822485827     Delta-E=       -0.000012878311 Rises=F Damp=F
 DIIS: error= 1.97D-05 at cycle   7 NSaved=   7.
 NSaved= 7 IEnMin= 7 EnMin= -713.283822485827     IErMin= 7 ErrMin= 1.97D-05
 ErrMax= 1.97D-05  0.00D+00 EMaxC= 1.00D-01 BMatC= 1.21D-07 BMatP= 1.29D-05
 IDIUse=1 WtCom= 1.00D+00 WtEn= 0.00D+00
 Coeff-Com: -0.231D-04 0.185D-02 0.143D-01 0.293D-01 0.987D-01 0.144D+00
 Coeff-Com:  0.712D+00
 Coeff:     -0.231D-04 0.185D-02 0.143D-01 0.293D-01 0.987D-01 0.144D+00
 Coeff:      0.712D+00
 Gap=     0.237 Goal=   None    Shift=    0.000
 RMSDP=2.06D-06 MaxDP=6.51D-05 DE=-1.29D-05 OVMax= 7.73D-05

 Cycle   8  Pass 1  IDiag  1:
 RMSU=  1.64D-06    CP:  9.95D-01  8.64D-01  6.87D-01  4.59D-01  6.72D-01
                    CP:  5.18D-01  8.64D-01
 E= -713.283822582790     Delta-E=       -0.000000096963 Rises=F Damp=F
 DIIS: error= 6.82D-06 at cycle   8 NSaved=   8.
 NSaved= 8 IEnMin= 8 EnMin= -713.283822582790     IErMin= 8 ErrMin= 6.82D-06
 ErrMax= 6.82D-06  0.00D+00 EMaxC= 1.00D-01 BMatC= 1.12D-08 BMatP= 1.21D-07
 IDIUse=1 WtCom= 1.00D+00 WtEn= 0.00D+00
 Coeff-Com: -0.103D-04 0.239D-03 0.249D-02 0.579D-02 0.195D-01 0.400D-01
 Coeff-Com:  0.303D+00 0.629D+00
 Coeff:     -0.103D-04 0.239D-03 0.249D-02 0.579D-02 0.195D-01 0.400D-01
 Coeff:      0.303D+00 0.629D+00
 Gap=     0.237 Goal=   None    Shift=    0.000
 RMSDP=6.55D-07 MaxDP=2.49D-05 DE=-9.70D-08 OVMax= 2.34D-05

 Cycle   9  Pass 1  IDiag  1:
 RMSU=  3.78D-07    CP:  9.95D-01  8.64D-01  6.88D-01  4.59D-01  6.73D-01
                    CP:  5.27D-01  8.81D-01  7.42D-01
 E= -713.283822599496     Delta-E=       -0.000000016706 Rises=F Damp=F
 DIIS: error= 2.39D-06 at cycle   9 NSaved=   9.
 NSaved= 9 IEnMin= 9 EnMin= -713.283822599496     IErMin= 9 ErrMin= 2.39D-06
 ErrMax= 2.39D-06  0.00D+00 EMaxC= 1.00D-01 BMatC= 1.47D-09 BMatP= 1.12D-08
 IDIUse=1 WtCom= 1.00D+00 WtEn= 0.00D+00
 Coeff-Com: -0.119D-05 0.680D-05 0.349D-03 0.104D-02 0.326D-02 0.109D-01
 Coeff-Com:  0.108D+00 0.329D+00 0.548D+00
 Coeff:     -0.119D-05 0.680D-05 0.349D-03 0.104D-02 0.326D-02 0.109D-01
 Coeff:      0.108D+00 0.329D+00 0.548D+00
 Gap=     0.237 Goal=   None    Shift=    0.000
 RMSDP=1.95D-07 MaxDP=6.61D-06 DE=-1.67D-08 OVMax= 8.74D-06

 Cycle  10  Pass 1  IDiag  1:
 RMSU=  1.12D-07    CP:  9.95D-01  8.64D-01  6.88D-01  4.59D-01  6.72D-01
                    CP:  5.28D-01  8.84D-01  7.41D-01  6.32D-01
 E= -713.283822570264     Delta-E=        0.000000029232 Rises=F Damp=F
 DIIS: error= 6.16D-07 at cycle  10 NSaved=  10.
 NSaved=10 IEnMin= 9 EnMin= -713.283822599496     IErMin=10 ErrMin= 6.16D-07
 ErrMax= 6.16D-07  0.00D+00 EMaxC= 1.00D-01 BMatC= 9.05D-11 BMatP= 1.47D-09
 IDIUse=1 WtCom= 1.00D+00 WtEn= 0.00D+00
 Coeff-Com:  0.253D-06-0.111D-04-0.315D-04 0.887D-06-0.161D-03 0.128D-02
 Coeff-Com:  0.217D-01 0.866D-01 0.253D+00 0.637D+00
 Coeff:      0.253D-06-0.111D-04-0.315D-04 0.887D-06-0.161D-03 0.128D-02
 Coeff:      0.217D-01 0.866D-01 0.253D+00 0.637D+00
 Gap=     0.237 Goal=   None    Shift=    0.000
 RMSDP=5.43D-08 MaxDP=1.22D-06 DE= 2.92D-08 OVMax= 1.76D-06

 Cycle  11  Pass 1  IDiag  1:
 RMSU=  3.30D-08    CP:  9.95D-01  8.64D-01  6.88D-01  4.59D-01  6.72D-01
                    CP:  5.28D-01  8.85D-01  7.57D-01  6.50D-01  7.86D-01
 E= -713.283822593359     Delta-E=       -0.000000023095 Rises=F Damp=F
 DIIS: error= 1.54D-07 at cycle  11 NSaved=  11.
 NSaved=11 IEnMin= 9 EnMin= -713.283822599496     IErMin=11 ErrMin= 1.54D-07
 ErrMax= 1.54D-07  0.00D+00 EMaxC= 1.00D-01 BMatC= 4.82D-12 BMatP= 9.05D-11
 IDIUse=1 WtCom= 1.00D+00 WtEn= 0.00D+00
 Coeff-Com: -0.202D-06-0.366D-05-0.182D-04-0.317D-04-0.154D-03-0.227D-04
 Coeff-Com:  0.348D-02 0.170D-01 0.788D-01 0.281D+00 0.620D+00
 Coeff:     -0.202D-06-0.366D-05-0.182D-04-0.317D-04-0.154D-03-0.227D-04
 Coeff:      0.348D-02 0.170D-01 0.788D-01 0.281D+00 0.620D+00
 Gap=     0.237 Goal=   None    Shift=    0.000
 RMSDP=1.85D-08 MaxDP=8.87D-07 DE=-2.31D-08 OVMax= 7.13D-07

 Cycle  12  Pass 1  IDiag  1:
 RMSU=  7.27D-09    CP:  9.95D-01  8.64D-01  6.88D-01  4.59D-01  6.72D-01
                    CP:  5.28D-01  8.85D-01  7.55D-01  6.71D-01  7.91D-01
                    CP:  6.90D-01
 E= -713.283822593367     Delta-E=       -0.000000000008 Rises=F Damp=F
 DIIS: error= 3.59D-08 at cycle  12 NSaved=  12.
 NSaved=12 IEnMin= 9 EnMin= -713.283822599496     IErMin=12 ErrMin= 3.59D-08
 ErrMax= 3.59D-08  0.00D+00 EMaxC= 1.00D-01 BMatC= 2.21D-13 BMatP= 4.82D-12
 IDIUse=1 WtCom= 1.00D+00 WtEn= 0.00D+00
 Coeff-Com: -0.671D-07-0.126D-05-0.921D-05-0.203D-04-0.787D-04-0.965D-04
 Coeff-Com:  0.533D-03 0.341D-02 0.216D-01 0.879D-01 0.260D+00 0.627D+00
 Coeff:     -0.671D-07-0.126D-05-0.921D-05-0.203D-04-0.787D-04-0.965D-04
 Coeff:      0.533D-03 0.341D-02 0.216D-01 0.879D-01 0.260D+00 0.627D+00
 Gap=     0.237 Goal=   None    Shift=    0.000
 RMSDP=2.55D-09 MaxDP=1.52D-07 DE=-8.19D-12 OVMax= 1.10D-07

 Error on total polarization charges =  0.01044
 SCF Done:  E(RB-P86) =  -713.283822593     A.U. after   12 cycles
            NFock= 12  Conv=0.25D-08     -V/T= 2.0039
 KE= 7.104966418660D+02 PE=-2.464520196992D+03 EE= 6.420281573091D+02
 Leave Link  502 at Tue Feb 23 00:11:20 2021, MaxMem=   104857600 cpu:             323.2 elap:              10.4
 (Enter /sw/arch/RedHatEnterpriseServer7/EB_production/2019/software/Gaussian/g16.c01/l601.exe)
 Copying SCF densities to generalized density rwf, IOpCl= 0 IROHF=0.

 **********************************************************************

            Population analysis using the SCF Density.

 **********************************************************************

 Orbital symmetries:
       Occupied  (A) (A) (A) (A) (A) (A) (A) (A) (A) (A) (A) (A)
                 (A) (A) (A) (A) (A) (A) (A) (A) (A) (A) (A) (A)
                 (A) (A) (A) (A) (A) (A) (A) (A) (A)
       Virtual   (A) (A) (A) (A) (A) (A) (A) (A) (A) (A) (A) (A)
                 (A) (A) (A) (A) (A) (A) (A) (A) (A) (A) (A) (A)
                 (A) (A) (A) (A) (A) (A) (A) (A) (A) (A) (A) (A)
                 (A) (A) (A) (A) (A) (A) (A) (A) (A) (A) (A) (A)
                 (A) (A) (A) (A) (A) (A) (A) (A) (A) (A) (A) (A)
                 (A) (A) (A) (A) (A) (A) (A) (A) (A) (A) (A) (A)
                 (A) (A) (A) (A) (A) (A) (A) (A) (A) (A) (A) (A)
                 (A) (A) (A) (A) (A) (A) (A) (A) (A) (A) (A) (A)
                 (A) (A) (A) (A) (A) (A) (A) (A) (A) (A) (A) (A)
                 (A) (A) (A) (A) (A) (A) (A) (A) (A) (A) (A) (A)
                 (A) (A) (A) (A) (A) (A) (A) (A) (A) (A) (A) (A)
                 (A) (A) (A) (A) (A) (A) (A) (A) (A) (A) (A) (A)
                 (A) (A) (A) (A) (A) (A) (A) (A) (A) (A) (A) (A)
                 (A) (A) (A) (A) (A) (A) (A) (A) (A) (A) (A) (A)
                 (A) (A) (A) (A) (A) (A) (A) (A) (A) (A) (A) (A)
                 (A)
 The electronic state is 1-A.
 Alpha  occ. eigenvalues -- -100.76818 -14.17006  -9.98409  -9.98192  -9.96606
 Alpha  occ. eigenvalues --   -9.96606  -9.96599  -9.20620  -7.03246  -7.02039
 Alpha  occ. eigenvalues --   -7.01997  -0.96357  -0.81951  -0.71796  -0.70361
 Alpha  occ. eigenvalues --   -0.70214  -0.62832  -0.57974  -0.50986  -0.50404
 Alpha  occ. eigenvalues --   -0.49268  -0.45528  -0.41681  -0.40802  -0.40271
 Alpha  occ. eigenvalues --   -0.38560  -0.37894  -0.37744  -0.37556  -0.37463
 Alpha  occ. eigenvalues --   -0.36504  -0.28692  -0.28072
 Alpha virt. eigenvalues --   -0.04330   0.00363   0.01155   0.03464   0.03497
 Alpha virt. eigenvalues --    0.03688   0.04349   0.04509   0.05495   0.07101
 Alpha virt. eigenvalues --    0.08069   0.09138   0.09514   0.10408   0.10730
 Alpha virt. eigenvalues --    0.10893   0.12783   0.12840   0.13840   0.16762
 Alpha virt. eigenvalues --    0.19335   0.19816   0.20847   0.21567   0.22124
 Alpha virt. eigenvalues --    0.24073   0.24876   0.27363   0.28420   0.29889
 Alpha virt. eigenvalues --    0.30228   0.32068   0.33280   0.34430   0.34933
 Alpha virt. eigenvalues --    0.35019   0.36374   0.37909   0.38638   0.39362
 Alpha virt. eigenvalues --    0.39409   0.39856   0.40688   0.41106   0.42033
 Alpha virt. eigenvalues --    0.42343   0.42377   0.43278   0.43424   0.43860
 Alpha virt. eigenvalues --    0.44377   0.45475   0.48570   0.53086   0.55758
 Alpha virt. eigenvalues --    0.64773   0.66054   0.66543   0.67373   0.73394
 Alpha virt. eigenvalues --    0.74997   0.79209   0.81882   0.83049   0.97182
 Alpha virt. eigenvalues --    0.99393   1.04426   1.12398   1.13668   1.14043
 Alpha virt. eigenvalues --    1.15307   1.15844   1.16639   1.17839   1.19959
 Alpha virt. eigenvalues --    1.22383   1.22385   1.24327   1.24984   1.25753
 Alpha virt. eigenvalues --    1.28308   1.30362   1.31237   1.32021   1.35138
 Alpha virt. eigenvalues --    1.37176   1.39075   1.43692   1.44384   1.44774
 Alpha virt. eigenvalues --    1.47380   1.50511   1.50735   1.52359   1.56764
 Alpha virt. eigenvalues --    1.58070   1.62103   1.63245   1.63830   1.65341
 Alpha virt. eigenvalues --    1.65585   1.66424   1.67424   1.68379   1.68616
 Alpha virt. eigenvalues --    1.70179   1.70379   1.71423   1.71597   1.72260
 Alpha virt. eigenvalues --    1.74352   1.80805   1.81529   1.83673   1.84956
 Alpha virt. eigenvalues --    1.85983   1.88298   1.90413   1.95892   1.96465
 Alpha virt. eigenvalues --    1.97248   2.05072   2.12653   2.13922   2.14210
 Alpha virt. eigenvalues --    2.15682   2.18289   2.22803   2.24851   2.25178
 Alpha virt. eigenvalues --    2.27780   2.28038   2.31265   2.31915   2.34446
 Alpha virt. eigenvalues --    2.34743   2.35839   2.37244   2.39883   2.42591
 Alpha virt. eigenvalues --    2.43362   2.46253   2.48917   2.52927   2.54975
 Alpha virt. eigenvalues --    2.58041   2.58783   2.59448   2.61644   2.62849
 Alpha virt. eigenvalues --    2.66083   2.66379   2.71151   2.79204   2.84415
 Alpha virt. eigenvalues --    2.85018   2.89156   2.92191   3.02464   3.04566
 Alpha virt. eigenvalues --    3.08290   3.09110   3.17192   3.18911   3.21427
 Alpha virt. eigenvalues --    3.22216   3.24729   3.25100   3.31175   3.31628
 Alpha virt. eigenvalues --    3.33365   3.53052   3.53228   3.54165  21.57675
 Alpha virt. eigenvalues --   21.77520  21.78411  21.81303  21.82088  24.76325
 Alpha virt. eigenvalues --   31.59912
          Condensed to atoms (all electrons):
               1          2          3          4          5          6
     1  C    5.175980   0.245500  -0.084342  -0.109280  -0.088913   0.007678
     2  N    0.245500   6.455352   0.273561   0.245501   0.147317  -0.001874
     3  C   -0.084342   0.273561   5.116638  -0.084343  -0.104058   0.013873
     4  C   -0.109280   0.245501  -0.084343   5.175983  -0.088912   0.007677
     5  C   -0.088913   0.147317  -0.104058  -0.088912   5.611839   0.098160
     6  C    0.007678  -0.001874   0.013873   0.007677   0.098160   5.132795
     7  Cl  -0.001061   0.008097  -0.000048  -0.001061  -0.039087   0.229467
     8  H    0.391641  -0.016583   0.008982  -0.005438  -0.011652   0.003654
     9  H    0.379845  -0.014051  -0.006333   0.010731  -0.001226  -0.003854
    10  H    0.386384  -0.012257  -0.006418  -0.006985   0.008749   0.000590
    11  H   -0.008899  -0.012023   0.390194  -0.008899   0.009331  -0.000547
    12  H    0.009258  -0.014548   0.386969  -0.005065  -0.008123   0.000218
    13  H   -0.005065  -0.014548   0.386969   0.009257  -0.008122   0.000218
    14  H   -0.005438  -0.016583   0.008982   0.391640  -0.011652   0.003654
    15  H    0.010731  -0.014051  -0.006333   0.379845  -0.001226  -0.003854
    16  H   -0.006985  -0.012257  -0.006418   0.386384   0.008749   0.000590
    17  H    0.012432  -0.013075  -0.004552  -0.015712   0.386215  -0.027661
    18  H   -0.015712  -0.013076  -0.004552   0.012432   0.386215  -0.027661
    19  H   -0.005208  -0.002301  -0.000587   0.014542  -0.050831   0.427019
    20  H    0.014542  -0.002301  -0.000587  -0.005208  -0.050832   0.427019
               7          8          9         10         11         12
     1  C   -0.001061   0.391641   0.379845   0.386384  -0.008899   0.009258
     2  N    0.008097  -0.016583  -0.014051  -0.012257  -0.012023  -0.014548
     3  C   -0.000048   0.008982  -0.006333  -0.006418   0.390194   0.386969
     4  C   -0.001061  -0.005438   0.010731  -0.006985  -0.008899  -0.005065
     5  C   -0.039087  -0.011652  -0.001226   0.008749   0.009331  -0.008123
     6  C    0.229467   0.003654  -0.003854   0.000590  -0.000547   0.000218
     7  Cl  16.938342  -0.000122   0.000234  -0.000013   0.000016  -0.000031
     8  H   -0.000122   0.464885  -0.019394  -0.018813   0.000110  -0.000336
     9  H    0.000234  -0.019394   0.467309  -0.018566   0.000149   0.000018
    10  H   -0.000013  -0.018813  -0.018566   0.462116   0.002482   0.000049
    11  H    0.000016   0.000110   0.000149   0.002482   0.462374  -0.019410
    12  H   -0.000031  -0.000336   0.000018   0.000049  -0.019410   0.468134
    13  H   -0.000031  -0.000002   0.001935  -0.000109  -0.019409  -0.019410
    14  H   -0.000122   0.001651   0.000017  -0.000049   0.000110  -0.000002
    15  H    0.000234   0.000017  -0.000374  -0.000024   0.000149   0.001935
    16  H   -0.000013  -0.000049  -0.000024   0.002275   0.002482  -0.000109
    17  H    0.010561  -0.000111  -0.000122  -0.000212   0.000032   0.003037
    18  H    0.010561   0.000609   0.002534  -0.000028   0.000032  -0.000381
    19  H   -0.035451   0.000037   0.000245  -0.000012   0.000004   0.000062
    20  H   -0.035451  -0.001264  -0.001273   0.000104   0.000004  -0.000015
              13         14         15         16         17         18
     1  C   -0.005065  -0.005438   0.010731  -0.006985   0.012432  -0.015712
     2  N   -0.014548  -0.016583  -0.014051  -0.012257  -0.013075  -0.013076
     3  C    0.386969   0.008982  -0.006333  -0.006418  -0.004552  -0.004552
     4  C    0.009257   0.391640   0.379845   0.386384  -0.015712   0.012432
     5  C   -0.008122  -0.011652  -0.001226   0.008749   0.386215   0.386215
     6  C    0.000218   0.003654  -0.003854   0.000590  -0.027661  -0.027661
     7  Cl  -0.000031  -0.000122   0.000234  -0.000013   0.010561   0.010561
     8  H   -0.000002   0.001651   0.000017  -0.000049  -0.000111   0.000609
     9  H    0.001935   0.000017  -0.000374  -0.000024  -0.000122   0.002534
    10  H   -0.000109  -0.000049  -0.000024   0.002275  -0.000212  -0.000028
    11  H   -0.019409   0.000110   0.000149   0.002482   0.000032   0.000032
    12  H   -0.019410  -0.000002   0.001935  -0.000109   0.003037  -0.000381
    13  H    0.468133  -0.000336   0.000018   0.000049  -0.000381   0.003036
    14  H   -0.000336   0.464886  -0.019394  -0.018813   0.000609  -0.000111
    15  H    0.000018  -0.019394   0.467309  -0.018565   0.002534  -0.000122
    16  H    0.000049  -0.018813  -0.018565   0.462115  -0.000028  -0.000212
    17  H   -0.000381   0.000609   0.002534  -0.000028   0.452353  -0.016735
    18  H    0.003036  -0.000111  -0.000122  -0.000212  -0.016735   0.452355
    19  H   -0.000015  -0.001264  -0.001273   0.000104  -0.004610   0.004714
    20  H    0.000062   0.000037   0.000245  -0.000012   0.004714  -0.004610
              19         20
     1  C   -0.005208   0.014542
     2  N   -0.002301  -0.002301
     3  C   -0.000587  -0.000587
     4  C    0.014542  -0.005208
     5  C   -0.050831  -0.050832
     6  C    0.427019   0.427019
     7  Cl  -0.035451  -0.035451
     8  H    0.000037  -0.001264
     9  H    0.000245  -0.001273
    10  H   -0.000012   0.000104
    11  H    0.000004   0.000004
    12  H    0.000062  -0.000015
    13  H   -0.000015   0.000062
    14  H   -0.001264   0.000037
    15  H   -0.001273   0.000245
    16  H    0.000104  -0.000012
    17  H   -0.004610   0.004714
    18  H    0.004714  -0.004610
    19  H    0.462801  -0.025395
    20  H   -0.025395   0.462803
 Mulliken charges:
               1
     1  C   -0.303088
     2  N   -0.215801
     3  C   -0.277595
     4  C   -0.303090
     5  C   -0.191942
     6  C   -0.287162
     7  Cl  -0.085020
     8  H    0.202177
     9  H    0.202197
    10  H    0.200735
    11  H    0.201719
    12  H    0.197750
    13  H    0.197751
    14  H    0.202177
    15  H    0.202197
    16  H    0.200736
    17  H    0.210711
    18  H    0.210710
    19  H    0.217419
    20  H    0.217418
 Sum of Mulliken charges =   1.00000
 Mulliken charges with hydrogens summed into heavy atoms:
               1
     1  C    0.302021
     2  N   -0.215801
     3  C    0.319626
     4  C    0.302019
     5  C    0.229478
     6  C    0.147676
     7  Cl  -0.085020
 Electronic spatial extent (au):  <R**2>=           1325.9738
 Charge=              1.0000 electrons
 Dipole moment (field-independent basis, Debye):
    X=              8.0830    Y=             -0.7127    Z=             -0.0000  Tot=              8.1143
 Quadrupole moment (field-independent basis, Debye-Ang):
   XX=            -39.1876   YY=            -43.0710   ZZ=            -43.3635
   XY=              1.5271   XZ=              0.0000   YZ=              0.0000
 Traceless Quadrupole moment (field-independent basis, Debye-Ang):
   XX=              2.6864   YY=             -1.1970   ZZ=             -1.4895
   XY=              1.5271   XZ=              0.0000   YZ=              0.0000
 Octapole moment (field-independent basis, Debye-Ang**2):
  XXX=             50.7395  YYY=              0.4363  ZZZ=              0.0000  XYY=              9.6895
  XXY=              2.1775  XXZ=              0.0000  XZZ=             10.3344  YZZ=             -2.9249
  YYZ=             -0.0000  XYZ=              0.0000
 Hexadecapole moment (field-independent basis, Debye-Ang**3):
 XXXX=          -1141.1005 YYYY=           -222.9911 ZZZZ=           -198.9199 XXXY=             -4.7789
 XXXZ=              0.0000 YYYX=              8.8873 YYYZ=              0.0003 ZZZX=              0.0001
 ZZZY=             -0.0000 XXYY=           -222.3828 XXZZ=           -230.4909 YYZZ=            -65.5735
 XXYZ=              0.0001 YYXZ=             -0.0001 ZZXY=             -3.8358
 N-N= 3.987115752237D+02 E-N=-2.464520188957D+03  KE= 7.104966418660D+02
 No NMR shielding tensors so no spin-rotation constants.
 Leave Link  601 at Tue Feb 23 00:11:21 2021, MaxMem=   104857600 cpu:               5.9 elap:               0.2
 (Enter /sw/arch/RedHatEnterpriseServer7/EB_production/2019/software/Gaussian/g16.c01/l701.exe)
 ... and contract with generalized density number  0.
 Compute integral first derivatives.
 R6Disp: Adding Grimme-D3 dispersion energy 1st derivatives to the gradient.
 PrsmSu:  requested number of processors reduced to:  29 ShMem   1 Linda.
 D1PCM: PCM CHGder 1st derivatives, ID1Alg=3 FixD1E=F DoIter=F DoCFld=F I1PDM=0.
 GePol: Maximum number of non-zero 1st derivatives   =     259
 CoulSu:  requested number of processors reduced to:  29 ShMem   1 Linda.
 CoulSu:  requested number of processors reduced to:  30 ShMem   1 Linda.
 Leave Link  701 at Tue Feb 23 00:11:22 2021, MaxMem=   104857600 cpu:              18.4 elap:               0.6
 (Enter /sw/arch/RedHatEnterpriseServer7/EB_production/2019/software/Gaussian/g16.c01/l702.exe)
 L702 exits ... SP integral derivatives will be done elsewhere.
 Leave Link  702 at Tue Feb 23 00:11:22 2021, MaxMem=   104857600 cpu:               0.9 elap:               0.1
 (Enter /sw/arch/RedHatEnterpriseServer7/EB_production/2019/software/Gaussian/g16.c01/l703.exe)
 Integral derivatives from FoFJK, PRISM(SPDF).
 Compute integral first derivatives, UseDBF=F ICtDFT=           0.
 Calling FoFJK, ICntrl=      2527 FMM=F ISym2X=0 I1Cent= 0 IOpClX= 0 NMat=1 NMatS=1 NMatT=0.
 FoFJK:  IHMeth= 1 ICntrl=    2527 DoSepK=F KAlg= 0 I1Cent=           0 FoldK=F
 IRaf=         0 NMat=       1 IRICut=       1 DoRegI=T DoRafI=F ISym2E= 0 IDoP0=0 IntGTp=1.
 FoFCou: FMM=F IPFlag=           0 FMFlag=      100000 FMFlg1=         800
         NFxFlg=           0 DoJE=F BraDBF=F KetDBF=F FulRan=T
         wScrn=  0.000000 ICntrl=      2527 IOpCl=  0 I1Cent=           0 NGrid=           0
         NMat0=    1 NMatS0=      1 NMatT0=    0 NMatD0=    1 NMtDS0=    0 NMtDT0=    0
 Symmetry not used in FoFCou.
 Leave Link  703 at Tue Feb 23 00:11:23 2021, MaxMem=   104857600 cpu:              46.9 elap:               1.5
 (Enter /sw/arch/RedHatEnterpriseServer7/EB_production/2019/software/Gaussian/g16.c01/l716.exe)
 Dipole        = 3.18008647D+00-2.80384744D-01-6.87551593D-09
 ***** Axes restored to original set *****
 -------------------------------------------------------------------
 Center     Atomic                   Forces (Hartrees/Bohr)
 Number     Number              X              Y              Z
 -------------------------------------------------------------------
      1        6          -0.007276880   -0.002919772   -0.010843423
      2        7          -0.005969021    0.001182699    0.001505862
      3        6           0.004300636    0.013060656    0.001878097
      4        6          -0.002746881   -0.007514537    0.010729209
      5        6           0.019828320   -0.010323086   -0.006363174
      6        6          -0.031106272    0.011055098    0.008880785
      7       17           0.017601060    0.000653542   -0.003556085
      8        1           0.003865346   -0.004286812    0.004264339
      9        1           0.006335413    0.002420255    0.001947021
     10        1           0.002154060    0.002766681    0.007296712
     11        1          -0.004121562   -0.007687696   -0.000771437
     12        1           0.002488518   -0.007075847    0.001764374
     13        1           0.001026112   -0.005594052   -0.005199391
     14        1           0.001558504   -0.001944640   -0.006729872
     15        1           0.005268949    0.003499511   -0.003125568
     16        1          -0.000606343    0.005566323   -0.005847968
     17        1          -0.003874815    0.004741589    0.005774660
     18        1          -0.005398025    0.006283940   -0.001478608
     19        1          -0.000998738   -0.002616844    0.003105842
     20        1          -0.002328381   -0.001267011   -0.003231373
 -------------------------------------------------------------------
 Cartesian Forces:  Max     0.031106272 RMS     0.007447109
 Leave Link  716 at Tue Feb 23 00:11:23 2021, MaxMem=   104857600 cpu:               0.8 elap:               0.1
 (Enter /sw/arch/RedHatEnterpriseServer7/EB_production/2019/software/Gaussian/g16.c01/l103.exe)

 GradGradGradGradGradGradGradGradGradGradGradGradGradGradGradGradGradGrad
 Berny optimization.
 FormGI is forming the generalized inverse of G from B-inverse, IUseBI=4.
 Internal  Forces:  Max     0.017260289 RMS     0.004903833
 Search for a local minimum.
 Step number   1 out of a maximum of  110
 All quantities printed in internal units (Hartrees-Bohrs-Radians)
 RMS Force = .49038D-02 SwitMx=.10000D-02 MixMth= 1
 Mixed Optimization -- RFO/linear search
 Second derivative matrix not updated -- first step.
 ITU=  0
     Eigenvalues ---    0.00230   0.00230   0.00230   0.00244   0.00244
     Eigenvalues ---    0.02917   0.04319   0.04615   0.04831   0.05096
     Eigenvalues ---    0.05315   0.05318   0.05328   0.05328   0.05350
     Eigenvalues ---    0.05350   0.05467   0.05649   0.09252   0.12845
     Eigenvalues ---    0.14308   0.14444   0.16000   0.16000   0.16000
     Eigenvalues ---    0.16000   0.16000   0.16000   0.16000   0.16000
     Eigenvalues ---    0.16000   0.16000   0.16000   0.22033   0.22295
     Eigenvalues ---    0.27128   0.29244   0.29988   0.30902   0.31403
     Eigenvalues ---    0.31403   0.34174   0.34302   0.34302   0.34303
     Eigenvalues ---    0.34304   0.34318   0.34318   0.34388   0.34388
     Eigenvalues ---    0.34595   0.34595   0.34829   0.34829
 RFO step:  Lambda=-1.25647288D-02 EMin= 2.30000000D-03
 Linear search not attempted -- first point.
 Iteration  1 RMS(Cart)=  0.05561190 RMS(Int)=  0.00129322
 Iteration  2 RMS(Cart)=  0.00132400 RMS(Int)=  0.00080317
 Iteration  3 RMS(Cart)=  0.00000470 RMS(Int)=  0.00080317
 Iteration  4 RMS(Cart)=  0.00000002 RMS(Int)=  0.00080317
 ITry= 1 IFail=0 DXMaxC= 1.76D-01 DCOld= 1.00D+10 DXMaxT= 3.00D-01 DXLimC= 3.00D+00 Rises=F
 Variable       Old X    -DE/DX   Delta X   Delta X   Delta X     New X
                                 (Linear)    (Quad)   (Total)
    R1        2.85250  -0.00512   0.00000  -0.01569  -0.01569   2.83681
    R2        2.06337   0.00262   0.00000   0.00731   0.00731   2.07068
    R3        2.06796   0.00140   0.00000   0.00394   0.00394   2.07190
    R4        2.06823   0.00095   0.00000   0.00267   0.00267   2.07090
    R5        2.86199  -0.00723   0.00000  -0.02248  -0.02248   2.83951
    R6        2.85250  -0.00512   0.00000  -0.01569  -0.01569   2.83681
    R7        2.87987  -0.00953   0.00000  -0.03049  -0.03049   2.84938
    R8        2.07037   0.00024   0.00000   0.00067   0.00067   2.07103
    R9        2.06681   0.00171   0.00000   0.00480   0.00480   2.07161
   R10        2.06681   0.00171   0.00000   0.00480   0.00480   2.07161
   R11        2.06338   0.00262   0.00000   0.00730   0.00730   2.07068
   R12        2.06797   0.00140   0.00000   0.00393   0.00393   2.07190
   R13        2.06823   0.00095   0.00000   0.00267   0.00267   2.07090
   R14        2.94085  -0.01006   0.00000  -0.03544  -0.03544   2.90542
   R15        2.06821   0.00255   0.00000   0.00718   0.00718   2.07539
   R16        2.06822   0.00255   0.00000   0.00718   0.00718   2.07539
   R17        3.33197   0.01726   0.00000   0.05659   0.05659   3.38856
   R18        2.05953   0.00418   0.00000   0.01158   0.01158   2.07110
   R19        2.05954   0.00417   0.00000   0.01157   0.01157   2.07110
    A1        1.95043  -0.00598   0.00000  -0.03406  -0.03478   1.91565
    A2        1.94236  -0.00639   0.00000  -0.03677  -0.03754   1.90482
    A3        1.94822  -0.00840   0.00000  -0.04955  -0.05049   1.89773
    A4        1.87885   0.00690   0.00000   0.04166   0.04111   1.91996
    A5        1.86420   0.00763   0.00000   0.04371   0.04282   1.90702
    A6        1.87567   0.00776   0.00000   0.04384   0.04283   1.91850
    A7        1.88756   0.00140   0.00000   0.01630   0.01613   1.90369
    A8        1.91085  -0.00063   0.00000   0.00202   0.00176   1.91261
    A9        1.94033  -0.00005   0.00000  -0.00738  -0.00731   1.93302
   A10        1.88756   0.00140   0.00000   0.01630   0.01613   1.90369
   A11        1.89563  -0.00199   0.00000  -0.01865  -0.01855   1.87709
   A12        1.94033  -0.00005   0.00000  -0.00738  -0.00731   1.93302
   A13        1.95014  -0.00899   0.00000  -0.05252  -0.05360   1.89654
   A14        1.94731  -0.00690   0.00000  -0.03974  -0.04065   1.90666
   A15        1.94732  -0.00690   0.00000  -0.03975  -0.04066   1.90666
   A16        1.86988   0.00849   0.00000   0.04878   0.04768   1.91756
   A17        1.86988   0.00849   0.00000   0.04878   0.04768   1.91756
   A18        1.87491   0.00754   0.00000   0.04448   0.04372   1.91864
   A19        1.95043  -0.00598   0.00000  -0.03407  -0.03478   1.91565
   A20        1.94236  -0.00639   0.00000  -0.03677  -0.03754   1.90482
   A21        1.94823  -0.00840   0.00000  -0.04955  -0.05049   1.89774
   A22        1.87885   0.00690   0.00000   0.04166   0.04111   1.91996
   A23        1.86419   0.00763   0.00000   0.04373   0.04283   1.90702
   A24        1.87567   0.00776   0.00000   0.04383   0.04283   1.91850
   A25        2.06965  -0.01502   0.00000  -0.07200  -0.07172   1.99793
   A26        1.90342  -0.00092   0.00000  -0.03336  -0.03207   1.87135
   A27        1.90341  -0.00092   0.00000  -0.03335  -0.03206   1.87135
   A28        1.85917   0.00935   0.00000   0.06011   0.05736   1.91653
   A29        1.85917   0.00935   0.00000   0.06011   0.05736   1.91653
   A30        1.85798  -0.00032   0.00000   0.03193   0.02847   1.88646
   A31        1.93694  -0.01221   0.00000  -0.05520  -0.05523   1.88171
   A32        1.93884   0.00242   0.00000   0.01315   0.01297   1.95182
   A33        1.93884   0.00242   0.00000   0.01316   0.01298   1.95182
   A34        1.87355   0.00413   0.00000   0.01128   0.01126   1.88480
   A35        1.87354   0.00413   0.00000   0.01129   0.01126   1.88480
   A36        1.89960  -0.00062   0.00000   0.00704   0.00675   1.90635
    D1       -3.06789  -0.00108   0.00000  -0.01172  -0.01183  -3.07972
    D2       -1.01495   0.00104   0.00000   0.01822   0.01812  -0.99683
    D3        1.13568   0.00051   0.00000   0.00527   0.00520   1.14088
    D4        1.11416  -0.00137   0.00000  -0.01614  -0.01602   1.09814
    D5       -3.11608   0.00075   0.00000   0.01381   0.01393  -3.10216
    D6       -0.96545   0.00022   0.00000   0.00086   0.00101  -0.96445
    D7       -0.98141  -0.00117   0.00000  -0.01310  -0.01314  -0.99456
    D8        1.07153   0.00095   0.00000   0.01685   0.01681   1.08834
    D9       -3.06103   0.00042   0.00000   0.00390   0.00389  -3.05714
   D10        1.03392   0.00040   0.00000   0.01018   0.01029   1.04421
   D11        3.12682   0.00033   0.00000   0.00911   0.00932   3.13614
   D12       -1.05898   0.00047   0.00000   0.01125   0.01126  -1.04772
   D13       -1.03392  -0.00040   0.00000  -0.01018  -0.01029  -1.04421
   D14        1.05898  -0.00047   0.00000  -0.01124  -0.01126   1.04772
   D15       -3.12682  -0.00033   0.00000  -0.00911  -0.00932  -3.13614
   D16       -3.14159  -0.00000   0.00000  -0.00001  -0.00000  -3.14159
   D17       -1.04869  -0.00007   0.00000  -0.00107  -0.00097  -1.04966
   D18        1.04869   0.00007   0.00000   0.00107   0.00097   1.04967
   D19        1.01494  -0.00104   0.00000  -0.01822  -0.01812   0.99683
   D20        3.11608  -0.00075   0.00000  -0.01381  -0.01393   3.10215
   D21       -1.07152  -0.00095   0.00000  -0.01685  -0.01681  -1.08833
   D22        3.06789   0.00108   0.00000   0.01172   0.01183   3.07972
   D23       -1.11416   0.00137   0.00000   0.01614   0.01602  -1.09814
   D24        0.98142   0.00117   0.00000   0.01309   0.01314   0.99456
   D25       -1.13569  -0.00051   0.00000  -0.00527  -0.00519  -1.14088
   D26        0.96545  -0.00022   0.00000  -0.00086  -0.00100   0.96444
   D27        3.06103  -0.00042   0.00000  -0.00390  -0.00389   3.05714
   D28       -1.06682   0.00044   0.00000   0.00389   0.00393  -1.06289
   D29        3.08596  -0.00026   0.00000   0.00454   0.00390   3.08986
   D30        1.06358   0.00114   0.00000   0.00324   0.00397   1.06755
   D31       -3.14159   0.00000   0.00000  -0.00000  -0.00000   3.14159
   D32        1.01119  -0.00070   0.00000   0.00065  -0.00004   1.01115
   D33       -1.01119   0.00070   0.00000  -0.00065   0.00004  -1.01116
   D34        1.06682  -0.00044   0.00000  -0.00389  -0.00394   1.06289
   D35       -1.06358  -0.00114   0.00000  -0.00324  -0.00397  -1.06755
   D36       -3.08596   0.00026   0.00000  -0.00454  -0.00390  -3.08986
   D37        3.14159   0.00000   0.00000   0.00001   0.00001  -3.14159
   D38       -1.05860  -0.00126   0.00000  -0.01350  -0.01356  -1.07217
   D39        1.05860   0.00126   0.00000   0.01350   0.01357   1.07217
   D40       -0.98907  -0.00404   0.00000  -0.04526  -0.04692  -1.03599
   D41        1.09392  -0.00530   0.00000  -0.05876  -0.06049   1.03343
   D42       -3.07206  -0.00278   0.00000  -0.03176  -0.03335  -3.10541
   D43        0.98907   0.00404   0.00000   0.04526   0.04692   1.03599
   D44        3.07207   0.00278   0.00000   0.03175   0.03335   3.10542
   D45       -1.09391   0.00530   0.00000   0.05875   0.06048  -1.03343
         Item               Value     Threshold  Converged?
 Maximum Force            0.017260     0.000450     NO 
 RMS     Force            0.004904     0.000300     NO 
 Maximum Displacement     0.176034     0.001800     NO 
 RMS     Displacement     0.055847     0.001200     NO 
 Predicted change in Energy=-6.845079D-03
 Lowest energy point so far.  Saving SCF results.
 GradGradGradGradGradGradGradGradGradGradGradGradGradGradGradGradGradGrad

 Leave Link  103 at Tue Feb 23 00:11:24 2021, MaxMem=   104857600 cpu:               2.4 elap:               0.1
 (Enter /sw/arch/RedHatEnterpriseServer7/EB_production/2019/software/Gaussian/g16.c01/l202.exe)
                          Input orientation:                          
 ---------------------------------------------------------------------
 Center     Atomic      Atomic             Coordinates (Angstroms)
 Number     Number       Type             X           Y           Z
 ---------------------------------------------------------------------
      1          6           0       -2.091165    1.835257   -0.324479
      2          7           0       -1.103038    2.027410    0.789167
      3          6           0       -0.961668    3.496339    1.072162
      4          6           0       -1.597705    1.334969    2.025838
      5          6           0        0.255943    1.507827    0.393246
      6          6           0        0.293055    0.006082    0.065793
      7         17           0        1.978065   -0.417131   -0.378064
      8          1           0       -2.250505    0.765089   -0.497781
      9          1           0       -1.703994    2.309003   -1.234291
     10          1           0       -3.040804    2.300222   -0.036503
     11          1           0       -1.941056    3.893452    1.362320
     12          1           0       -0.244698    3.639560    1.888985
     13          1           0       -0.605816    4.005676    0.169001
     14          1           0       -1.765158    0.273023    1.813910
     15          1           0       -0.852307    1.445529    2.822238
     16          1           0       -2.543346    1.795877    2.332866
     17          1           0        0.941489    1.724800    1.223367
     18          1           0        0.583839    2.087399   -0.480100
     19          1           0        0.006182   -0.606324    0.928253
     20          1           0       -0.353283   -0.241879   -0.783876
 ---------------------------------------------------------------------
                    Distance matrix (angstroms):
                    1          2          3          4          5
     1  C    0.000000
     2  N    1.501175   0.000000
     3  C    2.446542   1.502605   0.000000
     4  C    2.453117   1.501174   2.446540   0.000000
     5  C    2.476137   1.507829   2.428514   2.476136   0.000000
     6  C    3.030296   2.560882   3.843046   3.030296   1.537479
     7  Cl   4.651317   4.102610   5.104942   4.651315   2.695568
     8  H    1.095756   2.136907   3.403755   2.668251   2.761860
     9  H    1.096401   2.129513   2.698248   3.404186   2.670602
    10  H    1.095874   2.123934   2.642469   2.695830   3.417765
    11  H    2.665332   2.124357   1.095944   2.665330   3.384836
    12  H    3.400643   2.131988   1.096247   2.675910   2.651822
    13  H    2.675912   2.131988   1.096247   3.400642   2.651823
    14  H    2.668251   2.136908   3.403755   1.095757   2.761861
    15  H    3.404186   2.129514   2.698248   1.096401   2.670600
    16  H    2.695831   2.123935   2.642471   1.095874   3.417765
    17  H    3.406614   2.111917   2.604461   2.691363   1.098249
    18  H    2.691364   2.111917   2.604461   3.406613   1.098250
    19  H    3.453913   2.861165   4.217734   2.746955   2.195050
    20  H    2.746957   2.861166   4.217735   3.453915   2.195051
                    6          7          8          9         10
     6  C    0.000000
     7  Cl   1.793147   0.000000
     8  H    2.713559   4.392355   0.000000
     9  H    3.313890   4.660739   1.795771   0.000000
    10  H    4.048229   5.717493   1.787172   1.794948   0.000000
    11  H    4.667321   6.080261   3.652724   3.051077   2.388416
    12  H    4.100655   5.151400   4.240578   3.695238   3.649594
    13  H    4.100656   5.151402   3.694727   2.460472   2.979928
    14  H    2.713560   4.392355   2.412800   3.666127   3.026687
    15  H    3.313888   4.660735   3.666127   4.233957   3.700327
    16  H    4.048229   5.717491   3.026688   3.700327   2.473002
    17  H    2.171276   2.868265   3.751297   3.657862   4.216283
    18  H    2.171276   2.868266   3.127672   2.419110   3.657884
    19  H    1.095981   2.372884   3.001163   4.012533   4.320056
    20  H    1.095981   2.372885   2.166861   2.921351   3.774072
                   11         12         13         14         15
    11  H    0.000000
    12  H    1.794288   0.000000
    13  H    1.794289   1.795214   0.000000
    14  H    3.652722   3.694727   4.240578   0.000000
    15  H    3.051075   2.460472   3.695238   1.795771   0.000000
    16  H    2.388417   2.979930   3.649596   1.787170   1.794949
    17  H    3.609907   2.348700   2.950972   3.127672   2.419109
    18  H    3.609908   2.950972   2.348701   3.751297   3.657861
    19  H    4.922208   4.360444   4.713974   2.166860   2.921350
    20  H    4.922210   4.713974   4.360445   3.001168   4.012535
                   16         17         18         19         20
    16  H    0.000000
    17  H    3.657884   0.000000
    18  H    4.216284   1.777974   0.000000
    19  H    3.774069   2.529037   3.094073   0.000000
    20  H    4.320059   3.094073   2.529035   1.787014   0.000000
 Stoichiometry    C5H13ClN(1+)
 Framework group  C1[X(C5H13ClN)]
 Deg. of freedom    54
 Full point group                 C1      NOp   1
 RotChk:  IX=2 Diff= 4.73D-03
 Largest Abelian subgroup         C1      NOp   1
 Largest concise Abelian subgroup C1      NOp   1
                         Standard orientation:                         
 ---------------------------------------------------------------------
 Center     Atomic      Atomic             Coordinates (Angstroms)
 Number     Number       Type             X           Y           Z
 ---------------------------------------------------------------------
      1          6           0        1.578614   -0.776586    1.226554
      2          7           0        1.296872    0.041774    0.000000
      3          6           0        2.190147    1.250030    0.000005
      4          6           0        1.578613   -0.776573   -1.226562
      5          6           0       -0.129435    0.530851    0.000003
      6          6           0       -1.185808   -0.586252   -0.000002
      7         17           0       -2.803127    0.188123    0.000001
      8          1           0        0.978242   -1.693008    1.206392
      9          1           0        1.332179   -0.186238    2.116977
     10          1           0        2.642025   -1.041159    1.236494
     11          1           0        3.233556    0.914783    0.000001
     12          1           0        1.990592    1.846889   -0.897599
     13          1           0        1.990594    1.846881    0.897615
     14          1           0        0.978242   -1.692996   -1.206408
     15          1           0        1.332174   -0.186216   -2.116979
     16          1           0        2.642022   -1.041148   -1.236507
     17          1           0       -0.256354    1.163111   -0.888980
     18          1           0       -0.256353    1.163102    0.888993
     19          1           0       -1.112328   -1.216662   -0.893511
     20          1           0       -1.112329   -1.216668    0.893504
 ---------------------------------------------------------------------
 Rotational constants (GHZ):           4.2330512           0.9587218           0.9454041
 Leave Link  202 at Tue Feb 23 00:11:24 2021, MaxMem=   104857600 cpu:               0.5 elap:               0.0
 (Enter /sw/arch/RedHatEnterpriseServer7/EB_production/2019/software/Gaussian/g16.c01/l301.exe)
 Standard basis: TZVP (5D, 7F)
 Ernie: Thresh=  0.10000D-02 Tol=  0.10000D-05 Strict=F.
 There are   221 symmetry adapted cartesian basis functions of A   symmetry.
 There are   214 symmetry adapted basis functions of A   symmetry.
   214 basis functions,   361 primitive gaussians,   221 cartesian basis functions
    33 alpha electrons       33 beta electrons
       nuclear repulsion energy       402.9348535420 Hartrees.
 IExCor=  404 DFT=T Ex=B Corr=P86 ExCW=0 ScaHFX=  0.000000
 ScaDFX=  1.000000  1.000000  1.000000  1.000000 ScalE2=  1.000000  1.000000
 IRadAn=      5 IRanWt=     -1 IRanGd=            0 ICorTp=0 IEmpDi=131
 NAtoms=   20 NActive=   20 NUniq=   20 SFac= 1.00D+00 NAtFMM=   60 NAOKFM=F Big=F
 Integral buffers will be    131072 words long.
 Raffenetti 2 integral format.
 Two-electron integral symmetry is turned on.
 R6Disp:  Grimme-D3 Dispersion energy=       -0.0214480924 Hartrees.
 Nuclear repulsion after empirical dispersion term =      402.9134054496 Hartrees.
 ------------------------------------------------------------------------------
 Polarizable Continuum Model (PCM)
 =================================
 Model                : PCM.
 Atomic radii         : UFF (Universal Force Field).
 Polarization charges : Total charges.
 Charge compensation  : None.
 Solution method      : On-the-fly selection.
 Cavity type          : Scaled VdW (van der Waals Surface) (Alpha=1.100).
 Cavity algorithm     : GePol (No added spheres)
                        Default sphere list used, NSphG=   20.
                        Lebedev-Laikov grids with approx.  5.0 points / Ang**2.
                        Smoothing algorithm: York/Karplus (Gamma=1.0000).
                        Polarization charges: spherical gaussians, with
                                              point-specific exponents (IZeta= 3).
                        Self-potential: point-specific (ISelfS= 7).
                        Self-field    : sphere-specific E.n sum rule (ISelfD= 2).
 1st derivatives      : Analytical E(r).r(x)/FMM algorithm (CHGder, D1EAlg=3).
                        Cavity 1st derivative terms included.
 Solvent              : Water, Eps=  78.355300 Eps(inf)=   1.777849
 ------------------------------------------------------------------------------
 Spheres list:
 ISph  on   Nord     Re0    Alpha      Xe            Ye            Ze
    1   C      1    1.9255  1.100      1.578614     -0.776586      1.226554
    2   N      2    1.8300  1.100      1.296872      0.041774      0.000000
    3   C      3    1.9255  1.100      2.190147      1.250030      0.000005
    4   C      4    1.9255  1.100      1.578613     -0.776573     -1.226562
[...]
    1   C      1    2.0000  1.000      1.605217     -0.777836      1.236193
    2   N      2    1.8300  1.000      1.305428      0.040405     -0.000000
    3   C      3    2.0000  1.000      2.187159      1.271884      0.000001
    4   C      4    2.0000  1.000      1.605218     -0.777836     -1.236193
    5   C      5    2.0000  1.000     -0.147194      0.521242     -0.000000
    6   C      6    2.0000  1.000     -1.181449     -0.599307      0.000000
    7  Cl      7    2.0500  1.000     -2.824006      0.187509     -0.000000
    8   H      8    1.3000  1.000      1.033132     -1.709959      1.202452
    9   H      9    1.3000  1.000      1.332324     -0.191516      2.120259
   10   H     10    1.3000  1.000      2.676373     -1.005459      1.245913
   11   H     11    1.3000  1.000      3.233415      0.948870      0.000001
   12   H     12    1.3000  1.000      1.971262      1.858029     -0.899576
   13   H     13    1.3000  1.000      1.971262      1.858028      0.899577
   14   H     14    1.3000  1.000      1.033133     -1.709959     -1.202453
   15   H     15    1.3000  1.000      1.332325     -0.191514     -2.120259
   16   H     16    1.3000  1.000      2.676374     -1.005458     -1.245913
   17   H     17    1.3000  1.000     -0.265819      1.148496     -0.892549
   18   H     18    1.3000  1.000     -0.265819      1.148497      0.892548
   19   H     19    1.3000  1.000     -1.135780     -1.223720     -0.897815
   20   H     20    1.3000  1.000     -1.135780     -1.223719      0.897816
 ------------------------------------------------------------------------------
 One-electron integrals computed using PRISM.
 PrsmSu:  requested number of processors reduced to:  29 ShMem   1 Linda.
 NBasis=   214 RedAO= T EigKep=  3.66D-04  NBF=   214
 NBsUse=   214 1.00D-06 EigRej= -1.00D+00 NBFU=   214
 Initial guess from the checkpoint file:  "JUZXDNPBRPUIOR-UHFFFAOYSA-N.chk"
 B after Tr=    -0.000000    0.000000   -0.000000
         Rot=    1.000000    0.000000    0.000000    0.000000 Ang=   0.00 deg.
 Requested convergence on RMS density matrix=1.00D-08 within 128 cycles.
 Requested convergence on MAX density matrix=1.00D-06.
 Requested convergence on             energy=1.00D-06.
 No special actions if energy rises.
 Inv3:  Mode=1 IEnd=     4635147.
 Iteration    1 A*A^-1 deviation from unit magnitude is 3.60D-14 for    492.
 Iteration    1 A*A^-1 deviation from orthogonality  is 1.44D-14 for    492    483.
 Iteration    1 A^-1*A deviation from unit magnitude is 1.82D-14 for    492.
 Iteration    1 A^-1*A deviation from orthogonality  is 7.77D-15 for    557    492.
 Error on nuclear    polarization charges =  0.02455
 Error on electronic polarization charges = -0.04947
 SCF Done:  E(RB-P86) =  -713.282136503     A.U. after   11 cycles
            NFock= 11  Conv=0.11D-08     -V/T= 2.0040
 --------------------------------------------------------------------
 Variational C-PCM results
 =========================
 <psi(f)|   H    |psi(f)>                     (a.u.) =    -713.180676
 <psi(f)|H+V(f)/2|psi(f)>                     (a.u.) =    -713.282137
 Total free energy in solution:
 - with all non electrostatic terms           (a.u.) =    -713.270268
 --------------------------------------------------------------------
 (Polarized solute)-Solvent               (kcal/mol) =     -63.67
 --------------------------------------------------------------------
 Cavitation energy                        (kcal/mol) =      22.46
 Dispersion energy                        (kcal/mol) =     -16.36
 Repulsion energy                         (kcal/mol) =       1.35
 Total non electrostatic                  (kcal/mol) =       7.45
 --------------------------------------------------------------------
 Partition over spheres:
 Sphere  on Atom  Surface  Charge   GEl     GCav    GDR
    1      C1      14.00  -0.079   -4.69    1.64   -1.03
    2      N2       0.00   0.000    0.00    0.00    0.00
    3      C3      14.42  -0.084   -4.95    1.69   -1.09
    4      C4      14.00  -0.079   -4.71    1.64   -1.03
    5      C5       5.55  -0.049   -2.84    0.65   -0.19
    6      C6       8.95  -0.059   -3.18    1.05   -0.42
    7     Cl7      37.29   0.134    3.51    4.34   -3.28
    8      H8       5.67  -0.059   -3.69    0.80   -0.51
    9      H9       6.47  -0.060   -3.59    0.91   -0.68
   10      H10      6.44  -0.060   -3.65    0.91   -0.65
   11      H11      6.46  -0.059   -3.59    0.91   -0.63
   12      H12      6.44  -0.060   -3.57    0.91   -0.65
   13      H13      6.44  -0.057   -3.46    0.91   -0.65
   14      H14      5.67  -0.059   -3.70    0.80   -0.51
   15      H15      6.47  -0.060   -3.63    0.91   -0.68
   16      H16      6.44  -0.062   -3.79    0.91   -0.65
   17      H17      6.42  -0.065   -3.81    0.91   -0.59
   18      H18      6.42  -0.063   -3.71    0.91   -0.59
   19      H19      5.82  -0.059   -3.29    0.82   -0.61
   20      H20      5.82  -0.060   -3.31    0.82   -0.61
 --------------------------------------------------------------------
 - cavitation energy not included in the total energy.
 - dispersion energy not included in the total energy.
 - repulsion  energy not included in the total energy.
 After PCM corrections, the energy is  -713.282136503     a.u.
 --------------------------------------------------------------------
 Writing COSMO formatted file "JUZXDNPBRPUIOR-UHFFFAOYSA-N.cosmo"
 Recomputed dielectric energy= -0.099433 old= -0.101461 diff= 2.03D-03

 **********************************************************************

            Population analysis using the SCF Density.

 **********************************************************************

 Orbital symmetries:
       Occupied  (A) (A) (A) (A) (A) (A) (A) (A) (A) (A) (A) (A)
                 (A) (A) (A) (A) (A) (A) (A) (A) (A) (A) (A) (A)
                 (A) (A) (A) (A) (A) (A) (A) (A) (A)
       Virtual   (A) (A) (A) (A) (A) (A) (A) (A) (A) (A) (A) (A)
                 (A) (A) (A) (A) (A) (A) (A) (A) (A) (A) (A) (A)
                 (A) (A) (A) (A) (A) (A) (A) (A) (A) (A) (A) (A)
                 (A) (A) (A) (A) (A) (A) (A) (A) (A) (A) (A) (A)
                 (A) (A) (A) (A) (A) (A) (A) (A) (A) (A) (A) (A)
                 (A) (A) (A) (A) (A) (A) (A) (A) (A) (A) (A) (A)
                 (A) (A) (A) (A) (A) (A) (A) (A) (A) (A) (A) (A)
                 (A) (A) (A) (A) (A) (A) (A) (A) (A) (A) (A) (A)
                 (A) (A) (A) (A) (A) (A) (A) (A) (A) (A) (A) (A)
                 (A) (A) (A) (A) (A) (A) (A) (A) (A) (A) (A) (A)
                 (A) (A) (A) (A) (A) (A) (A) (A) (A) (A) (A) (A)
                 (A) (A) (A) (A) (A) (A) (A) (A) (A) (A) (A) (A)
                 (A) (A) (A) (A) (A) (A) (A) (A) (A) (A) (A) (A)
                 (A) (A) (A) (A) (A) (A) (A) (A) (A) (A) (A) (A)
                 (A) (A) (A) (A) (A) (A) (A) (A) (A) (A) (A) (A)
                 (A)
 The electronic state is 1-A.
 Alpha  occ. eigenvalues -- -100.75855 -14.14294  -9.97202  -9.96655  -9.94799
 Alpha  occ. eigenvalues --   -9.94798  -9.94773  -9.19598  -7.02208  -7.01030
 Alpha  occ. eigenvalues --   -7.01002  -0.94231  -0.79987  -0.70346  -0.68497
 Alpha  occ. eigenvalues --   -0.68462  -0.61103  -0.55930  -0.48867  -0.48226
 Alpha  occ. eigenvalues --   -0.46949  -0.44118  -0.40444  -0.39122  -0.38537
 Alpha  occ. eigenvalues --   -0.36852  -0.36244  -0.36208  -0.36099  -0.35775
 Alpha  occ. eigenvalues --   -0.34922  -0.27930  -0.27470
 Alpha virt. eigenvalues --   -0.04373   0.01351   0.02613   0.05008   0.05015
 Alpha virt. eigenvalues --    0.05375   0.05634   0.05750   0.07093   0.08195
 Alpha virt. eigenvalues --    0.09752   0.10924   0.11016   0.11932   0.12579
 Alpha virt. eigenvalues --    0.12779   0.14429   0.14537   0.15371   0.18247
 Alpha virt. eigenvalues --    0.20902   0.21334   0.21642   0.22885   0.23897
 Alpha virt. eigenvalues --    0.25490   0.26119   0.28235   0.29367   0.30184
 Alpha virt. eigenvalues --    0.30966   0.33109   0.33342   0.35012   0.35438
 Alpha virt. eigenvalues --    0.36127   0.37876   0.38930   0.39413   0.40626
 Alpha virt. eigenvalues --    0.40678   0.41623   0.41775   0.42486   0.43754
 Alpha virt. eigenvalues --    0.43938   0.44463   0.44943   0.44978   0.45379
 Alpha virt. eigenvalues --    0.46018   0.47498   0.49857   0.54919   0.57450
 Alpha virt. eigenvalues --    0.64301   0.65631   0.65796   0.68396   0.74767
 Alpha virt. eigenvalues --    0.76224   0.78926   0.83632   0.83764   0.99078
 Alpha virt. eigenvalues --    1.01750   1.04135   1.14081   1.16279   1.16752
 Alpha virt. eigenvalues --    1.17865   1.18682   1.18820   1.20016   1.22335
 Alpha virt. eigenvalues --    1.23672   1.23868   1.26513   1.27533   1.27875
 Alpha virt. eigenvalues --    1.29470   1.30121   1.31050   1.32361   1.35384
 Alpha virt. eigenvalues --    1.37706   1.40976   1.43738   1.44392   1.45928
 Alpha virt. eigenvalues --    1.47330   1.51442   1.51850   1.54793   1.58050
 Alpha virt. eigenvalues --    1.59843   1.62686   1.65331   1.66168   1.68158
 Alpha virt. eigenvalues --    1.68737   1.69201   1.70129   1.70236   1.71362
 Alpha virt. eigenvalues --    1.72368   1.72941   1.73342   1.73963   1.74289
 Alpha virt. eigenvalues --    1.75655   1.82993   1.85151   1.85216   1.86578
 Alpha virt. eigenvalues --    1.88037   1.91482   1.92921   1.96591   1.99471
 Alpha virt. eigenvalues --    2.00310   2.07505   2.11851   2.12665   2.13084
 Alpha virt. eigenvalues --    2.17791   2.20399   2.23809   2.24720   2.25000
 Alpha virt. eigenvalues --    2.29053   2.29803   2.31492   2.32010   2.36769
 Alpha virt. eigenvalues --    2.36958   2.38904   2.39629   2.41412   2.43824
 Alpha virt. eigenvalues --    2.43825   2.49580   2.54534   2.56982   2.57565
 Alpha virt. eigenvalues --    2.61688   2.62732   2.63382   2.65410   2.65757
 Alpha virt. eigenvalues --    2.69732   2.70050   2.71843   2.84042   2.87148
 Alpha virt. eigenvalues --    2.88712   2.93875   2.94854   3.05736   3.07237
 Alpha virt. eigenvalues --    3.11033   3.12894   3.17826   3.20071   3.21403
 Alpha virt. eigenvalues --    3.22033   3.23769   3.25409   3.30232   3.30672
 Alpha virt. eigenvalues --    3.33150   3.56645   3.56715   3.57562  21.59570
 Alpha virt. eigenvalues --   21.79777  21.80179  21.82111  21.83375  24.72636
 Alpha virt. eigenvalues --   31.65582
          Condensed to atoms (all electrons):
               1          2          3          4          5          6
     1  C    5.183891   0.230250  -0.081823  -0.110396  -0.081738   0.003589
     2  N    0.230250   6.544704   0.258524   0.230223   0.141210  -0.010805
     3  C   -0.081823   0.258524   5.130373  -0.081935  -0.113466   0.015759
     4  C   -0.110396   0.230223  -0.081935   5.184233  -0.081701   0.003507
     5  C   -0.081738   0.141210  -0.113466  -0.081701   5.591845   0.112269
     6  C    0.003589  -0.010805   0.015759   0.003507   0.112269   5.145233
     7  Cl  -0.001313   0.009482  -0.000041  -0.001313  -0.048445   0.209317
     8  H    0.393449  -0.017982   0.009282  -0.006697  -0.011614   0.002995
     9  H    0.380812  -0.016761  -0.006338   0.011154  -0.000855  -0.004246
    10  H    0.387937  -0.016335  -0.007217  -0.006513   0.009124   0.000800
    11  H   -0.009203  -0.016397   0.393036  -0.009177   0.010282  -0.000748
    12  H    0.009534  -0.016920   0.388497  -0.005630  -0.008838   0.000356
    13  H   -0.005584  -0.016913   0.388476   0.009537  -0.008880   0.000354
    14  H   -0.006686  -0.017988   0.009284   0.393450  -0.011595   0.002967
    15  H    0.011156  -0.016764  -0.006324   0.380798  -0.000877  -0.004227
    16  H   -0.006526  -0.016352  -0.007212   0.387952   0.009125   0.000800
    17  H    0.012208  -0.015057  -0.004365  -0.016267   0.389045  -0.025192
    18  H   -0.016254  -0.015052  -0.004365   0.012212   0.389061  -0.025271
    19  H   -0.005227  -0.001943  -0.000612   0.015115  -0.048955   0.424459
    20  H    0.015096  -0.001947  -0.000612  -0.005226  -0.048969   0.424512
               7          8          9         10         11         12
     1  C   -0.001313   0.393449   0.380812   0.387937  -0.009203   0.009534
     2  N    0.009482  -0.017982  -0.016761  -0.016335  -0.016397  -0.016920
     3  C   -0.000041   0.009282  -0.006338  -0.007217   0.393036   0.388497
     4  C   -0.001313  -0.006697   0.011154  -0.006513  -0.009177  -0.005630
     5  C   -0.048445  -0.011614  -0.000855   0.009124   0.010282  -0.008838
     6  C    0.209317   0.002995  -0.004246   0.000800  -0.000748   0.000356
     7  Cl  17.009516  -0.000145   0.000288  -0.000017   0.000019  -0.000059
     8  H   -0.000145   0.463067  -0.019248  -0.018619   0.000110  -0.000408
     9  H    0.000288  -0.019248   0.468192  -0.018509   0.000127   0.000021
    10  H   -0.000017  -0.018619  -0.018509   0.464341   0.002864   0.000072
    11  H    0.000019   0.000110   0.000127   0.002864   0.462297  -0.018897
    12  H   -0.000059  -0.000408   0.000021   0.000072  -0.018897   0.468955
    13  H   -0.000059   0.000030   0.002219  -0.000065  -0.018837  -0.019786
    14  H   -0.000144   0.002105   0.000071  -0.000111   0.000109   0.000030
    15  H    0.000289   0.000071  -0.000453  -0.000051   0.000126   0.002225
    16  H   -0.000017  -0.000111  -0.000051   0.002486   0.002867  -0.000066
    17  H    0.009980  -0.000116  -0.000069  -0.000272   0.000063   0.003872
    18  H    0.009987   0.000671   0.002447   0.000026   0.000063  -0.000653
    19  H   -0.029569   0.000037   0.000247  -0.000006   0.000004   0.000059
    20  H   -0.029555  -0.001204  -0.001306   0.000095   0.000004  -0.000013
              13         14         15         16         17         18
     1  C   -0.005584  -0.006686   0.011156  -0.006526   0.012208  -0.016254
     2  N   -0.016913  -0.017988  -0.016764  -0.016352  -0.015057  -0.015052
     3  C    0.388476   0.009284  -0.006324  -0.007212  -0.004365  -0.004365
     4  C    0.009537   0.393450   0.380798   0.387952  -0.016267   0.012212
     5  C   -0.008880  -0.011595  -0.000877   0.009125   0.389045   0.389061
     6  C    0.000354   0.002967  -0.004227   0.000800  -0.025192  -0.025271
     7  Cl  -0.000059  -0.000144   0.000289  -0.000017   0.009980   0.009987
     8  H    0.000030   0.002105   0.000071  -0.000111  -0.000116   0.000671
     9  H    0.002219   0.000071  -0.000453  -0.000051  -0.000069   0.002447
    10  H   -0.000065  -0.000111  -0.000051   0.002486  -0.000272   0.000026
    11  H   -0.018837   0.000109   0.000126   0.002867   0.000063   0.000063
    12  H   -0.019786   0.000030   0.002225  -0.000066   0.003872  -0.000653
    13  H    0.468812  -0.000407   0.000020   0.000071  -0.000653   0.003879
    14  H   -0.000407   0.463012  -0.019256  -0.018595   0.000670  -0.000117
    15  H    0.000020  -0.019256   0.468168  -0.018513   0.002448  -0.000070
    16  H    0.000071  -0.018595  -0.018513   0.464326   0.000027  -0.000273
    17  H   -0.000653   0.000670   0.002448   0.000027   0.440653  -0.014514
    18  H    0.003879  -0.000117  -0.000070  -0.000273  -0.014514   0.440630
    19  H   -0.000013  -0.001209  -0.001310   0.000095  -0.003217   0.003602
    20  H    0.000059   0.000039   0.000247  -0.000006   0.003598  -0.003221
              19         20
     1  C   -0.005227   0.015096
     2  N   -0.001943  -0.001947
     3  C   -0.000612  -0.000612
     4  C    0.015115  -0.005226
     5  C   -0.048955  -0.048969
     6  C    0.424459   0.424512
     7  Cl  -0.029569  -0.029555
     8  H    0.000037  -0.001204
     9  H    0.000247  -0.001306
    10  H   -0.000006   0.000095
    11  H    0.000004   0.000004
    12  H    0.000059  -0.000013
    13  H   -0.000013   0.000059
    14  H   -0.001209   0.000039
    15  H   -0.001310   0.000247
    16  H    0.000095  -0.000006
    17  H   -0.003217   0.003598
    18  H    0.003602  -0.003221
    19  H    0.438919  -0.019918
    20  H   -0.019918   0.438768
 Mulliken charges:
               1
     1  C   -0.303172
     2  N   -0.217175
     3  C   -0.278921
     4  C   -0.303325
     5  C   -0.186027
     6  C   -0.276431
     7  Cl  -0.138200
     8  H    0.204327
     9  H    0.202258
    10  H    0.199970
    11  H    0.201292
    12  H    0.197649
    13  H    0.197739
    14  H    0.204373
    15  H    0.202298
    16  H    0.199972
    17  H    0.217159
    18  H    0.217212
    19  H    0.229442
    20  H    0.229560
 Sum of Mulliken charges =   1.00000
 Mulliken charges with hydrogens summed into heavy atoms:
               1
     1  C    0.303383
     2  N   -0.217175
     3  C    0.317759
     4  C    0.303318
     5  C    0.248344
     6  C    0.182571
     7  Cl  -0.138200
 Electronic spatial extent (au):  <R**2>=           1301.2951
 Charge=              1.0000 electrons
 Dipole moment (field-independent basis, Debye):
    X=              8.4203    Y=             -0.8097    Z=              0.0012  Tot=              8.4591
 Quadrupole moment (field-independent basis, Debye-Ang):
   XX=            -42.1675   YY=            -43.2901   ZZ=            -43.8342
   XY=              1.6388   XZ=              0.0022   YZ=              0.0009
 Traceless Quadrupole moment (field-independent basis, Debye-Ang):
   XX=              0.9298   YY=             -0.1928   ZZ=             -0.7370
   XY=              1.6388   XZ=              0.0022   YZ=              0.0009
 Octapole moment (field-independent basis, Debye-Ang**2):
  XXX=             54.7889  YYY=             -0.5307  ZZZ=              0.0035  XYY=              8.0575
  XXY=              0.9764  XXZ=              0.0053  XZZ=              9.0741  YZZ=             -1.5362
  YYZ=              0.0032  XYZ=              0.0030
 Hexadecapole moment (field-independent basis, Debye-Ang**3):
 XXXX=          -1142.2340 YYYY=           -227.3195 ZZZZ=           -202.2126 XXXY=             -8.5758
 XXXZ=              0.0160 YYYX=              7.6032 YYYZ=              0.0043 ZZZX=              0.0058
 ZZZY=             -0.0001 XXYY=           -224.6758 XXZZ=           -230.3259 YYZZ=            -66.9186
 XXYZ=              0.0053 YYXZ=              0.0038 ZZXY=             -1.1391
 N-N= 4.005300004966D+02 E-N=-2.467951468394D+03  KE= 7.104672507680D+02
 Unable to Open any file for archive entry.
 1\1\GINC-TCN1658\SP\RBP86\TZVP\C5H13Cl1N1(1+)\ELENAA\23-Feb-2021\0\\# 
 BP86/TZVP SCRF=COSMORS geom=CHECKPOINT guess=CHECKPOINT\\COSMO-file fo
 r #JUZXDNPBRPUIOR-UHFFFAOYSA-N\\1,1\C,0,-2.1106031819,1.8386730791,-0.
 3297265556\N,0,-1.1113815988,2.0246535604,0.7903329721\C,0,-0.96070310
 81,3.5048394246,1.0737694882\C,0,-1.6132689492,1.3344550428,2.03905276
 04\C,0,0.2671331797,1.4960263802,0.3883848407\C,0,0.3003765778,0.00633
 4289,0.0643082201\Cl,0,2.0167197616,-0.4064001122,-0.3838990314\H,0,-2
 .2878633072,0.7701128154,-0.4847475122\H,0,-1.707967298,2.2971238631,-
 1.2394096673\H,0,-3.0467839793,2.3270704856,-0.0393569463\H,0,-1.93847
 47417,3.9033251368,1.3638777964\H,0,-0.2412519558,3.6344997331,1.88924
 00311\H,0,-0.6031616053,4.0014186992,0.1654814809\H,0,-1.8041036054,0.
 2796568613,1.8193788903\H,0,-0.8549631585,1.4323130026,2.8234074694\H,
 0,-2.5455388315,1.8188882538,2.3480484929\H,0,0.9403805746,1.718307350
 3,1.2259361374\H,0,0.5812987221,2.0823612135,-0.4843547668\H,0,0.04269
 36701,-0.6238406422,0.9213550029\H,0,-0.3185071652,-0.2576384365,-0.79
 90291034\\Version=ES64L-G16RevC.01\State=1-A\HF=-713.2821365\RMSD=1.08
 4e-09\Dipole=-2.6395714,1.7977554,0.9363854\Quadrupole=-0.8692706,1.29
 89678,-0.4296972,-0.5559859,-0.0500897,0.5083082\PG=C01 [X(C5H13Cl1N1)
 ]\\@
 The archive entry for this job was punched.


    WHAT WE HAVE LEARNED
 IS LIKE A HANDFUL OF EARTH;
  WHAT WE HAVE YET TO LEARN
   IS LIKE THE WHOLE WORLD.

         -- AVVAYIAR
 Job cpu time:       0 days  0 hours  5 minutes 16.8 seconds.
 Elapsed time:       0 days  0 hours  0 minutes 10.4 seconds.
 File lengths (MBytes):  RWF=     43 Int=      0 D2E=      0 Chk=      7 Scr=      1
 Normal termination of Gaussian 16 at Tue Feb 23 00:12:22 2021.
