 Entering Gaussian System, Link 0=g16
 Input=JVTAAEKCZFNVCJ-UHFFFAOYSA-N.gjf
 Output=JVTAAEKCZFNVCJ-UHFFFAOYSA-N.log
 Initial command:
 /sw/arch/RedHatEnterpriseServer7/EB_production/2019/software/Gaussian/g16.c01/l1.exe "/scratch-local/elenaa.9715226/Gau-21642.inp" -scrdir="/scratch-local/elenaa.9715226/"
 Entering Link 1 = /sw/arch/RedHatEnterpriseServer7/EB_production/2019/software/Gaussian/g16.c01/l1.exe PID=     21644.
  
 Copyright (c) 1988-2019, Gaussian, Inc.  All Rights Reserved.
  
 This is part of the Gaussian(R) 16 program.  It is based on
 the Gaussian(R) 09 system (copyright 2009, Gaussian, Inc.),
 the Gaussian(R) 03 system (copyright 2003, Gaussian, Inc.),
 the Gaussian(R) 98 system (copyright 1998, Gaussian, Inc.),
 the Gaussian(R) 94 system (copyright 1995, Gaussian, Inc.),
 the Gaussian 92(TM) system (copyright 1992, Gaussian, Inc.),
 the Gaussian 90(TM) system (copyright 1990, Gaussian, Inc.),
 the Gaussian 88(TM) system (copyright 1988, Gaussian, Inc.),
 the Gaussian 86(TM) system (copyright 1986, Carnegie Mellon
 University), and the Gaussian 82(TM) system (copyright 1983,
 Carnegie Mellon University). Gaussian is a federally registered
 trademark of Gaussian, Inc.
  
 This software contains proprietary and confidential information,
 including trade secrets, belonging to Gaussian, Inc.
  
 This software is provided under written license and may be
 used, copied, transmitted, or stored only in accord with that
 written license.
  
 The following legend is applicable only to US Government
 contracts under FAR:
  
                    RESTRICTED RIGHTS LEGEND
  
 Use, reproduction and disclosure by the US Government is
 subject to restrictions as set forth in subparagraphs (a)
 and (c) of the Commercial Computer Software - Restricted
 Rights clause in FAR 52.227-19.
  
 Gaussian, Inc.
 340 Quinnipiac St., Bldg. 40, Wallingford CT 06492
  
  
 ---------------------------------------------------------------
 Warning -- This program may not be used in any manner that
 competes with the business of Gaussian, Inc. or will provide
 assistance to any competitor of Gaussian, Inc.  The licensee
 of this program is prohibited from giving any competitor of
 Gaussian, Inc. access to this program.  By using this program,
 the user acknowledges that Gaussian, Inc. is engaged in the
 business of creating and licensing software in the field of
 computational chemistry and represents and warrants to the
 licensee that it is not a competitor of Gaussian, Inc. and that
 it will not use this program in any manner prohibited above.
 ---------------------------------------------------------------
  

 Cite this work as:
 Gaussian 16, Revision C.01,
 M. J. Frisch, G. W. Trucks, H. B. Schlegel, G. E. Scuseria, 
 M. A. Robb, J. R. Cheeseman, G. Scalmani, V. Barone, 
 G. A. Petersson, H. Nakatsuji, X. Li, M. Caricato, A. V. Marenich, 
 J. Bloino, B. G. Janesko, R. Gomperts, B. Mennucci, H. P. Hratchian, 
 J. V. Ortiz, A. F. Izmaylov, J. L. Sonnenberg, D. Williams-Young, 
 F. Ding, F. Lipparini, F. Egidi, J. Goings, B. Peng, A. Petrone, 
 T. Henderson, D. Ranasinghe, V. G. Zakrzewski, J. Gao, N. Rega, 
 G. Zheng, W. Liang, M. Hada, M. Ehara, K. Toyota, R. Fukuda, 
 J. Hasegawa, M. Ishida, T. Nakajima, Y. Honda, O. Kitao, H. Nakai, 
 T. Vreven, K. Throssell, J. A. Montgomery, Jr., J. E. Peralta, 
 F. Ogliaro, M. J. Bearpark, J. J. Heyd, E. N. Brothers, K. N. Kudin, 
 V. N. Staroverov, T. A. Keith, R. Kobayashi, J. Normand, 
 K. Raghavachari, A. P. Rendell, J. C. Burant, S. S. Iyengar, 
 J. Tomasi, M. Cossi, J. M. Millam, M. Klene, C. Adamo, R. Cammi, 
 J. W. Ochterski, R. L. Martin, K. Morokuma, O. Farkas, 
 J. B. Foresman, and D. J. Fox, Gaussian, Inc., Wallingford CT, 2019.
 
 ******************************************
 Gaussian 16:  ES64L-G16RevC.01  3-Jul-2019
                22-Feb-2021 
 ******************************************
 %chk=JVTAAEKCZFNVCJ-UHFFFAOYSA-N.chk
 %NProcShared=32
 Will use up to   32 processors via shared memory.
 -------------------------------------------------------------
 #P BP86/TZVP EmpiricalDispersion=GD3 SCRF=(Solvent=Water) Opt
 -------------------------------------------------------------
 1/18=20,19=15,26=3,38=1/1,3;
 2/9=110,12=2,17=6,18=5,40=1/2;
 3/5=19,7=101,11=2,25=1,30=1,70=2201,71=1,72=1,74=404,124=31/1,2,3;
 4//1;
 5/5=2,38=5,53=1/2;
 6/7=2,8=2,9=2,10=2,28=1/1;
 7//1,2,3,16;
 1/18=20,19=15,26=3/3(2);
 2/9=110/2;
 99//99;
 2/9=110/2;
 3/5=19,7=101,11=2,25=1,30=1,70=2205,71=1,72=1,74=404,124=31/1,2,3;
 4/5=5,16=3,69=1/1;
 5/5=2,38=5,53=1/2;
 7//1,2,3,16;
 1/18=20,19=15,26=3/3(-5);
 2/9=110/2;
 6/7=2,8=2,9=2,10=2,19=2,28=1/1;
 99/9=1/99;
 Leave Link    1 at Mon Feb 22 21:11:35 2021, MaxMem=           0 cpu:               1.9 elap:               0.1
 (Enter /sw/arch/RedHatEnterpriseServer7/EB_production/2019/software/Gaussian/g16.c01/l101.exe)
 -------------------------------------
 Particle #JVTAAEKCZFNVCJ-UHFFFAOYSA-N
 -------------------------------------
 Symbolic Z-matrix:
 Charge =  0 Multiplicity = 1
 C                     0.40458  -0.16283  -2.9206 
 C                    -0.85525   0.41003  -2.23404 
 O                    -1.14088   1.70542  -2.75161 
 C                    -0.6945    0.50202  -0.77021 
 O                    -1.44589  -0.13752  -0.00015 
 O                     0.27468   1.27797  -0.23262 
 H                     1.26936   0.48101  -2.74313 
 H                     0.62444  -1.16264  -2.54006 
 H                     0.24205  -0.23296  -3.99818 
 H                    -1.70197  -0.23906  -2.47603 
 H                    -1.97943   1.97369  -2.31677 
 H                     0.3869    1.32341   0.73987 
 
 ITRead=  0  0  0  0  0  0  0  0  0  0  0  0
 MicOpt= -1 -1 -1 -1 -1 -1 -1 -1 -1 -1 -1 -1
 NAtoms=     12 NQM=       12 NQMF=       0 NMMI=      0 NMMIF=      0
                NMic=       0 NMicF=      0.
                    Isotopes and Nuclear Properties:
 (Nuclear quadrupole moments (NQMom) in fm**2, nuclear magnetic moments (NMagM)
  in nuclear magnetons)

  Atom         1           2           3           4           5           6           7           8           9          10
 IAtWgt=          12          12          16          12          16          16           1           1           1           1
 AtmWgt=  12.0000000  12.0000000  15.9949146  12.0000000  15.9949146  15.9949146   1.0078250   1.0078250   1.0078250   1.0078250
 NucSpn=           0           0           0           0           0           0           1           1           1           1
 AtZEff=  -0.0000000  -0.0000000  -0.0000000  -0.0000000  -0.0000000  -0.0000000  -0.0000000  -0.0000000  -0.0000000  -0.0000000
 NQMom=    0.0000000   0.0000000   0.0000000   0.0000000   0.0000000   0.0000000   0.0000000   0.0000000   0.0000000   0.0000000
 NMagM=    0.0000000   0.0000000   0.0000000   0.0000000   0.0000000   0.0000000   2.7928460   2.7928460   2.7928460   2.7928460
 AtZNuc=   6.0000000   6.0000000   8.0000000   6.0000000   8.0000000   8.0000000   1.0000000   1.0000000   1.0000000   1.0000000

  Atom        11          12
 IAtWgt=           1           1
 AtmWgt=   1.0078250   1.0078250
 NucSpn=           1           1
 AtZEff=  -0.0000000  -0.0000000
 NQMom=    0.0000000   0.0000000
 NMagM=    2.7928460   2.7928460
 AtZNuc=   1.0000000   1.0000000
 Leave Link  101 at Mon Feb 22 21:11:36 2021, MaxMem=   104857600 cpu:               2.8 elap:               0.1
 (Enter /sw/arch/RedHatEnterpriseServer7/EB_production/2019/software/Gaussian/g16.c01/l103.exe)

 GradGradGradGradGradGradGradGradGradGradGradGradGradGradGradGradGradGrad
 Berny optimization.
 Initialization pass.
                           ----------------------------
                           !    Initial Parameters    !
                           ! (Angstroms and Degrees)  !
 --------------------------                            --------------------------
 ! Name  Definition              Value          Derivative Info.                !
 --------------------------------------------------------------------------------
 ! R1    R(1,2)                  1.5449         estimate D2E/DX2                !
 ! R2    R(1,7)                  1.0926         estimate D2E/DX2                !
 ! R3    R(1,8)                  1.0921         estimate D2E/DX2                !
 ! R4    R(1,9)                  1.092          estimate D2E/DX2                !
 ! R5    R(2,3)                  1.4239         estimate D2E/DX2                !
 ! R6    R(2,4)                  1.4755         estimate D2E/DX2                !
 ! R7    R(2,10)                 1.094          estimate D2E/DX2                !
 ! R8    R(3,11)                 0.9819         estimate D2E/DX2                !
 ! R9    R(4,5)                  1.2516         estimate D2E/DX2                !
 ! R10   R(4,6)                  1.3529         estimate D2E/DX2                !
 ! R11   R(6,12)                 0.98           estimate D2E/DX2                !
 ! A1    A(2,1,7)              110.7773         estimate D2E/DX2                !
 ! A2    A(2,1,8)              110.4126         estimate D2E/DX2                !
 ! A3    A(2,1,9)              109.936          estimate D2E/DX2                !
 ! A4    A(7,1,8)              108.8754         estimate D2E/DX2                !
 ! A5    A(7,1,9)              108.4159         estimate D2E/DX2                !
 ! A6    A(8,1,9)              108.3607         estimate D2E/DX2                !
 ! A7    A(1,2,3)              109.8396         estimate D2E/DX2                !
 ! A8    A(1,2,4)              112.0345         estimate D2E/DX2                !
 ! A9    A(1,2,10)             108.231          estimate D2E/DX2                !
 ! A10   A(3,2,4)              109.0109         estimate D2E/DX2                !
 ! A11   A(3,2,10)             107.7049         estimate D2E/DX2                !
 ! A12   A(4,2,10)             109.9233         estimate D2E/DX2                !
 ! A13   A(2,3,11)             105.0038         estimate D2E/DX2                !
 ! A14   A(2,4,5)              120.8717         estimate D2E/DX2                !
 ! A15   A(2,4,6)              120.5315         estimate D2E/DX2                !
 ! A16   A(5,4,6)              118.5963         estimate D2E/DX2                !
 ! A17   A(4,6,12)             120.1942         estimate D2E/DX2                !
 ! D1    D(7,1,2,3)             60.081          estimate D2E/DX2                !
 ! D2    D(7,1,2,4)            -61.2255         estimate D2E/DX2                !
 ! D3    D(7,1,2,10)           177.4186         estimate D2E/DX2                !
 ! D4    D(8,1,2,3)           -179.2289         estimate D2E/DX2                !
 ! D5    D(8,1,2,4)             59.4646         estimate D2E/DX2                !
 ! D6    D(8,1,2,10)           -61.8913         estimate D2E/DX2                !
 ! D7    D(9,1,2,3)            -59.7233         estimate D2E/DX2                !
 ! D8    D(9,1,2,4)            178.9702         estimate D2E/DX2                !
 ! D9    D(9,1,2,10)            57.6143         estimate D2E/DX2                !
 ! D10   D(1,2,3,11)           176.2496         estimate D2E/DX2                !
 ! D11   D(4,2,3,11)           -60.6466         estimate D2E/DX2                !
 ! D12   D(10,2,3,11)           58.5843         estimate D2E/DX2                !
 ! D13   D(1,2,4,5)           -118.6114         estimate D2E/DX2                !
 ! D14   D(1,2,4,6)             61.1298         estimate D2E/DX2                !
 ! D15   D(3,2,4,5)            119.606          estimate D2E/DX2                !
 ! D16   D(3,2,4,6)            -60.6528         estimate D2E/DX2                !
 ! D17   D(10,2,4,5)             1.7652         estimate D2E/DX2                !
 ! D18   D(10,2,4,6)          -178.4936         estimate D2E/DX2                !
 ! D19   D(2,4,6,12)          -178.9466         estimate D2E/DX2                !
 ! D20   D(5,4,6,12)             0.8004         estimate D2E/DX2                !
 --------------------------------------------------------------------------------
 Trust Radius=3.00D-01 FncErr=1.00D-07 GrdErr=1.00D-06 EigMax=2.50D+02 EigMin=1.00D-04
 Number of steps in this run=     58 maximum allowed number of steps=    100.
 GradGradGradGradGradGradGradGradGradGradGradGradGradGradGradGradGradGrad

 Leave Link  103 at Mon Feb 22 21:11:36 2021, MaxMem=   104857600 cpu:               0.9 elap:               0.1
 (Enter /sw/arch/RedHatEnterpriseServer7/EB_production/2019/software/Gaussian/g16.c01/l202.exe)
                          Input orientation:                          
 ---------------------------------------------------------------------
 Center     Atomic      Atomic             Coordinates (Angstroms)
 Number     Number       Type             X           Y           Z
 ---------------------------------------------------------------------
      1          6           0        0.404580   -0.162830   -2.920600
      2          6           0       -0.855250    0.410030   -2.234040
      3          8           0       -1.140880    1.705420   -2.751610
      4          6           0       -0.694500    0.502020   -0.770210
      5          8           0       -1.445890   -0.137520   -0.000150
      6          8           0        0.274680    1.277970   -0.232620
      7          1           0        1.269360    0.481010   -2.743130
      8          1           0        0.624440   -1.162640   -2.540060
      9          1           0        0.242050   -0.232960   -3.998180
     10          1           0       -1.701970   -0.239060   -2.476030
     11          1           0       -1.979430    1.973690   -2.316770
     12          1           0        0.386900    1.323410    0.739870
 ---------------------------------------------------------------------
                    Distance matrix (angstroms):
                    1          2          3          4          5
     1  C    0.000000
     2  C    1.544896   0.000000
     3  O    2.430507   1.423903   0.000000
     4  C    2.504831   1.475500   2.360799   0.000000
     5  O    3.457442   2.374643   3.325656   1.251635   0.000000
     6  O    3.052542   2.456775   2.920930   1.352927   2.240093
     7  H    1.092644   2.185904   2.703425   2.783810   3.908849
     8  H    1.092140   2.180922   3.374445   2.764609   3.433406
     9  H    1.092022   2.174786   2.687703   3.440510   4.340794
    10  H    2.154300   1.093989   2.042491   2.115187   2.491158
    11  H    3.257734   1.927604   0.981947   2.491727   3.179403
    12  H    3.950729   3.349827   3.830206   2.030874   2.457858
                    6          7          8          9         10
     6  O    0.000000
     7  H    2.815527   0.000000
     8  H    3.376861   1.777286   0.000000
     9  H    4.057514   1.772081   1.771056   0.000000
    10  H    3.352822   3.068981   2.503854   2.469047   0.000000
    11  H    3.147812   3.600627   4.082470   3.554071   2.235757
    12  H    0.979997   3.690483   4.122476   4.989227   4.140858
                   11         12
    11  H    0.000000
    12  H    3.919876   0.000000
 Stoichiometry    C3H6O3
 Framework group  C1[X(C3H6O3)]
 Deg. of freedom    30
 Full point group                 C1      NOp   1
 Largest Abelian subgroup         C1      NOp   1
 Largest concise Abelian subgroup C1      NOp   1
                         Standard orientation:                         
 ---------------------------------------------------------------------
 Center     Atomic      Atomic             Coordinates (Angstroms)
 Number     Number       Type             X           Y           Z
 ---------------------------------------------------------------------
      1          6           0        1.488886   -1.121806   -0.125736
      2          6           0        0.681158    0.167149   -0.395691
      3          8           0        1.178589    1.227636    0.413893
      4          6           0       -0.757272   -0.013233   -0.120950
      5          8           0       -1.606886    0.124376   -1.029690
      6          8           0       -1.184435   -0.336811    1.121323
      7          1           0        1.407858   -1.417499    0.923011
      8          1           0        1.123726   -1.938412   -0.752299
      9          1           0        2.543175   -0.955830   -0.356905
     10          1           0        0.828176    0.450329   -1.442117
     11          1           0        0.661916    2.017690    0.143553
     12          1           0       -2.139636   -0.470550    1.294811
 ---------------------------------------------------------------------
 Rotational constants (GHZ):           5.0613409           2.6894343           2.6137461
 Leave Link  202 at Mon Feb 22 21:11:36 2021, MaxMem=   104857600 cpu:               0.7 elap:               0.0
 (Enter /sw/arch/RedHatEnterpriseServer7/EB_production/2019/software/Gaussian/g16.c01/l301.exe)
 Standard basis: TZVP (5D, 7F)
 Ernie: Thresh=  0.10000D-02 Tol=  0.10000D-05 Strict=F.
 There are   156 symmetry adapted cartesian basis functions of A   symmetry.
 There are   150 symmetry adapted basis functions of A   symmetry.
   150 basis functions,   258 primitive gaussians,   156 cartesian basis functions
    24 alpha electrons       24 beta electrons
       nuclear repulsion energy       247.4072533536 Hartrees.
 IExCor=  404 DFT=T Ex=B Corr=P86 ExCW=0 ScaHFX=  0.000000
 ScaDFX=  1.000000  1.000000  1.000000  1.000000 ScalE2=  1.000000  1.000000
 IRadAn=      5 IRanWt=     -1 IRanGd=            0 ICorTp=0 IEmpDi=131
 NAtoms=   12 NActive=   12 NUniq=   12 SFac= 1.00D+00 NAtFMM=   60 NAOKFM=F Big=F
 Integral buffers will be    131072 words long.
 Raffenetti 2 integral format.
 Two-electron integral symmetry is turned on.
 R6Disp:  Grimme-D3 Dispersion energy=       -0.0084998200 Hartrees.
 Nuclear repulsion after empirical dispersion term =      247.3987535336 Hartrees.
 ------------------------------------------------------------------------------
 Polarizable Continuum Model (PCM)
 =================================
 Model                : PCM.
 Atomic radii         : UFF (Universal Force Field).
 Polarization charges : Total charges.
 Charge compensation  : None.
 Solution method      : On-the-fly selection.
 Cavity type          : Scaled VdW (van der Waals Surface) (Alpha=1.100).
 Cavity algorithm     : GePol (No added spheres)
                        Default sphere list used, NSphG=   12.
                        Lebedev-Laikov grids with approx.  5.0 points / Ang**2.
                        Smoothing algorithm: York/Karplus (Gamma=1.0000).
                        Polarization charges: spherical gaussians, with
                                              point-specific exponents (IZeta= 3).
                        Self-potential: point-specific (ISelfS= 7).
                        Self-field    : sphere-specific E.n sum rule (ISelfD= 2).
 1st derivatives      : Analytical E(r).r(x)/FMM algorithm (CHGder, D1EAlg=3).
                        Cavity 1st derivative terms included.
 Solvent              : Water, Eps=  78.355300 Eps(inf)=   1.777849
 ------------------------------------------------------------------------------
 Spheres list:
 ISph  on   Nord     Re0    Alpha      Xe            Ye            Ze
    1   C      1    1.9255  1.100      1.488886     -1.121806     -0.125736
    2   C      2    1.9255  1.100      0.681158      0.167149     -0.395691
    3   O      3    1.7500  1.100      1.178589      1.227636      0.413893
    4   C      4    1.9255  1.100     -0.757272     -0.013233     -0.120950
    5   O      5    1.7500  1.100     -1.606886      0.124376     -1.029690
    6   O      6    1.7500  1.100     -1.184435     -0.336811      1.121323
    7   H      7    1.4430  1.100      1.407858     -1.417499      0.923011
    8   H      8    1.4430  1.100      1.123726     -1.938412     -0.752299
    9   H      9    1.4430  1.100      2.543175     -0.955830     -0.356905
   10   H     10    1.4430  1.100      0.828176      0.450329     -1.442117
   11   H     11    1.4430  1.100      0.661916      2.017690      0.143553
   12   H     12    1.4430  1.100     -2.139636     -0.470550      1.294811
 ------------------------------------------------------------------------------
 GePol: Number of generator spheres                  =      12
 GePol: Total number of spheres                      =      12
 GePol: Number of exposed spheres                    =      12 (100.00%)
 GePol: Number of points                             =    1103
 GePol: Average weight of points                     =       0.13
 GePol: Minimum weight of points                     =   0.15D-08
 GePol: Maximum weight of points                     =    0.20577
 GePol: Number of points with low weight             =      72
 GePol: Fraction of low-weight points (<1% of avg)   =       6.53%
 GePol: Cavity surface area                          =    148.059 Ang**2
 GePol: Cavity volume                                =    133.812 Ang**3
 Leave Link  301 at Mon Feb 22 21:11:36 2021, MaxMem=   104857600 cpu:               1.9 elap:               0.1
 (Enter /sw/arch/RedHatEnterpriseServer7/EB_production/2019/software/Gaussian/g16.c01/l302.exe)
 NPDir=0 NMtPBC=     1 NCelOv=     1 NCel=       1 NClECP=     1 NCelD=      1
         NCelK=      1 NCelE2=     1 NClLst=     1 CellRange=     0.0.
 One-electron integrals computed using PRISM.
 One-electron integral symmetry used in STVInt
 PrsmSu:  requested number of processors reduced to:  30 ShMem   1 Linda.
 NBasis=   150 RedAO= T EigKep=  3.22D-04  NBF=   150
 NBsUse=   150 1.00D-06 EigRej= -1.00D+00 NBFU=   150
 Precomputing XC quadrature grid using
 IXCGrd= 4 IRadAn=           5 IRanWt=          -1 IRanGd=           0 AccXCQ= 0.00D+00.
 Generated NRdTot=       0 NPtTot=           0 NUsed=           0 NTot=          32
 NSgBfM=   155   155   155   155   155 MxSgAt=    12 MxSgA2=    12.
 Leave Link  302 at Mon Feb 22 21:11:37 2021, MaxMem=   104857600 cpu:               7.1 elap:               0.3
 (Enter /sw/arch/RedHatEnterpriseServer7/EB_production/2019/software/Gaussian/g16.c01/l303.exe)
 DipDrv:  MaxL=1.
 Leave Link  303 at Mon Feb 22 21:11:37 2021, MaxMem=   104857600 cpu:               1.8 elap:               0.1
 (Enter /sw/arch/RedHatEnterpriseServer7/EB_production/2019/software/Gaussian/g16.c01/l401.exe)
 ExpMin= 9.52D-02 ExpMax= 2.70D+04 ExpMxC= 9.22D+02 IAcc=3 IRadAn=         5 AccDes= 0.00D+00
 Harris functional with IExCor=  404 and IRadAn=       5 diagonalized for initial guess.
 HarFok:  IExCor=  404 AccDes= 0.00D+00 IRadAn=         5 IDoV= 1 UseB2=F ITyADJ=14
 ICtDFT=  3500011 ScaDFX=  1.000000  1.000000  1.000000  1.000000
 FoFCou: FMM=F IPFlag=           0 FMFlag=      100000 FMFlg1=           0
         NFxFlg=           0 DoJE=T BraDBF=F KetDBF=T FulRan=T
         wScrn=  0.000000 ICntrl=       500 IOpCl=  0 I1Cent=   200000004 NGrid=           0
         NMat0=    1 NMatS0=      1 NMatT0=    0 NMatD0=    1 NMtDS0=    0 NMtDT0=    0
 Petite list used in FoFCou.
 Harris En= -343.854800219214    
 JPrj=0 DoOrth=F DoCkMO=F.
 Leave Link  401 at Mon Feb 22 21:11:37 2021, MaxMem=   104857600 cpu:               8.7 elap:               0.3
 (Enter /sw/arch/RedHatEnterpriseServer7/EB_production/2019/software/Gaussian/g16.c01/l502.exe)
 Keep J ints in memory in canonical form, NReq=95651655.
 FoFCou: FMM=F IPFlag=           0 FMFlag=           0 FMFlg1=           0
         NFxFlg=           0 DoJE=F BraDBF=F KetDBF=F FulRan=T
         wScrn=  0.000000 ICntrl=       600 IOpCl=  0 I1Cent=           0 NGrid=           0
         NMat0=    1 NMatS0=  11325 NMatT0=    0 NMatD0=    1 NMtDS0=    0 NMtDT0=    0
 Symmetry not used in FoFCou.
 Two-electron integral symmetry not used.
 Closed shell SCF:
 Using DIIS extrapolation, IDIIS=  1040.
 NGot=   104857600 LenX=    40668483 LenY=    40643706
 Requested convergence on RMS density matrix=1.00D-08 within 128 cycles.
 Requested convergence on MAX density matrix=1.00D-06.
 Requested convergence on             energy=1.00D-06.
 No special actions if energy rises.

 Cycle   1  Pass 1  IDiag  1:
 CoulSu:  requested number of processors reduced to:  17 ShMem   1 Linda.
 Inv3:  Mode=1 IEnd=     3649827.
 Iteration    1 A*A^-1 deviation from unit magnitude is 3.22D-15 for    733.
 Iteration    1 A*A^-1 deviation from orthogonality  is 1.78D-15 for    938    745.
 Iteration    1 A^-1*A deviation from unit magnitude is 4.00D-15 for     19.
 Iteration    1 A^-1*A deviation from orthogonality  is 2.00D-15 for    926    809.
 CoulSu:  requested number of processors reduced to:  17 ShMem   1 Linda.
 CoulSu:  requested number of processors reduced to:  17 ShMem   1 Linda.
 E= -343.558027284953    
 DIIS: error= 3.29D-02 at cycle   1 NSaved=   1.
 NSaved= 1 IEnMin= 1 EnMin= -343.558027284953     IErMin= 1 ErrMin= 3.29D-02
 ErrMax= 3.29D-02  0.00D+00 EMaxC= 1.00D-01 BMatC= 2.48D-01 BMatP= 2.48D-01
 IDIUse=3 WtCom= 6.71D-01 WtEn= 3.29D-01
 Coeff-Com:  0.100D+01
 Coeff-En:   0.100D+01
 Coeff:      0.100D+01
 Gap=     0.071 Goal=   None    Shift=    0.000
 GapD=    0.071 DampG=0.500 DampE=0.500 DampFc=0.2500 IDamp=-1.
 Damping current iteration by 2.50D-01
 RMSDP=1.14D-02 MaxDP=6.46D-01              OVMax= 3.00D-01

 Cycle   2  Pass 1  IDiag  1:
 E= -343.625333579036     Delta-E=       -0.067306294084 Rises=F Damp=T
 DIIS: error= 9.12D-03 at cycle   2 NSaved=   2.
 NSaved= 2 IEnMin= 2 EnMin= -343.625333579036     IErMin= 2 ErrMin= 9.12D-03
 ErrMax= 9.12D-03  0.00D+00 EMaxC= 1.00D-01 BMatC= 2.76D-02 BMatP= 2.48D-01
 IDIUse=3 WtCom= 9.09D-01 WtEn= 9.12D-02
 Coeff-Com: -0.286D+00 0.129D+01
 Coeff-En:   0.303D-01 0.970D+00
 Coeff:     -0.257D+00 0.126D+01
 Gap=     0.156 Goal=   None    Shift=    0.000
 RMSDP=1.87D-03 MaxDP=3.80D-02 DE=-6.73D-02 OVMax= 2.55D-01

 Cycle   3  Pass 1  IDiag  1:
 E= -343.704883221622     Delta-E=       -0.079549642586 Rises=F Damp=F
 DIIS: error= 2.18D-02 at cycle   3 NSaved=   3.
 NSaved= 3 IEnMin= 3 EnMin= -343.704883221622     IErMin= 2 ErrMin= 9.12D-03
 ErrMax= 2.18D-02  0.00D+00 EMaxC= 1.00D-01 BMatC= 6.04D-02 BMatP= 2.76D-02
 IDIUse=2 WtCom= 0.00D+00 WtEn= 1.00D+00
 Coeff-En:   0.195D-01 0.000D+00 0.980D+00
 Coeff:      0.195D-01 0.000D+00 0.980D+00
 Gap=     0.163 Goal=   None    Shift=    0.000
 RMSDP=4.84D-03 MaxDP=1.40D-01 DE=-7.95D-02 OVMax= 3.08D-01

 Cycle   4  Pass 1  IDiag  1:
 E= -343.295327855976     Delta-E=        0.409555365646 Rises=F Damp=F
 DIIS: error= 5.47D-02 at cycle   4 NSaved=   4.
 NSaved= 4 IEnMin= 3 EnMin= -343.704883221622     IErMin= 2 ErrMin= 9.12D-03
 ErrMax= 5.47D-02  0.00D+00 EMaxC= 1.00D-01 BMatC= 5.82D-01 BMatP= 2.76D-02
 IDIUse=2 WtCom= 0.00D+00 WtEn= 1.00D+00
 Coeff-En:   0.000D+00 0.000D+00 0.842D+00 0.158D+00
 Coeff:      0.000D+00 0.000D+00 0.842D+00 0.158D+00
 Gap=     0.142 Goal=   None    Shift=    0.000
 RMSDP=3.01D-03 MaxDP=1.24D-01 DE= 4.10D-01 OVMax= 2.20D-01

 Cycle   5  Pass 1  IDiag  1:
 E= -343.708648369426     Delta-E=       -0.413320513450 Rises=F Damp=F
 DIIS: error= 1.93D-02 at cycle   5 NSaved=   5.
 NSaved= 5 IEnMin= 5 EnMin= -343.708648369426     IErMin= 2 ErrMin= 9.12D-03
 ErrMax= 1.93D-02  0.00D+00 EMaxC= 1.00D-01 BMatC= 5.84D-02 BMatP= 2.76D-02
 IDIUse=2 WtCom= 0.00D+00 WtEn= 1.00D+00
 Coeff-En:   0.000D+00 0.000D+00 0.486D+00 0.000D+00 0.514D+00
 Coeff:      0.000D+00 0.000D+00 0.486D+00 0.000D+00 0.514D+00
 Gap=     0.168 Goal=   None    Shift=    0.000
 RMSDP=1.12D-03 MaxDP=2.49D-02 DE=-4.13D-01 OVMax= 9.71D-02

 Cycle   6  Pass 1  IDiag  1:
 E= -343.753478699292     Delta-E=       -0.044830329866 Rises=F Damp=F
 DIIS: error= 1.78D-03 at cycle   6 NSaved=   6.
 NSaved= 6 IEnMin= 6 EnMin= -343.753478699292     IErMin= 6 ErrMin= 1.78D-03
 ErrMax= 1.78D-03  0.00D+00 EMaxC= 1.00D-01 BMatC= 5.99D-04 BMatP= 2.76D-02
 IDIUse=3 WtCom= 9.82D-01 WtEn= 1.78D-02
 Coeff-Com: -0.208D-01 0.393D-01 0.248D+00-0.336D-01 0.362D+00 0.406D+00
 Coeff-En:   0.000D+00 0.000D+00 0.000D+00 0.000D+00 0.000D+00 0.100D+01
 Coeff:     -0.204D-01 0.386D-01 0.243D+00-0.330D-01 0.355D+00 0.417D+00
 Gap=     0.167 Goal=   None    Shift=    0.000
 RMSDP=1.64D-04 MaxDP=4.91D-03 DE=-4.48D-02 OVMax= 9.80D-03

 Cycle   7  Pass 1  IDiag  1:
 E= -343.753838509455     Delta-E=       -0.000359810163 Rises=F Damp=F
 DIIS: error= 7.09D-04 at cycle   7 NSaved=   7.
 NSaved= 7 IEnMin= 7 EnMin= -343.753838509455     IErMin= 7 ErrMin= 7.09D-04
 ErrMax= 7.09D-04  0.00D+00 EMaxC= 1.00D-01 BMatC= 1.17D-04 BMatP= 5.99D-04
 IDIUse=3 WtCom= 9.93D-01 WtEn= 7.09D-03
 Coeff-Com: -0.132D-01 0.234D-01 0.107D+00-0.249D-01 0.180D+00 0.272D+00
 Coeff-Com:  0.456D+00
 Coeff-En:   0.000D+00 0.000D+00 0.000D+00 0.000D+00 0.000D+00 0.182D+00
 Coeff-En:   0.818D+00
 Coeff:     -0.131D-01 0.232D-01 0.106D+00-0.248D-01 0.179D+00 0.272D+00
 Coeff:      0.459D+00
 Gap=     0.167 Goal=   None    Shift=    0.000
 RMSDP=5.02D-05 MaxDP=7.34D-04 DE=-3.60D-04 OVMax= 2.50D-03

 Cycle   8  Pass 1  IDiag  1:
 E= -343.753922612446     Delta-E=       -0.000084102991 Rises=F Damp=F
 DIIS: error= 1.69D-04 at cycle   8 NSaved=   8.
 NSaved= 8 IEnMin= 8 EnMin= -343.753922612446     IErMin= 8 ErrMin= 1.69D-04
 ErrMax= 1.69D-04  0.00D+00 EMaxC= 1.00D-01 BMatC= 7.57D-06 BMatP= 1.17D-04
 IDIUse=3 WtCom= 9.98D-01 WtEn= 1.69D-03
 Coeff-Com:  0.317D-02-0.541D-02 0.982D-02-0.177D-02 0.111D-01 0.835D-01
 Coeff-Com:  0.166D+00 0.734D+00
 Coeff-En:   0.000D+00 0.000D+00 0.000D+00 0.000D+00 0.000D+00 0.000D+00
 Coeff-En:   0.000D+00 0.100D+01
 Coeff:      0.317D-02-0.540D-02 0.980D-02-0.177D-02 0.111D-01 0.834D-01
 Coeff:      0.166D+00 0.734D+00
 Gap=     0.168 Goal=   None    Shift=    0.000
 RMSDP=1.66D-05 MaxDP=6.59D-04 DE=-8.41D-05 OVMax= 8.12D-04

 Cycle   9  Pass 1  IDiag  1:
 E= -343.753928413975     Delta-E=       -0.000005801529 Rises=F Damp=F
 DIIS: error= 2.41D-05 at cycle   9 NSaved=   9.
 NSaved= 9 IEnMin= 9 EnMin= -343.753928413975     IErMin= 9 ErrMin= 2.41D-05
 ErrMax= 2.41D-05  0.00D+00 EMaxC= 1.00D-01 BMatC= 8.49D-08 BMatP= 7.57D-06
 IDIUse=1 WtCom= 1.00D+00 WtEn= 0.00D+00
 Coeff-Com:  0.121D-02-0.166D-02 0.179D-02-0.279D-03 0.659D-03 0.203D-01
 Coeff-Com:  0.411D-01 0.243D+00 0.694D+00
 Coeff:      0.121D-02-0.166D-02 0.179D-02-0.279D-03 0.659D-03 0.203D-01
 Coeff:      0.411D-01 0.243D+00 0.694D+00
 Gap=     0.168 Goal=   None    Shift=    0.000
 RMSDP=1.92D-06 MaxDP=2.68D-05 DE=-5.80D-06 OVMax= 8.71D-05

 Cycle  10  Pass 1  IDiag  1:
 E= -343.753928470092     Delta-E=       -0.000000056117 Rises=F Damp=F
 DIIS: error= 5.94D-06 at cycle  10 NSaved=  10.
 NSaved=10 IEnMin=10 EnMin= -343.753928470092     IErMin=10 ErrMin= 5.94D-06
 ErrMax= 5.94D-06  0.00D+00 EMaxC= 1.00D-01 BMatC= 1.22D-08 BMatP= 8.49D-08
 IDIUse=1 WtCom= 1.00D+00 WtEn= 0.00D+00
 Coeff-Com:  0.472D-03-0.574D-03 0.459D-03-0.670D-04-0.155D-03 0.571D-02
 Coeff-Com:  0.114D-01 0.818D-01 0.403D+00 0.498D+00
 Coeff:      0.472D-03-0.574D-03 0.459D-03-0.670D-04-0.155D-03 0.571D-02
 Coeff:      0.114D-01 0.818D-01 0.403D+00 0.498D+00
 Gap=     0.168 Goal=   None    Shift=    0.000
 RMSDP=5.90D-07 MaxDP=1.32D-05 DE=-5.61D-08 OVMax= 2.11D-05

 Cycle  11  Pass 1  IDiag  1:
 E= -343.753928482958     Delta-E=       -0.000000012866 Rises=F Damp=F
 DIIS: error= 9.78D-07 at cycle  11 NSaved=  11.
 NSaved=11 IEnMin=11 EnMin= -343.753928482958     IErMin=11 ErrMin= 9.78D-07
 ErrMax= 9.78D-07  0.00D+00 EMaxC= 1.00D-01 BMatC= 2.00D-10 BMatP= 1.22D-08
 IDIUse=1 WtCom= 1.00D+00 WtEn= 0.00D+00
 Coeff-Com:  0.792D-04-0.920D-04 0.379D-04-0.560D-06-0.563D-04 0.358D-03
 Coeff-Com:  0.751D-03 0.668D-02 0.712D-01 0.131D+00 0.791D+00
 Coeff:      0.792D-04-0.920D-04 0.379D-04-0.560D-06-0.563D-04 0.358D-03
 Coeff:      0.751D-03 0.668D-02 0.712D-01 0.131D+00 0.791D+00
 Gap=     0.168 Goal=   None    Shift=    0.000
 RMSDP=7.98D-08 MaxDP=1.09D-06 DE=-1.29D-08 OVMax= 1.97D-06

 Cycle  12  Pass 1  IDiag  1:
 E= -343.753928483098     Delta-E=       -0.000000000140 Rises=F Damp=F
 DIIS: error= 2.21D-07 at cycle  12 NSaved=  12.
 NSaved=12 IEnMin=12 EnMin= -343.753928483098     IErMin=12 ErrMin= 2.21D-07
 ErrMax= 2.21D-07  0.00D+00 EMaxC= 1.00D-01 BMatC= 6.51D-12 BMatP= 2.00D-10
 IDIUse=1 WtCom= 1.00D+00 WtEn= 0.00D+00
 Coeff-Com:  0.708D-05-0.604D-05 0.709D-05-0.100D-05 0.168D-05-0.365D-04
 Coeff-Com: -0.589D-04-0.488D-03 0.678D-02 0.152D-01 0.164D+00 0.815D+00
 Coeff:      0.708D-05-0.604D-05 0.709D-05-0.100D-05 0.168D-05-0.365D-04
 Coeff:     -0.589D-04-0.488D-03 0.678D-02 0.152D-01 0.164D+00 0.815D+00
 Gap=     0.168 Goal=   None    Shift=    0.000
 RMSDP=1.59D-08 MaxDP=3.25D-07 DE=-1.40D-10 OVMax= 8.89D-07

 Cycle  13  Pass 1  IDiag  1:
 E= -343.753928483105     Delta-E=       -0.000000000007 Rises=F Damp=F
 DIIS: error= 2.37D-08 at cycle  13 NSaved=  13.
 NSaved=13 IEnMin=13 EnMin= -343.753928483105     IErMin=13 ErrMin= 2.37D-08
 ErrMax= 2.37D-08  0.00D+00 EMaxC= 1.00D-01 BMatC= 1.94D-13 BMatP= 6.51D-12
 IDIUse=1 WtCom= 1.00D+00 WtEn= 0.00D+00
 Coeff-Com: -0.482D-07 0.854D-06 0.397D-06-0.389D-07 0.574D-07-0.264D-04
 Coeff-Com: -0.506D-04-0.351D-03-0.137D-03 0.564D-03 0.256D-01 0.251D+00
 Coeff-Com:  0.724D+00
 Coeff:     -0.482D-07 0.854D-06 0.397D-06-0.389D-07 0.574D-07-0.264D-04
 Coeff:     -0.506D-04-0.351D-03-0.137D-03 0.564D-03 0.256D-01 0.251D+00
 Coeff:      0.724D+00
 Gap=     0.168 Goal=   None    Shift=    0.000
 RMSDP=4.59D-09 MaxDP=1.19D-07 DE=-6.82D-12 OVMax= 1.59D-07

 CoulSu:  requested number of processors reduced to:  19 ShMem   1 Linda.
 CoulSu:  requested number of processors reduced to:  17 ShMem   1 Linda.
 Error on total polarization charges =  0.00871
 SCF Done:  E(RB-P86) =  -343.753928483     A.U. after   13 cycles
            NFock= 13  Conv=0.46D-08     -V/T= 2.0042
 KE= 3.423294190280D+02 PE=-1.302042862478D+03 EE= 3.685607614333D+02
 Leave Link  502 at Mon Feb 22 21:11:42 2021, MaxMem=   104857600 cpu:             109.7 elap:               4.8
 (Enter /sw/arch/RedHatEnterpriseServer7/EB_production/2019/software/Gaussian/g16.c01/l601.exe)
 Copying SCF densities to generalized density rwf, IOpCl= 0 IROHF=0.

 **********************************************************************

            Population analysis using the SCF Density.

 **********************************************************************

 Orbital symmetries:
       Occupied  (A) (A) (A) (A) (A) (A) (A) (A) (A) (A) (A) (A)
                 (A) (A) (A) (A) (A) (A) (A) (A) (A) (A) (A) (A)
       Virtual   (A) (A) (A) (A) (A) (A) (A) (A) (A) (A) (A) (A)
                 (A) (A) (A) (A) (A) (A) (A) (A) (A) (A) (A) (A)
                 (A) (A) (A) (A) (A) (A) (A) (A) (A) (A) (A) (A)
                 (A) (A) (A) (A) (A) (A) (A) (A) (A) (A) (A) (A)
                 (A) (A) (A) (A) (A) (A) (A) (A) (A) (A) (A) (A)
                 (A) (A) (A) (A) (A) (A) (A) (A) (A) (A) (A) (A)
                 (A) (A) (A) (A) (A) (A) (A) (A) (A) (A) (A) (A)
                 (A) (A) (A) (A) (A) (A) (A) (A) (A) (A) (A) (A)
                 (A) (A) (A) (A) (A) (A) (A) (A) (A) (A) (A) (A)
                 (A) (A) (A) (A) (A) (A) (A) (A) (A) (A) (A) (A)
                 (A) (A) (A) (A) (A) (A)
 The electronic state is 1-A.
 Alpha  occ. eigenvalues --  -18.82588 -18.79070 -18.76713 -10.03846  -9.97488
 Alpha  occ. eigenvalues --   -9.90218  -1.02354  -0.96165  -0.92903  -0.71698
 Alpha  occ. eigenvalues --   -0.62553  -0.57089  -0.50371  -0.45474  -0.43125
 Alpha  occ. eigenvalues --   -0.42415  -0.36987  -0.36883  -0.35665  -0.34421
 Alpha  occ. eigenvalues --   -0.31518  -0.29076  -0.26116  -0.23657
 Alpha virt. eigenvalues --   -0.06902   0.00206   0.03369   0.05685   0.07673
 Alpha virt. eigenvalues --    0.08921   0.10162   0.10890   0.12741   0.14355
 Alpha virt. eigenvalues --    0.17751   0.20872   0.21847   0.22868   0.24637
 Alpha virt. eigenvalues --    0.25014   0.27928   0.28922   0.31981   0.32413
 Alpha virt. eigenvalues --    0.35291   0.36041   0.37791   0.39423   0.41824
 Alpha virt. eigenvalues --    0.42807   0.43109   0.44058   0.44589   0.46132
 Alpha virt. eigenvalues --    0.48274   0.50160   0.52529   0.53601   0.54420
 Alpha virt. eigenvalues --    0.57402   0.57977   0.66044   0.73843   0.76065
 Alpha virt. eigenvalues --    0.83141   0.88587   1.10181   1.13128   1.18488
 Alpha virt. eigenvalues --    1.20873   1.22954   1.24747   1.27277   1.29084
 Alpha virt. eigenvalues --    1.32059   1.32611   1.36278   1.37738   1.40305
 Alpha virt. eigenvalues --    1.42355   1.43562   1.47005   1.49536   1.53359
 Alpha virt. eigenvalues --    1.55252   1.57503   1.62997   1.67764   1.72613
 Alpha virt. eigenvalues --    1.72801   1.75698   1.82237   1.87725   1.89295
 Alpha virt. eigenvalues --    1.90837   1.99189   2.01544   2.04900   2.10149
 Alpha virt. eigenvalues --    2.11407   2.15873   2.21231   2.24858   2.26405
 Alpha virt. eigenvalues --    2.31616   2.36640   2.44006   2.45854   2.49159
 Alpha virt. eigenvalues --    2.51184   2.52470   2.52942   2.54483   2.55349
 Alpha virt. eigenvalues --    2.56468   2.58993   2.61041   2.62553   2.63927
 Alpha virt. eigenvalues --    2.67396   2.74409   2.75853   2.80374   2.82249
 Alpha virt. eigenvalues --    2.85611   2.88259   2.90887   2.96569   3.01676
 Alpha virt. eigenvalues --    3.04029   3.07039   3.08253   3.13308   3.15325
 Alpha virt. eigenvalues --    3.24038   3.25997   3.28941   3.30223   3.45627
 Alpha virt. eigenvalues --    3.81986   3.86832   4.00310   4.14541   4.19748
 Alpha virt. eigenvalues --   21.59040  21.74140  21.78212  43.04089  43.11064
 Alpha virt. eigenvalues --   43.16496
          Condensed to atoms (all electrons):
               1          2          3          4          5          6
     1  C    5.283703   0.132564  -0.092419  -0.029629  -0.003877   0.002407
     2  C    0.132564   5.479208   0.222537   0.071634  -0.111772  -0.082325
     3  O   -0.092419   0.222537   7.975130   0.000853  -0.000291  -0.003066
     4  C   -0.029629   0.071634   0.000853   4.976533   0.599247   0.316010
     5  O   -0.003877  -0.111772  -0.000291   0.599247   7.976097  -0.127110
     6  O    0.002407  -0.082325  -0.003066   0.316010  -0.127110   7.861076
     7  H    0.381096  -0.016193   0.003903  -0.021424   0.000795   0.008142
     8  H    0.367997  -0.019999   0.005675   0.007996   0.001706  -0.001413
     9  H    0.384513  -0.023273   0.005691   0.008613  -0.000563  -0.000235
    10  H   -0.052132   0.461296  -0.049790  -0.089592   0.011542   0.004741
    11  H    0.014586  -0.056437   0.299170   0.016572   0.000918   0.000730
    12  H    0.000032   0.008768  -0.000712  -0.018044   0.002037   0.292205
               7          8          9         10         11         12
     1  C    0.381096   0.367997   0.384513  -0.052132   0.014586   0.000032
     2  C   -0.016193  -0.019999  -0.023273   0.461296  -0.056437   0.008768
     3  O    0.003903   0.005675   0.005691  -0.049790   0.299170  -0.000712
     4  C   -0.021424   0.007996   0.008613  -0.089592   0.016572  -0.018044
     5  O    0.000795   0.001706  -0.000563   0.011542   0.000918   0.002037
     6  O    0.008142  -0.001413  -0.000235   0.004741   0.000730   0.292205
     7  H    0.531385  -0.020466  -0.023018   0.008083  -0.000524  -0.000483
     8  H   -0.020466   0.528892  -0.020190   0.000188  -0.000634  -0.000124
     9  H   -0.023018  -0.020190   0.516474  -0.007587  -0.000477   0.000065
    10  H    0.008083   0.000188  -0.007587   0.533318  -0.007618  -0.000395
    11  H   -0.000524  -0.000634  -0.000477  -0.007618   0.437363  -0.000124
    12  H   -0.000483  -0.000124   0.000065  -0.000395  -0.000124   0.380072
 Mulliken charges:
               1
     1  C   -0.388842
     2  C   -0.066007
     3  O   -0.366682
     4  C    0.161232
     5  O   -0.348729
     6  O   -0.271163
     7  H    0.148704
     8  H    0.150373
     9  H    0.159987
    10  H    0.187948
    11  H    0.296474
    12  H    0.336705
 Sum of Mulliken charges =  -0.00000
 Mulliken charges with hydrogens summed into heavy atoms:
               1
     1  C    0.070223
     2  C    0.121940
     3  O   -0.070208
     4  C    0.161232
     5  O   -0.348729
     6  O    0.065542
 Electronic spatial extent (au):  <R**2>=            565.6137
 Charge=             -0.0000 electrons
 Dipole moment (field-independent basis, Debye):
    X=              0.0694    Y=             -0.3801    Z=              0.6514  Tot=              0.7574
 Quadrupole moment (field-independent basis, Debye-Ang):
   XX=            -36.1408   YY=            -31.2809   ZZ=            -38.8109
   XY=             -0.5729   XZ=             -9.0376   YZ=             -1.1361
 Traceless Quadrupole moment (field-independent basis, Debye-Ang):
   XX=             -0.7299   YY=              4.1299   ZZ=             -3.4000
   XY=             -0.5729   XZ=             -9.0376   YZ=             -1.1361
 Octapole moment (field-independent basis, Debye-Ang**2):
  XXX=            -14.1521  YYY=             13.7857  ZZZ=              5.2339  XYY=             -2.4129
  XXY=             -8.2788  XXZ=             14.7905  XZZ=             -1.2948  YZZ=             -0.9514
  YYZ=             -0.4223  XYZ=             -0.6176
 Hexadecapole moment (field-independent basis, Debye-Ang**3):
 XXXX=           -353.6793 YYYY=           -142.1927 ZZZZ=           -148.7405 XXXY=              7.9953
 XXXZ=            -44.7283 YYYX=             10.2481 YYYZ=              1.8040 ZZZX=            -16.0455
 ZZZY=             -3.3494 XXYY=            -93.9594 XXZZ=            -81.4429 YYZZ=            -52.3352
 XXYZ=             -6.8319 YYXZ=             -3.6743 ZZXY=              4.7312
 N-N= 2.473987535336D+02 E-N=-1.302042864099D+03  KE= 3.423294190280D+02
 No NMR shielding tensors so no spin-rotation constants.
 Leave Link  601 at Mon Feb 22 21:11:42 2021, MaxMem=   104857600 cpu:               6.3 elap:               0.2
 (Enter /sw/arch/RedHatEnterpriseServer7/EB_production/2019/software/Gaussian/g16.c01/l701.exe)
 ... and contract with generalized density number  0.
 Compute integral first derivatives.
 R6Disp: Adding Grimme-D3 dispersion energy 1st derivatives to the gradient.
 PrsmSu:  requested number of processors reduced to:  30 ShMem   1 Linda.
 D1PCM: PCM CHGder 1st derivatives, ID1Alg=3 FixD1E=F DoIter=F DoCFld=F I1PDM=0.
 GePol: Maximum number of non-zero 1st derivatives   =     216
 CoulSu:  requested number of processors reduced to:  29 ShMem   1 Linda.
 CoulSu:  requested number of processors reduced to:  30 ShMem   1 Linda.
 Leave Link  701 at Mon Feb 22 21:11:43 2021, MaxMem=   104857600 cpu:              14.1 elap:               0.5
 (Enter /sw/arch/RedHatEnterpriseServer7/EB_production/2019/software/Gaussian/g16.c01/l702.exe)
 L702 exits ... SP integral derivatives will be done elsewhere.
 Leave Link  702 at Mon Feb 22 21:11:43 2021, MaxMem=   104857600 cpu:               0.8 elap:               0.1
 (Enter /sw/arch/RedHatEnterpriseServer7/EB_production/2019/software/Gaussian/g16.c01/l703.exe)
 Integral derivatives from FoFJK, PRISM(SPDF).
 Compute integral first derivatives, UseDBF=F ICtDFT=           0.
 Calling FoFJK, ICntrl=      2527 FMM=F ISym2X=0 I1Cent= 0 IOpClX= 0 NMat=1 NMatS=1 NMatT=0.
 FoFJK:  IHMeth= 1 ICntrl=    2527 DoSepK=F KAlg= 0 I1Cent=           0 FoldK=F
 IRaf=         0 NMat=       1 IRICut=       1 DoRegI=T DoRafI=F ISym2E= 0 IDoP0=0 IntGTp=1.
 FoFCou: FMM=F IPFlag=           0 FMFlag=      100000 FMFlg1=         800
         NFxFlg=           0 DoJE=F BraDBF=F KetDBF=F FulRan=T
         wScrn=  0.000000 ICntrl=      2527 IOpCl=  0 I1Cent=           0 NGrid=           0
         NMat0=    1 NMatS0=      1 NMatT0=    0 NMatD0=    1 NMtDS0=    0 NMtDT0=    0
 Symmetry not used in FoFCou.
 Leave Link  703 at Mon Feb 22 21:11:44 2021, MaxMem=   104857600 cpu:              17.1 elap:               0.6
 (Enter /sw/arch/RedHatEnterpriseServer7/EB_production/2019/software/Gaussian/g16.c01/l716.exe)
 Dipole        = 2.72848347D-02-1.49560356D-01 2.56269974D-01
 ***** Axes restored to original set *****
 -------------------------------------------------------------------
 Center     Atomic                   Forces (Hartrees/Bohr)
 Number     Number              X              Y              Z
 -------------------------------------------------------------------
      1        6          -0.005871137    0.007099506    0.003380642
      2        6           0.018231014   -0.000415080   -0.028566497
      3        8          -0.004655424    0.014406093   -0.003217118
      4        6          -0.022722907   -0.029645449    0.083317908
      5        8           0.010856978    0.009805858   -0.019791473
      6        8           0.017489929    0.015179689   -0.035200787
      7        1           0.002764233    0.002739692    0.001830351
      8        1           0.000287204   -0.003693706    0.002263211
      9        1          -0.002642532    0.000063566   -0.003876882
     10        1          -0.002783055   -0.007168547    0.008149169
     11        1           0.004168167    0.002972254   -0.006167234
     12        1          -0.015122471   -0.011343875   -0.002121290
 -------------------------------------------------------------------
 Cartesian Forces:  Max     0.083317908 RMS     0.018866248
 Leave Link  716 at Mon Feb 22 21:11:44 2021, MaxMem=   104857600 cpu:               0.7 elap:               0.1
 (Enter /sw/arch/RedHatEnterpriseServer7/EB_production/2019/software/Gaussian/g16.c01/l103.exe)

 GradGradGradGradGradGradGradGradGradGradGradGradGradGradGradGradGradGrad
 Berny optimization.
 FormGI is forming the generalized inverse of G from B-inverse, IUseBI=4.
 Internal  Forces:  Max     0.034256783 RMS     0.010431543
 Search for a local minimum.
 Step number   1 out of a maximum of   58
 All quantities printed in internal units (Hartrees-Bohrs-Radians)
 RMS Force = .10432D-01 SwitMx=.10000D-02 MixMth= 1
 Mixed Optimization -- RFO/linear search
 Second derivative matrix not updated -- first step.
 ITU=  0
     Eigenvalues ---    0.00230   0.01090   0.01376   0.01386   0.02314
     Eigenvalues ---    0.04982   0.05429   0.05494   0.05600   0.08141
     Eigenvalues ---    0.16000   0.16000   0.16000   0.16000   0.16000
     Eigenvalues ---    0.17806   0.19947   0.25000   0.25000   0.28090
     Eigenvalues ---    0.34356   0.34509   0.34567   0.34580   0.35090
     Eigenvalues ---    0.41878   0.51008   0.51385   0.54403   0.82636
 RFO step:  Lambda=-1.99317739D-02 EMin= 2.30000000D-03
 Linear search not attempted -- first point.
 Iteration  1 RMS(Cart)=  0.06114169 RMS(Int)=  0.00265902
 Iteration  2 RMS(Cart)=  0.00328833 RMS(Int)=  0.00031253
 Iteration  3 RMS(Cart)=  0.00000526 RMS(Int)=  0.00031251
 Iteration  4 RMS(Cart)=  0.00000000 RMS(Int)=  0.00031251
 ITry= 1 IFail=0 DXMaxC= 1.60D-01 DCOld= 1.00D+10 DXMaxT= 3.00D-01 DXLimC= 3.00D+00 Rises=F
 Variable       Old X    -DE/DX   Delta X   Delta X   Delta X     New X
                                 (Linear)    (Quad)   (Total)
    R1        2.91943  -0.00835   0.00000  -0.02776  -0.02776   2.89167
    R2        2.06480   0.00410   0.00000   0.01123   0.01123   2.07602
    R3        2.06384   0.00423   0.00000   0.01158   0.01158   2.07543
    R4        2.06362   0.00421   0.00000   0.01151   0.01151   2.07514
    R5        2.69079   0.01932   0.00000   0.04405   0.04405   2.73483
    R6        2.78829   0.02396   0.00000   0.06461   0.06461   2.85291
    R7        2.06734   0.00460   0.00000   0.01267   0.01267   2.08001
    R8        1.85561  -0.00549   0.00000  -0.01035  -0.01035   1.84526
    R9        2.36525  -0.02371   0.00000  -0.02801  -0.02801   2.33724
   R10        2.55666  -0.01093   0.00000  -0.01939  -0.01939   2.53727
   R11        1.85193  -0.00436   0.00000  -0.00817  -0.00817   1.84375
    A1        1.93343  -0.00088   0.00000  -0.00448  -0.00450   1.92893
    A2        1.92706  -0.00079   0.00000  -0.00516  -0.00520   1.92187
    A3        1.91875  -0.00238   0.00000  -0.01287  -0.01290   1.90584
    A4        1.90023   0.00076   0.00000   0.00355   0.00353   1.90377
    A5        1.89221   0.00193   0.00000   0.01225   0.01224   1.90445
    A6        1.89125   0.00148   0.00000   0.00743   0.00738   1.89863
    A7        1.91706  -0.00893   0.00000  -0.03771  -0.03743   1.87963
    A8        1.95537  -0.00006   0.00000  -0.00954  -0.00956   1.94581
    A9        1.88899   0.00378   0.00000   0.01550   0.01507   1.90406
   A10        1.90260   0.00782   0.00000   0.04110   0.04106   1.94366
   A11        1.87981   0.00416   0.00000   0.05011   0.05071   1.93052
   A12        1.91852  -0.00673   0.00000  -0.05770  -0.05809   1.86043
   A13        1.83266   0.01063   0.00000   0.05909   0.05909   1.89176
   A14        2.10961   0.00880   0.00000   0.03260   0.03255   2.14216
   A15        2.10367  -0.03323   0.00000  -0.12310  -0.12316   1.98051
   A16        2.06990   0.02444   0.00000   0.09057   0.09051   2.16041
   A17        2.09779  -0.03426   0.00000  -0.19039  -0.19039   1.90740
    D1        1.04861   0.00064   0.00000  -0.00815  -0.00809   1.04052
    D2       -1.06859  -0.00306   0.00000  -0.02780  -0.02800  -1.09658
    D3        3.09654   0.00283   0.00000   0.03992   0.04006   3.13660
    D4       -3.12813   0.00050   0.00000  -0.01006  -0.01001  -3.13814
    D5        1.03785  -0.00321   0.00000  -0.02971  -0.02992   1.00794
    D6       -1.08021   0.00269   0.00000   0.03801   0.03814  -1.04207
    D7       -1.04237   0.00033   0.00000  -0.01224  -0.01218  -1.05455
    D8        3.12362  -0.00337   0.00000  -0.03190  -0.03209   3.09153
    D9        1.00556   0.00252   0.00000   0.03582   0.03597   1.04153
   D10        3.07614   0.00018   0.00000  -0.00961  -0.00967   3.06647
   D11       -1.05848  -0.00054   0.00000  -0.01891  -0.01980  -1.07828
   D12        1.02249  -0.00183   0.00000  -0.03623  -0.03529   0.98720
   D13       -2.07016  -0.00229   0.00000  -0.00720  -0.00757  -2.07772
   D14        1.06692  -0.00160   0.00000   0.01280   0.01226   1.07918
   D15        2.08752   0.00363   0.00000   0.01832   0.01808   2.10560
   D16       -1.05859   0.00431   0.00000   0.03832   0.03791  -1.02069
   D17        0.03081  -0.00213   0.00000  -0.03321  -0.03234  -0.00153
   D18       -3.11530  -0.00144   0.00000  -0.01321  -0.01251  -3.12782
   D19       -3.12321  -0.00098   0.00000  -0.02513  -0.02538   3.13460
   D20        0.01397  -0.00035   0.00000  -0.00571  -0.00546   0.00851
         Item               Value     Threshold  Converged?
 Maximum Force            0.034257     0.000450     NO 
 RMS     Force            0.010432     0.000300     NO 
 Maximum Displacement     0.159783     0.001800     NO 
 RMS     Displacement     0.062375     0.001200     NO 
 Predicted change in Energy=-1.091452D-02
 Lowest energy point so far.  Saving SCF results.
 GradGradGradGradGradGradGradGradGradGradGradGradGradGradGradGradGradGrad

 Leave Link  103 at Mon Feb 22 21:11:44 2021, MaxMem=   104857600 cpu:               0.8 elap:               0.1
 (Enter /sw/arch/RedHatEnterpriseServer7/EB_production/2019/software/Gaussian/g16.c01/l202.exe)
                          Input orientation:                          
 ---------------------------------------------------------------------
 Center     Atomic      Atomic             Coordinates (Angstroms)
 Number     Number       Type             X           Y           Z
 ---------------------------------------------------------------------
      1          6           0        0.398830   -0.142630   -2.899534
      2          6           0       -0.858194    0.405237   -2.220371
      3          8           0       -1.118247    1.718515   -2.770002
      4          6           0       -0.697452    0.458868   -0.720218
      5          8           0       -1.425658   -0.174163    0.053535
      6          8           0        0.293805    1.269866   -0.317174
      7          1           0        1.255323    0.520691   -2.717016
      8          1           0        0.631321   -1.143828   -2.512569
      9          1           0        0.223032   -0.213631   -3.981159
     10          1           0       -1.701190   -0.273116   -2.422155
     11          1           0       -1.956686    2.049203   -2.394290
     12          1           0        0.339206    1.263528    0.657421
 ---------------------------------------------------------------------
                    Distance matrix (angstroms):
                    1          2          3          4          5
     1  C    0.000000
     2  C    1.530206   0.000000
     3  O    2.404613   1.447211   0.000000
     4  C    2.512579   1.509693   2.442416   0.000000
     5  O    3.471364   2.414201   3.413077   1.236812   0.000000
     6  O    2.945295   2.386806   2.865579   1.342667   2.275785
     7  H    1.098584   2.174153   2.659216   2.793628   3.917452
     8  H    1.098268   2.168788   3.364561   2.747143   3.428746
     9  H    1.098115   2.156948   2.645585   3.454458   4.358726
    10  H    2.157546   1.100692   2.104142   2.107102   2.492940
    11  H    3.256970   1.984831   0.976470   2.630086   3.349208
    12  H    3.825280   3.232973   3.752121   1.902637   2.355075
                    6          7          8          9         10
     6  O    0.000000
     7  H    2.691658   0.000000
     8  H    3.280183   1.789357   0.000000
     9  H    3.953550   1.789668   1.785700   0.000000
    10  H    3.285079   3.075393   2.491370   2.477229   0.000000
    11  H    3.160140   3.571765   4.111839   3.519906   2.336497
    12  H    0.975672   3.574619   3.991181   4.869488   4.001035
                   11         12
    11  H    0.000000
    12  H    3.898890   0.000000
 Stoichiometry    C3H6O3
 Framework group  C1[X(C3H6O3)]
 Deg. of freedom    30
 Full point group                 C1      NOp   1
 RotChk:  IX=0 Diff= 1.45D-01
 Largest Abelian subgroup         C1      NOp   1
 Largest concise Abelian subgroup C1      NOp   1
                         Standard orientation:                         
 ---------------------------------------------------------------------
 Center     Atomic      Atomic             Coordinates (Angstroms)
 Number     Number       Type             X           Y           Z
 ---------------------------------------------------------------------
      1          6           0        1.430858   -1.146565   -0.082868
      2          6           0        0.652517    0.120621   -0.443362
      3          8           0        1.253204    1.224795    0.273852
      4          6           0       -0.813772   -0.017913   -0.111735
      5          8           0       -1.703054    0.055602   -0.968169
      6          8           0       -1.050699   -0.208035    1.196115
      7          1           0        1.388082   -1.329952    0.999457
      8          1           0        1.008519   -2.012203   -0.610594
      9          1           0        2.479306   -1.024786   -0.385828
     10          1           0        0.714935    0.284638   -1.529973
     11          1           0        0.808459    2.049346   -0.001485
     12          1           0       -2.012527   -0.282796    1.341829
 ---------------------------------------------------------------------
 Rotational constants (GHZ):           5.1064572           2.6805512           2.6166107
 Leave Link  202 at Mon Feb 22 21:11:44 2021, MaxMem=   104857600 cpu:               0.7 elap:               0.1
 (Enter /sw/arch/RedHatEnterpriseServer7/EB_production/2019/software/Gaussian/g16.c01/l301.exe)
 Standard basis: TZVP (5D, 7F)
 Ernie: Thresh=  0.10000D-02 Tol=  0.10000D-05 Strict=F.
 There are   156 symmetry adapted cartesian basis functions of A   symmetry.
 There are   150 symmetry adapted basis functions of A   symmetry.
   150 basis functions,   258 primitive gaussians,   156 cartesian basis functions
    24 alpha electrons       24 beta electrons
       nuclear repulsion energy       247.4239088971 Hartrees.
 IExCor=  404 DFT=T Ex=B Corr=P86 ExCW=0 ScaHFX=  0.000000
 ScaDFX=  1.000000  1.000000  1.000000  1.000000 ScalE2=  1.000000  1.000000
 IRadAn=      5 IRanWt=     -1 IRanGd=            0 ICorTp=0 IEmpDi=131
 NAtoms=   12 NActive=   12 NUniq=   12 SFac= 1.00D+00 NAtFMM=   60 NAOKFM=F Big=F
 Integral buffers will be    131072 words long.
 Raffenetti 2 integral format.
 Two-electron integral symmetry is turned on.
 R6Disp:  Grimme-D3 Dispersion energy=       -0.0087552371 Hartrees.
 Nuclear repulsion after empirical dispersion term =      247.4151536600 Hartrees.
 ------------------------------------------------------------------------------
 Polarizable Continuum Model (PCM)
 =================================
 Model                : PCM.
 Atomic radii         : UFF (Universal Force Field).
 Polarization charges : Total charges.
 Charge compensation  : None.
 Solution method      : On-the-fly selection.
 Cavity type          : Scaled VdW (van der Waals Surface) (Alpha=1.100).
 Cavity algorithm     : GePol (No added spheres)
                        Default sphere list used, NSphG=   12.
                        Lebedev-Laikov grids with approx.  5.0 points / Ang**2.
                        Smoothing algorithm: York/Karplus (Gamma=1.0000).
                        Polarization charges: spherical gaussians, with
                                              point-specific exponents (IZeta= 3).
                        Self-potential: point-specific (ISelfS= 7).
                        Self-field    : sphere-specific E.n sum rule (ISelfD= 2).
 1st derivatives      : Analytical E(r).r(x)/FMM algorithm (CHGder, D1EAlg=3).
                        Cavity 1st derivative terms included.
 Solvent              : Water, Eps=  78.355300 Eps(inf)=   1.777849
 ------------------------------------------------------------------------------
 Spheres list:
 ISph  on   Nord     Re0    Alpha      Xe            Ye            Ze
    1   C      1    1.9255  1.100      1.430858     -1.146565     -0.082868
    2   C      2    1.9255  1.100      0.652517      0.120621     -0.443362
    3   O      3    1.7500  1.100      1.253204      1.224795      0.273852
    4   C      4    1.9255  1.100     -0.813772     -0.017913     -0.111735
    5   O      5    1.7500  1.100     -1.703054      0.055602     -0.968169
    6   O      6    1.7500  1.100     -1.050699     -0.208035      1.196115
    7   H      7    1.4430  1.100      1.388082     -1.329952      0.999457
    8   H      8    1.4430  1.100      1.008519     -2.012203     -0.610594
    9   H      9    1.4430  1.100      2.479306     -1.024786     -0.385828
   10   H     10    1.4430  1.100      0.714935      0.284638     -1.529973
   11   H     11    1.4430  1.100      0.808459      2.049346     -0.001485
   12   H     12    1.4430  1.100     -2.012527     -0.282796      1.341829
 ------------------------------------------------------------------------------
 GePol: Number of generator spheres                  =      12
 GePol: Total number of spheres                      =      12
 GePol: Number of exposed spheres                    =      12 (100.00%)
 GePol: Number of points                             =    1078
 GePol: Average weight of points                     =       0.14
 GePol: Minimum weight of points                     =   0.17D-08
 GePol: Maximum weight of points                     =    0.20577
 GePol: Number of points with low weight             =      46
 GePol: Fraction of low-weight points (<1% of avg)   =       4.27%
 GePol: Cavity surface area                          =    147.955 Ang**2
 GePol: Cavity volume                                =    134.055 Ang**3
 Leave Link  301 at Mon Feb 22 21:11:44 2021, MaxMem=   104857600 cpu:               1.8 elap:               0.1
 (Enter /sw/arch/RedHatEnterpriseServer7/EB_production/2019/software/Gaussian/g16.c01/l302.exe)
 NPDir=0 NMtPBC=     1 NCelOv=     1 NCel=       1 NClECP=     1 NCelD=      1
         NCelK=      1 NCelE2=     1 NClLst=     1 CellRange=     0.0.
 One-electron integrals computed using PRISM.
 One-electron integral symmetry used in STVInt
 PrsmSu:  requested number of processors reduced to:  30 ShMem   1 Linda.
 NBasis=   150 RedAO= T EigKep=  3.18D-04  NBF=   150
 NBsUse=   150 1.00D-06 EigRej= -1.00D+00 NBFU=   150
 Precomputing XC quadrature grid using
 IXCGrd= 4 IRadAn=           5 IRanWt=          -1 IRanGd=           0 AccXCQ= 0.00D+00.
 Generated NRdTot=       0 NPtTot=           0 NUsed=           0 NTot=          32
 NSgBfM=   155   155   155   155   155 MxSgAt=    12 MxSgA2=    12.
 Leave Link  302 at Mon Feb 22 21:11:44 2021, MaxMem=   104857600 cpu:               4.5 elap:               0.2
 (Enter /sw/arch/RedHatEnterpriseServer7/EB_production/2019/software/Gaussian/g16.c01/l303.exe)
 DipDrv:  MaxL=1.
 Leave Link  303 at Mon Feb 22 21:11:44 2021, MaxMem=   104857600 cpu:               4.3 elap:               0.2
 (Enter /sw/arch/RedHatEnterpriseServer7/EB_production/2019/software/Gaussian/g16.c01/l401.exe)
 Initial guess from the checkpoint file:  "JVTAAEKCZFNVCJ-UHFFFAOYSA-N.chk"
 B after Tr=     0.000000    0.000000   -0.000000
         Rot=    0.998625    0.043498   -0.026829    0.011638 Ang=   6.01 deg.
 Guess basis will be translated and rotated to current coordinates.
 JPrj=2 DoOrth=T DoCkMO=T.
 Generating alternative initial guess.
 ExpMin= 9.52D-02 ExpMax= 2.70D+04 ExpMxC= 9.22D+02 IAcc=3 IRadAn=         5 AccDes= 0.00D+00
 Harris functional with IExCor=  404 and IRadAn=       5 diagonalized for initial guess.
 HarFok:  IExCor=  404 AccDes= 0.00D+00 IRadAn=         5 IDoV= 1 UseB2=F ITyADJ=14
 ICtDFT=  3500011 ScaDFX=  1.000000  1.000000  1.000000  1.000000
 FoFCou: FMM=F IPFlag=           0 FMFlag=      100000 FMFlg1=           0
         NFxFlg=           0 DoJE=T BraDBF=F KetDBF=T FulRan=T
         wScrn=  0.000000 ICntrl=       500 IOpCl=  0 I1Cent=   200000004 NGrid=           0
         NMat0=    1 NMatS0=      1 NMatT0=    0 NMatD0=    1 NMtDS0=    0 NMtDT0=    0
 Petite list used in FoFCou.
 Harris En= -343.861999398260    
 Leave Link  401 at Mon Feb 22 21:11:45 2021, MaxMem=   104857600 cpu:               9.0 elap:               0.3
 (Enter /sw/arch/RedHatEnterpriseServer7/EB_production/2019/software/Gaussian/g16.c01/l502.exe)
 Keep J ints in memory in canonical form, NReq=95651655.
 FoFCou: FMM=F IPFlag=           0 FMFlag=           0 FMFlg1=           0
         NFxFlg=           0 DoJE=F BraDBF=F KetDBF=F FulRan=T
         wScrn=  0.000000 ICntrl=       600 IOpCl=  0 I1Cent=           0 NGrid=           0
         NMat0=    1 NMatS0=  11325 NMatT0=    0 NMatD0=    1 NMtDS0=    0 NMtDT0=    0
 Symmetry not used in FoFCou.
 Two-electron integral symmetry not used.
 Closed shell SCF:
 Using DIIS extrapolation, IDIIS=  1040.
 NGot=   104857600 LenX=    40668483 LenY=    40643706
 Requested convergence on RMS density matrix=1.00D-08 within 128 cycles.
 Requested convergence on MAX density matrix=1.00D-06.
 Requested convergence on             energy=1.00D-06.
 No special actions if energy rises.

 Cycle   1  Pass 1  IDiag  1:
 CoulSu:  requested number of processors reduced to:  18 ShMem   1 Linda.
 Inv3:  Mode=1 IEnd=     3486252.
 Iteration    1 A*A^-1 deviation from unit magnitude is 2.33D-15 for    640.
 Iteration    1 A*A^-1 deviation from orthogonality  is 2.29D-15 for   1019    112.
 Iteration    1 A^-1*A deviation from unit magnitude is 2.22D-15 for    368.
 Iteration    1 A^-1*A deviation from orthogonality  is 1.69D-15 for    542    195.
 CoulSu:  requested number of processors reduced to:  18 ShMem   1 Linda.
 CoulSu:  requested number of processors reduced to:  18 ShMem   1 Linda.
 E= -343.758972868296    
 DIIS: error= 3.54D-03 at cycle   1 NSaved=   1.
 NSaved= 1 IEnMin= 1 EnMin= -343.758972868296     IErMin= 1 ErrMin= 3.54D-03
 ErrMax= 3.54D-03  0.00D+00 EMaxC= 1.00D-01 BMatC= 4.88D-03 BMatP= 4.88D-03
 IDIUse=3 WtCom= 9.65D-01 WtEn= 3.54D-02
 Coeff-Com:  0.100D+01
 Coeff-En:   0.100D+01
 Coeff:      0.100D+01
 Gap=     0.615 Goal=   None    Shift=    0.000
 GapD=    0.615 DampG=2.000 DampE=1.000 DampFc=2.0000 IDamp=-1.
 RMSDP=1.14D-03 MaxDP=3.47D-02              OVMax= 2.45D-02

 Cycle   2  Pass 1  IDiag  1:
 E= -343.763679120925     Delta-E=       -0.004706252628 Rises=F Damp=F
 DIIS: error= 3.14D-03 at cycle   2 NSaved=   2.
 NSaved= 2 IEnMin= 2 EnMin= -343.763679120925     IErMin= 2 ErrMin= 3.14D-03
 ErrMax= 3.14D-03  0.00D+00 EMaxC= 1.00D-01 BMatC= 1.89D-03 BMatP= 4.88D-03
 IDIUse=3 WtCom= 9.69D-01 WtEn= 3.14D-02
 Coeff-Com:  0.318D+00 0.682D+00
 Coeff-En:   0.000D+00 0.100D+01
 Coeff:      0.308D+00 0.692D+00
 Gap=     0.174 Goal=   None    Shift=    0.000
 RMSDP=5.99D-04 MaxDP=2.19D-02 DE=-4.71D-03 OVMax= 4.59D-02

 Cycle   3  Pass 1  IDiag  1:
 E= -343.760822933108     Delta-E=        0.002856187817 Rises=F Damp=F
 DIIS: error= 6.53D-03 at cycle   3 NSaved=   3.
 NSaved= 3 IEnMin= 2 EnMin= -343.763679120925     IErMin= 2 ErrMin= 3.14D-03
 ErrMax= 6.53D-03  0.00D+00 EMaxC= 1.00D-01 BMatC= 5.68D-03 BMatP= 1.89D-03
 IDIUse=3 WtCom= 1.10D-01 WtEn= 8.90D-01
 Coeff-Com:  0.245D-01 0.624D+00 0.352D+00
 Coeff-En:   0.000D+00 0.686D+00 0.314D+00
 Coeff:      0.270D-02 0.679D+00 0.318D+00
 Gap=     0.175 Goal=   None    Shift=    0.000
 RMSDP=3.26D-04 MaxDP=1.24D-02 DE= 2.86D-03 OVMax= 2.52D-02

 Cycle   4  Pass 1  IDiag  1:
 E= -343.764893546150     Delta-E=       -0.004070613043 Rises=F Damp=F
 DIIS: error= 8.37D-04 at cycle   4 NSaved=   4.
 NSaved= 4 IEnMin= 4 EnMin= -343.764893546150     IErMin= 4 ErrMin= 8.37D-04
 ErrMax= 8.37D-04  0.00D+00 EMaxC= 1.00D-01 BMatC= 1.98D-04 BMatP= 1.89D-03
 IDIUse=3 WtCom= 9.92D-01 WtEn= 8.37D-03
 Coeff-Com:  0.154D-02 0.363D+00 0.120D+00 0.515D+00
 Coeff-En:   0.000D+00 0.144D+00 0.000D+00 0.856D+00
 Coeff:      0.152D-02 0.361D+00 0.119D+00 0.518D+00
 Gap=     0.175 Goal=   None    Shift=    0.000
 RMSDP=8.96D-05 MaxDP=3.17D-03 DE=-4.07D-03 OVMax= 4.42D-03

 Cycle   5  Pass 1  IDiag  1:
 E= -343.765039265141     Delta-E=       -0.000145718991 Rises=F Damp=F
 DIIS: error= 9.43D-05 at cycle   5 NSaved=   5.
 NSaved= 5 IEnMin= 5 EnMin= -343.765039265141     IErMin= 5 ErrMin= 9.43D-05
 ErrMax= 9.43D-05  0.00D+00 EMaxC= 1.00D-01 BMatC= 3.26D-06 BMatP= 1.98D-04
 IDIUse=1 WtCom= 1.00D+00 WtEn= 0.00D+00
 Coeff-Com: -0.466D-04 0.140D+00 0.363D-01 0.282D+00 0.542D+00
 Coeff:     -0.466D-04 0.140D+00 0.363D-01 0.282D+00 0.542D+00
 Gap=     0.175 Goal=   None    Shift=    0.000
 RMSDP=1.24D-05 MaxDP=1.92D-04 DE=-1.46D-04 OVMax= 4.44D-04

 Cycle   6  Pass 1  IDiag  1:
 E= -343.765041459512     Delta-E=       -0.000002194370 Rises=F Damp=F
 DIIS: error= 4.34D-05 at cycle   6 NSaved=   6.
 NSaved= 6 IEnMin= 6 EnMin= -343.765041459512     IErMin= 6 ErrMin= 4.34D-05
 ErrMax= 4.34D-05  0.00D+00 EMaxC= 1.00D-01 BMatC= 4.79D-07 BMatP= 3.26D-06
 IDIUse=1 WtCom= 1.00D+00 WtEn= 0.00D+00
 Coeff-Com: -0.160D-03 0.543D-01 0.114D-01 0.133D+00 0.344D+00 0.457D+00
 Coeff:     -0.160D-03 0.543D-01 0.114D-01 0.133D+00 0.344D+00 0.457D+00
 Gap=     0.175 Goal=   None    Shift=    0.000
 RMSDP=3.48D-06 MaxDP=7.35D-05 DE=-2.19D-06 OVMax= 2.01D-04

 Cycle   7  Pass 1  IDiag  1:
 E= -343.765041816740     Delta-E=       -0.000000357228 Rises=F Damp=F
 DIIS: error= 7.20D-06 at cycle   7 NSaved=   7.
 NSaved= 7 IEnMin= 7 EnMin= -343.765041816740     IErMin= 7 ErrMin= 7.20D-06
 ErrMax= 7.20D-06  0.00D+00 EMaxC= 1.00D-01 BMatC= 1.78D-08 BMatP= 4.79D-07
 IDIUse=1 WtCom= 1.00D+00 WtEn= 0.00D+00
 Coeff-Com: -0.673D-04 0.112D-01 0.119D-02 0.353D-01 0.104D+00 0.220D+00
 Coeff-Com:  0.629D+00
 Coeff:     -0.673D-04 0.112D-01 0.119D-02 0.353D-01 0.104D+00 0.220D+00
 Coeff:      0.629D+00
 Gap=     0.175 Goal=   None    Shift=    0.000
 RMSDP=8.75D-07 MaxDP=1.57D-05 DE=-3.57D-07 OVMax= 2.65D-05

 Cycle   8  Pass 1  IDiag  1:
 E= -343.765041811509     Delta-E=        0.000000005231 Rises=F Damp=F
 DIIS: error= 2.23D-06 at cycle   8 NSaved=   8.
 NSaved= 8 IEnMin= 7 EnMin= -343.765041816740     IErMin= 8 ErrMin= 2.23D-06
 ErrMax= 2.23D-06  0.00D+00 EMaxC= 1.00D-01 BMatC= 1.83D-09 BMatP= 1.78D-08
 IDIUse=1 WtCom= 1.00D+00 WtEn= 0.00D+00
 Coeff-Com: -0.218D-04 0.349D-02 0.529D-04 0.125D-01 0.381D-01 0.966D-01
 Coeff-Com:  0.347D+00 0.502D+00
 Coeff:     -0.218D-04 0.349D-02 0.529D-04 0.125D-01 0.381D-01 0.966D-01
 Coeff:      0.347D+00 0.502D+00
 Gap=     0.175 Goal=   None    Shift=    0.000
 RMSDP=3.59D-07 MaxDP=1.57D-05 DE= 5.23D-09 OVMax= 7.31D-06

 Cycle   9  Pass 1  IDiag  1:
 E= -343.765041813074     Delta-E=       -0.000000001565 Rises=F Damp=F
 DIIS: error= 6.18D-07 at cycle   9 NSaved=   9.
 NSaved= 9 IEnMin= 7 EnMin= -343.765041816740     IErMin= 9 ErrMin= 6.18D-07
 ErrMax= 6.18D-07  0.00D+00 EMaxC= 1.00D-01 BMatC= 5.19D-11 BMatP= 1.83D-09
 IDIUse=1 WtCom= 1.00D+00 WtEn= 0.00D+00
 Coeff-Com: -0.347D-05 0.328D-03-0.120D-03 0.152D-02 0.523D-02 0.150D-01
 Coeff-Com:  0.696D-01 0.148D+00 0.761D+00
 Coeff:     -0.347D-05 0.328D-03-0.120D-03 0.152D-02 0.523D-02 0.150D-01
 Coeff:      0.696D-01 0.148D+00 0.761D+00
 Gap=     0.175 Goal=   None    Shift=    0.000
 RMSDP=5.82D-08 MaxDP=1.17D-06 DE=-1.56D-09 OVMax= 2.70D-06

 Cycle  10  Pass 1  IDiag  1:
 E= -343.765041813122     Delta-E=       -0.000000000048 Rises=F Damp=F
 DIIS: error= 5.36D-08 at cycle  10 NSaved=  10.
 NSaved=10 IEnMin= 7 EnMin= -343.765041816740     IErMin=10 ErrMin= 5.36D-08
 ErrMax= 5.36D-08  0.00D+00 EMaxC= 1.00D-01 BMatC= 8.80D-13 BMatP= 5.19D-11
 IDIUse=1 WtCom= 1.00D+00 WtEn= 0.00D+00
 Coeff-Com: -0.629D-06-0.700D-05-0.385D-04 0.997D-04 0.581D-03 0.172D-02
 Coeff-Com:  0.117D-01 0.296D-01 0.230D+00 0.726D+00
 Coeff:     -0.629D-06-0.700D-05-0.385D-04 0.997D-04 0.581D-03 0.172D-02
 Coeff:      0.117D-01 0.296D-01 0.230D+00 0.726D+00
 Gap=     0.175 Goal=   None    Shift=    0.000
 RMSDP=7.88D-09 MaxDP=1.30D-07 DE=-4.80D-11 OVMax= 2.43D-07

 CoulSu:  requested number of processors reduced to:  19 ShMem   1 Linda.
 CoulSu:  requested number of processors reduced to:  17 ShMem   1 Linda.
 Error on total polarization charges =  0.00877
 SCF Done:  E(RB-P86) =  -343.765041813     A.U. after   10 cycles
            NFock= 10  Conv=0.79D-08     -V/T= 2.0042
 KE= 3.423198480117D+02 PE=-1.302017798101D+03 EE= 3.685177546162D+02
 Leave Link  502 at Mon Feb 22 21:11:49 2021, MaxMem=   104857600 cpu:              90.0 elap:               3.9
 (Enter /sw/arch/RedHatEnterpriseServer7/EB_production/2019/software/Gaussian/g16.c01/l701.exe)
 ... and contract with generalized density number  0.
 Compute integral first derivatives.
 R6Disp: Adding Grimme-D3 dispersion energy 1st derivatives to the gradient.
 PrsmSu:  requested number of processors reduced to:  30 ShMem   1 Linda.
 D1PCM: PCM CHGder 1st derivatives, ID1Alg=3 FixD1E=F DoIter=F DoCFld=F I1PDM=0.
 GePol: Maximum number of non-zero 1st derivatives   =     213
 CoulSu:  requested number of processors reduced to:  29 ShMem   1 Linda.
 CoulSu:  requested number of processors reduced to:  30 ShMem   1 Linda.
 Leave Link  701 at Mon Feb 22 21:11:49 2021, MaxMem=   104857600 cpu:              14.3 elap:               0.5
 (Enter /sw/arch/RedHatEnterpriseServer7/EB_production/2019/software/Gaussian/g16.c01/l702.exe)
 L702 exits ... SP integral derivatives will be done elsewhere.
 Leave Link  702 at Mon Feb 22 21:11:49 2021, MaxMem=   104857600 cpu:               0.8 elap:               0.1
 (Enter /sw/arch/RedHatEnterpriseServer7/EB_production/2019/software/Gaussian/g16.c01/l703.exe)
 Integral derivatives from FoFJK, PRISM(SPDF).
 Compute integral first derivatives, UseDBF=F ICtDFT=           0.
 Calling FoFJK, ICntrl=      2527 FMM=F ISym2X=0 I1Cent= 0 IOpClX= 0 NMat=1 NMatS=1 NMatT=0.
 FoFJK:  IHMeth= 1 ICntrl=    2527 DoSepK=F KAlg= 0 I1Cent=           0 FoldK=F
 IRaf=         0 NMat=       1 IRICut=       1 DoRegI=T DoRafI=F ISym2E= 0 IDoP0=0 IntGTp=1.
 FoFCou: FMM=F IPFlag=           0 FMFlag=      100000 FMFlg1=         800
         NFxFlg=           0 DoJE=F BraDBF=F KetDBF=F FulRan=T
         wScrn=  0.000000 ICntrl=      2527 IOpCl=  0 I1Cent=           0 NGrid=           0
         NMat0=    1 NMatS0=      1 NMatT0=    0 NMatD0=    1 NMtDS0=    0 NMtDT0=    0
 Symmetry not used in FoFCou.
 Leave Link  703 at Mon Feb 22 21:11:50 2021, MaxMem=   104857600 cpu:              18.6 elap:               0.6
 (Enter /sw/arch/RedHatEnterpriseServer7/EB_production/2019/software/Gaussian/g16.c01/l716.exe)
 Dipole        =-4.00016488D-02-6.33277532D-02 2.33744948D-01
 ***** Axes restored to original set *****
 -------------------------------------------------------------------
 Center     Atomic                   Forces (Hartrees/Bohr)
 Number     Number              X              Y              Z
 -------------------------------------------------------------------
      1        6          -0.001855377    0.002145146    0.000510678
      2        6           0.002350528    0.001937336   -0.013811528
      3        8           0.001358169   -0.001157286    0.001033574
      4        6          -0.017610437   -0.012475713    0.018909654
      5        8           0.012066676    0.008396070   -0.008054715
      6        8           0.005897563    0.004339999   -0.004315249
      7        1          -0.000064955   -0.000038087    0.000340621
      8        1           0.000641894   -0.000615857   -0.000046938
      9        1          -0.000054121   -0.000293695   -0.000287484
     10        1          -0.001981588    0.000071736    0.001152445
     11        1           0.000572779   -0.001338531   -0.000573521
     12        1          -0.001321132   -0.000971116    0.005142463
 -------------------------------------------------------------------
 Cartesian Forces:  Max     0.018909654 RMS     0.006296127
 Leave Link  716 at Mon Feb 22 21:11:50 2021, MaxMem=   104857600 cpu:               0.6 elap:               0.0
 (Enter /sw/arch/RedHatEnterpriseServer7/EB_production/2019/software/Gaussian/g16.c01/l103.exe)

 GradGradGradGradGradGradGradGradGradGradGradGradGradGradGradGradGradGrad
 Berny optimization.
 Using GEDIIS/GDIIS optimizer.
 FormGI is forming the generalized inverse of G from B-inverse, IUseBI=4.
 Internal  Forces:  Max     0.016441523 RMS     0.003308746
 Search for a local minimum.
 Step number   2 out of a maximum of   58
 All quantities printed in internal units (Hartrees-Bohrs-Radians)
 RMS Force = .33087D-02 SwitMx=.10000D-02 MixMth= 1
 Mixed Optimization -- RFO/linear search
 Update second derivatives using D2CorX and points    1    2
 DE= -1.11D-02 DEPred=-1.09D-02 R= 1.02D+00
 TightC=F SS=  1.41D+00  RLast= 3.09D-01 DXNew= 5.0454D-01 9.2791D-01
 Trust test= 1.02D+00 RLast= 3.09D-01 DXMaxT set to 5.05D-01
 ITU=  1  0
 Use linear search instead of GDIIS.
     Eigenvalues ---    0.00230   0.01089   0.01375   0.01409   0.02315
     Eigenvalues ---    0.05213   0.05555   0.05598   0.05699   0.07865
     Eigenvalues ---    0.15463   0.16000   0.16000   0.16000   0.16453
     Eigenvalues ---    0.17413   0.20024   0.23993   0.26372   0.28000
     Eigenvalues ---    0.33503   0.34384   0.34530   0.34573   0.34697
     Eigenvalues ---    0.42712   0.50954   0.51777   0.55668   0.80543
 RFO step:  Lambda=-1.31999395D-03 EMin= 2.30000286D-03
 Quartic linear search produced a step of  0.09471.
 Iteration  1 RMS(Cart)=  0.02000620 RMS(Int)=  0.00045801
 Iteration  2 RMS(Cart)=  0.00042975 RMS(Int)=  0.00016837
 Iteration  3 RMS(Cart)=  0.00000018 RMS(Int)=  0.00016837
 ITry= 1 IFail=0 DXMaxC= 7.18D-02 DCOld= 1.00D+10 DXMaxT= 5.05D-01 DXLimC= 3.00D+00 Rises=F
 Variable       Old X    -DE/DX   Delta X   Delta X   Delta X     New X
                                 (Linear)    (Quad)   (Total)
    R1        2.89167  -0.00175  -0.00263  -0.00577  -0.00839   2.88328
    R2        2.07602  -0.00002   0.00106  -0.00045   0.00062   2.07664
    R3        2.07543   0.00068   0.00110   0.00175   0.00285   2.07828
    R4        2.07514   0.00031   0.00109   0.00057   0.00167   2.07680
    R5        2.73483  -0.00279   0.00417  -0.00872  -0.00455   2.73029
    R6        2.85291   0.01148   0.00612   0.03343   0.03955   2.89246
    R7        2.08001   0.00126   0.00120   0.00356   0.00476   2.08477
    R8        1.84526  -0.00117  -0.00098  -0.00217  -0.00315   1.84211
    R9        2.33724  -0.01644  -0.00265  -0.02092  -0.02358   2.31366
   R10        2.53727   0.00566  -0.00184   0.01197   0.01014   2.54741
   R11        1.84375   0.00508  -0.00077   0.01105   0.01028   1.85403
    A1        1.92893  -0.00045  -0.00043  -0.00320  -0.00362   1.92531
    A2        1.92187   0.00082  -0.00049   0.00565   0.00516   1.92702
    A3        1.90584   0.00010  -0.00122   0.00181   0.00058   1.90642
    A4        1.90377  -0.00030   0.00033  -0.00315  -0.00281   1.90095
    A5        1.90445   0.00022   0.00116   0.00125   0.00241   1.90686
    A6        1.89863  -0.00040   0.00070  -0.00238  -0.00169   1.89694
    A7        1.87963  -0.00138  -0.00355  -0.00733  -0.01084   1.86879
    A8        1.94581   0.00045  -0.00091   0.00242   0.00150   1.94732
    A9        1.90406   0.00123   0.00143   0.01391   0.01532   1.91938
   A10        1.94366   0.00061   0.00389  -0.00121   0.00267   1.94632
   A11        1.93052   0.00017   0.00480  -0.00306   0.00183   1.93234
   A12        1.86043  -0.00102  -0.00550  -0.00421  -0.00977   1.85066
   A13        1.89176  -0.00142   0.00560  -0.01234  -0.00674   1.88502
   A14        2.14216   0.00423   0.00308   0.01745   0.01998   2.16214
   A15        1.98051  -0.00160  -0.01166  -0.00199  -0.01419   1.96632
   A16        2.16041  -0.00262   0.00857  -0.01460  -0.00655   2.15385
   A17        1.90740  -0.00331  -0.01803  -0.01376  -0.03179   1.87561
    D1        1.04052   0.00006  -0.00077  -0.00348  -0.00422   1.03630
    D2       -1.09658  -0.00006  -0.00265   0.00141  -0.00125  -1.09784
    D3        3.13660   0.00015   0.00379  -0.00353   0.00026   3.13686
    D4       -3.13814  -0.00007  -0.00095  -0.00580  -0.00673   3.13831
    D5        1.00794  -0.00019  -0.00283  -0.00091  -0.00376   1.00417
    D6       -1.04207   0.00002   0.00361  -0.00585  -0.00225  -1.04432
    D7       -1.05455   0.00000  -0.00115  -0.00419  -0.00532  -1.05987
    D8        3.09153  -0.00011  -0.00304   0.00070  -0.00235   3.08919
    D9        1.04153   0.00010   0.00341  -0.00423  -0.00083   1.04070
   D10        3.06647  -0.00017  -0.00092  -0.02016  -0.02108   3.04539
   D11       -1.07828  -0.00015  -0.00188  -0.02281  -0.02476  -1.10304
   D12        0.98720  -0.00092  -0.00334  -0.03082  -0.03408   0.95312
   D13       -2.07772   0.00000  -0.00072   0.05178   0.05116  -2.02656
   D14        1.07918  -0.00076   0.00116  -0.00869  -0.00770   1.07148
   D15        2.10560   0.00104   0.00171   0.06030   0.06211   2.16771
   D16       -1.02069   0.00027   0.00359  -0.00018   0.00325  -1.01743
   D17       -0.00153   0.00112  -0.00306   0.06739   0.06452   0.06299
   D18       -3.12782   0.00036  -0.00119   0.00692   0.00566  -3.12216
   D19        3.13460   0.00017  -0.00240   0.02212   0.01930  -3.12928
   D20        0.00851  -0.00067  -0.00052  -0.03941  -0.03951  -0.03100
         Item               Value     Threshold  Converged?
 Maximum Force            0.016442     0.000450     NO 
 RMS     Force            0.003309     0.000300     NO 
 Maximum Displacement     0.071756     0.001800     NO 
 RMS     Displacement     0.019937     0.001200     NO 
 Predicted change in Energy=-7.717933D-04
 Lowest energy point so far.  Saving SCF results.
 GradGradGradGradGradGradGradGradGradGradGradGradGradGradGradGradGradGrad

 Leave Link  103 at Mon Feb 22 21:11:50 2021, MaxMem=   104857600 cpu:               0.7 elap:               0.1
 (Enter /sw/arch/RedHatEnterpriseServer7/EB_production/2019/software/Gaussian/g16.c01/l202.exe)
                          Input orientation:                          
 ---------------------------------------------------------------------
 Center     Atomic      Atomic             Coordinates (Angstroms)
 Number     Number       Type             X           Y           Z
 ---------------------------------------------------------------------
      1          6           0        0.392765   -0.139192   -2.898548
      2          6           0       -0.863119    0.408142   -2.226880
[...]
 ! D16   D(3,2,4,6)              8.4905                                         !
 ! D17   D(10,2,4,5)            65.3827                                         !
 ! D18   D(10,2,4,6)          -112.5875                                         !
 ! D19   D(2,4,6,12)           177.1984                                         !
 ! D20   D(5,4,6,12)            -0.7701                                         !
 --------------------------------------------------------------------------------
                          Input orientation:                          
 ---------------------------------------------------------------------
 Center     Atomic      Atomic             Coordinates (Angstroms)
 Number     Number       Type             X           Y           Z
 ---------------------------------------------------------------------
      1          6           0        0.287859   -0.302580   -2.993910
      2          6           0       -0.781423    0.465273   -2.219450
      3          8           0       -0.858659    1.782834   -2.771557
      4          6           0       -0.483703    0.428113   -0.713211
      5          8           0       -0.269307   -0.600898   -0.093488
      6          8           0       -0.527915    1.656177   -0.137844
      7          1           0        1.260583    0.201117   -2.897104
      8          1           0        0.376303   -1.326753   -2.610208
      9          1           0        0.011791   -0.341204   -4.056008
     10          1           0       -1.752779   -0.060037   -2.322860
     11          1           0       -1.505681    2.295150   -2.252706
     12          1           0       -0.372979    1.541347    0.824817
 ---------------------------------------------------------------------
                    Distance matrix (angstroms):
                    1          2          3          4          5
     1  C    0.000000
     2  C    1.527335   0.000000
     3  O    2.390167   1.430649   0.000000
     4  C    2.516110   1.535830   2.492519   0.000000
     5  O    2.968481   2.432838   3.633397   1.220199   0.000000
     6  O    3.557996   2.411556   2.657420   1.356887   2.272274
     7  H    1.099670   2.167667   2.647410   2.804184   3.293031
     8  H    1.097261   2.168959   3.349732   2.723558   2.697696
     9  H    1.098070   2.156975   2.630406   3.465784   3.980958
    10  H    2.161790   1.109133   2.096892   2.107087   2.731908
    11  H    3.242587   1.968274   0.974839   2.626844   3.818106
    12  H    4.291789   3.254585   3.637047   1.901862   2.333076
                    6          7          8          9         10
     6  O    0.000000
     7  H    3.595753   0.000000
     8  H    3.978451   1.788476   0.000000
     9  H    4.430895   1.787918   1.787321   0.000000
    10  H    3.036442   3.078686   2.494019   2.489290   0.000000
    11  H    2.415980   3.528801   4.097299   3.536239   2.369153
    12  H    0.981787   4.279887   4.537270   5.245427   3.791589
                   11         12
    11  H    0.000000
    12  H    3.364875   0.000000
 Stoichiometry    C3H6O3
 Framework group  C1[X(C3H6O3)]
 Deg. of freedom    30
 Full point group                 C1      NOp   1
 Largest Abelian subgroup         C1      NOp   1
 Largest concise Abelian subgroup C1      NOp   1
                         Standard orientation:                         
 ---------------------------------------------------------------------
 Center     Atomic      Atomic             Coordinates (Angstroms)
 Number     Number       Type             X           Y           Z
 ---------------------------------------------------------------------
      1          6           0        1.527601   -1.029032    0.344141
      2          6           0        0.689382    0.018106   -0.386366
      3          8           0        1.202012    1.307707   -0.038664
      4          6           0       -0.801798   -0.174255   -0.073071
      5          8           0       -1.384132   -1.239721   -0.193725
      6          8           0       -1.411501    0.975918    0.309689
      7          1           0        1.457250   -0.879268    1.431292
      8          1           0        1.175697   -2.039079    0.099295
      9          1           0        2.578117   -0.932669    0.039366
     10          1           0        0.766970   -0.152233   -1.479591
     11          1           0        0.643351    1.984335   -0.463381
     12          1           0       -2.363525    0.778766    0.446388
 ---------------------------------------------------------------------
 Rotational constants (GHZ):           5.0556803           3.2677356           2.1557415
 Standard basis: TZVP (5D, 7F)
 There are   156 symmetry adapted cartesian basis functions of A   symmetry.
 There are   150 symmetry adapted basis functions of A   symmetry.
   150 basis functions,   258 primitive gaussians,   156 cartesian basis functions
    24 alpha electrons       24 beta electrons
       nuclear repulsion energy       247.3265642069 Hartrees.
 NAtoms=   12 NActive=   12 NUniq=   12 SFac= 1.00D+00 NAtFMM=   60 NAOKFM=F Big=F
 Integral buffers will be    131072 words long.
 Raffenetti 2 integral format.
 Two-electron integral symmetry is turned on.
 Warning! Using old PCM defaults because the COSMOthermo output has been requested.
 These settings can be overridden by following keywords.
 ------------------------------------------------------------------------------
 Polarizable Continuum Model (PCM)
 =================================
 Model                : C-PCM.
 Atomic radii         : Klamt.
 XCosmo               : -1.000 (infinite dielectric limit)
 Polarization charges : Electronic and nuclear charges.
 Charge compensation  : Type 3 (Electronic density weighted correction).
 Solution method      : On-the-fly selection.
 Cavity type          : VdW (van der Waals Surface) (Alpha=1.000).
 Cavity algorithm     : GePol (No added spheres)
                        Default sphere list used, NSphG=   12.
                        Tesserae with average area of 0.200 Ang**2.
                        Smoothing algorithm: None.
                        Polarization charges: point-like.
                        Self-potential: constant (ISelfS= 1).
                        Self-field    : global E.n sum rule (ISelfD= 3).
 Solvent              : Water, Eps=  78.355300 Eps(inf)=   1.777849
 ------------------------------------------------------------------------------
 Spheres list:
 ISph  on   Nord     Re0    Alpha      Xe            Ye            Ze
    1   C      1    2.0000  1.000      1.527601     -1.029032      0.344141
    2   C      2    2.0000  1.000      0.689382      0.018106     -0.386366
    3   O      3    1.7200  1.000      1.202012      1.307707     -0.038664
    4   C      4    2.0000  1.000     -0.801798     -0.174255     -0.073071
    5   O      5    1.7200  1.000     -1.384132     -1.239721     -0.193725
    6   O      6    1.7200  1.000     -1.411501      0.975918      0.309689
    7   H      7    1.3000  1.000      1.457250     -0.879268      1.431292
    8   H      8    1.3000  1.000      1.175697     -2.039079      0.099295
    9   H      9    1.3000  1.000      2.578117     -0.932669      0.039366
   10   H     10    1.3000  1.000      0.766970     -0.152233     -1.479591
   11   H     11    1.3000  1.000      0.643351      1.984335     -0.463381
   12   H     12    1.3000  1.000     -2.363525      0.778766      0.446388
 ------------------------------------------------------------------------------
 One-electron integrals computed using PRISM.
 PrsmSu:  requested number of processors reduced to:  30 ShMem   1 Linda.
 NBasis=   150 RedAO= T EigKep=  3.58D-04  NBF=   150
 NBsUse=   150 1.00D-06 EigRej= -1.00D+00 NBFU=   150
 Initial guess from the checkpoint file:  "JVTAAEKCZFNVCJ-UHFFFAOYSA-N.chk"
 B after Tr=    -0.000000   -0.000000   -0.000000
         Rot=    1.000000    0.000000    0.000000    0.000000 Ang=   0.00 deg.
 Keep J ints in memory in canonical form, NReq=95651655.
 Requested convergence on RMS density matrix=1.00D-08 within 128 cycles.
 Requested convergence on MAX density matrix=1.00D-06.
 Requested convergence on             energy=1.00D-06.
 No special actions if energy rises.
 Inv3:  Mode=1 IEnd=     2142075.
 Iteration    1 A*A^-1 deviation from unit magnitude is 3.00D-15 for    382.
 Iteration    1 A*A^-1 deviation from orthogonality  is 1.44D-15 for    597    270.
 Iteration    1 A^-1*A deviation from unit magnitude is 3.33D-15 for    123.
 Iteration    1 A^-1*A deviation from orthogonality  is 1.78D-15 for    499     61.
 Error on nuclear    polarization charges =  0.00883
 Error on electronic polarization charges = -0.03164
 SCF Done:  E(RB-P86) =  -343.766497111     A.U. after   11 cycles
            NFock= 11  Conv=0.34D-08     -V/T= 2.0043
 --------------------------------------------------------------------
 Variational C-PCM results
 =========================
 <psi(f)|   H    |psi(f)>                     (a.u.) =    -343.746114
 <psi(f)|H+V(f)/2|psi(f)>                     (a.u.) =    -343.766497
 Total free energy in solution:
 - with all non electrostatic terms           (a.u.) =    -343.758180
 --------------------------------------------------------------------
 (Polarized solute)-Solvent               (kcal/mol) =     -12.79
 --------------------------------------------------------------------
 Cavitation energy                        (kcal/mol) =      16.00
 Dispersion energy                        (kcal/mol) =     -11.84
 Repulsion energy                         (kcal/mol) =       1.06
 Total non electrostatic                  (kcal/mol) =       5.22
 --------------------------------------------------------------------
 Partition over spheres:
 Sphere  on Atom  Surface  Charge   GEl     GCav    GDR
    1      C1      17.17   0.008   -0.07    2.02   -1.15
    2      C2       5.73  -0.025   -0.33    0.67   -0.14
    3      O3      15.39   0.175   -2.51    1.91   -1.34
    4      C4      10.03  -0.041   -0.33    1.18   -0.58
    5      O5      19.85   0.234   -3.15    2.47   -1.65
    6      O6      14.57   0.065   -0.50    1.81   -1.26
    7      H7       6.53  -0.031   -0.09    0.92   -0.74
    8      H8       6.32  -0.032   -0.04    0.89   -0.61
    9      H9       6.51  -0.032   -0.13    0.92   -0.75
   10      H10      6.64  -0.048   -0.51    0.94   -0.88
   11      H11      7.62  -0.117   -1.87    1.07   -0.77
   12      H12      8.49  -0.156   -3.26    1.20   -0.90
 --------------------------------------------------------------------
 - cavitation energy not included in the total energy.
 - dispersion energy not included in the total energy.
 - repulsion  energy not included in the total energy.
 After PCM corrections, the energy is  -343.766497111     a.u.
 --------------------------------------------------------------------
 Writing COSMO formatted file "JVTAAEKCZFNVCJ-UHFFFAOYSA-N.cosmo"
 Recomputed dielectric energy= -0.020453 old= -0.020383 diff=-7.00D-05

 **********************************************************************

            Population analysis using the SCF Density.

 **********************************************************************

 Orbital symmetries:
       Occupied  (A) (A) (A) (A) (A) (A) (A) (A) (A) (A) (A) (A)
                 (A) (A) (A) (A) (A) (A) (A) (A) (A) (A) (A) (A)
       Virtual   (A) (A) (A) (A) (A) (A) (A) (A) (A) (A) (A) (A)
                 (A) (A) (A) (A) (A) (A) (A) (A) (A) (A) (A) (A)
                 (A) (A) (A) (A) (A) (A) (A) (A) (A) (A) (A) (A)
                 (A) (A) (A) (A) (A) (A) (A) (A) (A) (A) (A) (A)
                 (A) (A) (A) (A) (A) (A) (A) (A) (A) (A) (A) (A)
                 (A) (A) (A) (A) (A) (A) (A) (A) (A) (A) (A) (A)
                 (A) (A) (A) (A) (A) (A) (A) (A) (A) (A) (A) (A)
                 (A) (A) (A) (A) (A) (A) (A) (A) (A) (A) (A) (A)
                 (A) (A) (A) (A) (A) (A) (A) (A) (A) (A) (A) (A)
                 (A) (A) (A) (A) (A) (A) (A) (A) (A) (A) (A) (A)
                 (A) (A) (A) (A) (A) (A)
 The electronic state is 1-A.
 Alpha  occ. eigenvalues --  -18.82806 -18.78202 -18.77432 -10.03595  -9.97119
 Alpha  occ. eigenvalues --   -9.89549  -1.02970  -0.95060  -0.94481  -0.70676
 Alpha  occ. eigenvalues --   -0.61667  -0.54494  -0.49663  -0.45248  -0.44714
 Alpha  occ. eigenvalues --   -0.40262  -0.37620  -0.36832  -0.34864  -0.33299
 Alpha  occ. eigenvalues --   -0.32039  -0.29799  -0.27004  -0.23528
 Alpha virt. eigenvalues --   -0.05251   0.01253   0.05086   0.05482   0.07715
 Alpha virt. eigenvalues --    0.10479   0.10648   0.11455   0.12824   0.15275
 Alpha virt. eigenvalues --    0.18407   0.20107   0.21951   0.22563   0.24545
 Alpha virt. eigenvalues --    0.26291   0.27728   0.30431   0.32340   0.33104
 Alpha virt. eigenvalues --    0.33876   0.37858   0.38333   0.38618   0.40269
 Alpha virt. eigenvalues --    0.41579   0.43378   0.44716   0.45235   0.46165
 Alpha virt. eigenvalues --    0.46912   0.49564   0.51766   0.55243   0.56075
 Alpha virt. eigenvalues --    0.58354   0.59215   0.62706   0.65659   0.75558
 Alpha virt. eigenvalues --    0.82663   0.91610   1.09875   1.14526   1.19098
 Alpha virt. eigenvalues --    1.21603   1.23889   1.24487   1.26097   1.28865
 Alpha virt. eigenvalues --    1.30054   1.33071   1.34033   1.37193   1.40040
 Alpha virt. eigenvalues --    1.40596   1.46345   1.47340   1.49715   1.51709
 Alpha virt. eigenvalues --    1.57685   1.59505   1.64417   1.68998   1.72323
 Alpha virt. eigenvalues --    1.72918   1.74110   1.78891   1.85812   1.86763
 Alpha virt. eigenvalues --    1.92509   1.98035   1.99106   2.04119   2.10556
 Alpha virt. eigenvalues --    2.13913   2.16270   2.19822   2.22284   2.28660
 Alpha virt. eigenvalues --    2.31718   2.37839   2.43680   2.46825   2.48893
 Alpha virt. eigenvalues --    2.49852   2.51013   2.53366   2.54641   2.56934
 Alpha virt. eigenvalues --    2.57299   2.59374   2.60735   2.61997   2.64035
 Alpha virt. eigenvalues --    2.66682   2.73570   2.77807   2.79207   2.83481
 Alpha virt. eigenvalues --    2.84784   2.87760   2.90634   2.98511   3.01364
 Alpha virt. eigenvalues --    3.02999   3.06712   3.10862   3.12773   3.16158
 Alpha virt. eigenvalues --    3.20746   3.25750   3.28151   3.29489   3.40422
 Alpha virt. eigenvalues --    3.76717   3.91371   4.08361   4.15052   4.20532
 Alpha virt. eigenvalues --   21.60275  21.73369  21.77472  43.00299  43.06283
 Alpha virt. eigenvalues --   43.23752
          Condensed to atoms (all electrons):
               1          2          3          4          5          6
     1  C    5.249770   0.215506  -0.092105  -0.059868   0.001048  -0.003660
     2  C    0.215506   5.405786   0.247470   0.095857  -0.103385  -0.137155
     3  O   -0.092105   0.247470   7.995511  -0.040804   0.005878   0.018630
     4  C   -0.059868   0.095857  -0.040804   4.968469   0.564655   0.336118
     5  O    0.001048  -0.103385   0.005878   0.564655   7.976691  -0.101942
     6  O   -0.003660  -0.137155   0.018630   0.336118  -0.101942   7.878712
     7  H    0.372956  -0.027373   0.007237  -0.007880   0.000228   0.001627
     8  H    0.358800  -0.007998   0.006290  -0.011525   0.011456   0.001319
     9  H    0.412302  -0.050298   0.003429   0.015196  -0.000138  -0.000229
    10  H   -0.065588   0.439591  -0.042609  -0.050727   0.000705   0.000188
    11  H    0.013232  -0.035654   0.305261  -0.005701   0.000474   0.009235
    12  H   -0.000887   0.017957  -0.000577  -0.018200   0.002758   0.285970
               7          8          9         10         11         12
     1  C    0.372956   0.358800   0.412302  -0.065588   0.013232  -0.000887
     2  C   -0.027373  -0.007998  -0.050298   0.439591  -0.035654   0.017957
     3  O    0.007237   0.006290   0.003429  -0.042609   0.305261  -0.000577
     4  C   -0.007880  -0.011525   0.015196  -0.050727  -0.005701  -0.018200
     5  O    0.000228   0.011456  -0.000138   0.000705   0.000474   0.002758
     6  O    0.001627   0.001319  -0.000229   0.000188   0.009235   0.285970
     7  H    0.541868  -0.017150  -0.026141   0.008989  -0.000477  -0.000194
     8  H   -0.017150   0.522651  -0.018557   0.002543  -0.000675  -0.000057
     9  H   -0.026141  -0.018557   0.509258  -0.007948  -0.000225   0.000046
    10  H    0.008989   0.002543  -0.007948   0.527053  -0.003617  -0.000660
    11  H   -0.000477  -0.000675  -0.000225  -0.003617   0.402820  -0.000579
    12  H   -0.000194  -0.000057   0.000046  -0.000660  -0.000579   0.376679
 Mulliken charges:
               1
     1  C   -0.401506
     2  C   -0.060305
     3  O   -0.413610
     4  C    0.214410
     5  O   -0.358428
     6  O   -0.288812
     7  H    0.146311
     8  H    0.152906
     9  H    0.163305
    10  H    0.192081
    11  H    0.315906
    12  H    0.337744
 Sum of Mulliken charges =  -0.00000
 Mulliken charges with hydrogens summed into heavy atoms:
               1
     1  C    0.061016
     2  C    0.131776
     3  O   -0.097704
     4  C    0.214410
     5  O   -0.358428
     6  O    0.048931
 Electronic spatial extent (au):  <R**2>=            572.8908
 Charge=             -0.0000 electrons
 Dipole moment (field-independent basis, Debye):
    X=             -0.9722    Y=              1.6366    Z=             -0.9393  Tot=              2.1227
 Quadrupole moment (field-independent basis, Debye-Ang):
   XX=            -34.1490   YY=            -38.4274   ZZ=            -34.3851
   XY=             -7.8750   XZ=             -2.6524   YZ=             -2.7441
 Traceless Quadrupole moment (field-independent basis, Debye-Ang):
   XX=              1.5048   YY=             -2.7736   ZZ=              1.2688
   XY=             -7.8750   XZ=             -2.6524   YZ=             -2.7441
 Octapole moment (field-independent basis, Debye-Ang**2):
  XXX=            -25.6979  YYY=             17.0670  ZZZ=             -1.3421  XYY=              2.4384
  XXY=              6.9519  XXZ=              4.0864  XZZ=             -2.1729  YZZ=              2.3183
  YYZ=             -3.4329  XYZ=             -0.9981
 Hexadecapole moment (field-independent basis, Debye-Ang**3):
 XXXX=           -336.7636 YYYY=           -233.8201 ZZZZ=            -61.6893 XXXY=            -35.1795
 XXXZ=            -16.9868 YYYX=             -2.7536 YYYZ=             -8.2505 ZZZX=             -3.4251
 ZZZY=             -0.5742 XXYY=           -118.6845 XXZZ=            -73.8778 YYZZ=            -53.3992
 XXYZ=              2.1613 YYXZ=             -4.9748 ZZXY=              0.2193
 N-N= 2.473265642069D+02 E-N=-1.301823996576D+03  KE= 3.423014896066D+02
 Unable to Open any file for archive entry.
 1\1\GINC-TCN1741\SP\RBP86\TZVP\C3H6O3\ELENAA\22-Feb-2021\0\\# BP86/TZV
 P SCRF=COSMORS geom=CHECKPOINT guess=CHECKPOINT\\COSMO-file for #JVTAA
 EKCZFNVCJ-UHFFFAOYSA-N\\0,1\C,0,0.2878589755,-0.3025800806,-2.99391045
 69\C,0,-0.7814232854,0.4652732474,-2.219449964\O,0,-0.858659255,1.7828
 344224,-2.7715573368\C,0,-0.4837029586,0.4281134422,-0.7132111146\O,0,
 -0.2693072734,-0.6008975338,-0.0934875471\O,0,-0.5279148364,1.65617702
 ,-0.1378436298\H,0,1.2605828508,0.2011173749,-2.8971037749\H,0,0.37630
 34522,-1.3267533423,-2.610208007\H,0,0.011791485,-0.3412039175,-4.0560
 083607\H,0,-1.7527786528,-0.0600374966,-2.3228603007\H,0,-1.505681496,
 2.2951498743,-2.2527061922\H,0,-0.3729790059,1.5413469898,0.8248166846
 \\Version=ES64L-G16RevC.01\State=1-A\HF=-343.7664971\RMSD=3.400e-09\Di
 pole=-0.5769288,0.4949715,0.3458156\Quadrupole=1.8930063,-2.6713074,0.
 7783011,-0.9098784,-0.0189292,6.2479311\PG=C01 [X(C3H6O3)]\\@
 The archive entry for this job was punched.


 MEN HAVE BECOME THE TOOLS OF THEIR TOOLS... THOREAU   
 Job cpu time:       0 days  0 hours  1 minutes 49.2 seconds.
 Elapsed time:       0 days  0 hours  0 minutes  4.8 seconds.
 File lengths (MBytes):  RWF=     17 Int=      0 D2E=      0 Chk=      4 Scr=      1
 Normal termination of Gaussian 16 at Mon Feb 22 21:13:37 2021.
