 Entering Gaussian System, Link 0=g16
 Input=KRKNYBCHXYNGOX-UHFFFAOYSA-N.gjf
 Output=KRKNYBCHXYNGOX-UHFFFAOYSA-N.log
 Initial command:
 /sw/arch/RedHatEnterpriseServer7/EB_production/2019/software/Gaussian/g16.c01/l1.exe "/scratch-local/elenaa.9715229/Gau-6518.inp" -scrdir="/scratch-local/elenaa.9715229/"
 Entering Link 1 = /sw/arch/RedHatEnterpriseServer7/EB_production/2019/software/Gaussian/g16.c01/l1.exe PID=      6520.
  
 Copyright (c) 1988-2019, Gaussian, Inc.  All Rights Reserved.
  
 This is part of the Gaussian(R) 16 program.  It is based on
 the Gaussian(R) 09 system (copyright 2009, Gaussian, Inc.),
 the Gaussian(R) 03 system (copyright 2003, Gaussian, Inc.),
 the Gaussian(R) 98 system (copyright 1998, Gaussian, Inc.),
 the Gaussian(R) 94 system (copyright 1995, Gaussian, Inc.),
 the Gaussian 92(TM) system (copyright 1992, Gaussian, Inc.),
 the Gaussian 90(TM) system (copyright 1990, Gaussian, Inc.),
 the Gaussian 88(TM) system (copyright 1988, Gaussian, Inc.),
 the Gaussian 86(TM) system (copyright 1986, Carnegie Mellon
 University), and the Gaussian 82(TM) system (copyright 1983,
 Carnegie Mellon University). Gaussian is a federally registered
 trademark of Gaussian, Inc.
  
 This software contains proprietary and confidential information,
 including trade secrets, belonging to Gaussian, Inc.
  
 This software is provided under written license and may be
 used, copied, transmitted, or stored only in accord with that
 written license.
  
 The following legend is applicable only to US Government
 contracts under FAR:
  
                    RESTRICTED RIGHTS LEGEND
  
 Use, reproduction and disclosure by the US Government is
 subject to restrictions as set forth in subparagraphs (a)
 and (c) of the Commercial Computer Software - Restricted
 Rights clause in FAR 52.227-19.
  
 Gaussian, Inc.
 340 Quinnipiac St., Bldg. 40, Wallingford CT 06492
  
  
 ---------------------------------------------------------------
 Warning -- This program may not be used in any manner that
 competes with the business of Gaussian, Inc. or will provide
 assistance to any competitor of Gaussian, Inc.  The licensee
 of this program is prohibited from giving any competitor of
 Gaussian, Inc. access to this program.  By using this program,
 the user acknowledges that Gaussian, Inc. is engaged in the
 business of creating and licensing software in the field of
 computational chemistry and represents and warrants to the
 licensee that it is not a competitor of Gaussian, Inc. and that
 it will not use this program in any manner prohibited above.
 ---------------------------------------------------------------
  

 Cite this work as:
 Gaussian 16, Revision C.01,
 M. J. Frisch, G. W. Trucks, H. B. Schlegel, G. E. Scuseria, 
 M. A. Robb, J. R. Cheeseman, G. Scalmani, V. Barone, 
 G. A. Petersson, H. Nakatsuji, X. Li, M. Caricato, A. V. Marenich, 
 J. Bloino, B. G. Janesko, R. Gomperts, B. Mennucci, H. P. Hratchian, 
 J. V. Ortiz, A. F. Izmaylov, J. L. Sonnenberg, D. Williams-Young, 
 F. Ding, F. Lipparini, F. Egidi, J. Goings, B. Peng, A. Petrone, 
 T. Henderson, D. Ranasinghe, V. G. Zakrzewski, J. Gao, N. Rega, 
 G. Zheng, W. Liang, M. Hada, M. Ehara, K. Toyota, R. Fukuda, 
 J. Hasegawa, M. Ishida, T. Nakajima, Y. Honda, O. Kitao, H. Nakai, 
 T. Vreven, K. Throssell, J. A. Montgomery, Jr., J. E. Peralta, 
 F. Ogliaro, M. J. Bearpark, J. J. Heyd, E. N. Brothers, K. N. Kudin, 
 V. N. Staroverov, T. A. Keith, R. Kobayashi, J. Normand, 
 K. Raghavachari, A. P. Rendell, J. C. Burant, S. S. Iyengar, 
 J. Tomasi, M. Cossi, J. M. Millam, M. Klene, C. Adamo, R. Cammi, 
 J. W. Ochterski, R. L. Martin, K. Morokuma, O. Farkas, 
 J. B. Foresman, and D. J. Fox, Gaussian, Inc., Wallingford CT, 2019.
 
 ******************************************
 Gaussian 16:  ES64L-G16RevC.01  3-Jul-2019
                22-Feb-2021 
 ******************************************
 %chk=KRKNYBCHXYNGOX-UHFFFAOYSA-N.chk
 %NProcShared=32
 Will use up to   32 processors via shared memory.
 -------------------------------------------------------------
 #P BP86/TZVP EmpiricalDispersion=GD3 SCRF=(Solvent=Water) Opt
 -------------------------------------------------------------
 1/18=20,19=15,26=3,38=1/1,3;
 2/9=110,12=2,17=6,18=5,40=1/2;
 3/5=19,7=101,11=2,25=1,30=1,70=2201,71=1,72=1,74=404,124=31/1,2,3;
 4//1;
 5/5=2,38=5,53=1/2;
 6/7=2,8=2,9=2,10=2,28=1/1;
 7//1,2,3,16;
 1/18=20,19=15,26=3/3(2);
 2/9=110/2;
 99//99;
 2/9=110/2;
 3/5=19,7=101,11=2,25=1,30=1,70=2205,71=1,72=1,74=404,124=31/1,2,3;
 4/5=5,16=3,69=1/1;
 5/5=2,38=5,53=1/2;
 7//1,2,3,16;
 1/18=20,19=15,26=3/3(-5);
 2/9=110/2;
 6/7=2,8=2,9=2,10=2,19=2,28=1/1;
 99/9=1/99;
 Leave Link    1 at Mon Feb 22 21:11:36 2021, MaxMem=           0 cpu:               3.5 elap:               0.1
 (Enter /sw/arch/RedHatEnterpriseServer7/EB_production/2019/software/Gaussian/g16.c01/l101.exe)
 -------------------------------------
 Particle #KRKNYBCHXYNGOX-UHFFFAOYSA-N
 -------------------------------------
 Symbolic Z-matrix:
 Charge =  0 Multiplicity = 1
 O                     0.9785    2.86403   0.98249 
 C                     0.53962   2.89138  -0.19064 
 O                    -0.76007   2.57281  -0.39569 
 C                     1.41414   3.28174  -1.31961 
 C                     2.52508   2.23884  -1.6958 
 O                     3.31115   1.95597  -0.53233 
 C                     1.89084   0.90006  -2.21619 
 C                     2.8568   -0.1867   -2.49505 
 O                     2.99461  -0.64616  -3.6502 
 O                     3.5924   -0.72897  -1.49508 
 C                     3.45211   2.8613   -2.68582 
 O                     4.20123   3.80713  -2.34697 
 O                     3.51779   2.46647  -3.98003 
 H                    -1.33302   2.32129   0.35954 
 H                     1.87286   4.23893  -1.05091 
 H                     0.78939   3.46634  -2.1973 
 H                     2.69345   1.53682   0.10211 
 H                     1.31203   1.10736  -3.12205 
 H                     1.19101   0.51064  -1.47478 
 H                     4.21475  -1.46349  -1.68107 
 H                     4.12975   2.91362  -4.60126 
 
 ITRead=  0  0  0  0  0  0  0  0  0  0  0  0  0  0  0  0  0  0  0  0
 ITRead=  0
 MicOpt= -1 -1 -1 -1 -1 -1 -1 -1 -1 -1 -1 -1 -1 -1 -1 -1 -1 -1 -1 -1
 MicOpt= -1
 NAtoms=     21 NQM=       21 NQMF=       0 NMMI=      0 NMMIF=      0
                NMic=       0 NMicF=      0.
                    Isotopes and Nuclear Properties:
 (Nuclear quadrupole moments (NQMom) in fm**2, nuclear magnetic moments (NMagM)
  in nuclear magnetons)

  Atom         1           2           3           4           5           6           7           8           9          10
 IAtWgt=          16          12          16          12          12          16          12          12          16          16
 AtmWgt=  15.9949146  12.0000000  15.9949146  12.0000000  12.0000000  15.9949146  12.0000000  12.0000000  15.9949146  15.9949146
 NucSpn=           0           0           0           0           0           0           0           0           0           0
 AtZEff=  -0.0000000  -0.0000000  -0.0000000  -0.0000000  -0.0000000  -0.0000000  -0.0000000  -0.0000000  -0.0000000  -0.0000000
 NQMom=    0.0000000   0.0000000   0.0000000   0.0000000   0.0000000   0.0000000   0.0000000   0.0000000   0.0000000   0.0000000
 NMagM=    0.0000000   0.0000000   0.0000000   0.0000000   0.0000000   0.0000000   0.0000000   0.0000000   0.0000000   0.0000000
 AtZNuc=   8.0000000   6.0000000   8.0000000   6.0000000   6.0000000   8.0000000   6.0000000   6.0000000   8.0000000   8.0000000

  Atom        11          12          13          14          15          16          17          18          19          20
 IAtWgt=          12          16          16           1           1           1           1           1           1           1
 AtmWgt=  12.0000000  15.9949146  15.9949146   1.0078250   1.0078250   1.0078250   1.0078250   1.0078250   1.0078250   1.0078250
 NucSpn=           0           0           0           1           1           1           1           1           1           1
 AtZEff=  -0.0000000  -0.0000000  -0.0000000  -0.0000000  -0.0000000  -0.0000000  -0.0000000  -0.0000000  -0.0000000  -0.0000000
 NQMom=    0.0000000   0.0000000   0.0000000   0.0000000   0.0000000   0.0000000   0.0000000   0.0000000   0.0000000   0.0000000
 NMagM=    0.0000000   0.0000000   0.0000000   2.7928460   2.7928460   2.7928460   2.7928460   2.7928460   2.7928460   2.7928460
 AtZNuc=   6.0000000   8.0000000   8.0000000   1.0000000   1.0000000   1.0000000   1.0000000   1.0000000   1.0000000   1.0000000

  Atom        21
 IAtWgt=           1
 AtmWgt=   1.0078250
 NucSpn=           1
 AtZEff=  -0.0000000
 NQMom=    0.0000000
 NMagM=    2.7928460
 AtZNuc=   1.0000000
 Leave Link  101 at Mon Feb 22 21:11:36 2021, MaxMem=   104857600 cpu:               3.0 elap:               0.1
 (Enter /sw/arch/RedHatEnterpriseServer7/EB_production/2019/software/Gaussian/g16.c01/l103.exe)

 GradGradGradGradGradGradGradGradGradGradGradGradGradGradGradGradGradGrad
 Berny optimization.
 Initialization pass.
                           ----------------------------
                           !    Initial Parameters    !
                           ! (Angstroms and Degrees)  !
 --------------------------                            --------------------------
 ! Name  Definition              Value          Derivative Info.                !
 --------------------------------------------------------------------------------
 ! R1    R(1,2)                  1.2528         estimate D2E/DX2                !
 ! R2    R(2,3)                  1.3538         estimate D2E/DX2                !
 ! R3    R(2,4)                  1.4805         estimate D2E/DX2                !
 ! R4    R(3,14)                 0.9808         estimate D2E/DX2                !
 ! R5    R(4,5)                  1.5695         estimate D2E/DX2                !
 ! R6    R(4,15)                 1.0949         estimate D2E/DX2                !
 ! R7    R(4,16)                 1.093          estimate D2E/DX2                !
 ! R8    R(5,6)                  1.4323         estimate D2E/DX2                !
 ! R9    R(5,7)                  1.5702         estimate D2E/DX2                !
 ! R10   R(5,11)                 1.4923         estimate D2E/DX2                !
 ! R11   R(6,17)                 0.9797         estimate D2E/DX2                !
 ! R12   R(7,8)                  1.4805         estimate D2E/DX2                !
 ! R13   R(7,18)                 1.0948         estimate D2E/DX2                !
 ! R14   R(7,19)                 1.0914         estimate D2E/DX2                !
 ! R15   R(8,9)                  1.2508         estimate D2E/DX2                !
 ! R16   R(8,10)                 1.3547         estimate D2E/DX2                !
 ! R17   R(10,20)                0.9805         estimate D2E/DX2                !
 ! R18   R(11,12)                1.2532         estimate D2E/DX2                !
 ! R19   R(11,13)                1.3547         estimate D2E/DX2                !
 ! R20   R(13,21)                0.98           estimate D2E/DX2                !
 ! A1    A(1,2,3)              118.2294         estimate D2E/DX2                !
 ! A2    A(1,2,4)              120.8567         estimate D2E/DX2                !
 ! A3    A(3,2,4)              120.9074         estimate D2E/DX2                !
 ! A4    A(2,3,14)             120.302          estimate D2E/DX2                !
 ! A5    A(2,4,5)              115.1948         estimate D2E/DX2                !
 ! A6    A(2,4,15)             106.9087         estimate D2E/DX2                !
 ! A7    A(2,4,16)             108.6169         estimate D2E/DX2                !
 ! A8    A(5,4,15)             110.07           estimate D2E/DX2                !
 ! A9    A(5,4,16)             108.9251         estimate D2E/DX2                !
 ! A10   A(15,4,16)            106.7908         estimate D2E/DX2                !
 ! A11   A(4,5,6)              108.965          estimate D2E/DX2                !
 ! A12   A(4,5,7)              111.1052         estimate D2E/DX2                !
 ! A13   A(4,5,11)             108.7571         estimate D2E/DX2                !
 ! A14   A(6,5,7)              108.8146         estimate D2E/DX2                !
 ! A15   A(6,5,11)             106.2805         estimate D2E/DX2                !
 ! A16   A(7,5,11)             112.7493         estimate D2E/DX2                !
 ! A17   A(5,6,17)             105.3377         estimate D2E/DX2                !
 ! A18   A(5,7,8)              115.1352         estimate D2E/DX2                !
 ! A19   A(5,7,18)             109.0467         estimate D2E/DX2                !
 ! A20   A(5,7,19)             109.7614         estimate D2E/DX2                !
 ! A21   A(8,7,18)             109.1529         estimate D2E/DX2                !
 ! A22   A(8,7,19)             106.5238         estimate D2E/DX2                !
 ! A23   A(18,7,19)            106.8966         estimate D2E/DX2                !
 ! A24   A(7,8,9)              121.0297         estimate D2E/DX2                !
 ! A25   A(7,8,10)             120.6034         estimate D2E/DX2                !
 ! A26   A(9,8,10)             118.35           estimate D2E/DX2                !
 ! A27   A(8,10,20)            120.2985         estimate D2E/DX2                !
 ! A28   A(5,11,12)            120.4476         estimate D2E/DX2                !
 ! A29   A(5,11,13)            122.8435         estimate D2E/DX2                !
 ! A30   A(12,11,13)           116.6983         estimate D2E/DX2                !
 ! A31   A(11,13,21)           120.1926         estimate D2E/DX2                !
 ! D1    D(1,2,3,14)            -0.5019         estimate D2E/DX2                !
 ! D2    D(4,2,3,14)          -179.5859         estimate D2E/DX2                !
 ! D3    D(1,2,4,5)             70.7293         estimate D2E/DX2                !
 ! D4    D(1,2,4,15)           -51.9132         estimate D2E/DX2                !
 ! D5    D(1,2,4,16)          -166.8113         estimate D2E/DX2                !
 ! D6    D(3,2,4,5)           -110.2108         estimate D2E/DX2                !
 ! D7    D(3,2,4,15)           127.1466         estimate D2E/DX2                !
 ! D8    D(3,2,4,16)            12.2486         estimate D2E/DX2                !
 ! D9    D(2,4,5,6)            -55.4208         estimate D2E/DX2                !
 ! D10   D(2,4,5,7)             64.4585         estimate D2E/DX2                !
 ! D11   D(2,4,5,11)          -170.873          estimate D2E/DX2                !
 ! D12   D(15,4,5,6)            65.5158         estimate D2E/DX2                !
 ! D13   D(15,4,5,7)          -174.6049         estimate D2E/DX2                !
 ! D14   D(15,4,5,11)          -49.9364         estimate D2E/DX2                !
 ! D15   D(16,4,5,6)          -177.715          estimate D2E/DX2                !
 ! D16   D(16,4,5,7)           -57.8357         estimate D2E/DX2                !
 ! D17   D(16,4,5,11)           66.8328         estimate D2E/DX2                !
 ! D18   D(4,5,6,17)            63.7636         estimate D2E/DX2                !
 ! D19   D(7,5,6,17)           -57.5235         estimate D2E/DX2                !
 ! D20   D(11,5,6,17)         -179.1985         estimate D2E/DX2                !
 ! D21   D(4,5,7,8)           -175.3348         estimate D2E/DX2                !
 ! D22   D(4,5,7,18)            61.6147         estimate D2E/DX2                !
 ! D23   D(4,5,7,19)           -55.1771         estimate D2E/DX2                !
 ! D24   D(6,5,7,8)            -55.3661         estimate D2E/DX2                !
 ! D25   D(6,5,7,18)          -178.4166         estimate D2E/DX2                !
 ! D26   D(6,5,7,19)            64.7916         estimate D2E/DX2                !
 ! D27   D(11,5,7,8)            62.2805         estimate D2E/DX2                !
 ! D28   D(11,5,7,18)          -60.77           estimate D2E/DX2                !
 ! D29   D(11,5,7,19)         -177.5618         estimate D2E/DX2                !
 ! D30   D(4,5,11,12)           67.9738         estimate D2E/DX2                !
 ! D31   D(4,5,11,13)         -110.8057         estimate D2E/DX2                !
 ! D32   D(6,5,11,12)          -49.2028         estimate D2E/DX2                !
 ! D33   D(6,5,11,13)          132.0177         estimate D2E/DX2                !
 ! D34   D(7,5,11,12)         -168.3323         estimate D2E/DX2                !
 ! D35   D(7,5,11,13)           12.8883         estimate D2E/DX2                !
 ! D36   D(5,7,8,9)           -117.3025         estimate D2E/DX2                !
 ! D37   D(5,7,8,10)            64.2177         estimate D2E/DX2                !
 ! D38   D(18,7,8,9)             5.6914         estimate D2E/DX2                !
 ! D39   D(18,7,8,10)         -172.7884         estimate D2E/DX2                !
 ! D40   D(19,7,8,9)           120.7767         estimate D2E/DX2                !
 ! D41   D(19,7,8,10)          -57.7031         estimate D2E/DX2                !
 ! D42   D(7,8,10,20)          178.4915         estimate D2E/DX2                !
 ! D43   D(9,8,10,20)           -0.0283         estimate D2E/DX2                !
 ! D44   D(5,11,13,21)         178.8855         estimate D2E/DX2                !
 ! D45   D(12,11,13,21)          0.0634         estimate D2E/DX2                !
 --------------------------------------------------------------------------------
 Trust Radius=3.00D-01 FncErr=1.00D-07 GrdErr=1.00D-06 EigMax=2.50D+02 EigMin=1.00D-04
 Number of steps in this run=    106 maximum allowed number of steps=    126.
 GradGradGradGradGradGradGradGradGradGradGradGradGradGradGradGradGradGrad

 Leave Link  103 at Mon Feb 22 21:11:36 2021, MaxMem=   104857600 cpu:               0.3 elap:               0.0
 (Enter /sw/arch/RedHatEnterpriseServer7/EB_production/2019/software/Gaussian/g16.c01/l202.exe)
                          Input orientation:                          
 ---------------------------------------------------------------------
 Center     Atomic      Atomic             Coordinates (Angstroms)
 Number     Number       Type             X           Y           Z
 ---------------------------------------------------------------------
      1          8           0        0.978500    2.864030    0.982490
      2          6           0        0.539620    2.891380   -0.190640
      3          8           0       -0.760070    2.572810   -0.395690
      4          6           0        1.414140    3.281740   -1.319610
      5          6           0        2.525080    2.238840   -1.695800
      6          8           0        3.311150    1.955970   -0.532330
      7          6           0        1.890840    0.900060   -2.216190
      8          6           0        2.856800   -0.186700   -2.495050
      9          8           0        2.994610   -0.646160   -3.650200
     10          8           0        3.592400   -0.728970   -1.495080
     11          6           0        3.452110    2.861300   -2.685820
     12          8           0        4.201230    3.807130   -2.346970
     13          8           0        3.517790    2.466470   -3.980030
     14          1           0       -1.333020    2.321290    0.359540
     15          1           0        1.872860    4.238930   -1.050910
     16          1           0        0.789390    3.466340   -2.197300
     17          1           0        2.693450    1.536820    0.102110
     18          1           0        1.312030    1.107360   -3.122050
     19          1           0        1.191010    0.510640   -1.474780
     20          1           0        4.214750   -1.463490   -1.681070
     21          1           0        4.129750    2.913620   -4.601260
 ---------------------------------------------------------------------
                    Distance matrix (angstroms):
                    1          2          3          4          5
     1  O    0.000000
     2  C    1.252836   0.000000
     3  O    2.237591   1.353782   0.000000
     4  C    2.379901   1.480452   2.466455   0.000000
     5  C    3.155314   2.575532   3.548807   1.569505   0.000000
     6  O    2.925835   2.945017   4.119951   2.444611   1.432335
     7  C    3.862783   3.145474   3.624864   2.589111   1.570159
     8  C    4.992820   4.489344   5.010385   3.936115   2.575283
     9  O    6.152069   5.523560   5.920408   4.833005   3.516157
    10  O    5.087286   4.912022   5.572648   4.567428   3.160278
    11  C    4.424393   3.835287   4.803164   2.489301   1.492307
    12  O    4.728713   4.346924   5.472252   3.016517   2.386008
    13  O    5.588618   4.838339   5.582015   3.488244   2.500999
    14  H    2.454742   2.033342   0.980768   3.359895   4.372203
    15  H    2.612460   2.081702   3.183958   1.094914   2.200371
    16  H    3.241852   2.102296   2.538705   1.093037   2.184234
    17  H    2.340429   2.561156   3.639764   2.588951   1.937437
    18  H    4.477095   3.517458   3.724806   2.826154   2.187676
    19  H    3.409073   2.782310   3.037053   2.784396   2.194372
    20  H    6.024558   5.890064   6.533969   5.521891   4.069699
    21  H    6.411794   5.687099   6.458584   4.275427   3.387033
                    6          7          8          9         10
     6  O    0.000000
     7  C    2.442869   0.000000
     8  C    2.941044   1.480503   0.000000
     9  O    4.073376   2.380229   1.250786   0.000000
    10  O    2.866163   2.463543   1.354660   2.238024   0.000000
    11  C    2.340302   2.550408   3.111445   3.666280   3.785179
    12  O    2.740794   3.715651   4.216645   4.794385   4.655383
    13  O    3.491410   2.865613   3.111492   3.173479   4.048627
    14  H    4.743122   4.364350   5.656261   6.603950   6.083047
    15  H    2.747637   3.536418   4.758138   5.646126   5.275807
    16  H    3.378256   2.792730   4.208033   4.887389   5.094174
    17  H    0.979670   2.534593   3.121289   4.351543   2.914263
    18  H    3.379833   1.094795   2.110458   2.486936   3.349511
    19  H    2.733530   1.091375   2.074148   3.053459   2.702539
    20  H    3.718710   3.357571   2.033909   2.456470   0.980526
    21  H    4.259506   3.841315   3.958346   3.855527   4.817215
                   11         12         13         14         15
    11  C    0.000000
    12  O    1.253234   0.000000
    13  O    1.354690   2.220663   0.000000
    14  H    5.697657   6.337258   6.510246   0.000000
    15  H    2.657974   2.699542   3.798309   3.993041   0.000000
    16  H    2.773951   3.432083   3.409110   3.514711   1.756420
    17  H    3.178422   3.664110   4.267043   4.110246   3.050282
    18  H    2.801168   4.029514   2.729228   4.537773   3.796167
    19  H    3.479194   4.548515   3.938966   3.607480   3.813756
    20  H    4.504992   5.312536   4.606035   7.019003   6.196704
    21  H    2.032448   2.425962   0.979982   7.402854   4.410780
                   16         17         18         19         20
    16  H    0.000000
    17  H    3.554684   0.000000
    18  H    2.587103   3.533831   0.000000
    19  H    3.069120   2.407686   1.756194   0.000000
    20  H    6.025181   3.807354   4.136602   3.617008   0.000000
    21  H    4.152412   5.106880   3.659260   4.917864   5.262492
                   21
    21  H    0.000000
 Stoichiometry    C6H8O7
 Framework group  C1[X(C6H8O7)]
 Deg. of freedom    57
 Full point group                 C1      NOp   1
 Largest Abelian subgroup         C1      NOp   1
 Largest concise Abelian subgroup C1      NOp   1
                         Standard orientation:                         
 ---------------------------------------------------------------------
 Center     Atomic      Atomic             Coordinates (Angstroms)
 Number     Number       Type             X           Y           Z
 ---------------------------------------------------------------------
      1          8           0       -2.977138   -0.397759    0.987370
      2          6           0       -2.545740   -0.202980   -0.172610
      3          8           0       -3.086185   -0.920209   -1.185639
      4          6           0       -1.487583    0.799706   -0.430810
      5          6           0       -0.060929    0.417308    0.100015
      6          8           0       -0.146265    0.133694    1.501395
      7          6           0        0.496712   -0.850221   -0.640124
      8          6           0        1.793202   -1.354617   -0.133579
      9          8           0        2.808207   -1.371980   -0.864283
     10          8           0        1.899992   -1.838064    1.127365
     11          6           0        0.834459    1.603723   -0.032947
     12          8           0        0.647656    2.622579    0.672484
     13          8           0        1.858731    1.655656   -0.918020
     14          1           0       -3.791026   -1.577910   -1.005263
     15          1           0       -1.819477    1.737787    0.026012
     16          1           0       -1.429497    0.976244   -1.507931
     17          1           0       -0.725291   -0.653415    1.571693
     18          1           0        0.590215   -0.628068   -1.708058
     19          1           0       -0.213867   -1.673486   -0.548414
     20          1           0        2.755525   -2.191358    1.450902
     21          1           0        2.412704    2.461340   -0.983989
 ---------------------------------------------------------------------
 Rotational constants (GHZ):           1.0224297           0.5770060           0.4695518
 Leave Link  202 at Mon Feb 22 21:11:36 2021, MaxMem=   104857600 cpu:               1.1 elap:               0.1
 (Enter /sw/arch/RedHatEnterpriseServer7/EB_production/2019/software/Gaussian/g16.c01/l301.exe)
 Standard basis: TZVP (5D, 7F)
 Ernie: Thresh=  0.10000D-02 Tol=  0.10000D-05 Strict=F.
 There are   308 symmetry adapted cartesian basis functions of A   symmetry.
 There are   295 symmetry adapted basis functions of A   symmetry.
   295 basis functions,   519 primitive gaussians,   308 cartesian basis functions
    50 alpha electrons       50 beta electrons
       nuclear repulsion energy       859.1444630073 Hartrees.
 IExCor=  404 DFT=T Ex=B Corr=P86 ExCW=0 ScaHFX=  0.000000
 ScaDFX=  1.000000  1.000000  1.000000  1.000000 ScalE2=  1.000000  1.000000
 IRadAn=      5 IRanWt=     -1 IRanGd=            0 ICorTp=0 IEmpDi=131
 NAtoms=   21 NActive=   21 NUniq=   21 SFac= 1.00D+00 NAtFMM=   60 NAOKFM=F Big=F
 Integral buffers will be    131072 words long.
 Raffenetti 2 integral format.
 Two-electron integral symmetry is turned on.
 R6Disp:  Grimme-D3 Dispersion energy=       -0.0257400543 Hartrees.
 Nuclear repulsion after empirical dispersion term =      859.1187229530 Hartrees.
 ------------------------------------------------------------------------------
 Polarizable Continuum Model (PCM)
 =================================
 Model                : PCM.
 Atomic radii         : UFF (Universal Force Field).
 Polarization charges : Total charges.
 Charge compensation  : None.
 Solution method      : On-the-fly selection.
 Cavity type          : Scaled VdW (van der Waals Surface) (Alpha=1.100).
 Cavity algorithm     : GePol (No added spheres)
                        Default sphere list used, NSphG=   21.
                        Lebedev-Laikov grids with approx.  5.0 points / Ang**2.
                        Smoothing algorithm: York/Karplus (Gamma=1.0000).
                        Polarization charges: spherical gaussians, with
                                              point-specific exponents (IZeta= 3).
                        Self-potential: point-specific (ISelfS= 7).
                        Self-field    : sphere-specific E.n sum rule (ISelfD= 2).
 1st derivatives      : Analytical E(r).r(x)/FMM algorithm (CHGder, D1EAlg=3).
                        Cavity 1st derivative terms included.
 Solvent              : Water, Eps=  78.355300 Eps(inf)=   1.777849
 ------------------------------------------------------------------------------
 GePol: Number of generator spheres                  =      21
 GePol: Total number of spheres                      =      21
 GePol: Number of exposed spheres                    =      21 (100.00%)
 GePol: Number of points                             =    1754
 GePol: Average weight of points                     =       0.13
 GePol: Minimum weight of points                     =   0.27D-07
 GePol: Maximum weight of points                     =    0.20577
 GePol: Number of points with low weight             =      89
 GePol: Fraction of low-weight points (<1% of avg)   =       5.07%
 GePol: Cavity surface area                          =    236.059 Ang**2
 GePol: Cavity volume                                =    240.862 Ang**3
 Leave Link  301 at Mon Feb 22 21:11:37 2021, MaxMem=   104857600 cpu:               1.8 elap:               0.1
 (Enter /sw/arch/RedHatEnterpriseServer7/EB_production/2019/software/Gaussian/g16.c01/l302.exe)
 NPDir=0 NMtPBC=     1 NCelOv=     1 NCel=       1 NClECP=     1 NCelD=      1
         NCelK=      1 NCelE2=     1 NClLst=     1 CellRange=     0.0.
 One-electron integrals computed using PRISM.
 One-electron integral symmetry used in STVInt
 PrsmSu:  requested number of processors reduced to:  28 ShMem   1 Linda.
 NBasis=   295 RedAO= T EigKep=  1.20D-04  NBF=   295
 NBsUse=   295 1.00D-06 EigRej= -1.00D+00 NBFU=   295
 Precomputing XC quadrature grid using
 IXCGrd= 4 IRadAn=           5 IRanWt=          -1 IRanGd=           0 AccXCQ= 0.00D+00.
 Generated NRdTot=       0 NPtTot=           0 NUsed=           0 NTot=          32
 NSgBfM=   304   303   304   304   304 MxSgAt=    21 MxSgA2=    21.
 Leave Link  302 at Mon Feb 22 21:11:37 2021, MaxMem=   104857600 cpu:              12.7 elap:               0.5
 (Enter /sw/arch/RedHatEnterpriseServer7/EB_production/2019/software/Gaussian/g16.c01/l303.exe)
 DipDrv:  MaxL=1.
 Leave Link  303 at Mon Feb 22 21:11:37 2021, MaxMem=   104857600 cpu:               2.5 elap:               0.1
 (Enter /sw/arch/RedHatEnterpriseServer7/EB_production/2019/software/Gaussian/g16.c01/l401.exe)
 ExpMin= 9.52D-02 ExpMax= 2.70D+04 ExpMxC= 9.22D+02 IAcc=3 IRadAn=         5 AccDes= 0.00D+00
 Harris functional with IExCor=  404 and IRadAn=       5 diagonalized for initial guess.
 HarFok:  IExCor=  404 AccDes= 0.00D+00 IRadAn=         5 IDoV= 1 UseB2=F ITyADJ=14
 ICtDFT=  3500011 ScaDFX=  1.000000  1.000000  1.000000  1.000000
 FoFCou: FMM=F IPFlag=           0 FMFlag=      100000 FMFlg1=           0
         NFxFlg=           0 DoJE=T BraDBF=F KetDBF=T FulRan=T
         wScrn=  0.000000 ICntrl=       500 IOpCl=  0 I1Cent=   200000004 NGrid=           0
         NMat0=    1 NMatS0=      1 NMatT0=    0 NMatD0=    1 NMtDS0=    0 NMtDT0=    0
 Petite list used in FoFCou.
 Harris En= -760.530236423442    
 JPrj=0 DoOrth=F DoCkMO=F.
 Leave Link  401 at Mon Feb 22 21:11:38 2021, MaxMem=   104857600 cpu:              15.8 elap:               0.6
 (Enter /sw/arch/RedHatEnterpriseServer7/EB_production/2019/software/Gaussian/g16.c01/l502.exe)
 Integral symmetry usage will be decided dynamically.
 Closed shell SCF:
 Using DIIS extrapolation, IDIIS=  1040.
 NGot=   104857600 LenX=   104654424 LenY=   104559119
 Requested convergence on RMS density matrix=1.00D-08 within 128 cycles.
 Requested convergence on MAX density matrix=1.00D-06.
 Requested convergence on             energy=1.00D-06.
 No special actions if energy rises.
 Fock matrices will be formed incrementally for  20 cycles.

 Cycle   1  Pass 1  IDiag  1:
 FoFJK:  IHMeth= 1 ICntrl=     500 DoSepK=F KAlg= 0 I1Cent=           0 FoldK=F
 IRaf= 890000000 NMat=       1 IRICut=       1 DoRegI=T DoRafI=F ISym2E= 0 IDoP0=0 IntGTp=1.
 FoFCou: FMM=F IPFlag=           0 FMFlag=      100000 FMFlg1=           0
         NFxFlg=           0 DoJE=T BraDBF=F KetDBF=F FulRan=T
         wScrn=  0.000000 ICntrl=       500 IOpCl=  0 I1Cent=           0 NGrid=           0
         NMat0=    1 NMatS0=      1 NMatT0=    0 NMatD0=    1 NMtDS0=    0 NMtDT0=    0
 Symmetry not used in FoFCou.
 Inv3:  Mode=1 IEnd=     9229548.
 Iteration    1 A*A^-1 deviation from unit magnitude is 3.00D-15 for   1630.
 Iteration    1 A*A^-1 deviation from orthogonality  is 1.54D-15 for   1120    327.
 Iteration    1 A^-1*A deviation from unit magnitude is 2.78D-15 for    364.
 Iteration    1 A^-1*A deviation from orthogonality  is 2.23D-14 for    686    560.
 E= -759.980748074998    
 DIIS: error= 2.36D-02 at cycle   1 NSaved=   1.
 NSaved= 1 IEnMin= 1 EnMin= -759.980748074998     IErMin= 1 ErrMin= 2.36D-02
 ErrMax= 2.36D-02  0.00D+00 EMaxC= 1.00D-01 BMatC= 5.34D-01 BMatP= 5.34D-01
 IDIUse=3 WtCom= 7.64D-01 WtEn= 2.36D-01
 Coeff-Com:  0.100D+01
 Coeff-En:   0.100D+01
 Coeff:      0.100D+01
 Gap=     0.031 Goal=   None    Shift=    0.000
 GapD=    0.031 DampG=0.250 DampE=0.500 DampFc=0.2500 IDamp=-1.
 Damping current iteration by 2.50D-01
 RMSDP=1.14D-02 MaxDP=9.88D-01              OVMax= 3.48D-01

 Cycle   2  Pass 1  IDiag  1:
 RMSU=  2.84D-03    CP:  1.02D+00
 E= -760.100393134380     Delta-E=       -0.119645059382 Rises=F Damp=T
 DIIS: error= 7.54D-03 at cycle   2 NSaved=   2.
 NSaved= 2 IEnMin= 2 EnMin= -760.100393134380     IErMin= 2 ErrMin= 7.54D-03
 ErrMax= 7.54D-03  0.00D+00 EMaxC= 1.00D-01 BMatC= 5.27D-02 BMatP= 5.34D-01
 IDIUse=3 WtCom= 9.25D-01 WtEn= 7.54D-02
 Coeff-Com: -0.181D+00 0.118D+01
 Coeff-En:   0.179D+00 0.821D+00
 Coeff:     -0.154D+00 0.115D+01
 Gap=     0.120 Goal=   None    Shift=    0.000
 RMSDP=2.13D-03 MaxDP=9.15D-02 DE=-1.20D-01 OVMax= 3.09D-01

 Cycle   3  Pass 1  IDiag  1:
 RMSU=  2.11D-03    CP:  1.02D+00  8.96D-01
 E= -760.228694740500     Delta-E=       -0.128301606120 Rises=F Damp=F
 DIIS: error= 1.74D-02 at cycle   3 NSaved=   3.
 NSaved= 3 IEnMin= 3 EnMin= -760.228694740500     IErMin= 2 ErrMin= 7.54D-03
 ErrMax= 1.74D-02  0.00D+00 EMaxC= 1.00D-01 BMatC= 1.81D-01 BMatP= 5.27D-02
 IDIUse=2 WtCom= 0.00D+00 WtEn= 1.00D+00
 EnCoef did     5 forward-backward iterations
 Coeff-En:   0.510D-01 0.126D+00 0.823D+00
 Coeff:      0.510D-01 0.126D+00 0.823D+00
 Gap=     0.164 Goal=   None    Shift=    0.000
 RMSDP=4.85D-03 MaxDP=2.47D-01 DE=-1.28D-01 OVMax= 3.88D-01

 Cycle   4  Pass 1  IDiag  1:
 RMSU=  2.00D-03    CP:  1.04D+00  1.89D+00 -6.08D-01
 E= -759.375340075541     Delta-E=        0.853354664960 Rises=F Damp=F
 DIIS: error= 4.91D-02 at cycle   4 NSaved=   4.
 NSaved= 4 IEnMin= 3 EnMin= -760.228694740500     IErMin= 2 ErrMin= 7.54D-03
 ErrMax= 4.91D-02  0.00D+00 EMaxC= 1.00D-01 BMatC= 1.28D+00 BMatP= 5.27D-02
 IDIUse=2 WtCom= 0.00D+00 WtEn= 1.00D+00
 EnCoef did     2 forward-backward iterations
 Coeff-En:   0.161D-01 0.000D+00 0.788D+00 0.196D+00
 Coeff:      0.161D-01 0.000D+00 0.788D+00 0.196D+00
 Gap=     0.125 Goal=   None    Shift=    0.000
 RMSDP=3.27D-03 MaxDP=2.32D-01 DE= 8.53D-01 OVMax= 2.28D-01

 Cycle   5  Pass 1  IDiag  1:
 RMSU=  5.44D-04    CP:  1.02D+00  9.35D-01  5.98D-02  5.06D-01
 E= -760.288645370394     Delta-E=       -0.913305294853 Rises=F Damp=F
 DIIS: error= 1.38D-02 at cycle   5 NSaved=   5.
 NSaved= 5 IEnMin= 5 EnMin= -760.288645370394     IErMin= 2 ErrMin= 7.54D-03
 ErrMax= 1.38D-02  0.00D+00 EMaxC= 1.00D-01 BMatC= 1.15D-01 BMatP= 5.27D-02
 IDIUse=2 WtCom= 0.00D+00 WtEn= 1.00D+00
 Coeff-En:   0.000D+00 0.000D+00 0.407D+00 0.000D+00 0.593D+00
 Coeff:      0.000D+00 0.000D+00 0.407D+00 0.000D+00 0.593D+00
 Gap=     0.141 Goal=   None    Shift=    0.000
 RMSDP=1.05D-03 MaxDP=4.07D-02 DE=-9.13D-01 OVMax= 8.28D-02

 Cycle   6  Pass 1  IDiag  1:
 RMSU=  3.06D-04    CP:  1.02D+00  9.36D-01  4.57D-01  2.35D-01  8.18D-01
 E= -760.367631856341     Delta-E=       -0.078986485947 Rises=F Damp=F
 DIIS: error= 3.72D-03 at cycle   6 NSaved=   6.
 NSaved= 6 IEnMin= 6 EnMin= -760.367631856341     IErMin= 6 ErrMin= 3.72D-03
 ErrMax= 3.72D-03  0.00D+00 EMaxC= 1.00D-01 BMatC= 9.90D-03 BMatP= 5.27D-02
 IDIUse=3 WtCom= 9.63D-01 WtEn= 3.72D-02
 Coeff-Com: -0.453D-01 0.779D-01 0.250D+00-0.402D-01 0.457D+00 0.301D+00
 Coeff-En:   0.000D+00 0.000D+00 0.000D+00 0.000D+00 0.379D-01 0.962D+00
 Coeff:     -0.436D-01 0.750D-01 0.241D+00-0.387D-01 0.441D+00 0.325D+00
 Gap=     0.143 Goal=   None    Shift=    0.000
 RMSDP=2.91D-04 MaxDP=2.10D-02 DE=-7.90D-02 OVMax= 1.49D-02

 Cycle   7  Pass 1  IDiag  1:
 RMSU=  1.09D-04    CP:  1.02D+00  9.02D-01  4.22D-01  2.95D-01  8.07D-01
                    CP:  3.26D-01
 E= -760.374279983050     Delta-E=       -0.006648126709 Rises=F Damp=F
 DIIS: error= 6.85D-04 at cycle   7 NSaved=   7.
 NSaved= 7 IEnMin= 7 EnMin= -760.374279983050     IErMin= 7 ErrMin= 6.85D-04
 ErrMax= 6.85D-04  0.00D+00 EMaxC= 1.00D-01 BMatC= 3.55D-04 BMatP= 9.90D-03
 IDIUse=3 WtCom= 9.93D-01 WtEn= 6.85D-03
 Coeff-Com: -0.250D-01 0.430D-01 0.100D+00-0.282D-01 0.215D+00 0.206D+00
 Coeff-Com:  0.489D+00
 Coeff-En:   0.000D+00 0.000D+00 0.000D+00 0.000D+00 0.000D+00 0.000D+00
 Coeff-En:   0.100D+01
 Coeff:     -0.248D-01 0.427D-01 0.997D-01-0.280D-01 0.214D+00 0.205D+00
 Coeff:      0.492D+00
 Gap=     0.143 Goal=   None    Shift=    0.000
 RMSDP=6.61D-05 MaxDP=2.27D-03 DE=-6.65D-03 OVMax= 2.99D-03

 Cycle   8  Pass 1  IDiag  1:
 RMSU=  3.08D-05    CP:  1.02D+00  9.06D-01  4.24D-01  2.84D-01  8.31D-01
                    CP:  3.97D-01  5.82D-01
 E= -760.374539955478     Delta-E=       -0.000259972428 Rises=F Damp=F
 DIIS: error= 2.24D-04 at cycle   8 NSaved=   8.
 NSaved= 8 IEnMin= 8 EnMin= -760.374539955478     IErMin= 8 ErrMin= 2.24D-04
 ErrMax= 2.24D-04  0.00D+00 EMaxC= 1.00D-01 BMatC= 2.14D-05 BMatP= 3.55D-04
 IDIUse=3 WtCom= 9.98D-01 WtEn= 2.24D-03
 Coeff-Com:  0.354D-02-0.537D-02 0.853D-02-0.286D-02 0.217D-01 0.681D-01
 Coeff-Com:  0.249D+00 0.658D+00
 Coeff-En:   0.000D+00 0.000D+00 0.000D+00 0.000D+00 0.000D+00 0.000D+00
 Coeff-En:   0.000D+00 0.100D+01
 Coeff:      0.353D-02-0.536D-02 0.851D-02-0.286D-02 0.217D-01 0.680D-01
 Coeff:      0.248D+00 0.658D+00
 Gap=     0.143 Goal=   None    Shift=    0.000
 RMSDP=2.01D-05 MaxDP=1.20D-03 DE=-2.60D-04 OVMax= 8.04D-04

 Cycle   9  Pass 1  IDiag  1:
 RMSU=  8.14D-06    CP:  1.02D+00  9.02D-01  4.25D-01  2.83D-01  8.24D-01
                    CP:  4.12D-01  6.46D-01  6.88D-01
 E= -760.374555235583     Delta-E=       -0.000015280105 Rises=F Damp=F
 DIIS: error= 7.74D-05 at cycle   9 NSaved=   9.
 NSaved= 9 IEnMin= 9 EnMin= -760.374555235583     IErMin= 9 ErrMin= 7.74D-05
 ErrMax= 7.74D-05  0.00D+00 EMaxC= 1.00D-01 BMatC= 2.21D-06 BMatP= 2.14D-05
 IDIUse=1 WtCom= 1.00D+00 WtEn= 0.00D+00
 Coeff-Com:  0.340D-02-0.532D-02 0.350D-02-0.111D-02 0.931D-02 0.415D-01
 Coeff-Com:  0.154D+00 0.443D+00 0.352D+00
 Coeff:      0.340D-02-0.532D-02 0.350D-02-0.111D-02 0.931D-02 0.415D-01
 Coeff:      0.154D+00 0.443D+00 0.352D+00
 Gap=     0.143 Goal=   None    Shift=    0.000
 RMSDP=5.09D-06 MaxDP=1.50D-04 DE=-1.53D-05 OVMax= 5.07D-04

 Cycle  10  Pass 1  IDiag  1:
 RMSU=  3.78D-06    CP:  1.02D+00  9.02D-01  4.25D-01  2.83D-01  8.23D-01
                    CP:  4.13D-01  6.53D-01  7.23D-01  6.30D-01
 E= -760.374556636389     Delta-E=       -0.000001400806 Rises=F Damp=F
 DIIS: error= 2.73D-05 at cycle  10 NSaved=  10.
 NSaved=10 IEnMin=10 EnMin= -760.374556636389     IErMin=10 ErrMin= 2.73D-05
 ErrMax= 2.73D-05  0.00D+00 EMaxC= 1.00D-01 BMatC= 2.84D-07 BMatP= 2.21D-06
 IDIUse=1 WtCom= 1.00D+00 WtEn= 0.00D+00
 Coeff-Com:  0.123D-02-0.164D-02 0.912D-03-0.299D-03 0.183D-02 0.117D-01
 Coeff-Com:  0.479D-01 0.154D+00 0.243D+00 0.541D+00
 Coeff:      0.123D-02-0.164D-02 0.912D-03-0.299D-03 0.183D-02 0.117D-01
 Coeff:      0.479D-01 0.154D+00 0.243D+00 0.541D+00
 Gap=     0.143 Goal=   None    Shift=    0.000
 RMSDP=2.00D-06 MaxDP=9.50D-05 DE=-1.40D-06 OVMax= 1.65D-04

 Cycle  11  Pass 1  IDiag  1:
 RMSU=  1.16D-06    CP:  1.02D+00  9.01D-01  4.25D-01  2.83D-01  8.24D-01
                    CP:  4.13D-01  6.51D-01  7.32D-01  6.88D-01  6.92D-01
 E= -760.374556812757     Delta-E=       -0.000000176368 Rises=F Damp=F
 DIIS: error= 1.19D-05 at cycle  11 NSaved=  11.
 NSaved=11 IEnMin=11 EnMin= -760.374556812757     IErMin=11 ErrMin= 1.19D-05
 ErrMax= 1.19D-05  0.00D+00 EMaxC= 1.00D-01 BMatC= 5.13D-08 BMatP= 2.84D-07
 IDIUse=1 WtCom= 1.00D+00 WtEn= 0.00D+00
 Coeff-Com:  0.477D-03-0.530D-03 0.386D-03-0.128D-03 0.518D-03 0.369D-02
 Coeff-Com:  0.168D-01 0.569D-01 0.129D+00 0.386D+00 0.407D+00
 Coeff:      0.477D-03-0.530D-03 0.386D-03-0.128D-03 0.518D-03 0.369D-02
 Coeff:      0.168D-01 0.569D-01 0.129D+00 0.386D+00 0.407D+00
 Gap=     0.143 Goal=   None    Shift=    0.000
 RMSDP=8.20D-07 MaxDP=5.17D-05 DE=-1.76D-07 OVMax= 5.71D-05

 Cycle  12  Pass 1  IDiag  1:
 RMSU=  4.85D-07    CP:  1.02D+00  9.01D-01  4.25D-01  2.83D-01  8.24D-01
                    CP:  4.13D-01  6.52D-01  7.33D-01  6.68D-01  7.05D-01
                    CP:  5.05D-01
 E= -760.374556871358     Delta-E=       -0.000000058601 Rises=F Damp=F
 DIIS: error= 5.14D-06 at cycle  12 NSaved=  12.
 NSaved=12 IEnMin=12 EnMin= -760.374556871358     IErMin=12 ErrMin= 5.14D-06
 ErrMax= 5.14D-06  0.00D+00 EMaxC= 1.00D-01 BMatC= 6.26D-09 BMatP= 5.13D-08
 IDIUse=1 WtCom= 1.00D+00 WtEn= 0.00D+00
 Coeff-Com:  0.208D-03-0.235D-03 0.200D-03-0.547D-04 0.254D-03 0.131D-02
 Coeff-Com:  0.610D-02 0.198D-01 0.566D-01 0.192D+00 0.283D+00 0.441D+00
 Coeff:      0.208D-03-0.235D-03 0.200D-03-0.547D-04 0.254D-03 0.131D-02
 Coeff:      0.610D-02 0.198D-01 0.566D-01 0.192D+00 0.283D+00 0.441D+00
 Gap=     0.143 Goal=   None    Shift=    0.000
 RMSDP=3.60D-07 MaxDP=1.82D-05 DE=-5.86D-08 OVMax= 2.44D-05

 Cycle  13  Pass 1  IDiag  1:
 RMSU=  1.84D-07    CP:  1.02D+00  9.01D-01  4.25D-01  2.83D-01  8.24D-01
                    CP:  4.13D-01  6.52D-01  7.31D-01  6.74D-01  7.12D-01
                    CP:  5.50D-01  4.84D-01
 E= -760.374556875441     Delta-E=       -0.000000004083 Rises=F Damp=F
 DIIS: error= 1.18D-06 at cycle  13 NSaved=  13.
 NSaved=13 IEnMin=13 EnMin= -760.374556875441     IErMin=13 ErrMin= 1.18D-06
 ErrMax= 1.18D-06  0.00D+00 EMaxC= 1.00D-01 BMatC= 9.29D-10 BMatP= 6.26D-09
 IDIUse=1 WtCom= 1.00D+00 WtEn= 0.00D+00
 Coeff-Com:  0.427D-04-0.341D-04 0.660D-04-0.159D-04 0.488D-04 0.551D-04
 Coeff-Com:  0.821D-03 0.251D-02 0.153D-01 0.626D-01 0.124D+00 0.307D+00
 Coeff-Com:  0.488D+00
 Coeff:      0.427D-04-0.341D-04 0.660D-04-0.159D-04 0.488D-04 0.551D-04
 Coeff:      0.821D-03 0.251D-02 0.153D-01 0.626D-01 0.124D+00 0.307D+00
 Coeff:      0.488D+00
 Gap=     0.143 Goal=   None    Shift=    0.000
 RMSDP=1.23D-07 MaxDP=5.07D-06 DE=-4.08D-09 OVMax= 8.58D-06

 Cycle  14  Pass 1  IDiag  1:
 RMSU=  5.65D-08    CP:  1.02D+00  9.01D-01  4.25D-01  2.83D-01  8.24D-01
                    CP:  4.13D-01  6.52D-01  7.31D-01  6.75D-01  7.14D-01
                    CP:  5.46D-01  5.47D-01  5.11D-01
 E= -760.374556876082     Delta-E=       -0.000000000641 Rises=F Damp=F
 DIIS: error= 3.65D-07 at cycle  14 NSaved=  14.
 NSaved=14 IEnMin=14 EnMin= -760.374556876082     IErMin=14 ErrMin= 3.65D-07
 ErrMax= 3.65D-07  0.00D+00 EMaxC= 1.00D-01 BMatC= 9.17D-11 BMatP= 9.29D-10
 IDIUse=1 WtCom= 1.00D+00 WtEn= 0.00D+00
 Coeff-Com:  0.108D-04-0.447D-05 0.243D-04-0.416D-05 0.332D-05-0.928D-04
 Coeff-Com: -0.406D-04-0.218D-03 0.466D-02 0.225D-01 0.548D-01 0.161D+00
 Coeff-Com:  0.320D+00 0.437D+00
 Coeff:      0.108D-04-0.447D-05 0.243D-04-0.416D-05 0.332D-05-0.928D-04
 Coeff:     -0.406D-04-0.218D-03 0.466D-02 0.225D-01 0.548D-01 0.161D+00
 Coeff:      0.320D+00 0.437D+00
 Gap=     0.143 Goal=   None    Shift=    0.000
 RMSDP=2.94D-08 MaxDP=8.46D-07 DE=-6.41D-10 OVMax= 1.66D-06

 Cycle  15  Pass 1  IDiag  1:
 RMSU=  2.13D-08    CP:  1.02D+00  9.01D-01  4.25D-01  2.83D-01  8.24D-01
                    CP:  4.13D-01  6.52D-01  7.31D-01  6.75D-01  7.14D-01
                    CP:  5.50D-01  5.53D-01  5.36D-01  6.90D-01
 E= -760.374556876151     Delta-E=       -0.000000000070 Rises=F Damp=F
 DIIS: error= 7.74D-08 at cycle  15 NSaved=  15.
 NSaved=15 IEnMin=15 EnMin= -760.374556876151     IErMin=15 ErrMin= 7.74D-08
 ErrMax= 7.74D-08  0.00D+00 EMaxC= 1.00D-01 BMatC= 4.98D-12 BMatP= 9.17D-11
 IDIUse=1 WtCom= 1.00D+00 WtEn= 0.00D+00
 Coeff-Com:  0.142D-05-0.562D-06 0.566D-05-0.633D-06-0.295D-06-0.357D-04
 Coeff-Com: -0.656D-04-0.250D-03 0.456D-03 0.284D-02 0.999D-02 0.377D-01
 Coeff-Com:  0.914D-01 0.224D+00 0.634D+00
 Coeff:      0.142D-05-0.562D-06 0.566D-05-0.633D-06-0.295D-06-0.357D-04
 Coeff:     -0.656D-04-0.250D-03 0.456D-03 0.284D-02 0.999D-02 0.377D-01
 Coeff:      0.914D-01 0.224D+00 0.634D+00
 Gap=     0.143 Goal=   None    Shift=    0.000
 RMSDP=1.24D-08 MaxDP=7.35D-07 DE=-6.96D-11 OVMax= 3.41D-07

 Cycle  16  Pass 1  IDiag  1:
 RMSU=  5.89D-09    CP:  1.02D+00  9.01D-01  4.25D-01  2.83D-01  8.24D-01
                    CP:  4.13D-01  6.52D-01  7.31D-01  6.75D-01  7.14D-01
                    CP:  5.50D-01  5.58D-01  5.55D-01  6.92D-01  7.34D-01
 E= -760.374556876156     Delta-E=       -0.000000000005 Rises=F Damp=F
 DIIS: error= 1.47D-08 at cycle  16 NSaved=  16.
 NSaved=16 IEnMin=16 EnMin= -760.374556876156     IErMin=16 ErrMin= 1.47D-08
 ErrMax= 1.47D-08  0.00D+00 EMaxC= 1.00D-01 BMatC= 2.29D-13 BMatP= 4.98D-12
 IDIUse=1 WtCom= 1.00D+00 WtEn= 0.00D+00
 Coeff-Com:  0.120D-07 0.316D-06 0.119D-05-0.662D-07-0.994D-06-0.115D-04
 Coeff-Com: -0.285D-04-0.911D-04-0.199D-04 0.103D-03 0.144D-02 0.794D-02
 Coeff-Com:  0.224D-01 0.710D-01 0.264D+00 0.633D+00
 Coeff:      0.120D-07 0.316D-06 0.119D-05-0.662D-07-0.994D-06-0.115D-04
 Coeff:     -0.285D-04-0.911D-04-0.199D-04 0.103D-03 0.144D-02 0.794D-02
 Coeff:      0.224D-01 0.710D-01 0.264D+00 0.633D+00
 Gap=     0.143 Goal=   None    Shift=    0.000
 RMSDP=3.32D-09 MaxDP=2.76D-07 DE=-4.89D-12 OVMax= 8.08D-08

 Error on total polarization charges =  0.00929
 SCF Done:  E(RB-P86) =  -760.374556876     A.U. after   16 cycles
            NFock= 16  Conv=0.33D-08     -V/T= 2.0043
 KE= 7.571177636574D+02 PE=-3.505092819817D+03 EE= 1.128481776331D+03
 Leave Link  502 at Mon Feb 22 21:11:59 2021, MaxMem=   104857600 cpu:             664.4 elap:              21.1
 (Enter /sw/arch/RedHatEnterpriseServer7/EB_production/2019/software/Gaussian/g16.c01/l601.exe)
 Copying SCF densities to generalized density rwf, IOpCl= 0 IROHF=0.

 **********************************************************************

            Population analysis using the SCF Density.

 **********************************************************************

 Orbital symmetries:
       Occupied  (A) (A) (A) (A) (A) (A) (A) (A) (A) (A) (A) (A)
                 (A) (A) (A) (A) (A) (A) (A) (A) (A) (A) (A) (A)
                 (A) (A) (A) (A) (A) (A) (A) (A) (A) (A) (A) (A)
                 (A) (A) (A) (A) (A) (A) (A) (A) (A) (A) (A) (A)
                 (A) (A)
       Virtual   (A) (A) (A) (A) (A) (A) (A) (A) (A) (A) (A) (A)
                 (A) (A) (A) (A) (A) (A) (A) (A) (A) (A) (A) (A)
                 (A) (A) (A) (A) (A) (A) (A) (A) (A) (A) (A) (A)
                 (A) (A) (A) (A) (A) (A) (A) (A) (A) (A) (A) (A)
                 (A) (A) (A) (A) (A) (A) (A) (A) (A) (A) (A) (A)
                 (A) (A) (A) (A) (A) (A) (A) (A) (A) (A) (A) (A)
                 (A) (A) (A) (A) (A) (A) (A) (A) (A) (A) (A) (A)
                 (A) (A) (A) (A) (A) (A) (A) (A) (A) (A) (A) (A)
                 (A) (A) (A) (A) (A) (A) (A) (A) (A) (A) (A) (A)
                 (A) (A) (A) (A) (A) (A) (A) (A) (A) (A) (A) (A)
                 (A) (A) (A) (A) (A) (A) (A) (A) (A) (A) (A) (A)
                 (A) (A) (A) (A) (A) (A) (A) (A) (A) (A) (A) (A)
                 (A) (A) (A) (A) (A) (A) (A) (A) (A) (A) (A) (A)
                 (A) (A) (A) (A) (A) (A) (A) (A) (A) (A) (A) (A)
                 (A) (A) (A) (A) (A) (A) (A) (A) (A) (A) (A) (A)
                 (A) (A) (A) (A) (A) (A) (A) (A) (A) (A) (A) (A)
                 (A) (A) (A) (A) (A) (A) (A) (A) (A) (A) (A) (A)
                 (A) (A) (A) (A) (A) (A) (A) (A) (A) (A) (A) (A)
                 (A) (A) (A) (A) (A) (A) (A) (A) (A) (A) (A) (A)
                 (A) (A) (A) (A) (A) (A) (A) (A) (A) (A) (A) (A)
                 (A) (A) (A) (A) (A)
 The electronic state is 1-A.
 Alpha  occ. eigenvalues --  -18.83579 -18.83352 -18.82499 -18.79661 -18.77674
 Alpha  occ. eigenvalues --  -18.77437 -18.76504 -10.05607 -10.05376 -10.04550
 Alpha  occ. eigenvalues --  -10.02285  -9.94382  -9.94074  -1.03427  -1.02952
 Alpha  occ. eigenvalues --   -1.02136  -0.97481  -0.93683  -0.93396  -0.92807
 Alpha  occ. eigenvalues --   -0.76907  -0.71591  -0.67133  -0.60606  -0.59246
 Alpha  occ. eigenvalues --   -0.57650  -0.50860  -0.49635  -0.46199  -0.45352
 Alpha  occ. eigenvalues --   -0.44398  -0.43885  -0.43213  -0.42781  -0.41206
 Alpha  occ. eigenvalues --   -0.40152  -0.39626  -0.38618  -0.36780  -0.35827
 Alpha  occ. eigenvalues --   -0.34916  -0.34418  -0.32536  -0.29830  -0.29658
 Alpha  occ. eigenvalues --   -0.29022  -0.26218  -0.25292  -0.24526  -0.24002
 Alpha virt. eigenvalues --   -0.09713  -0.06790  -0.06154   0.00198   0.00850
 Alpha virt. eigenvalues --    0.01936   0.03562   0.05246   0.06269   0.06370
 Alpha virt. eigenvalues --    0.09699   0.10175   0.10484   0.11872   0.12673
 Alpha virt. eigenvalues --    0.13508   0.15511   0.16166   0.16719   0.17323
 Alpha virt. eigenvalues --    0.18775   0.19271   0.22303   0.24068   0.24490
 Alpha virt. eigenvalues --    0.24998   0.25408   0.27521   0.27917   0.28599
 Alpha virt. eigenvalues --    0.29177   0.29888   0.30768   0.30901   0.32040
 Alpha virt. eigenvalues --    0.33186   0.34762   0.35707   0.36677   0.37016
 Alpha virt. eigenvalues --    0.37480   0.38167   0.39495   0.39972   0.40326
 Alpha virt. eigenvalues --    0.41185   0.41730   0.42559   0.43524   0.44086
 Alpha virt. eigenvalues --    0.44821   0.45258   0.45936   0.46749   0.47919
 Alpha virt. eigenvalues --    0.48670   0.48702   0.50197   0.51362   0.51905
 Alpha virt. eigenvalues --    0.52985   0.53245   0.56005   0.57496   0.58244
 Alpha virt. eigenvalues --    0.58788   0.60432   0.62805   0.63509   0.65547
 Alpha virt. eigenvalues --    0.68289   0.69372   0.70801   0.72573   0.73605
 Alpha virt. eigenvalues --    0.77552   0.78882   0.81066   0.88780   0.89191
 Alpha virt. eigenvalues --    0.94038   0.95688   0.95749   1.07859   1.12233
 Alpha virt. eigenvalues --    1.18404   1.19371   1.21465   1.21960   1.24851
 Alpha virt. eigenvalues --    1.25674   1.26273   1.28602   1.29746   1.30543
 Alpha virt. eigenvalues --    1.31428   1.32511   1.34724   1.35186   1.36311
 Alpha virt. eigenvalues --    1.37097   1.40351   1.40587   1.42028   1.42881
 Alpha virt. eigenvalues --    1.44389   1.46690   1.48828   1.49077   1.50298
 Alpha virt. eigenvalues --    1.52133   1.52927   1.54072   1.54503   1.55765
 Alpha virt. eigenvalues --    1.55998   1.57056   1.58634   1.60284   1.63438
 Alpha virt. eigenvalues --    1.64841   1.71519   1.73728   1.74121   1.77594
 Alpha virt. eigenvalues --    1.78979   1.83155   1.85082   1.88570   1.89085
 Alpha virt. eigenvalues --    1.90038   1.91531   1.92637   1.95220   1.96148
 Alpha virt. eigenvalues --    1.98948   2.01663   2.04782   2.06525   2.08443
 Alpha virt. eigenvalues --    2.11056   2.11263   2.14696   2.17113   2.19274
 Alpha virt. eigenvalues --    2.19596   2.24135   2.27012   2.29964   2.31863
 Alpha virt. eigenvalues --    2.34221   2.36136   2.38955   2.40897   2.42718
 Alpha virt. eigenvalues --    2.43527   2.46363   2.47419   2.50002   2.50522
 Alpha virt. eigenvalues --    2.51273   2.51820   2.52298   2.53167   2.54269
 Alpha virt. eigenvalues --    2.54897   2.55227   2.55954   2.56540   2.57118
 Alpha virt. eigenvalues --    2.58637   2.59619   2.60093   2.61305   2.61508
 Alpha virt. eigenvalues --    2.62093   2.64230   2.65417   2.65876   2.68156
 Alpha virt. eigenvalues --    2.70306   2.71327   2.72667   2.73965   2.75699
 Alpha virt. eigenvalues --    2.76692   2.77215   2.81215   2.83000   2.84628
 Alpha virt. eigenvalues --    2.85680   2.86545   2.88524   2.88682   2.90095
 Alpha virt. eigenvalues --    2.91403   2.93245   2.94060   2.95316   3.00758
 Alpha virt. eigenvalues --    3.02438   3.03632   3.05006   3.05939   3.07039
 Alpha virt. eigenvalues --    3.07484   3.09349   3.11996   3.15422   3.16932
 Alpha virt. eigenvalues --    3.20441   3.22251   3.23778   3.28755   3.30223
 Alpha virt. eigenvalues --    3.32908   3.33935   3.38034   3.43966   3.44851
 Alpha virt. eigenvalues --    3.45848   3.81833   3.83618   3.83774   3.93107
 Alpha virt. eigenvalues --    3.99028   4.00178   4.01055   4.15537   4.16909
 Alpha virt. eigenvalues --    4.18004   4.20237  21.65319  21.70452  21.71883
 Alpha virt. eigenvalues --   21.80058  21.84963  21.86378  43.07016  43.08384
 Alpha virt. eigenvalues --   43.10591  43.14699  43.18710  43.21450  43.36765
          Condensed to atoms (all electrons):
               1          2          3          4          5          6
     1  O    7.993426   0.593842  -0.124377  -0.127035   0.004507  -0.003178
     2  C    0.593842   4.953960   0.363150   0.040511  -0.001383  -0.019659
     3  O   -0.124377   0.363150   7.838861  -0.101848  -0.025638   0.000548
     4  C   -0.127035   0.040511  -0.101848   5.813001   0.203310  -0.028468
     5  C    0.004507  -0.001383  -0.025638   0.203310   6.447438   0.249031
     6  O   -0.003178  -0.019659   0.000548  -0.028468   0.249031   7.947300
     7  C   -0.010687  -0.017085   0.012488   0.006052  -0.145572  -0.014434
     8  C    0.000195  -0.000238  -0.000395  -0.024703  -0.058502  -0.034616
     9  O    0.000000   0.000104   0.000001  -0.002209  -0.019752   0.000215
    10  O   -0.000011  -0.000288   0.000006  -0.002065   0.002427   0.001655
    11  C   -0.004050  -0.023492  -0.001881  -0.190430  -0.325929  -0.086924
    12  O    0.000082  -0.001288  -0.000002  -0.026467  -0.091716  -0.008318
    13  O   -0.000002  -0.001089   0.000003  -0.017580  -0.130284  -0.000282
    14  H    0.001616  -0.022196   0.292005   0.015074   0.000948   0.000018
    15  H   -0.002272  -0.010221   0.001647   0.376295  -0.026458  -0.002655
    16  H    0.006795  -0.023857   0.008619   0.331879   0.003536   0.005788
    17  H    0.012732   0.001804   0.000237  -0.022868  -0.016270   0.304116
    18  H    0.000078  -0.000528   0.000720   0.001921  -0.002908   0.007562
    19  H    0.000736   0.008746  -0.002548  -0.031010  -0.002708  -0.011075
    20  H   -0.000001  -0.000008   0.000000   0.000189   0.001166   0.000728
    21  H   -0.000001   0.000041  -0.000001  -0.000336   0.016962  -0.000281
               7          8          9         10         11         12
     1  O   -0.010687   0.000195   0.000000  -0.000011  -0.004050   0.000082
     2  C   -0.017085  -0.000238   0.000104  -0.000288  -0.023492  -0.001288
     3  O    0.012488  -0.000395   0.000001   0.000006  -0.001881  -0.000002
     4  C    0.006052  -0.024703  -0.002209  -0.002065  -0.190430  -0.026467
     5  C   -0.145572  -0.058502  -0.019752   0.002427  -0.325929  -0.091716
     6  O   -0.014434  -0.034616   0.000215   0.001655  -0.086924  -0.008318
     7  C    6.049577  -0.030371  -0.130955  -0.139566  -0.033813   0.012593
     8  C   -0.030371   4.942557   0.643788   0.372203   0.049855  -0.001036
     9  O   -0.130955   0.643788   7.956329  -0.129705   0.012432  -0.000008
    10  O   -0.139566   0.372203  -0.129705   7.854454   0.000331  -0.000008
    11  C   -0.033813   0.049855   0.012432   0.000331   5.417445   0.613054
    12  O    0.012593  -0.001036  -0.000008  -0.000008   0.613054   7.934105
    13  O    0.038751  -0.004276  -0.003187  -0.000431   0.392950  -0.129074
    14  H   -0.000509   0.000041  -0.000000   0.000001   0.000102  -0.000000
    15  H    0.015441  -0.000055   0.000010  -0.000011  -0.010563   0.014016
    16  H   -0.010257   0.000726   0.000025   0.000029  -0.008718  -0.000422
    17  H   -0.007134  -0.002060   0.000112   0.003253   0.015207  -0.000389
    18  H    0.408243  -0.061164   0.003818   0.003448  -0.012817  -0.000138
    19  H    0.292969   0.030515   0.004352   0.006684   0.018257  -0.000269
    20  H    0.014974  -0.023147   0.001446   0.292352  -0.000413   0.000010
    21  H   -0.002661   0.000764   0.000501  -0.000001  -0.020936   0.002700
              13         14         15         16         17         18
     1  O   -0.000002   0.001616  -0.002272   0.006795   0.012732   0.000078
     2  C   -0.001089  -0.022196  -0.010221  -0.023857   0.001804  -0.000528
     3  O    0.000003   0.292005   0.001647   0.008619   0.000237   0.000720
     4  C   -0.017580   0.015074   0.376295   0.331879  -0.022868   0.001921
     5  C   -0.130284   0.000948  -0.026458   0.003536  -0.016270  -0.002908
     6  O   -0.000282   0.000018  -0.002655   0.005788   0.304116   0.007562
     7  C    0.038751  -0.000509   0.015441  -0.010257  -0.007134   0.408243
     8  C   -0.004276   0.000041  -0.000055   0.000726  -0.002060  -0.061164
     9  O   -0.003187  -0.000000   0.000010   0.000025   0.000112   0.003818
    10  O   -0.000431   0.000001  -0.000011   0.000029   0.003253   0.003448
    11  C    0.392950   0.000102  -0.010563  -0.008718   0.015207  -0.012817
    12  O   -0.129074  -0.000000   0.014016  -0.000422  -0.000389  -0.000138
    13  O    7.810539  -0.000000   0.001682   0.002014  -0.000292   0.000041
    14  H   -0.000000   0.371231  -0.000399  -0.000301  -0.000000  -0.000032
    15  H    0.001682  -0.000399   0.445853  -0.012591  -0.000529  -0.000155
    16  H    0.002014  -0.000301  -0.012591   0.507142   0.000522   0.000550
    17  H   -0.000292  -0.000000  -0.000529   0.000522   0.408125   0.000590
    18  H    0.000041  -0.000032  -0.000155   0.000550   0.000590   0.477779
    19  H   -0.000159   0.000387  -0.000407   0.001247   0.001365  -0.020447
    20  H   -0.000067  -0.000000  -0.000001  -0.000002  -0.000184  -0.000185
    21  H    0.293940   0.000000  -0.000047  -0.000149   0.000028   0.000107
              19         20         21
     1  O    0.000736  -0.000001  -0.000001
     2  C    0.008746  -0.000008   0.000041
     3  O   -0.002548   0.000000  -0.000001
     4  C   -0.031010   0.000189  -0.000336
     5  C   -0.002708   0.001166   0.016962
     6  O   -0.011075   0.000728  -0.000281
     7  C    0.292969   0.014974  -0.002661
     8  C    0.030515  -0.023147   0.000764
     9  O    0.004352   0.001446   0.000501
    10  O    0.006684   0.292352  -0.000001
    11  C    0.018257  -0.000413  -0.020936
    12  O   -0.000269   0.000010   0.002700
    13  O   -0.000159  -0.000067   0.293940
    14  H    0.000387  -0.000000   0.000000
    15  H   -0.000407  -0.000001  -0.000047
    16  H    0.001247  -0.000002  -0.000149
    17  H    0.001365  -0.000184   0.000028
    18  H   -0.020447  -0.000185   0.000107
    19  H    0.493798  -0.000593   0.000055
    20  H   -0.000593   0.376577  -0.000006
    21  H    0.000055  -0.000006   0.364811
 Mulliken charges:
               1
     1  O   -0.342396
     2  C    0.159174
     3  O   -0.261596
     4  C   -0.213212
     5  C   -0.082206
     6  O   -0.307070
     7  C   -0.308045
     8  C    0.199920
     9  O   -0.337315
    10  O   -0.264757
    11  C    0.200332
    12  O   -0.317423
    13  O   -0.253196
    14  H    0.342014
    15  H    0.211419
    16  H    0.187424
    17  H    0.301635
    18  H    0.193517
    19  H    0.210104
    20  H    0.337167
    21  H    0.344510
 Sum of Mulliken charges =  -0.00000
 Mulliken charges with hydrogens summed into heavy atoms:
               1
     1  O   -0.342396
     2  C    0.159174
     3  O    0.080418
     4  C    0.185632
     5  C   -0.082206
     6  O   -0.005435
     7  C    0.095576
     8  C    0.199920
     9  O   -0.337315
    10  O    0.072409
    11  C    0.200332
    12  O   -0.317423
    13  O    0.091314
 Electronic spatial extent (au):  <R**2>=           2466.9425
 Charge=             -0.0000 electrons
 Dipole moment (field-independent basis, Debye):
    X=             -1.5611    Y=             -2.5078    Z=             -3.6713  Tot=              4.7122
 Quadrupole moment (field-independent basis, Debye-Ang):
   XX=            -69.8249   YY=            -69.3006   ZZ=            -80.6325
   XY=              8.4349   XZ=             13.9438   YZ=            -11.1327
 Traceless Quadrupole moment (field-independent basis, Debye-Ang):
   XX=              3.4278   YY=              3.9521   ZZ=             -7.3798
   XY=              8.4349   XZ=             13.9438   YZ=            -11.1327
 Octapole moment (field-independent basis, Debye-Ang**2):
  XXX=            -22.5417  YYY=            -28.0009  ZZZ=              0.1582  XYY=              5.2806
  XXY=             -3.7772  XXZ=             -1.2078  XZZ=             10.7969  YZZ=             -6.4524
  YYZ=            -13.5720  XYZ=            -32.0763
 Hexadecapole moment (field-independent basis, Debye-Ang**3):
 XXXX=          -1550.2136 YYYY=           -849.0766 ZZZZ=           -405.6383 XXXY=            159.4628
 XXXZ=            197.8961 YYYX=             48.5983 YYYZ=            -74.2714 ZZZX=             19.6612
 ZZZY=            -31.0277 XXYY=           -279.9756 XXZZ=           -362.1057 YYZZ=           -197.4708
 XXYZ=            -48.7418 YYXZ=             23.2866 ZZXY=              0.9408
 N-N= 8.591187229530D+02 E-N=-3.505092818736D+03  KE= 7.571177636574D+02
 No NMR shielding tensors so no spin-rotation constants.
 Leave Link  601 at Mon Feb 22 21:12:00 2021, MaxMem=   104857600 cpu:               6.9 elap:               0.3
 (Enter /sw/arch/RedHatEnterpriseServer7/EB_production/2019/software/Gaussian/g16.c01/l701.exe)
 ... and contract with generalized density number  0.
 Compute integral first derivatives.
 R6Disp: Adding Grimme-D3 dispersion energy 1st derivatives to the gradient.
 PrsmSu:  requested number of processors reduced to:  28 ShMem   1 Linda.
 D1PCM: PCM CHGder 1st derivatives, ID1Alg=3 FixD1E=F DoIter=F DoCFld=F I1PDM=0.
 GePol: Maximum number of non-zero 1st derivatives   =     206
 CoulSu:  requested number of processors reduced to:  29 ShMem   1 Linda.
 CoulSu:  requested number of processors reduced to:  29 ShMem   1 Linda.
 Leave Link  701 at Mon Feb 22 21:12:00 2021, MaxMem=   104857600 cpu:              27.1 elap:               0.9
 (Enter /sw/arch/RedHatEnterpriseServer7/EB_production/2019/software/Gaussian/g16.c01/l702.exe)
 L702 exits ... SP integral derivatives will be done elsewhere.
 Leave Link  702 at Mon Feb 22 21:12:01 2021, MaxMem=   104857600 cpu:               0.7 elap:               0.0
 (Enter /sw/arch/RedHatEnterpriseServer7/EB_production/2019/software/Gaussian/g16.c01/l703.exe)
 Integral derivatives from FoFJK, PRISM(SPDF).
 Compute integral first derivatives, UseDBF=F ICtDFT=           0.
 Calling FoFJK, ICntrl=      2527 FMM=F ISym2X=0 I1Cent= 0 IOpClX= 0 NMat=1 NMatS=1 NMatT=0.
 FoFJK:  IHMeth= 1 ICntrl=    2527 DoSepK=F KAlg= 0 I1Cent=           0 FoldK=F
 IRaf=         0 NMat=       1 IRICut=       1 DoRegI=T DoRafI=F ISym2E= 0 IDoP0=0 IntGTp=1.
 FoFCou: FMM=F IPFlag=           0 FMFlag=      100000 FMFlg1=         800
         NFxFlg=           0 DoJE=F BraDBF=F KetDBF=F FulRan=T
         wScrn=  0.000000 ICntrl=      2527 IOpCl=  0 I1Cent=           0 NGrid=           0
         NMat0=    1 NMatS0=      1 NMatT0=    0 NMatD0=    1 NMtDS0=    0 NMtDT0=    0
 Symmetry not used in FoFCou.
 Leave Link  703 at Mon Feb 22 21:12:03 2021, MaxMem=   104857600 cpu:              85.7 elap:               2.7
 (Enter /sw/arch/RedHatEnterpriseServer7/EB_production/2019/software/Gaussian/g16.c01/l716.exe)
 Dipole        =-6.14172020D-01-9.86627679D-01-1.44441662D+00
 ***** Axes restored to original set *****
 -------------------------------------------------------------------
 Center     Atomic                   Forces (Hartrees/Bohr)
 Number     Number              X              Y              Z
 -------------------------------------------------------------------
      1        8          -0.001178402    0.000171641   -0.025854992
      2        6          -0.007602823   -0.014026557    0.079894348
      3        8          -0.000001099    0.004592466   -0.044116926
      4        6          -0.011227233    0.003895089   -0.029928788
      5        6          -0.021386738   -0.029938412    0.021559423
      6        8           0.004043366    0.002518123   -0.003383584
      7        6          -0.004614237    0.017019957    0.010336634
      8        6           0.035602429   -0.049653403   -0.058182983
      9        8          -0.007935952    0.012543685    0.021640094
     10        8          -0.014812097    0.022391678    0.032349391
     11        6           0.072569811    0.072814778   -0.027486334
     12        8          -0.024478741   -0.024982844    0.005665819
     13        8          -0.036632020   -0.036362978    0.006970080
     14        1           0.016834737    0.003551326    0.008626994
     15        1           0.005483409   -0.001162245    0.001772888
     16        1          -0.001577358    0.000944124   -0.006263554
     17        1           0.004271943    0.002682199    0.001875926
     18        1           0.002278572   -0.003124263   -0.002554233
     19        1          -0.005028570    0.002076812    0.008006796
     20        1          -0.007859718    0.004076602   -0.017764500
     21        1           0.003250719    0.009972222    0.016837502
 -------------------------------------------------------------------
 Cartesian Forces:  Max     0.079894348 RMS     0.024825688
 Leave Link  716 at Mon Feb 22 21:12:05 2021, MaxMem=   104857600 cpu:               0.9 elap:               0.1
 (Enter /sw/arch/RedHatEnterpriseServer7/EB_production/2019/software/Gaussian/g16.c01/l103.exe)

 GradGradGradGradGradGradGradGradGradGradGradGradGradGradGradGradGradGrad
 Berny optimization.
 FormGI is forming the generalized inverse of G from B-inverse, IUseBI=4.
 Internal  Forces:  Max     0.042163816 RMS     0.012685914
 Search for a local minimum.
 Step number   1 out of a maximum of  106
 All quantities printed in internal units (Hartrees-Bohrs-Radians)
 RMS Force = .12686D-01 SwitMx=.10000D-02 MixMth= 1
 Mixed Optimization -- RFO/linear search
 Second derivative matrix not updated -- first step.
 ITU=  0
     Eigenvalues ---    0.00230   0.00230   0.00868   0.01024   0.01025
     Eigenvalues ---    0.01206   0.01264   0.01330   0.01333   0.02291
     Eigenvalues ---    0.02292   0.02303   0.03898   0.03905   0.04701
     Eigenvalues ---    0.05325   0.05339   0.06047   0.07633   0.09900
     Eigenvalues ---    0.09919   0.13135   0.13142   0.16000   0.16000
     Eigenvalues ---    0.16000   0.16000   0.16440   0.17473   0.21999
     Eigenvalues ---    0.22002   0.24996   0.24998   0.24999   0.25000
     Eigenvalues ---    0.25000   0.25000   0.26006   0.26057   0.33198
     Eigenvalues ---    0.34251   0.34264   0.34464   0.34512   0.34518
     Eigenvalues ---    0.34654   0.40656   0.51236   0.51283   0.51388
     Eigenvalues ---    0.51449   0.54036   0.54042   0.54224   0.82053
     Eigenvalues ---    0.82198   0.82947
 RFO step:  Lambda=-5.23914997D-02 EMin= 2.30000000D-03
 Linear search not attempted -- first point.
 Maximum step size (   0.300) exceeded in Quadratic search.
    -- Step size scaled by   0.695
 Iteration  1 RMS(Cart)=  0.06319874 RMS(Int)=  0.00177998
 Iteration  2 RMS(Cart)=  0.00242098 RMS(Int)=  0.00015070
 Iteration  3 RMS(Cart)=  0.00000238 RMS(Int)=  0.00015069
 Iteration  4 RMS(Cart)=  0.00000000 RMS(Int)=  0.00015069
 ITry= 1 IFail=0 DXMaxC= 2.24D-01 DCOld= 1.00D+10 DXMaxT= 3.00D-01 DXLimC= 3.00D+00 Rises=F
 Variable       Old X    -DE/DX   Delta X   Delta X   Delta X     New X
                                 (Linear)    (Quad)   (Total)
    R1        2.36752  -0.02462   0.00000  -0.01958  -0.01958   2.34794
    R2        2.55828  -0.01271   0.00000  -0.01486  -0.01486   2.54341
    R3        2.79765   0.01087   0.00000   0.01902   0.01902   2.81667
    R4        1.85338  -0.00411   0.00000  -0.00506  -0.00506   1.84832
    R5        2.96594  -0.00567   0.00000  -0.01259  -0.01259   2.95334
    R6        2.06909   0.00172   0.00000   0.00304   0.00304   2.07212
    R7        2.06554   0.00608   0.00000   0.01065   0.01065   2.07619
    R8        2.70672   0.00231   0.00000   0.00351   0.00351   2.71023
    R9        2.96717  -0.00149   0.00000  -0.00332  -0.00332   2.96385
   R10        2.82005   0.01676   0.00000   0.03032   0.03032   2.85037
   R11        1.85131  -0.00262   0.00000  -0.00321  -0.00321   1.84809
   R12        2.79775   0.01519   0.00000   0.02656   0.02656   2.82431
   R13        2.06886   0.00032   0.00000   0.00057   0.00057   2.06943
   R14        2.06240   0.00792   0.00000   0.01381   0.01381   2.07621
   R15        2.36364  -0.02546   0.00000  -0.02008  -0.02008   2.34357
   R16        2.55994  -0.01216   0.00000  -0.01426  -0.01426   2.54568
   R17        1.85293  -0.00468   0.00000  -0.00575  -0.00575   1.84717
   R18        2.36827  -0.03195   0.00000  -0.02545  -0.02545   2.34282
   R19        2.55999  -0.01667   0.00000  -0.01956  -0.01956   2.54043
   R20        1.85190  -0.00409   0.00000  -0.00503  -0.00503   1.84687
    A1        2.06349   0.02676   0.00000   0.06159   0.06155   2.12504
    A2        2.10935   0.00898   0.00000   0.02071   0.02067   2.13002
    A3        2.11023  -0.03572   0.00000  -0.08206  -0.08211   2.02813
    A4        2.09967  -0.03485   0.00000  -0.11409  -0.11409   1.98558
    A5        2.01053  -0.01006   0.00000  -0.02765  -0.02770   1.98282
    A6        1.86591   0.00597   0.00000   0.01671   0.01630   1.88221
    A7        1.89572   0.00385   0.00000   0.01331   0.01327   1.90899
    A8        1.92108  -0.00210   0.00000  -0.01524  -0.01522   1.90587
    A9        1.90110   0.00277   0.00000   0.00687   0.00700   1.90811
   A10        1.86385   0.00031   0.00000   0.00887   0.00873   1.87258
   A11        1.90180   0.00594   0.00000   0.02518   0.02514   1.92694
   A12        1.93915  -0.00754   0.00000  -0.02273  -0.02303   1.91612
   A13        1.89817  -0.00253   0.00000  -0.02129  -0.02130   1.87687
   A14        1.89917   0.00586   0.00000   0.03248   0.03258   1.93175
   A15        1.85495  -0.00627   0.00000  -0.02150  -0.02145   1.83349
   A16        1.96785   0.00481   0.00000   0.00915   0.00874   1.97659
   A17        1.83849   0.00774   0.00000   0.02533   0.02533   1.86382
   A18        2.00949   0.00724   0.00000   0.01838   0.01841   2.02789
   A19        1.90322   0.00155   0.00000   0.00690   0.00697   1.91019
   A20        1.91570  -0.00706   0.00000  -0.02352  -0.02359   1.89211
   A21        1.90508  -0.00653   0.00000  -0.02271  -0.02270   1.88238
   A22        1.85919   0.00247   0.00000   0.01427   0.01439   1.87359
   A23        1.86570   0.00201   0.00000   0.00594   0.00601   1.87171
   A24        2.11237   0.00877   0.00000   0.02009   0.02005   2.13242
   A25        2.10493  -0.03231   0.00000  -0.07436  -0.07440   2.03053
   A26        2.06560   0.02350   0.00000   0.05393   0.05389   2.11949
   A27        2.09961  -0.03576   0.00000  -0.11707  -0.11707   1.98254
   A28        2.10221   0.00295   0.00000   0.00676   0.00676   2.10896
   A29        2.14402  -0.04216   0.00000  -0.09696  -0.09697   2.04706
   A30        2.03677   0.03920   0.00000   0.09010   0.09010   2.12687
   A31        2.09776  -0.03595   0.00000  -0.11767  -0.11767   1.98008
    D1       -0.00876   0.00096   0.00000   0.01037   0.01051   0.00175
    D2       -3.13436  -0.00061   0.00000  -0.00716  -0.00730   3.14152
    D3        1.23446  -0.00287   0.00000  -0.02324  -0.02324   1.21122
    D4       -0.90606   0.00201   0.00000   0.00211   0.00234  -0.90372
    D5       -2.91141  -0.00330   0.00000  -0.02331  -0.02339  -2.93480
    D6       -1.92354  -0.00111   0.00000  -0.00491  -0.00500  -1.92855
    D7        2.21913   0.00377   0.00000   0.02045   0.02058   2.23970
    D8        0.21378  -0.00154   0.00000  -0.00498  -0.00515   0.20862
    D9       -0.96728  -0.00491   0.00000  -0.03363  -0.03380  -1.00107
   D10        1.12501   0.00149   0.00000   0.00868   0.00836   1.13338
   D11       -2.98230   0.00069   0.00000  -0.01015  -0.00998  -2.99228
   D12        1.14347  -0.00582   0.00000  -0.04297  -0.04290   1.10057
   D13       -3.04743   0.00058   0.00000  -0.00066  -0.00074  -3.04817
   D14       -0.87155  -0.00022   0.00000  -0.01949  -0.01908  -0.89064
   D15       -3.10171  -0.00503   0.00000  -0.03694  -0.03702  -3.13873
   D16       -1.00942   0.00138   0.00000   0.00538   0.00514  -1.00428
   D17        1.16645   0.00058   0.00000  -0.01345  -0.01320   1.15325
   D18        1.11288  -0.00084   0.00000  -0.00319  -0.00273   1.11016
   D19       -1.00397   0.00119   0.00000  -0.01056  -0.01112  -1.01509
   D20       -3.12760  -0.00416   0.00000  -0.02696  -0.02687   3.12872
   D21       -3.06017  -0.00566   0.00000  -0.03369  -0.03355  -3.09372
   D22        1.07538  -0.00346   0.00000  -0.02237  -0.02234   1.05304
   D23       -0.96302  -0.00276   0.00000  -0.02014  -0.02014  -0.98317
   D24       -0.96632   0.00080   0.00000   0.00429   0.00419  -0.96213
   D25       -3.11396   0.00299   0.00000   0.01561   0.01540  -3.09855
   D26        1.13083   0.00370   0.00000   0.01783   0.01760   1.14843
   D27        1.08700  -0.00025   0.00000   0.00430   0.00450   1.09150
   D28       -1.06064   0.00194   0.00000   0.01561   0.01571  -1.04492
   D29       -3.09904   0.00265   0.00000   0.01784   0.01791  -3.08113
   D30        1.18637   0.00363   0.00000   0.01624   0.01652   1.20289
   D31       -1.93392   0.00399   0.00000   0.02085   0.02104  -1.91288
   D32       -0.85875   0.00129   0.00000   0.00893   0.00876  -0.84999
   D33        2.30414   0.00165   0.00000   0.01354   0.01328   2.31742
   D34       -2.93795  -0.00459   0.00000  -0.02220  -0.02218  -2.96013
   D35        0.22494  -0.00423   0.00000  -0.01759  -0.01766   0.20729
   D36       -2.04731  -0.00223   0.00000  -0.01142  -0.01125  -2.05857
   D37        1.12081  -0.00088   0.00000   0.00322   0.00331   1.12412
   D38        0.09933  -0.00011   0.00000  -0.00694  -0.00692   0.09241
   D39       -3.01573   0.00123   0.00000   0.00769   0.00763  -3.00809
   D40        2.10795   0.00032   0.00000  -0.00369  -0.00375   2.10420
   D41       -1.00711   0.00166   0.00000   0.01095   0.01081  -0.99630
   D42        3.11526  -0.00068   0.00000  -0.00667  -0.00679   3.10848
   D43       -0.00049   0.00083   0.00000   0.00802   0.00814   0.00765
   D44        3.12214  -0.00052   0.00000  -0.00417  -0.00430   3.11784
   D45        0.00111   0.00019   0.00000   0.00113   0.00125   0.00236
         Item               Value     Threshold  Converged?
 Maximum Force            0.042164     0.000450     NO 
 RMS     Force            0.012686     0.000300     NO 
 Maximum Displacement     0.223828     0.001800     NO 
 RMS     Displacement     0.063731     0.001200     NO 
 Predicted change in Energy=-2.645911D-02
 Lowest energy point so far.  Saving SCF results.
 GradGradGradGradGradGradGradGradGradGradGradGradGradGradGradGradGradGrad

 Leave Link  103 at Mon Feb 22 21:12:05 2021, MaxMem=   104857600 cpu:               1.2 elap:               0.1
 (Enter /sw/arch/RedHatEnterpriseServer7/EB_production/2019/software/Gaussian/g16.c01/l202.exe)
                          Input orientation:                          
 ---------------------------------------------------------------------
 Center     Atomic      Atomic             Coordinates (Angstroms)
 Number     Number       Type             X           Y           Z
 ---------------------------------------------------------------------
      1          8           0        0.965987    2.803896    0.973118
      2          6           0        0.550765    2.858225   -0.196661
      3          8           0       -0.716701    2.535375   -0.514134
      4          6           0        1.425124    3.281106   -1.327282
      5          6           0        2.545894    2.247921   -1.672073
      6          8           0        3.364329    1.995445   -0.521716
      7          6           0        1.899403    0.917920   -2.194595
      8          6           0        2.844826   -0.196429   -2.507815
      9          8           0        2.956635   -0.666321   -3.650052
     10          8           0        3.538970   -0.701042   -1.469429
     11          6           0        3.468284    2.895548   -2.674521
     12          8           0        4.199272    3.841733   -2.346787
     13          8           0        3.438733    2.424604   -3.933326
     14          1           0       -1.258269    2.263376    0.253578
     15          1           0        1.887586    4.237301   -1.054927
     16          1           0        0.807905    3.459025   -2.218613
     17          1           0        2.786177    1.584643    0.151639
     18          1           0        1.315457    1.126467   -3.097230
     19          1           0        1.199651    0.549282   -1.431998
     20          1           0        4.122476   -1.446121   -1.714070
     21          1           0        4.041912    2.897455   -4.539747
 ---------------------------------------------------------------------
                    Distance matrix (angstroms):
                    1          2          3          4          5
     1  O    0.000000
     2  C    1.242475   0.000000
     3  O    2.261739   1.345916   0.000000
     4  C    2.393820   1.490516   2.409302   0.000000
     5  C    3.130854   2.555358   3.473899   1.562843   0.000000
     6  O    2.939416   2.960776   4.116599   2.462189   1.434190
     7  C    3.802969   3.094406   3.504869   2.561605   1.568401
     8  C    4.964764   4.464870   4.911414   3.937317   2.600514
     9  O    6.113818   5.489676   5.794673   4.829386   3.545971
    10  O    4.987069   4.818473   5.431180   4.510660   3.118276
    11  C    4.424382   3.827937   4.723462   2.477541   1.508352
    12  O    4.749000   4.347636   5.406660   3.008253   2.393561
    13  O    5.507406   4.742473   5.382450   3.402893   2.437548
    14  H    2.399420   1.956825   0.978091   3.276506   4.263805
    15  H    2.648954   2.103702   3.157739   1.096520   2.184462
    16  H    3.262105   2.124940   2.466333   1.098675   2.187712
    17  H    2.339764   2.596226   3.690163   2.630144   1.955403
    18  H    4.416292   3.463675   3.575902   2.790559   2.191508
    19  H    3.304915   2.697837   2.908512   2.743113   2.180683
    20  H    5.936922   5.795433   6.380423   5.456372   4.016631
    21  H    6.313616   5.572437   6.243481   4.161094   3.299018
                    6          7          8          9         10
     6  O    0.000000
     7  C    2.470949   0.000000
     8  C    3.003128   1.494559   0.000000
     9  O    4.127674   2.397063   1.240163   0.000000
    10  O    2.863511   2.415592   1.347114   2.257307   0.000000
    11  C    2.335714   2.569577   3.158609   3.728317   3.793771
    12  O    2.727049   3.723069   4.262301   4.854399   4.673602
    13  O    3.439301   2.768179   3.042141   3.141095   3.981268
    14  H    4.694814   4.216006   5.523706   6.448788   5.896612
    15  H    2.736970   3.509597   4.762894   5.650048   5.223611
    16  H    3.399533   2.765711   4.194643   4.866676   5.032509
    17  H    0.977970   2.595323   3.201305   4.421397   2.901537
    18  H    3.403861   1.095096   2.106284   2.492622   3.306590
    19  H    2.757867   1.098682   2.102396   3.079683   2.652758
    20  H    3.720332   3.280495   1.955544   2.390669   0.977483
    21  H    4.173406   3.742812   3.890229   3.830128   4.756993
                   11         12         13         14         15
    11  C    0.000000
    12  O    1.239766   0.000000
    13  O    1.344340   2.259154   0.000000
    14  H    5.595866   6.248029   6.294283   0.000000
    15  H    2.630968   2.677549   3.738597   3.937635   0.000000
    16  H    2.757349   3.415298   3.306285   3.436624   1.767934
    17  H    3.189188   3.651496   4.221173   4.102270   3.049567
    18  H    2.818332   4.031405   2.625361   4.375448   3.765053
    19  H    3.492209   4.546955   3.845382   3.438118   3.770533
[...]
 ! D26   D(6,5,7,19)            61.2823                                         !
 ! D27   D(11,5,7,8)            58.1774                                         !
 ! D28   D(11,5,7,18)          -61.7002                                         !
 ! D29   D(11,5,7,19)         -179.789                                          !
 ! D30   D(4,5,11,12)          104.0                                            !
 ! D31   D(4,5,11,13)          -71.587                                          !
 ! D32   D(6,5,11,12)          -14.7376                                         !
 ! D33   D(6,5,11,13)          169.6754                                         !
 ! D34   D(7,5,11,12)         -136.045                                          !
 ! D35   D(7,5,11,13)           48.368                                          !
 ! D36   D(5,7,8,9)            -30.6558                                         !
 ! D37   D(5,7,8,10)           150.9174                                         !
 ! D38   D(18,7,8,9)            91.1071                                         !
 ! D39   D(18,7,8,10)          -87.3196                                         !
 ! D40   D(19,7,8,9)          -152.6259                                         !
 ! D41   D(19,7,8,10)           28.9473                                         !
 ! D42   D(7,8,10,20)          176.9027                                         !
 ! D43   D(9,8,10,20)           -1.5607                                         !
 ! D44   D(5,11,13,21)         176.8825                                         !
 ! D45   D(12,11,13,21)          1.2274                                         !
 --------------------------------------------------------------------------------
                          Input orientation:                          
 ---------------------------------------------------------------------
 Center     Atomic      Atomic             Coordinates (Angstroms)
 Number     Number       Type             X           Y           Z
 ---------------------------------------------------------------------
      1          8           0        0.896342    2.190825    0.723613
      2          6           0        0.494941    2.783996   -0.273400
      3          8           0       -0.778967    3.198531   -0.420472
      4          6           0        1.358929    3.165744   -1.457410
      5          6           0        2.585250    2.225093   -1.634303
      6          8           0        3.401482    2.218014   -0.467615
      7          6           0        2.112089    0.796161   -1.983163
      8          6           0        3.265531   -0.141671   -2.267589
      9          8           0        4.337728    0.186345   -2.748880
     10          8           0        2.952509   -1.424582   -1.950284
     11          6           0        3.435851    2.836901   -2.771248
     12          8           0        4.470500    3.453894   -2.620674
     13          8           0        2.814484    2.673126   -3.968291
     14          1           0       -1.272643    2.966955    0.397335
     15          1           0        1.724031    4.188045   -1.261803
     16          1           0        0.751486    3.201927   -2.370765
     17          1           0        2.777360    2.055625    0.277093
     18          1           0        1.472084    0.808754   -2.879669
     19          1           0        1.509659    0.397940   -1.155453
     20          1           0        3.715679   -1.989403   -2.201709
     21          1           0        3.360095    3.117190   -4.651953
 ---------------------------------------------------------------------
                    Distance matrix (angstroms):
                    1          2          3          4          5
     1  O    0.000000
     2  C    1.227603   0.000000
     3  O    2.265185   1.347706   0.000000
     4  C    2.433376   1.514624   2.376324   0.000000
     5  C    2.900577   2.556133   3.706605   1.555627   0.000000
     6  O    2.774075   2.967496   4.294158   2.459656   1.423884
     7  C    3.278683   3.080575   4.070821   2.541375   1.545132
     8  C    4.472235   4.495829   5.561183   3.902629   2.542716
     9  O    5.283870   5.257641   6.377720   4.406580   2.910319
    10  O    4.944564   5.153998   6.134933   4.884005   3.681691
    11  C    4.368131   3.858884   4.839588   2.479498   1.546116
    12  O    5.055117   4.665139   5.697632   3.334380   2.457041
    13  O    5.091743   4.364034   5.077003   2.943779   2.387632
    14  H    2.326656   1.899398   0.982930   3.225642   4.422810
    15  H    2.935274   2.111624   2.819925   1.103024   2.175691
    16  H    3.258602   2.153931   2.479101   1.097503   2.204375
    17  H    1.938011   2.458252   3.800039   2.500562   1.928486
    18  H    3.901954   3.413067   4.101940   2.755181   2.189999
    19  H    2.668611   2.738783   3.690707   2.788303   2.173633
    20  H    5.829277   6.072632   7.091495   5.716973   4.400204
    21  H    5.985394   5.243267   5.919788   3.769897   3.240746
                    6          7          8          9         10
     6  O    0.000000
     7  C    2.445627   0.000000
     8  C    2.970943   1.513558   0.000000
     9  O    3.195060   2.431392   1.220180   0.000000
    10  O    3.958332   2.374676   1.358134   2.269730   0.000000
    11  C    2.385566   2.556960   3.025651   2.799880   4.366673
    12  O    2.702935   3.609996   3.808504   3.272757   5.152984
    13  O    3.578607   2.820832   3.319475   3.160904   4.569750
    14  H    4.812120   4.672850   6.112315   7.007619   6.530606
    15  H    2.706584   3.489387   4.704707   5.005638   5.786600
    16  H    3.407718   2.790910   4.184580   4.700833   5.140611
    17  H    0.985134   2.671628   3.397327   3.884002   4.135665
    18  H    3.395085   1.101585   2.120001   2.935373   2.836055
    19  H    2.713814   1.098455   2.147350   3.252961   2.456656
    20  H    4.561596   3.221588   1.902915   2.328136   0.982174
    21  H    4.280060   3.750618   4.039097   3.628678   5.300267
                   11         12         13         14         15
    11  C    0.000000
    12  O    1.214023   0.000000
    13  O    1.358614   2.273337   0.000000
    14  H    5.676860   6.506088   5.987456   0.000000
    15  H    2.652233   3.150969   3.287727   3.636461   0.000000
    16  H    2.738511   3.735908   2.662270   3.437250   1.774280
    17  H    3.215025   3.635785   4.290219   4.153011   2.832829
    18  H    2.825158   4.006787   2.542247   4.788540   3.755073
    19  H    3.502790   4.500256   3.845919   4.092944   3.797652
    20  H    4.867841   5.511330   5.066768   7.496924   6.558273
    21  H    1.902986   2.339330   0.980958   6.854206   3.913637
                   16         17         18         19         20
    16  H    0.000000
    17  H    3.525524   0.000000
    18  H    2.550592   3.636425   0.000000
    19  H    3.148674   2.531240   1.772879   0.000000
    20  H    5.980377   4.836026   3.650073   3.414759   0.000000
    21  H    3.466387   5.075628   3.469071   4.800411   5.675158
                   21
    21  H    0.000000
 Stoichiometry    C6H8O7
 Framework group  C1[X(C6H8O7)]
 Deg. of freedom    57
 Full point group                 C1      NOp   1
 Largest Abelian subgroup         C1      NOp   1
 Largest concise Abelian subgroup C1      NOp   1
                         Standard orientation:                         
 ---------------------------------------------------------------------
 Center     Atomic      Atomic             Coordinates (Angstroms)
 Number     Number       Type             X           Y           Z
 ---------------------------------------------------------------------
      1          8           0       -2.452281   -1.127236    0.900773
      2          6           0       -2.513905   -0.308959   -0.012263
      3          8           0       -3.546562   -0.245825   -0.875945
      4          6           0       -1.475722    0.759383   -0.285952
      5          6           0       -0.059249    0.364629    0.221740
      6          8           0       -0.069351    0.097291    1.620266
      7          6           0        0.466566   -0.855172   -0.567586
      8          6           0        1.884611   -1.222755   -0.186945
      9          8           0        2.738197   -0.437469    0.191942
     10          8           0        2.114407   -2.551249   -0.350730
     11          6           0        0.835018    1.608115    0.010778
     12          8           0        1.200494    2.367215    0.884875
     13          8           0        1.081602    1.795207   -1.312108
     14          1           0       -4.205482   -0.927171   -0.615667
     15          1           0       -1.805364    1.662161    0.255333
     16          1           0       -1.459992    1.003960   -1.355740
     17          1           0       -0.817191   -0.530144    1.752741
     18          1           0        0.461768   -0.647148   -1.649340
     19          1           0       -0.195097   -1.714998   -0.395815
     20          1           0        3.058242   -2.719833   -0.137610
     21          1           0        1.607164    2.618258   -1.405117
 ---------------------------------------------------------------------
 Rotational constants (GHZ):           1.0402911           0.5956920           0.4669299
 Standard basis: TZVP (5D, 7F)
 There are   308 symmetry adapted cartesian basis functions of A   symmetry.
 There are   295 symmetry adapted basis functions of A   symmetry.
   295 basis functions,   519 primitive gaussians,   308 cartesian basis functions
    50 alpha electrons       50 beta electrons
       nuclear repulsion energy       866.2237955497 Hartrees.
 NAtoms=   21 NActive=   21 NUniq=   21 SFac= 1.00D+00 NAtFMM=   60 NAOKFM=F Big=F
 Integral buffers will be    131072 words long.
 Raffenetti 2 integral format.
 Two-electron integral symmetry is turned on.
 Warning! Using old PCM defaults because the COSMOthermo output has been requested.
 These settings can be overridden by following keywords.
 ------------------------------------------------------------------------------
 Polarizable Continuum Model (PCM)
 =================================
 Model                : C-PCM.
 Atomic radii         : Klamt.
 XCosmo               : -1.000 (infinite dielectric limit)
 Polarization charges : Electronic and nuclear charges.
 Charge compensation  : Type 3 (Electronic density weighted correction).
 Solution method      : On-the-fly selection.
 Cavity type          : VdW (van der Waals Surface) (Alpha=1.000).
 Cavity algorithm     : GePol (No added spheres)
                        Default sphere list used, NSphG=   21.
                        Tesserae with average area of 0.200 Ang**2.
                        Smoothing algorithm: None.
                        Polarization charges: point-like.
                        Self-potential: constant (ISelfS= 1).
                        Self-field    : global E.n sum rule (ISelfD= 3).
 Solvent              : Water, Eps=  78.355300 Eps(inf)=   1.777849
 ------------------------------------------------------------------------------
 One-electron integrals computed using PRISM.
 PrsmSu:  requested number of processors reduced to:  28 ShMem   1 Linda.
 NBasis=   295 RedAO= T EigKep=  1.03D-04  NBF=   295
 NBsUse=   295 1.00D-06 EigRej= -1.00D+00 NBFU=   295
 Initial guess from the checkpoint file:  "KRKNYBCHXYNGOX-UHFFFAOYSA-N.chk"
 B after Tr=    -0.000000   -0.000000    0.000000
         Rot=    1.000000    0.000000   -0.000000    0.000000 Ang=   0.00 deg.
 Requested convergence on RMS density matrix=1.00D-08 within 128 cycles.
 Requested convergence on MAX density matrix=1.00D-06.
 Requested convergence on             energy=1.00D-06.
 No special actions if energy rises.
 Inv3:  Mode=1 IEnd=     5829708.
 Iteration    1 A*A^-1 deviation from unit magnitude is 7.11D-14 for    866.
 Iteration    1 A*A^-1 deviation from orthogonality  is 8.53D-14 for   1165    866.
 Iteration    1 A^-1*A deviation from unit magnitude is 3.95D-14 for    621.
 Iteration    1 A^-1*A deviation from orthogonality  is 1.72D-13 for    866    621.
 Rare condition: small coef for last iteration:  0.000D+00
 Rare condition: small coef for last iteration:  0.000D+00
 EnCoef did   100 forward-backward iterations
 EnCoef did   100 forward-backward iterations
 Rare condition: small coef for last iteration:  0.448D-15
 Rare condition: small coef for last iteration:  0.000D+00
 Restarting incremental Fock formation.
 Rare condition: small coef for last iteration:  0.000D+00
 Rare condition: small coef for last iteration:  0.000D+00
 Rare condition: small coef for last iteration:  0.000D+00
 Rare condition: small coef for last iteration:  0.000D+00
 Rare condition: small coef for last iteration:  0.000D+00
 Rare condition: small coef for last iteration:  0.000D+00
 Rare condition: small coef for last iteration:  0.000D+00
 Rare condition: small coef for last iteration:  0.000D+00
 Rare condition: small coef for last iteration:  0.000D+00
 Restarting incremental Fock formation.
 EnCoef did     2 forward-backward iterations
 EnCoef did     2 forward-backward iterations
 EnCoef did     3 forward-backward iterations
 EnCoef did     8 forward-backward iterations
 EnCoef did     3 forward-backward iterations
 EnCoef did     2 forward-backward iterations
 EnCoef did     2 forward-backward iterations
 EnCoef did   100 forward-backward iterations
 EnCoef did     3 forward-backward iterations
 EnCoef did    15 forward-backward iterations
 EnCoef did    19 forward-backward iterations
 EnCoef did   100 forward-backward iterations
 EnCoef did     8 forward-backward iterations
 EnCoef did    11 forward-backward iterations
 EnCoef did     7 forward-backward iterations
 EnCoef did   100 forward-backward iterations
 EnCoef did   100 forward-backward iterations
 Rare condition: small coef for last iteration:  0.563D-15
 Rare condition: small coef for last iteration:  0.000D+00
 Restarting incremental Fock formation.
 Rare condition: small coef for last iteration:  0.000D+00
 Rare condition: small coef for last iteration:  0.000D+00
 Rare condition: small coef for last iteration:  0.000D+00
 Rare condition: small coef for last iteration:  0.000D+00
 Rare condition: small coef for last iteration:  0.000D+00
 Rare condition: small coef for last iteration:  0.000D+00
 Rare condition: small coef for last iteration:  0.000D+00
 Rare condition: small coef for last iteration:  0.000D+00
 Rare condition: small coef for last iteration:  0.000D+00
 Rare condition: small coef for last iteration:  0.000D+00
 Restarting incremental Fock formation.
 Rare condition: small coef for last iteration:  0.000D+00
 Rare condition: small coef for last iteration:  0.000D+00
 Rare condition: small coef for last iteration:  0.000D+00
 Rare condition: small coef for last iteration:  0.000D+00
 Rare condition: small coef for last iteration:  0.000D+00
 Rare condition: small coef for last iteration:  0.000D+00
 Rare condition: small coef for last iteration:  0.000D+00
 Rare condition: small coef for last iteration:  0.000D+00
 Rare condition: small coef for last iteration:  0.000D+00
 Rare condition: small coef for last iteration:  0.000D+00
 Rare condition: small coef for last iteration:  0.000D+00
 Rare condition: small coef for last iteration:  0.000D+00
 Restarting incremental Fock formation.
 Rare condition: small coef for last iteration:  0.000D+00
 Rare condition: small coef for last iteration:  0.000D+00
 Rare condition: small coef for last iteration:  0.000D+00
 Rare condition: small coef for last iteration:  0.000D+00
 Rare condition: small coef for last iteration:  0.000D+00
 Rare condition: small coef for last iteration:  0.000D+00
 Rare condition: small coef for last iteration:  0.000D+00
 Rare condition: small coef for last iteration:  0.000D+00
 Rare condition: small coef for last iteration:  0.000D+00
 Rare condition: small coef for last iteration:  0.000D+00
 Rare condition: small coef for last iteration:  0.000D+00
 Rare condition: small coef for last iteration:  0.000D+00
 Rare condition: small coef for last iteration:  0.000D+00
 Restarting incremental Fock formation.
 Rare condition: small coef for last iteration:  0.000D+00
 Rare condition: small coef for last iteration:  0.000D+00
 Rare condition: small coef for last iteration:  0.000D+00
 Rare condition: small coef for last iteration:  0.000D+00
 Rare condition: small coef for last iteration:  0.000D+00
 Rare condition: small coef for last iteration:  0.000D+00
 Rare condition: small coef for last iteration:  0.000D+00
 >>>>>>>>>> Convergence criterion not met.
 Error on nuclear    polarization charges =  0.02339
 Error on electronic polarization charges = -0.04815
 SCF Done:  E(RB-P86) =  -760.408930228     A.U. after  129 cycles
            NFock=128  Conv=0.53D-02     -V/T= 2.0040
 --------------------------------------------------------------------
 Variational C-PCM results
 =========================
 <psi(f)|   H    |psi(f)>                     (a.u.) =    -760.347470
 <psi(f)|H+V(f)/2|psi(f)>                     (a.u.) =    -760.408930
 Total free energy in solution:
 - with all non electrostatic terms           (a.u.) =    -760.393999
 --------------------------------------------------------------------
 (Polarized solute)-Solvent               (kcal/mol) =     -38.57
 --------------------------------------------------------------------
 Cavitation energy                        (kcal/mol) =      26.40
 Dispersion energy                        (kcal/mol) =     -18.55
 Repulsion energy                         (kcal/mol) =       1.52
 Total non electrostatic                  (kcal/mol) =       9.37
 --------------------------------------------------------------------
 Partition over spheres:
 Sphere  on Atom  Surface  Charge   GEl     GCav    GDR
    1      O1      16.49   0.144   -0.82    2.05   -1.45
    2      C2       9.26  -0.059   -0.81    1.09   -0.52
    3      O3      15.82   0.061   -0.19    1.97   -1.52
    4      C4       7.01  -0.052   -0.63    0.82   -0.28
    5      C5       0.19  -0.011    0.41    0.02    0.00
    6      O6      14.25  -0.451   19.23    1.77   -1.18
    7      C7       6.42  -0.048   -0.51    0.75   -0.27
    8      C8       9.64  -0.093    1.21    1.13   -0.54
    9      O9      18.66   0.991  -36.39    2.32   -1.37
   10      O10     15.87   0.062   -0.56    1.97   -1.52
   11      C11      5.82  -0.015   -0.54    0.68   -0.13
   12      O12     19.79   0.212   -5.36    2.46   -1.68
   13      O13     13.69   0.050   -0.21    1.70   -0.99
   14      H14      8.50  -0.165   -4.29    1.20   -0.92
   15      H15      6.53  -0.066   -0.72    0.92   -0.79
   16      H16      6.26  -0.058   -0.90    0.88   -0.56
   17      H17      4.38  -0.063   -0.14    0.62   -0.35
   18      H18      6.15  -0.061   -0.90    0.87   -0.65
   19      H19      5.43  -0.051   -0.51    0.77   -0.40
   20      H20      8.49  -0.164   -3.05    1.20   -0.92
   21      H21      8.50  -0.163   -2.89    1.20   -0.99
 --------------------------------------------------------------------
 - cavitation energy not included in the total energy.
 - dispersion energy not included in the total energy.
 - repulsion  energy not included in the total energy.
 After PCM corrections, the energy is  -760.408930228     a.u.
 --------------------------------------------------------------------
 Writing COSMO formatted file "KRKNYBCHXYNGOX-UHFFFAOYSA-N.cosmo"
 Recomputed dielectric energy= -0.061647 old= -0.061460 diff=-1.87D-04
 Convergence failure -- run terminated.
 Error termination via Lnk1e in /sw/arch/RedHatEnterpriseServer7/EB_production/2019/software/Gaussian/g16.c01/l502.exe at Mon Feb 22 21:24:36 2021.
 Job cpu time:       0 days  1 hours 23 minutes 55.2 seconds.
 Elapsed time:       0 days  0 hours  2 minutes 38.4 seconds.
 File lengths (MBytes):  RWF=     67 Int=      0 D2E=      0 Chk=     11 Scr=      1
