 Entering Gaussian System, Link 0=g16
 Input=LKDRXBCSQODPBY-AZGQCCRYSA-N.gjf
 Output=LKDRXBCSQODPBY-AZGQCCRYSA-N.log
 Initial command:
 /sw/arch/RedHatEnterpriseServer7/EB_production/2019/software/Gaussian/g16.c01/l1.exe "/scratch-local/elenaa.9715232/Gau-10832.inp" -scrdir="/scratch-local/elenaa.9715232/"
 Entering Link 1 = /sw/arch/RedHatEnterpriseServer7/EB_production/2019/software/Gaussian/g16.c01/l1.exe PID=     10833.
  
 Copyright (c) 1988-2019, Gaussian, Inc.  All Rights Reserved.
  
 This is part of the Gaussian(R) 16 program.  It is based on
 the Gaussian(R) 09 system (copyright 2009, Gaussian, Inc.),
 the Gaussian(R) 03 system (copyright 2003, Gaussian, Inc.),
 the Gaussian(R) 98 system (copyright 1998, Gaussian, Inc.),
 the Gaussian(R) 94 system (copyright 1995, Gaussian, Inc.),
 the Gaussian 92(TM) system (copyright 1992, Gaussian, Inc.),
 the Gaussian 90(TM) system (copyright 1990, Gaussian, Inc.),
 the Gaussian 88(TM) system (copyright 1988, Gaussian, Inc.),
 the Gaussian 86(TM) system (copyright 1986, Carnegie Mellon
 University), and the Gaussian 82(TM) system (copyright 1983,
 Carnegie Mellon University). Gaussian is a federally registered
 trademark of Gaussian, Inc.
  
 This software contains proprietary and confidential information,
 including trade secrets, belonging to Gaussian, Inc.
  
 This software is provided under written license and may be
 used, copied, transmitted, or stored only in accord with that
 written license.
  
 The following legend is applicable only to US Government
 contracts under FAR:
  
                    RESTRICTED RIGHTS LEGEND
  
 Use, reproduction and disclosure by the US Government is
 subject to restrictions as set forth in subparagraphs (a)
 and (c) of the Commercial Computer Software - Restricted
 Rights clause in FAR 52.227-19.
  
 Gaussian, Inc.
 340 Quinnipiac St., Bldg. 40, Wallingford CT 06492
  
  
 ---------------------------------------------------------------
 Warning -- This program may not be used in any manner that
 competes with the business of Gaussian, Inc. or will provide
 assistance to any competitor of Gaussian, Inc.  The licensee
 of this program is prohibited from giving any competitor of
 Gaussian, Inc. access to this program.  By using this program,
 the user acknowledges that Gaussian, Inc. is engaged in the
 business of creating and licensing software in the field of
 computational chemistry and represents and warrants to the
 licensee that it is not a competitor of Gaussian, Inc. and that
 it will not use this program in any manner prohibited above.
 ---------------------------------------------------------------
  

 Cite this work as:
 Gaussian 16, Revision C.01,
 M. J. Frisch, G. W. Trucks, H. B. Schlegel, G. E. Scuseria, 
 M. A. Robb, J. R. Cheeseman, G. Scalmani, V. Barone, 
 G. A. Petersson, H. Nakatsuji, X. Li, M. Caricato, A. V. Marenich, 
 J. Bloino, B. G. Janesko, R. Gomperts, B. Mennucci, H. P. Hratchian, 
 J. V. Ortiz, A. F. Izmaylov, J. L. Sonnenberg, D. Williams-Young, 
 F. Ding, F. Lipparini, F. Egidi, J. Goings, B. Peng, A. Petrone, 
 T. Henderson, D. Ranasinghe, V. G. Zakrzewski, J. Gao, N. Rega, 
 G. Zheng, W. Liang, M. Hada, M. Ehara, K. Toyota, R. Fukuda, 
 J. Hasegawa, M. Ishida, T. Nakajima, Y. Honda, O. Kitao, H. Nakai, 
 T. Vreven, K. Throssell, J. A. Montgomery, Jr., J. E. Peralta, 
 F. Ogliaro, M. J. Bearpark, J. J. Heyd, E. N. Brothers, K. N. Kudin, 
 V. N. Staroverov, T. A. Keith, R. Kobayashi, J. Normand, 
 K. Raghavachari, A. P. Rendell, J. C. Burant, S. S. Iyengar, 
 J. Tomasi, M. Cossi, J. M. Millam, M. Klene, C. Adamo, R. Cammi, 
 J. W. Ochterski, R. L. Martin, K. Morokuma, O. Farkas, 
 J. B. Foresman, and D. J. Fox, Gaussian, Inc., Wallingford CT, 2019.
 
 ******************************************
 Gaussian 16:  ES64L-G16RevC.01  3-Jul-2019
                22-Feb-2021 
 ******************************************
 %chk=LKDRXBCSQODPBY-AZGQCCRYSA-N.chk
 %NProcShared=32
 Will use up to   32 processors via shared memory.
 -------------------------------------------------------------
 #P BP86/TZVP EmpiricalDispersion=GD3 SCRF=(Solvent=Water) Opt
 -------------------------------------------------------------
 1/18=20,19=15,26=3,38=1/1,3;
 2/9=110,12=2,17=6,18=5,40=1/2;
 3/5=19,7=101,11=2,25=1,30=1,70=2201,71=1,72=1,74=404,124=31/1,2,3;
 4//1;
 5/5=2,38=5,53=1/2;
 6/7=2,8=2,9=2,10=2,28=1/1;
 7//1,2,3,16;
 1/18=20,19=15,26=3/3(2);
 2/9=110/2;
 99//99;
 2/9=110/2;
 3/5=19,7=101,11=2,25=1,30=1,70=2205,71=1,72=1,74=404,124=31/1,2,3;
 4/5=5,16=3,69=1/1;
 5/5=2,38=5,53=1/2;
 7//1,2,3,16;
 1/18=20,19=15,26=3/3(-5);
 2/9=110/2;
 6/7=2,8=2,9=2,10=2,19=2,28=1/1;
 99/9=1/99;
 Leave Link    1 at Mon Feb 22 21:11:52 2021, MaxMem=           0 cpu:               2.2 elap:               0.1
 (Enter /sw/arch/RedHatEnterpriseServer7/EB_production/2019/software/Gaussian/g16.c01/l101.exe)
 -------------------------------------
 Particle #LKDRXBCSQODPBY-AZGQCCRYSA-N
 -------------------------------------
 Symbolic Z-matrix:
 Charge =  0 Multiplicity = 1
 O                    -0.17915   3.8382   -1.27537 
 C                    -1.29945   3.14873  -1.82049 
 C                    -2.09905   2.39113  -0.71858 
 O                    -2.52039   3.38683   0.21755 
 O                    -1.28486   1.48219   0.06226 
 C                    -1.94096   0.82711   1.16938 
 C                    -3.19579   0.03708   0.71673 
 O                    -2.81075  -1.12828  -0.0107 
 C                    -4.15538   0.92363  -0.12294 
 O                    -5.22483   0.14462  -0.65894 
 C                    -3.38226   1.66914  -1.24886 
 O                    -4.26262   2.63313  -1.83394 
 H                     0.40421   3.13739  -0.9178 
 H                    -1.9449    3.88149  -2.3082 
 H                    -0.92585   2.46706  -2.58201 
 H                    -1.6937    3.78287   0.56791 
 H                    -2.24937   1.60118   1.87497 
 H                    -1.24108   0.16924   1.68967 
 H                    -3.72848  -0.30059   1.61016 
 H                    -2.21243  -1.62319   0.58892 
 H                    -4.61674   1.66113   0.54068 
 H                    -5.64534  -0.28061   0.1173 
 H                    -3.11159   0.9624   -2.03774 
 H                    -5.02691   2.11606  -2.1642 
 
 ITRead=  0  0  0  0  0  0  0  0  0  0  0  0  0  0  0  0  0  0  0  0
 ITRead=  0  0  0  0
 MicOpt= -1 -1 -1 -1 -1 -1 -1 -1 -1 -1 -1 -1 -1 -1 -1 -1 -1 -1 -1 -1
 MicOpt= -1 -1 -1 -1
 NAtoms=     24 NQM=       24 NQMF=       0 NMMI=      0 NMMIF=      0
                NMic=       0 NMicF=      0.
                    Isotopes and Nuclear Properties:
 (Nuclear quadrupole moments (NQMom) in fm**2, nuclear magnetic moments (NMagM)
  in nuclear magnetons)

  Atom         1           2           3           4           5           6           7           8           9          10
 IAtWgt=          16          12          12          16          16          12          12          16          12          16
 AtmWgt=  15.9949146  12.0000000  12.0000000  15.9949146  15.9949146  12.0000000  12.0000000  15.9949146  12.0000000  15.9949146
 NucSpn=           0           0           0           0           0           0           0           0           0           0
 AtZEff=  -0.0000000  -0.0000000  -0.0000000  -0.0000000  -0.0000000  -0.0000000  -0.0000000  -0.0000000  -0.0000000  -0.0000000
 NQMom=    0.0000000   0.0000000   0.0000000   0.0000000   0.0000000   0.0000000   0.0000000   0.0000000   0.0000000   0.0000000
 NMagM=    0.0000000   0.0000000   0.0000000   0.0000000   0.0000000   0.0000000   0.0000000   0.0000000   0.0000000   0.0000000
 AtZNuc=   8.0000000   6.0000000   6.0000000   8.0000000   8.0000000   6.0000000   6.0000000   8.0000000   6.0000000   8.0000000

  Atom        11          12          13          14          15          16          17          18          19          20
 IAtWgt=          12          16           1           1           1           1           1           1           1           1
 AtmWgt=  12.0000000  15.9949146   1.0078250   1.0078250   1.0078250   1.0078250   1.0078250   1.0078250   1.0078250   1.0078250
 NucSpn=           0           0           1           1           1           1           1           1           1           1
 AtZEff=  -0.0000000  -0.0000000  -0.0000000  -0.0000000  -0.0000000  -0.0000000  -0.0000000  -0.0000000  -0.0000000  -0.0000000
 NQMom=    0.0000000   0.0000000   0.0000000   0.0000000   0.0000000   0.0000000   0.0000000   0.0000000   0.0000000   0.0000000
 NMagM=    0.0000000   0.0000000   2.7928460   2.7928460   2.7928460   2.7928460   2.7928460   2.7928460   2.7928460   2.7928460
 AtZNuc=   6.0000000   8.0000000   1.0000000   1.0000000   1.0000000   1.0000000   1.0000000   1.0000000   1.0000000   1.0000000

  Atom        21          22          23          24
 IAtWgt=           1           1           1           1
 AtmWgt=   1.0078250   1.0078250   1.0078250   1.0078250
 NucSpn=           1           1           1           1
 AtZEff=  -0.0000000  -0.0000000  -0.0000000  -0.0000000
 NQMom=    0.0000000   0.0000000   0.0000000   0.0000000
 NMagM=    2.7928460   2.7928460   2.7928460   2.7928460
 AtZNuc=   1.0000000   1.0000000   1.0000000   1.0000000
 Leave Link  101 at Mon Feb 22 21:11:53 2021, MaxMem=   104857600 cpu:               2.7 elap:               0.1
 (Enter /sw/arch/RedHatEnterpriseServer7/EB_production/2019/software/Gaussian/g16.c01/l103.exe)

 GradGradGradGradGradGradGradGradGradGradGradGradGradGradGradGradGradGrad
 Berny optimization.
 Initialization pass.
                           ----------------------------
                           !    Initial Parameters    !
                           ! (Angstroms and Degrees)  !
 --------------------------                            --------------------------
 ! Name  Definition              Value          Derivative Info.                !
 --------------------------------------------------------------------------------
 ! R1    R(1,2)                  1.4239         estimate D2E/DX2                !
 ! R2    R(1,13)                 0.9794         estimate D2E/DX2                !
 ! R3    R(2,3)                  1.5581         estimate D2E/DX2                !
 ! R4    R(2,14)                 1.0915         estimate D2E/DX2                !
 ! R5    R(2,15)                 1.0882         estimate D2E/DX2                !
 ! R6    R(3,4)                  1.4301         estimate D2E/DX2                !
 ! R7    R(3,5)                  1.4487         estimate D2E/DX2                !
 ! R8    R(3,11)                 1.565          estimate D2E/DX2                !
 ! R9    R(4,16)                 0.9813         estimate D2E/DX2                !
 ! R10   R(5,6)                  1.4441         estimate D2E/DX2                !
 ! R11   R(6,7)                  1.5504         estimate D2E/DX2                !
 ! R12   R(6,17)                 1.0919         estimate D2E/DX2                !
 ! R13   R(6,18)                 1.0924         estimate D2E/DX2                !
 ! R14   R(7,8)                  1.4267         estimate D2E/DX2                !
 ! R15   R(7,9)                  1.553          estimate D2E/DX2                !
 ! R16   R(7,19)                 1.0936         estimate D2E/DX2                !
 ! R17   R(8,20)                 0.981          estimate D2E/DX2                !
 ! R18   R(9,10)                 1.4275         estimate D2E/DX2                !
 ! R19   R(9,11)                 1.556          estimate D2E/DX2                !
 ! R20   R(9,21)                 1.0941         estimate D2E/DX2                !
 ! R21   R(10,22)                0.9799         estimate D2E/DX2                !
 ! R22   R(11,12)                1.4306         estimate D2E/DX2                !
 ! R23   R(11,23)                1.0932         estimate D2E/DX2                !
 ! R24   R(12,24)                0.9801         estimate D2E/DX2                !
 ! A1    A(2,1,13)             105.1827         estimate D2E/DX2                !
 ! A2    A(1,2,3)              111.6208         estimate D2E/DX2                !
 ! A3    A(1,2,14)             108.1336         estimate D2E/DX2                !
 ! A4    A(1,2,15)             107.5239         estimate D2E/DX2                !
 ! A5    A(3,2,14)             109.8135         estimate D2E/DX2                !
 ! A6    A(3,2,15)             111.5015         estimate D2E/DX2                !
 ! A7    A(14,2,15)            108.1117         estimate D2E/DX2                !
 ! A8    A(2,3,4)              105.9977         estimate D2E/DX2                !
 ! A9    A(2,3,5)              113.4432         estimate D2E/DX2                !
 ! A10   A(2,3,11)             113.9219         estimate D2E/DX2                !
 ! A11   A(4,3,5)              104.4533         estimate D2E/DX2                !
 ! A12   A(4,3,11)             107.5436         estimate D2E/DX2                !
 ! A13   A(5,3,11)             110.7326         estimate D2E/DX2                !
 ! A14   A(3,4,16)             105.455          estimate D2E/DX2                !
 ! A15   A(3,5,6)              116.2631         estimate D2E/DX2                !
 ! A16   A(5,6,7)              112.0279         estimate D2E/DX2                !
 ! A17   A(5,6,17)             107.5883         estimate D2E/DX2                !
 ! A18   A(5,6,18)             110.3195         estimate D2E/DX2                !
 ! A19   A(7,6,17)             108.7426         estimate D2E/DX2                !
 ! A20   A(7,6,18)             110.532          estimate D2E/DX2                !
 ! A21   A(17,6,18)            107.4653         estimate D2E/DX2                !
 ! A22   A(6,7,8)              110.283          estimate D2E/DX2                !
 ! A23   A(6,7,9)              111.5348         estimate D2E/DX2                !
 ! A24   A(6,7,19)             108.2439         estimate D2E/DX2                !
 ! A25   A(8,7,9)              110.9394         estimate D2E/DX2                !
 ! A26   A(8,7,19)             107.2048         estimate D2E/DX2                !
 ! A27   A(9,7,19)             108.481          estimate D2E/DX2                !
 ! A28   A(7,8,20)             105.3684         estimate D2E/DX2                !
 ! A29   A(7,9,10)             110.7558         estimate D2E/DX2                !
 ! A30   A(7,9,11)             110.9607         estimate D2E/DX2                !
 ! A31   A(7,9,21)             108.5059         estimate D2E/DX2                !
 ! A32   A(10,9,11)            111.2222         estimate D2E/DX2                !
 ! A33   A(10,9,21)            106.2402         estimate D2E/DX2                !
 ! A34   A(11,9,21)            108.9919         estimate D2E/DX2                !
 ! A35   A(9,10,22)            105.1214         estimate D2E/DX2                !
 ! A36   A(3,11,9)             112.5353         estimate D2E/DX2                !
 ! A37   A(3,11,12)            109.4081         estimate D2E/DX2                !
 ! A38   A(3,11,23)            109.8622         estimate D2E/DX2                !
 ! A39   A(9,11,12)            108.2411         estimate D2E/DX2                !
 ! A40   A(9,11,23)            109.5997         estimate D2E/DX2                !
 ! A41   A(12,11,23)           107.0295         estimate D2E/DX2                !
 ! A42   A(11,12,24)           105.2006         estimate D2E/DX2                !
 ! D1    D(13,1,2,3)            63.7403         estimate D2E/DX2                !
 ! D2    D(13,1,2,14)         -175.3643         estimate D2E/DX2                !
 ! D3    D(13,1,2,15)          -58.8483         estimate D2E/DX2                !
 ! D4    D(1,2,3,4)             59.2093         estimate D2E/DX2                !
 ! D5    D(1,2,3,5)            -54.828          estimate D2E/DX2                !
 ! D6    D(1,2,3,11)           177.258          estimate D2E/DX2                !
 ! D7    D(14,2,3,4)           -60.7018         estimate D2E/DX2                !
 ! D8    D(14,2,3,5)          -174.7391         estimate D2E/DX2                !
 ! D9    D(14,2,3,11)           57.347          estimate D2E/DX2                !
 ! D10   D(15,2,3,4)           179.4912         estimate D2E/DX2                !
 ! D11   D(15,2,3,5)            65.4539         estimate D2E/DX2                !
 ! D12   D(15,2,3,11)          -62.4601         estimate D2E/DX2                !
 ! D13   D(2,3,4,16)           -60.9764         estimate D2E/DX2                !
 ! D14   D(5,3,4,16)            59.1091         estimate D2E/DX2                !
 ! D15   D(11,3,4,16)          176.8124         estimate D2E/DX2                !
 ! D16   D(2,3,5,6)            175.2555         estimate D2E/DX2                !
 ! D17   D(4,3,5,6)             60.2957         estimate D2E/DX2                !
 ! D18   D(11,3,5,6)           -55.1972         estimate D2E/DX2                !
 ! D19   D(2,3,11,9)           180.0            estimate D2E/DX2                !
 ! D20   D(2,3,11,12)          -59.6356         estimate D2E/DX2                !
 ! D21   D(2,3,11,23)           57.5853         estimate D2E/DX2                !
 ! D22   D(4,3,11,9)           -62.8423         estimate D2E/DX2                !
 ! D23   D(4,3,11,12)           57.5222         estimate D2E/DX2                !
 ! D24   D(4,3,11,23)          174.743          estimate D2E/DX2                !
 ! D25   D(5,3,11,9)            50.7081         estimate D2E/DX2                !
 ! D26   D(5,3,11,12)          171.0725         estimate D2E/DX2                !
 ! D27   D(5,3,11,23)          -71.7067         estimate D2E/DX2                !
 ! D28   D(3,5,6,7)             56.5281         estimate D2E/DX2                !
 ! D29   D(3,5,6,17)           -62.9356         estimate D2E/DX2                !
 ! D30   D(3,5,6,18)          -179.8797         estimate D2E/DX2                !
 ! D31   D(5,6,7,8)             71.7018         estimate D2E/DX2                !
 ! D32   D(5,6,7,9)            -52.039          estimate D2E/DX2                !
 ! D33   D(5,6,7,19)          -171.3068         estimate D2E/DX2                !
 ! D34   D(17,6,7,8)          -169.5143         estimate D2E/DX2                !
 ! D35   D(17,6,7,9)            66.7449         estimate D2E/DX2                !
 ! D36   D(17,6,7,19)          -52.523          estimate D2E/DX2                !
 ! D37   D(18,6,7,8)           -51.7709         estimate D2E/DX2                !
 ! D38   D(18,6,7,9)          -175.5117         estimate D2E/DX2                !
 ! D39   D(18,6,7,19)           65.2205         estimate D2E/DX2                !
 ! D40   D(6,7,8,20)            55.915          estimate D2E/DX2                !
 ! D41   D(9,7,8,20)           180.0            estimate D2E/DX2                !
 ! D42   D(19,7,8,20)          -61.7195         estimate D2E/DX2                !
 ! D43   D(6,7,9,10)           173.3455         estimate D2E/DX2                !
 ! D44   D(6,7,9,11)            49.309          estimate D2E/DX2                !
 ! D45   D(6,7,9,21)           -70.4081         estimate D2E/DX2                !
 ! D46   D(8,7,9,10)            49.9769         estimate D2E/DX2                !
 ! D47   D(8,7,9,11)           -74.0596         estimate D2E/DX2                !
 ! D48   D(8,7,9,21)           166.2232         estimate D2E/DX2                !
 ! D49   D(19,7,9,10)          -67.5275         estimate D2E/DX2                !
 ! D50   D(19,7,9,11)          168.436          estimate D2E/DX2                !
 ! D51   D(19,7,9,21)           48.7189         estimate D2E/DX2                !
 ! D52   D(7,9,10,22)           56.1132         estimate D2E/DX2                !
 ! D53   D(11,9,10,22)         180.0            estimate D2E/DX2                !
 ! D54   D(21,9,10,22)         -61.5279         estimate D2E/DX2                !
 ! D55   D(7,9,11,3)           -49.2            estimate D2E/DX2                !
 ! D56   D(7,9,11,12)         -170.2345         estimate D2E/DX2                !
 ! D57   D(7,9,11,23)           73.3626         estimate D2E/DX2                !
 ! D58   D(10,9,11,3)         -172.9703         estimate D2E/DX2                !
 ! D59   D(10,9,11,12)          65.9952         estimate D2E/DX2                !
 ! D60   D(10,9,11,23)         -50.4077         estimate D2E/DX2                !
 ! D61   D(21,9,11,3)           70.2265         estimate D2E/DX2                !
 ! D62   D(21,9,11,12)         -50.8081         estimate D2E/DX2                !
 ! D63   D(21,9,11,23)        -167.211          estimate D2E/DX2                !
 ! D64   D(3,11,12,24)         178.5161         estimate D2E/DX2                !
 ! D65   D(9,11,12,24)         -58.5304         estimate D2E/DX2                !
 ! D66   D(23,11,12,24)         59.5259         estimate D2E/DX2                !
 --------------------------------------------------------------------------------
 Trust Radius=3.00D-01 FncErr=1.00D-07 GrdErr=1.00D-06 EigMax=2.50D+02 EigMin=1.00D-04
 Number of steps in this run=    142 maximum allowed number of steps=    144.
 GradGradGradGradGradGradGradGradGradGradGradGradGradGradGradGradGradGrad

 Leave Link  103 at Mon Feb 22 21:11:53 2021, MaxMem=   104857600 cpu:               0.4 elap:               0.0
 (Enter /sw/arch/RedHatEnterpriseServer7/EB_production/2019/software/Gaussian/g16.c01/l202.exe)
                          Input orientation:                          
 ---------------------------------------------------------------------
 Center     Atomic      Atomic             Coordinates (Angstroms)
 Number     Number       Type             X           Y           Z
 ---------------------------------------------------------------------
      1          8           0       -0.179145    3.838205   -1.275372
      2          6           0       -1.299450    3.148728   -1.820495
      3          6           0       -2.099052    2.391127   -0.718576
      4          8           0       -2.520393    3.386826    0.217553
      5          8           0       -1.284860    1.482190    0.062260
      6          6           0       -1.940960    0.827110    1.169380
      7          6           0       -3.195790    0.037080    0.716730
      8          8           0       -2.810746   -1.128281   -0.010698
      9          6           0       -4.155380    0.923629   -0.122935
     10          8           0       -5.224828    0.144622   -0.658935
     11          6           0       -3.382261    1.669136   -1.248860
     12          8           0       -4.262624    2.633127   -1.833938
     13          1           0        0.404211    3.137388   -0.917798
     14          1           0       -1.944901    3.881491   -2.308200
     15          1           0       -0.925849    2.467062   -2.582012
     16          1           0       -1.693695    3.782867    0.567906
     17          1           0       -2.249370    1.601180    1.874970
     18          1           0       -1.241080    0.169240    1.689670
     19          1           0       -3.728484   -0.300590    1.610156
     20          1           0       -2.212432   -1.623186    0.588916
     21          1           0       -4.616736    1.661126    0.540676
     22          1           0       -5.645338   -0.280609    0.117303
     23          1           0       -3.111589    0.962400   -2.037742
     24          1           0       -5.026914    2.116060   -2.164201
 ---------------------------------------------------------------------
                    Distance matrix (angstroms):
                    1          2          3          4          5
     1  O    0.000000
     2  C    1.423945   0.000000
     3  C    2.467812   1.558059   0.000000
     4  O    2.813185   2.387683   1.430134   0.000000
     5  O    2.926204   2.514424   1.448717   2.275587   0.000000
     6  C    4.259988   3.839374   2.456730   2.791750   1.444061
     7  C    5.245680   4.440267   2.967233   3.453424   2.483612
     8  O    5.761137   4.883870   3.659758   4.530187   3.024601
     9  C    5.062934   3.998638   2.595538   2.975980   2.930217
    10  O    6.283427   5.077644   3.849781   4.312086   4.222862
    11  C    3.868528   2.618026   1.564959   2.417363   2.480539
    12  O    4.294067   3.007728   2.446148   2.795004   3.713126
    13  H    0.979443   1.928069   2.619718   3.147150   2.559913
    14  H    2.046094   1.091515   2.184457   2.637293   3.436769
    15  H    2.035904   1.088190   2.203309   3.350538   2.844475
    16  H    2.386335   2.502402   1.938115   0.981338   2.390803
    17  H    4.383465   4.117488   2.715344   2.451330   2.056783
    18  H    4.835337   4.604564   3.387115   3.762530   2.091463
    19  H    6.168768   5.437588   3.914509   4.122604   3.397879
    20  H    6.118546   5.423095   4.223399   5.033188   3.283461
    21  H    5.265920   4.335028   2.908152   2.734429   3.370801
    22  H    6.984514   5.865335   4.518076   4.819276   4.703643
    23  H    4.177402   2.847995   2.192417   3.363586   2.831454
    24  H    5.220792   3.883108   3.276869   3.683782   4.400215
                    6          7          8          9         10
     6  C    0.000000
     7  C    1.550367   0.000000
     8  O    2.443904   1.426701   0.000000
     9  C    2.565745   1.553003   2.455803   0.000000
    10  O    3.819989   2.453776   2.805046   1.427539   0.000000
    11  C    2.938408   2.561625   3.112108   1.556021   2.463171
    12  O    4.203777   3.792559   4.424968   2.421036   2.915326
    13  H    3.897887   5.024301   5.417999   5.130536   6.380419
    14  H    4.628480   5.049200   5.579069   4.290751   5.238529
    15  H    4.218156   4.683924   4.805308   4.342709   5.251017
    16  H    3.026452   4.038485   5.069710   3.835674   5.216404
    17  H    1.091860   2.164172   3.364646   2.843163   4.170802
    18  H    1.092395   2.187457   2.653048   3.513941   4.624587
    19  H    2.158989   1.093615   2.038255   2.164384   2.754276
    20  H    2.532703   1.933860   0.981045   3.281470   3.709018
    21  H    2.872391   2.165089   3.368442   1.094135   2.026975
    22  H    4.007035   2.541757   2.961392   1.930772   0.979896
    23  H    3.416769   2.906961   2.927517   2.181167   2.652480
    24  H    4.721999   3.996866   4.480482   2.519570   2.488285
                   11         12         13         14         15
    11  C    0.000000
    12  O    1.430606   0.000000
    13  H    4.074645   4.782567   0.000000
    14  H    2.843012   2.674917   2.829352   0.000000
    15  H    2.906534   3.423633   2.233384   1.764667   0.000000
    16  H    3.258796   3.700021   2.650504   2.888739   3.498988
    17  H    3.323609   4.344434   4.147406   4.774037   4.729287
    18  H    3.933103   5.255120   4.279693   5.500831   4.860723
    19  H    3.489078   4.555633   5.940489   6.002040   5.752299
    20  H    3.947823   5.309399   5.637382   6.226261   5.332937
    21  H    2.174036   2.590168   5.432900   4.492752   4.901364
    22  H    3.284727   3.769496   7.025040   6.074486   6.091764
    23  H    1.093194   2.039055   4.283188   3.155218   2.708819
    24  H    1.934548   0.980087   5.665135   3.554756   4.137210
                   16         17         18         19         20
    16  H    0.000000
    17  H    2.603258   0.000000
    18  H    3.810711   1.761090   0.000000
    19  H    4.679880   2.423764   2.532635   0.000000
    20  H    5.430925   3.471576   2.316889   2.256237   0.000000
    21  H    3.612021   2.718153   3.865355   2.404394   4.070592
    22  H    5.685980   4.261822   4.698105   2.429679   3.716151
    23  H    4.093270   4.057189   4.245175   3.909331   3.793820
    24  H    4.620931   4.928972   5.742384   4.666036   5.429819
                   21         22         23         24
    21  H    0.000000
    22  H    2.237768   0.000000
    23  H    3.066256   3.550940   0.000000
    24  H    2.773368   3.366264   2.239508   0.000000
 Stoichiometry    C6H12O6
 Framework group  C1[X(C6H12O6)]
 Deg. of freedom    66
 Full point group                 C1      NOp   1
 Largest Abelian subgroup         C1      NOp   1
 Largest concise Abelian subgroup C1      NOp   1
                         Standard orientation:                         
 ---------------------------------------------------------------------
 Center     Atomic      Atomic             Coordinates (Angstroms)
 Number     Number       Type             X           Y           Z
 ---------------------------------------------------------------------
      1          8           0        3.421700   -0.413352   -0.320762
      2          6           0        2.343114    0.422365   -0.728009
      3          6           0        1.018619    0.046555    0.001393
      4          8           0        1.281249    0.199249    1.398889
      5          8           0        0.654033   -1.347575   -0.147796
      6          6           0       -0.506241   -1.787213    0.590982
      7          6           0       -1.765331   -0.949994    0.248353
      8          8           0       -2.227315   -1.265975   -1.063974
      9          6           0       -1.493290    0.572478    0.389390
     10          8           0       -2.609737    1.331064   -0.075326
     11          6           0       -0.188487    0.976183   -0.356073
     12          8           0        0.129785    2.325502   -0.002978
     13          1           0        3.171489   -1.314742   -0.610931
     14          1           0        2.609960    1.456153   -0.501120
     15          1           0        2.244683    0.327533   -1.807580
     16          1           0        2.005056   -0.432327    1.599487
     17          1           0       -0.284955   -1.669205    1.653651
     18          1           0       -0.691118   -2.848612    0.410483
     19          1           0       -2.560534   -1.226192    0.946465
     20          1           0       -2.371717   -2.236333   -1.062159
     21          1           0       -1.383861    0.808726    1.452095
     22          1           0       -3.373316    1.008415    0.447208
     23          1           0       -0.362750    0.960226   -1.435171
     24          1           0       -0.650969    2.852802   -0.273069
 ---------------------------------------------------------------------
 Rotational constants (GHZ):           1.4276027           0.7326156           0.5742111
 Leave Link  202 at Mon Feb 22 21:11:53 2021, MaxMem=   104857600 cpu:               0.5 elap:               0.0
 (Enter /sw/arch/RedHatEnterpriseServer7/EB_production/2019/software/Gaussian/g16.c01/l301.exe)
 Standard basis: TZVP (5D, 7F)
 Ernie: Thresh=  0.10000D-02 Tol=  0.10000D-05 Strict=F.
 There are   312 symmetry adapted cartesian basis functions of A   symmetry.
 There are   300 symmetry adapted basis functions of A   symmetry.
   300 basis functions,   516 primitive gaussians,   312 cartesian basis functions
    48 alpha electrons       48 beta electrons
       nuclear repulsion energy       835.9552121042 Hartrees.
 IExCor=  404 DFT=T Ex=B Corr=P86 ExCW=0 ScaHFX=  0.000000
 ScaDFX=  1.000000  1.000000  1.000000  1.000000 ScalE2=  1.000000  1.000000
 IRadAn=      5 IRanWt=     -1 IRanGd=            0 ICorTp=0 IEmpDi=131
 NAtoms=   24 NActive=   24 NUniq=   24 SFac= 1.00D+00 NAtFMM=   60 NAOKFM=F Big=F
 Integral buffers will be    131072 words long.
 Raffenetti 2 integral format.
 Two-electron integral symmetry is turned on.
 R6Disp:  Grimme-D3 Dispersion energy=       -0.0297187647 Hartrees.
 Nuclear repulsion after empirical dispersion term =      835.9254933395 Hartrees.
 ------------------------------------------------------------------------------
 Polarizable Continuum Model (PCM)
 =================================
 Model                : PCM.
 Atomic radii         : UFF (Universal Force Field).
 Polarization charges : Total charges.
 Charge compensation  : None.
 Solution method      : On-the-fly selection.
 Cavity type          : Scaled VdW (van der Waals Surface) (Alpha=1.100).
 Cavity algorithm     : GePol (No added spheres)
                        Default sphere list used, NSphG=   24.
                        Lebedev-Laikov grids with approx.  5.0 points / Ang**2.
                        Smoothing algorithm: York/Karplus (Gamma=1.0000).
                        Polarization charges: spherical gaussians, with
                                              point-specific exponents (IZeta= 3).
                        Self-potential: point-specific (ISelfS= 7).
                        Self-field    : sphere-specific E.n sum rule (ISelfD= 2).
 1st derivatives      : Analytical E(r).r(x)/FMM algorithm (CHGder, D1EAlg=3).
                        Cavity 1st derivative terms included.
 Solvent              : Water, Eps=  78.355300 Eps(inf)=   1.777849
 ------------------------------------------------------------------------------
 GePol: Number of generator spheres                  =      24
 GePol: Total number of spheres                      =      24
 GePol: Number of exposed spheres                    =      24 (100.00%)
 GePol: Number of points                             =    1705
 GePol: Average weight of points                     =       0.13
 GePol: Minimum weight of points                     =   0.46D-10
 GePol: Maximum weight of points                     =    0.20577
 GePol: Number of points with low weight             =     100
 GePol: Fraction of low-weight points (<1% of avg)   =       5.87%
 GePol: Cavity surface area                          =    226.607 Ang**2
 GePol: Cavity volume                                =    236.103 Ang**3
 Leave Link  301 at Mon Feb 22 21:11:53 2021, MaxMem=   104857600 cpu:               1.9 elap:               0.1
 (Enter /sw/arch/RedHatEnterpriseServer7/EB_production/2019/software/Gaussian/g16.c01/l302.exe)
 NPDir=0 NMtPBC=     1 NCelOv=     1 NCel=       1 NClECP=     1 NCelD=      1
         NCelK=      1 NCelE2=     1 NClLst=     1 CellRange=     0.0.
 One-electron integrals computed using PRISM.
 One-electron integral symmetry used in STVInt
 PrsmSu:  requested number of processors reduced to:  28 ShMem   1 Linda.
 NBasis=   300 RedAO= T EigKep=  7.08D-05  NBF=   300
 NBsUse=   300 1.00D-06 EigRej= -1.00D+00 NBFU=   300
 Precomputing XC quadrature grid using
 IXCGrd= 4 IRadAn=           5 IRanWt=          -1 IRanGd=           0 AccXCQ= 0.00D+00.
 Generated NRdTot=       0 NPtTot=           0 NUsed=           0 NTot=          32
 NSgBfM=   308   308   308   308   308 MxSgAt=    24 MxSgA2=    24.
 Leave Link  302 at Mon Feb 22 21:11:54 2021, MaxMem=   104857600 cpu:               8.0 elap:               0.3
 (Enter /sw/arch/RedHatEnterpriseServer7/EB_production/2019/software/Gaussian/g16.c01/l303.exe)
 DipDrv:  MaxL=1.
 Leave Link  303 at Mon Feb 22 21:11:54 2021, MaxMem=   104857600 cpu:               2.6 elap:               0.1
 (Enter /sw/arch/RedHatEnterpriseServer7/EB_production/2019/software/Gaussian/g16.c01/l401.exe)
 ExpMin= 9.52D-02 ExpMax= 2.70D+04 ExpMxC= 9.22D+02 IAcc=3 IRadAn=         5 AccDes= 0.00D+00
 Harris functional with IExCor=  404 and IRadAn=       5 diagonalized for initial guess.
 HarFok:  IExCor=  404 AccDes= 0.00D+00 IRadAn=         5 IDoV= 1 UseB2=F ITyADJ=14
 ICtDFT=  3500011 ScaDFX=  1.000000  1.000000  1.000000  1.000000
 FoFCou: FMM=F IPFlag=           0 FMFlag=      100000 FMFlg1=           0
         NFxFlg=           0 DoJE=T BraDBF=F KetDBF=T FulRan=T
         wScrn=  0.000000 ICntrl=       500 IOpCl=  0 I1Cent=   200000004 NGrid=           0
         NMat0=    1 NMatS0=      1 NMatT0=    0 NMatD0=    1 NMtDS0=    0 NMtDT0=    0
 Petite list used in FoFCou.
 Harris En= -687.619419226077    
 JPrj=0 DoOrth=F DoCkMO=F.
 Leave Link  401 at Mon Feb 22 21:11:55 2021, MaxMem=   104857600 cpu:              16.4 elap:               0.6
 (Enter /sw/arch/RedHatEnterpriseServer7/EB_production/2019/software/Gaussian/g16.c01/l502.exe)
 Integral symmetry usage will be decided dynamically.
 Closed shell SCF:
 Using DIIS extrapolation, IDIIS=  1040.
 NGot=   104857600 LenX=   104649138 LenY=   104551353
 Requested convergence on RMS density matrix=1.00D-08 within 128 cycles.
 Requested convergence on MAX density matrix=1.00D-06.
 Requested convergence on             energy=1.00D-06.
 No special actions if energy rises.
 Fock matrices will be formed incrementally for  20 cycles.

 Cycle   1  Pass 1  IDiag  1:
 FoFJK:  IHMeth= 1 ICntrl=     500 DoSepK=F KAlg= 0 I1Cent=           0 FoldK=F
 IRaf= 910000000 NMat=       1 IRICut=       1 DoRegI=T DoRafI=F ISym2E= 0 IDoP0=0 IntGTp=1.
 FoFCou: FMM=F IPFlag=           0 FMFlag=      100000 FMFlg1=           0
         NFxFlg=           0 DoJE=T BraDBF=F KetDBF=F FulRan=T
         wScrn=  0.000000 ICntrl=       500 IOpCl=  0 I1Cent=           0 NGrid=           0
         NMat0=    1 NMatS0=      1 NMatT0=    0 NMatD0=    1 NMtDS0=    0 NMtDT0=    0
 Symmetry not used in FoFCou.
 Inv3:  Mode=1 IEnd=     8721075.
 Iteration    1 A*A^-1 deviation from unit magnitude is 4.11D-15 for    363.
 Iteration    1 A*A^-1 deviation from orthogonality  is 2.31D-15 for   1065    556.
 Iteration    1 A^-1*A deviation from unit magnitude is 4.22D-15 for    604.
 Iteration    1 A^-1*A deviation from orthogonality  is 1.45D-15 for    907    399.
 E= -687.200797306745    
 DIIS: error= 2.01D-02 at cycle   1 NSaved=   1.
 NSaved= 1 IEnMin= 1 EnMin= -687.200797306745     IErMin= 1 ErrMin= 2.01D-02
 ErrMax= 2.01D-02  0.00D+00 EMaxC= 1.00D-01 BMatC= 3.56D-01 BMatP= 3.56D-01
 IDIUse=3 WtCom= 7.99D-01 WtEn= 2.01D-01
 Coeff-Com:  0.100D+01
 Coeff-En:   0.100D+01
 Coeff:      0.100D+01
 Gap=     0.195 Goal=   None    Shift=    0.000
 GapD=    0.195 DampG=1.000 DampE=0.500 DampFc=0.5000 IDamp=-1.
 Damping current iteration by 5.00D-01
 RMSDP=1.12D-02 MaxDP=1.26D+00              OVMax= 1.82D-01

 Cycle   2  Pass 1  IDiag  1:
 RMSU=  5.50D-03    CP:  1.08D+00
 E= -687.232025567521     Delta-E=       -0.031228260775 Rises=F Damp=T
 DIIS: error= 9.25D-03 at cycle   2 NSaved=   2.
 NSaved= 2 IEnMin= 2 EnMin= -687.232025567521     IErMin= 2 ErrMin= 9.25D-03
 ErrMax= 9.25D-03  0.00D+00 EMaxC= 1.00D-01 BMatC= 8.41D-02 BMatP= 3.56D-01
 IDIUse=3 WtCom= 9.08D-01 WtEn= 9.25D-02
 Coeff-Com:  0.305D+00 0.695D+00
 Coeff-En:   0.452D+00 0.548D+00
 Coeff:      0.319D+00 0.681D+00
 Gap=     0.233 Goal=   None    Shift=    0.000
 RMSDP=3.00D-03 MaxDP=3.61D-01 DE=-3.12D-02 OVMax= 1.22D-01

 Cycle   3  Pass 1  IDiag  1:
 RMSU=  1.13D-03    CP:  1.04D+00  5.05D-01
 E= -687.459196356465     Delta-E=       -0.227170788944 Rises=F Damp=F
 DIIS: error= 3.62D-03 at cycle   3 NSaved=   3.
 NSaved= 3 IEnMin= 3 EnMin= -687.459196356465     IErMin= 3 ErrMin= 3.62D-03
 ErrMax= 3.62D-03  0.00D+00 EMaxC= 1.00D-01 BMatC= 1.20D-02 BMatP= 8.41D-02
 IDIUse=3 WtCom= 9.64D-01 WtEn= 3.62D-02
 Coeff-Com:  0.112D+00 0.312D+00 0.576D+00
 Coeff-En:   0.000D+00 0.000D+00 0.100D+01
 Coeff:      0.108D+00 0.300D+00 0.592D+00
 Gap=     0.233 Goal=   None    Shift=    0.000
 RMSDP=7.22D-04 MaxDP=2.11D-02 DE=-2.27D-01 OVMax= 2.22D-02

 Cycle   4  Pass 1  IDiag  1:
 RMSU=  6.03D-04    CP:  1.05D+00  5.09D-01  6.60D-01
 E= -687.467563139486     Delta-E=       -0.008366783021 Rises=F Damp=F
 DIIS: error= 2.00D-03 at cycle   4 NSaved=   4.
 NSaved= 4 IEnMin= 4 EnMin= -687.467563139486     IErMin= 4 ErrMin= 2.00D-03
 ErrMax= 2.00D-03  0.00D+00 EMaxC= 1.00D-01 BMatC= 3.43D-03 BMatP= 1.20D-02
 IDIUse=3 WtCom= 9.80D-01 WtEn= 2.00D-02
 Coeff-Com:  0.348D-01 0.903D-01 0.356D+00 0.519D+00
 Coeff-En:   0.000D+00 0.000D+00 0.225D+00 0.775D+00
 Coeff:      0.341D-01 0.885D-01 0.353D+00 0.524D+00
 Gap=     0.227 Goal=   None    Shift=    0.000
 RMSDP=3.82D-04 MaxDP=1.46D-02 DE=-8.37D-03 OVMax= 7.60D-03

 Cycle   5  Pass 1  IDiag  1:
 RMSU=  1.99D-04    CP:  1.04D+00  4.99D-01  7.66D-01  5.23D-01
 E= -687.470535720320     Delta-E=       -0.002972580833 Rises=F Damp=F
 DIIS: error= 3.41D-04 at cycle   5 NSaved=   5.
 NSaved= 5 IEnMin= 5 EnMin= -687.470535720320     IErMin= 5 ErrMin= 3.41D-04
 ErrMax= 3.41D-04  0.00D+00 EMaxC= 1.00D-01 BMatC= 1.13D-04 BMatP= 3.43D-03
 IDIUse=3 WtCom= 9.97D-01 WtEn= 3.41D-03
 Coeff-Com:  0.913D-02 0.157D-01 0.120D+00 0.235D+00 0.620D+00
 Coeff-En:   0.000D+00 0.000D+00 0.000D+00 0.000D+00 0.100D+01
 Coeff:      0.910D-02 0.157D-01 0.120D+00 0.234D+00 0.622D+00
 Gap=     0.228 Goal=   None    Shift=    0.000
 RMSDP=7.32D-05 MaxDP=2.16D-03 DE=-2.97D-03 OVMax= 2.20D-03

 Cycle   6  Pass 1  IDiag  1:
 RMSU=  4.13D-05    CP:  1.04D+00  5.00D-01  7.60D-01  5.69D-01  7.36D-01
 E= -687.470596051489     Delta-E=       -0.000060331169 Rises=F Damp=F
 DIIS: error= 2.50D-04 at cycle   6 NSaved=   6.
 NSaved= 6 IEnMin= 6 EnMin= -687.470596051489     IErMin= 6 ErrMin= 2.50D-04
 ErrMax= 2.50D-04  0.00D+00 EMaxC= 1.00D-01 BMatC= 4.31D-05 BMatP= 1.13D-04
 IDIUse=3 WtCom= 9.98D-01 WtEn= 2.50D-03
 Coeff-Com:  0.388D-02 0.369D-02 0.569D-01 0.122D+00 0.431D+00 0.382D+00
 Coeff-En:   0.000D+00 0.000D+00 0.000D+00 0.000D+00 0.238D+00 0.762D+00
 Coeff:      0.387D-02 0.368D-02 0.567D-01 0.122D+00 0.430D+00 0.383D+00
 Gap=     0.227 Goal=   None    Shift=    0.000
 RMSDP=2.39D-05 MaxDP=9.69D-04 DE=-6.03D-05 OVMax= 9.22D-04

 Cycle   7  Pass 1  IDiag  1:
 RMSU=  8.74D-06    CP:  1.04D+00  4.99D-01  7.64D-01  5.70D-01  7.31D-01
                    CP:  4.98D-01
 E= -687.470625965512     Delta-E=       -0.000029914023 Rises=F Damp=F
 DIIS: error= 3.47D-05 at cycle   7 NSaved=   7.
 NSaved= 7 IEnMin= 7 EnMin= -687.470625965512     IErMin= 7 ErrMin= 3.47D-05
 ErrMax= 3.47D-05  0.00D+00 EMaxC= 1.00D-01 BMatC= 6.55D-07 BMatP= 4.31D-05
 IDIUse=1 WtCom= 1.00D+00 WtEn= 0.00D+00
 Coeff-Com:  0.156D-02 0.785D-03 0.215D-01 0.468D-01 0.177D+00 0.182D+00
 Coeff-Com:  0.570D+00
 Coeff:      0.156D-02 0.785D-03 0.215D-01 0.468D-01 0.177D+00 0.182D+00
 Coeff:      0.570D+00
 Gap=     0.227 Goal=   None    Shift=    0.000
 RMSDP=4.75D-06 MaxDP=1.17D-04 DE=-2.99D-05 OVMax= 1.37D-04

 Cycle   8  Pass 1  IDiag  1:
 RMSU=  3.49D-06    CP:  1.04D+00  4.99D-01  7.64D-01  5.68D-01  7.39D-01
                    CP:  5.10D-01  7.33D-01
 E= -687.470626400261     Delta-E=       -0.000000434749 Rises=F Damp=F
 DIIS: error= 1.93D-05 at cycle   8 NSaved=   8.
 NSaved= 8 IEnMin= 8 EnMin= -687.470626400261     IErMin= 8 ErrMin= 1.93D-05
 ErrMax= 1.93D-05  0.00D+00 EMaxC= 1.00D-01 BMatC= 1.67D-07 BMatP= 6.55D-07
 IDIUse=1 WtCom= 1.00D+00 WtEn= 0.00D+00
 Coeff-Com:  0.492D-03-0.274D-04 0.569D-02 0.122D-01 0.499D-01 0.596D-01
 Coeff-Com:  0.365D+00 0.507D+00
 Coeff:      0.492D-03-0.274D-04 0.569D-02 0.122D-01 0.499D-01 0.596D-01
 Coeff:      0.365D+00 0.507D+00
 Gap=     0.227 Goal=   None    Shift=    0.000
 RMSDP=1.82D-06 MaxDP=5.75D-05 DE=-4.35D-07 OVMax= 6.29D-05

 Cycle   9  Pass 1  IDiag  1:
 RMSU=  1.25D-06    CP:  1.04D+00  4.99D-01  7.63D-01  5.69D-01  7.40D-01
                    CP:  5.06D-01  7.49D-01  6.41D-01
 E= -687.470626534294     Delta-E=       -0.000000134033 Rises=F Damp=F
 DIIS: error= 4.41D-06 at cycle   9 NSaved=   9.
 NSaved= 9 IEnMin= 9 EnMin= -687.470626534294     IErMin= 9 ErrMin= 4.41D-06
 ErrMax= 4.41D-06  0.00D+00 EMaxC= 1.00D-01 BMatC= 1.20D-08 BMatP= 1.67D-07
 IDIUse=1 WtCom= 1.00D+00 WtEn= 0.00D+00
 Coeff-Com:  0.126D-03-0.103D-03 0.995D-03 0.202D-02 0.934D-02 0.141D-01
 Coeff-Com:  0.140D+00 0.279D+00 0.554D+00
 Coeff:      0.126D-03-0.103D-03 0.995D-03 0.202D-02 0.934D-02 0.141D-01
 Coeff:      0.140D+00 0.279D+00 0.554D+00
 Gap=     0.227 Goal=   None    Shift=    0.000
 RMSDP=7.65D-07 MaxDP=6.97D-05 DE=-1.34D-07 OVMax= 1.84D-05

 Cycle  10  Pass 1  IDiag  1:
 RMSU=  4.38D-07    CP:  1.04D+00  4.99D-01  7.64D-01  5.69D-01  7.40D-01
                    CP:  5.08D-01  7.72D-01  6.59D-01  7.25D-01
 E= -687.470626502660     Delta-E=        0.000000031634 Rises=F Damp=F
 DIIS: error= 1.78D-06 at cycle  10 NSaved=  10.
 NSaved=10 IEnMin= 9 EnMin= -687.470626534294     IErMin=10 ErrMin= 1.78D-06
 ErrMax= 1.78D-06  0.00D+00 EMaxC= 1.00D-01 BMatC= 2.37D-09 BMatP= 1.20D-08
 IDIUse=1 WtCom= 1.00D+00 WtEn= 0.00D+00
 Coeff-Com:  0.194D-04-0.601D-04-0.798D-04-0.261D-03-0.485D-03 0.125D-02
 Coeff-Com:  0.394D-01 0.110D+00 0.357D+00 0.493D+00
 Coeff:      0.194D-04-0.601D-04-0.798D-04-0.261D-03-0.485D-03 0.125D-02
 Coeff:      0.394D-01 0.110D+00 0.357D+00 0.493D+00
 Gap=     0.227 Goal=   None    Shift=    0.000
 RMSDP=2.10D-07 MaxDP=1.64D-05 DE= 3.16D-08 OVMax= 6.16D-06

 Cycle  11  Pass 1  IDiag  1:
 RMSU=  1.02D-07    CP:  1.04D+00  4.99D-01  7.64D-01  5.69D-01  7.40D-01
                    CP:  5.09D-01  7.73D-01  6.72D-01  7.55D-01  6.50D-01
 E= -687.470626525134     Delta-E=       -0.000000022475 Rises=F Damp=F
 DIIS: error= 1.28D-07 at cycle  11 NSaved=  11.
 NSaved=11 IEnMin= 9 EnMin= -687.470626534294     IErMin=11 ErrMin= 1.28D-07
 ErrMax= 1.28D-07  0.00D+00 EMaxC= 1.00D-01 BMatC= 1.41D-11 BMatP= 2.37D-09
 IDIUse=1 WtCom= 1.00D+00 WtEn= 0.00D+00
 Coeff-Com:  0.204D-05-0.148D-04-0.501D-04-0.132D-03-0.419D-03-0.355D-04
 Coeff-Com:  0.771D-02 0.259D-01 0.944D-01 0.156D+00 0.716D+00
 Coeff:      0.204D-05-0.148D-04-0.501D-04-0.132D-03-0.419D-03-0.355D-04
 Coeff:      0.771D-02 0.259D-01 0.944D-01 0.156D+00 0.716D+00
 Gap=     0.227 Goal=   None    Shift=    0.000
 RMSDP=2.78D-08 MaxDP=8.64D-07 DE=-2.25D-08 OVMax= 5.58D-07

 Cycle  12  Pass 1  IDiag  1:
 RMSU=  1.73D-08    CP:  1.04D+00  4.99D-01  7.64D-01  5.69D-01  7.40D-01
                    CP:  5.09D-01  7.73D-01  6.73D-01  7.63D-01  6.50D-01
                    CP:  8.22D-01
 E= -687.470626525151     Delta-E=       -0.000000000017 Rises=F Damp=F
 DIIS: error= 3.79D-08 at cycle  12 NSaved=  12.
 NSaved=12 IEnMin= 9 EnMin= -687.470626534294     IErMin=12 ErrMin= 3.79D-08
 ErrMax= 3.79D-08  0.00D+00 EMaxC= 1.00D-01 BMatC= 1.92D-12 BMatP= 1.41D-11
 IDIUse=1 WtCom= 1.00D+00 WtEn= 0.00D+00
 Coeff-Com:  0.135D-06-0.543D-05-0.237D-04-0.598D-04-0.201D-03-0.641D-04
 Coeff-Com:  0.244D-02 0.907D-02 0.342D-01 0.603D-01 0.351D+00 0.543D+00
 Coeff:      0.135D-06-0.543D-05-0.237D-04-0.598D-04-0.201D-03-0.641D-04
 Coeff:      0.244D-02 0.907D-02 0.342D-01 0.603D-01 0.351D+00 0.543D+00
 Gap=     0.227 Goal=   None    Shift=    0.000
 RMSDP=7.14D-09 MaxDP=3.92D-07 DE=-1.71D-11 OVMax= 2.42D-07

 Error on total polarization charges =  0.01023
 SCF Done:  E(RB-P86) =  -687.470626525     A.U. after   12 cycles
            NFock= 12  Conv=0.71D-08     -V/T= 2.0043
 KE= 6.845005553353D+02 PE=-3.287102766204D+03 EE= 1.079206091004D+03
 Leave Link  502 at Mon Feb 22 21:12:13 2021, MaxMem=   104857600 cpu:             574.1 elap:              18.3
 (Enter /sw/arch/RedHatEnterpriseServer7/EB_production/2019/software/Gaussian/g16.c01/l601.exe)
 Copying SCF densities to generalized density rwf, IOpCl= 0 IROHF=0.

 **********************************************************************

            Population analysis using the SCF Density.

 **********************************************************************

 Orbital symmetries:
       Occupied  (A) (A) (A) (A) (A) (A) (A) (A) (A) (A) (A) (A)
                 (A) (A) (A) (A) (A) (A) (A) (A) (A) (A) (A) (A)
                 (A) (A) (A) (A) (A) (A) (A) (A) (A) (A) (A) (A)
                 (A) (A) (A) (A) (A) (A) (A) (A) (A) (A) (A) (A)
       Virtual   (A) (A) (A) (A) (A) (A) (A) (A) (A) (A) (A) (A)
                 (A) (A) (A) (A) (A) (A) (A) (A) (A) (A) (A) (A)
                 (A) (A) (A) (A) (A) (A) (A) (A) (A) (A) (A) (A)
                 (A) (A) (A) (A) (A) (A) (A) (A) (A) (A) (A) (A)
                 (A) (A) (A) (A) (A) (A) (A) (A) (A) (A) (A) (A)
                 (A) (A) (A) (A) (A) (A) (A) (A) (A) (A) (A) (A)
                 (A) (A) (A) (A) (A) (A) (A) (A) (A) (A) (A) (A)
                 (A) (A) (A) (A) (A) (A) (A) (A) (A) (A) (A) (A)
                 (A) (A) (A) (A) (A) (A) (A) (A) (A) (A) (A) (A)
                 (A) (A) (A) (A) (A) (A) (A) (A) (A) (A) (A) (A)
                 (A) (A) (A) (A) (A) (A) (A) (A) (A) (A) (A) (A)
                 (A) (A) (A) (A) (A) (A) (A) (A) (A) (A) (A) (A)
                 (A) (A) (A) (A) (A) (A) (A) (A) (A) (A) (A) (A)
                 (A) (A) (A) (A) (A) (A) (A) (A) (A) (A) (A) (A)
                 (A) (A) (A) (A) (A) (A) (A) (A) (A) (A) (A) (A)
                 (A) (A) (A) (A) (A) (A) (A) (A) (A) (A) (A) (A)
                 (A) (A) (A) (A) (A) (A) (A) (A) (A) (A) (A) (A)
                 (A) (A) (A) (A) (A) (A) (A) (A) (A) (A) (A) (A)
                 (A) (A) (A) (A) (A) (A) (A) (A) (A) (A) (A) (A)
                 (A) (A) (A) (A) (A) (A) (A) (A) (A) (A) (A) (A)
                 (A) (A) (A) (A) (A) (A) (A) (A) (A) (A) (A) (A)
 The electronic state is 1-A.
 Alpha  occ. eigenvalues --  -18.79358 -18.78771 -18.78511 -18.78137 -18.77885
 Alpha  occ. eigenvalues --  -18.77868 -10.02157  -9.96821  -9.96311  -9.95976
 Alpha  occ. eigenvalues --   -9.95569  -9.95426  -0.99795  -0.96474  -0.95209
 Alpha  occ. eigenvalues --   -0.95020  -0.93809  -0.91803  -0.71385  -0.70580
 Alpha  occ. eigenvalues --   -0.64048  -0.59887  -0.57490  -0.52869  -0.50377
 Alpha  occ. eigenvalues --   -0.48849  -0.48063  -0.46630  -0.43873  -0.43564
 Alpha  occ. eigenvalues --   -0.43204  -0.41950  -0.40515  -0.39496  -0.37777
 Alpha  occ. eigenvalues --   -0.37612  -0.35495  -0.33022  -0.32874  -0.31427
 Alpha  occ. eigenvalues --   -0.30030  -0.28766  -0.27174  -0.25233  -0.24594
 Alpha  occ. eigenvalues --   -0.24222  -0.23730  -0.22868
 Alpha virt. eigenvalues --   -0.00151   0.00117   0.02008   0.02555   0.03926
 Alpha virt. eigenvalues --    0.05997   0.06284   0.07035   0.07582   0.08327
 Alpha virt. eigenvalues --    0.08808   0.09922   0.10323   0.11321   0.12381
 Alpha virt. eigenvalues --    0.13855   0.13992   0.14520   0.16549   0.17082
 Alpha virt. eigenvalues --    0.17715   0.18715   0.20455   0.20996   0.24624
 Alpha virt. eigenvalues --    0.25095   0.25714   0.27005   0.27577   0.27963
 Alpha virt. eigenvalues --    0.28506   0.29889   0.30152   0.31030   0.31772
 Alpha virt. eigenvalues --    0.32574   0.33105   0.33656   0.33983   0.34941
 Alpha virt. eigenvalues --    0.36417   0.37788   0.38606   0.38793   0.39647
 Alpha virt. eigenvalues --    0.39819   0.40467   0.40914   0.41365   0.42760
 Alpha virt. eigenvalues --    0.42969   0.44367   0.45784   0.45984   0.47243
 Alpha virt. eigenvalues --    0.48516   0.48983   0.49346   0.51495   0.51845
 Alpha virt. eigenvalues --    0.53351   0.54602   0.55473   0.56262   0.58589
 Alpha virt. eigenvalues --    0.58828   0.60416   0.63109   0.64215   0.65167
 Alpha virt. eigenvalues --    0.67770   0.69876   0.72778   0.73370   0.74867
 Alpha virt. eigenvalues --    0.77597   0.79047   0.81117   0.84068   0.87125
 Alpha virt. eigenvalues --    0.90612   0.92777   0.95357   0.97912   1.11879
 Alpha virt. eigenvalues --    1.16338   1.19133   1.20016   1.21790   1.22597
 Alpha virt. eigenvalues --    1.23752   1.24510   1.25859   1.26910   1.27018
 Alpha virt. eigenvalues --    1.29261   1.29616   1.31458   1.32778   1.33911
 Alpha virt. eigenvalues --    1.34209   1.36466   1.36863   1.37585   1.39650
 Alpha virt. eigenvalues --    1.41445   1.42784   1.44215   1.44676   1.47460
 Alpha virt. eigenvalues --    1.48424   1.49340   1.50137   1.51925   1.52460
 Alpha virt. eigenvalues --    1.54200   1.54951   1.56542   1.59058   1.60886
 Alpha virt. eigenvalues --    1.63119   1.66817   1.68267   1.68483   1.69203
 Alpha virt. eigenvalues --    1.70920   1.73636   1.74235   1.75047   1.78867
 Alpha virt. eigenvalues --    1.80204   1.83015   1.85682   1.87038   1.87406
 Alpha virt. eigenvalues --    1.88449   1.90390   1.91770   1.93144   1.93487
 Alpha virt. eigenvalues --    1.94133   1.95913   1.96708   1.97061   1.98993
 Alpha virt. eigenvalues --    2.00481   2.03468   2.04717   2.05966   2.06744
 Alpha virt. eigenvalues --    2.09051   2.10063   2.14021   2.15809   2.17126
 Alpha virt. eigenvalues --    2.21476   2.25090   2.26534   2.29124   2.30904
 Alpha virt. eigenvalues --    2.32220   2.33735   2.36491   2.39225   2.40923
 Alpha virt. eigenvalues --    2.44824   2.46869   2.48023   2.49751   2.51316
 Alpha virt. eigenvalues --    2.52635   2.56301   2.57287   2.59944   2.60409
 Alpha virt. eigenvalues --    2.61268   2.61757   2.62449   2.64106   2.64591
 Alpha virt. eigenvalues --    2.65435   2.66717   2.70044   2.71200   2.71895
 Alpha virt. eigenvalues --    2.73455   2.74869   2.75859   2.77353   2.81263
 Alpha virt. eigenvalues --    2.83566   2.84279   2.85386   2.86520   2.86980
 Alpha virt. eigenvalues --    2.88393   2.89170   2.89437   2.90488   2.91407
 Alpha virt. eigenvalues --    2.92547   2.93679   2.95326   2.96798   2.97822
 Alpha virt. eigenvalues --    2.98899   3.00276   3.04733   3.06127   3.06634
 Alpha virt. eigenvalues --    3.08070   3.08664   3.10346   3.12225   3.12613
 Alpha virt. eigenvalues --    3.16751   3.18012   3.23884   3.24546   3.25110
 Alpha virt. eigenvalues --    3.30360   3.32028   3.32751   3.36104   3.38484
 Alpha virt. eigenvalues --    3.42483   3.44269   3.48559   3.81315   3.85502
 Alpha virt. eigenvalues --    3.90411   3.92512   3.94157   3.96799   4.02892
 Alpha virt. eigenvalues --    4.16015   4.16508   4.16589   4.17807   4.18835
 Alpha virt. eigenvalues --   21.59080  21.67526  21.72874  21.76205  21.79691
 Alpha virt. eigenvalues --   21.87186  43.11615  43.19000  43.25143  43.28176
 Alpha virt. eigenvalues --   43.31895  43.49204
          Condensed to atoms (all electrons):
               1          2          3          4          5          6
     1  O    7.924603   0.253296  -0.018818  -0.018685  -0.014382  -0.003114
     2  C    0.253296   5.513944  -0.020795  -0.024892  -0.049801  -0.023612
     3  C   -0.018818  -0.020795   6.531767   0.139481   0.215909  -0.199179
     4  O   -0.018685  -0.024892   0.139481   8.044078  -0.103466   0.017809
     5  O   -0.014382  -0.049801   0.215909  -0.103466   8.094498   0.213332
     6  C   -0.003114  -0.023612  -0.199179   0.017809   0.213332   5.296122
     7  C    0.000362   0.013524   0.114950  -0.022016   0.001324   0.111241
     8  O    0.000001  -0.002186  -0.010678   0.000499  -0.005609  -0.006653
     9  C   -0.000870  -0.009029   0.127366  -0.023488  -0.063711  -0.056083
    10  O    0.000001   0.000183   0.014779  -0.000242  -0.000468   0.015165
    11  C    0.016651  -0.141650  -0.627806  -0.030602  -0.009786   0.068924
    12  O   -0.000082  -0.003916  -0.073298   0.002029   0.003267  -0.000679
    13  H    0.294841  -0.042581  -0.003558  -0.001235   0.013523   0.000264
    14  H   -0.039613   0.369123  -0.014338  -0.012462   0.005263   0.000395
    15  H   -0.048461   0.389708  -0.065445   0.010335  -0.002399  -0.000329
    16  H    0.020546  -0.031267  -0.029731   0.298029   0.003915  -0.001311
    17  H   -0.000108  -0.000735  -0.018917   0.031630  -0.053240   0.408092
    18  H    0.000009  -0.000255   0.012446   0.000807  -0.027831   0.353497
    19  H   -0.000001   0.000391  -0.004059  -0.000153   0.006157  -0.044439
    20  H   -0.000000   0.000054   0.001716   0.000018   0.000348  -0.002467
    21  H    0.000001  -0.003807  -0.020584   0.019612   0.000792   0.023060
    22  H   -0.000000   0.000089  -0.001513  -0.000002   0.000055   0.001128
    23  H   -0.000032  -0.043616  -0.049101   0.006741   0.000851   0.016542
    24  H    0.000020   0.002447   0.016808  -0.000341  -0.000362  -0.001235
               7          8          9         10         11         12
     1  O    0.000362   0.000001  -0.000870   0.000001   0.016651  -0.000082
     2  C    0.013524  -0.002186  -0.009029   0.000183  -0.141650  -0.003916
     3  C    0.114950  -0.010678   0.127366   0.014779  -0.627806  -0.073298
     4  O   -0.022016   0.000499  -0.023488  -0.000242  -0.030602   0.002029
     5  O    0.001324  -0.005609  -0.063711  -0.000468  -0.009786   0.003267
     6  C    0.111241  -0.006653  -0.056083   0.015165   0.068924  -0.000679
     7  C    5.766107   0.206984  -0.021155  -0.032750  -0.135717   0.024016
     8  O    0.206984   7.965219  -0.059080   0.000818  -0.008535  -0.000209
     9  C   -0.021155  -0.059080   5.889714   0.259261  -0.238290  -0.021841
    10  O   -0.032750   0.000818   0.259261   7.946984  -0.090887  -0.003135
    11  C   -0.135717  -0.008535  -0.238290  -0.090887   6.645761   0.237927
    12  O    0.024016  -0.000209  -0.021841  -0.003135   0.237927   7.932783
    13  H    0.000329  -0.000003  -0.000213   0.000001   0.001628  -0.000038
    14  H    0.000107  -0.000003  -0.001735  -0.000012  -0.004637   0.015813
    15  H   -0.001069   0.000199   0.000276   0.000006   0.015567  -0.001256
    16  H    0.000006   0.000063   0.002955  -0.000001   0.013267  -0.000413
    17  H   -0.069389   0.008768  -0.007090  -0.000468  -0.002657   0.000029
    18  H   -0.014919  -0.011619   0.012460  -0.000412  -0.003222   0.000032
    19  H    0.377419  -0.050440  -0.074198  -0.007855   0.029287  -0.000540
    20  H   -0.037828   0.298953   0.012464  -0.000802  -0.001441   0.000028
    21  H   -0.069735   0.003593   0.417026  -0.056716  -0.053060  -0.000126
    22  H   -0.006310   0.001678  -0.041332   0.305944   0.019727  -0.000523
    23  H   -0.022039   0.015723  -0.037249   0.003442   0.407046  -0.056276
    24  H    0.003495   0.000014   0.009257   0.013846  -0.057895   0.300559
              13         14         15         16         17         18
     1  O    0.294841  -0.039613  -0.048461   0.020546  -0.000108   0.000009
     2  C   -0.042581   0.369123   0.389708  -0.031267  -0.000735  -0.000255
     3  C   -0.003558  -0.014338  -0.065445  -0.029731  -0.018917   0.012446
     4  O   -0.001235  -0.012462   0.010335   0.298029   0.031630   0.000807
     5  O    0.013523   0.005263  -0.002399   0.003915  -0.053240  -0.027831
     6  C    0.000264   0.000395  -0.000329  -0.001311   0.408092   0.353497
     7  C    0.000329   0.000107  -0.001069   0.000006  -0.069389  -0.014919
     8  O   -0.000003  -0.000003   0.000199   0.000063   0.008768  -0.011619
     9  C   -0.000213  -0.001735   0.000276   0.002955  -0.007090   0.012460
    10  O    0.000001  -0.000012   0.000006  -0.000001  -0.000468  -0.000412
    11  C    0.001628  -0.004637   0.015567   0.013267  -0.002657  -0.003222
    12  O   -0.000038   0.015813  -0.001256  -0.000413   0.000029   0.000032
    13  H    0.445674   0.010715  -0.013504  -0.000478   0.000064  -0.000097
    14  H    0.010715   0.556121  -0.050909  -0.003741   0.000081   0.000017
    15  H   -0.013504  -0.050909   0.611819   0.002554  -0.000118  -0.000072
    16  H   -0.000478  -0.003741   0.002554   0.436640  -0.000806  -0.000244
    17  H    0.000064   0.000081  -0.000118  -0.000806   0.574197  -0.027969
    18  H   -0.000097   0.000017  -0.000072  -0.000244  -0.027969   0.527788
    19  H   -0.000009   0.000004   0.000001  -0.000037   0.008629  -0.004295
    20  H   -0.000001  -0.000001   0.000006  -0.000010   0.001340   0.002432
    21  H   -0.000004   0.000261  -0.000019  -0.000322   0.001291  -0.000202
    22  H   -0.000000   0.000000  -0.000002  -0.000009  -0.000068  -0.000007
    23  H   -0.000020   0.001255   0.005857  -0.000018   0.000271  -0.000074
    24  H    0.000008  -0.000609  -0.000026   0.000077  -0.000007  -0.000000
              19         20         21         22         23         24
     1  O   -0.000001  -0.000000   0.000001  -0.000000  -0.000032   0.000020
     2  C    0.000391   0.000054  -0.003807   0.000089  -0.043616   0.002447
     3  C   -0.004059   0.001716  -0.020584  -0.001513  -0.049101   0.016808
     4  O   -0.000153   0.000018   0.019612  -0.000002   0.006741  -0.000341
     5  O    0.006157   0.000348   0.000792   0.000055   0.000851  -0.000362
     6  C   -0.044439  -0.002467   0.023060   0.001128   0.016542  -0.001235
     7  C    0.377419  -0.037828  -0.069735  -0.006310  -0.022039   0.003495
     8  O   -0.050440   0.298953   0.003593   0.001678   0.015723   0.000014
     9  C   -0.074198   0.012464   0.417026  -0.041332  -0.037249   0.009257
    10  O   -0.007855  -0.000802  -0.056716   0.305944   0.003442   0.013846
    11  C    0.029287  -0.001441  -0.053060   0.019727   0.407046  -0.057895
    12  O   -0.000540   0.000028  -0.000126  -0.000523  -0.056276   0.300559
    13  H   -0.000009  -0.000001  -0.000004  -0.000000  -0.000020   0.000008
    14  H    0.000004  -0.000001   0.000261   0.000000   0.001255  -0.000609
    15  H    0.000001   0.000006  -0.000019  -0.000002   0.005857  -0.000026
    16  H   -0.000037  -0.000010  -0.000322  -0.000009  -0.000018   0.000077
    17  H    0.008629   0.001340   0.001291  -0.000068   0.000271  -0.000007
    18  H   -0.004295   0.002432  -0.000202  -0.000007  -0.000074  -0.000000
    19  H    0.589200  -0.007208  -0.003970   0.005488   0.000037  -0.000103
    20  H   -0.007208   0.441695  -0.000631  -0.000296  -0.000395   0.000004
    21  H   -0.003970  -0.000631   0.557126  -0.005462   0.013492  -0.004586
    22  H    0.005488  -0.000296  -0.005462   0.421344  -0.000658  -0.000478
    23  H    0.000037  -0.000395   0.013492  -0.000658   0.572566  -0.010429
    24  H   -0.000103   0.000004  -0.004586  -0.000478  -0.010429   0.436026
 Mulliken charges:
               1
     1  O   -0.366168
     2  C   -0.144616
     3  C   -0.017401
     4  O   -0.333486
     5  O   -0.228180
     6  C   -0.186469
     7  C   -0.186936
     8  O   -0.347496
     9  C   -0.075417
    10  O   -0.366683
    11  C   -0.049600
    12  O   -0.354151
    13  H    0.294693
    14  H    0.168902
    15  H    0.147281
    16  H    0.290335
    17  H    0.147179
    18  H    0.181730
    19  H    0.180693
    20  H    0.292021
    21  H    0.182969
    22  H    0.301206
    23  H    0.176083
    24  H    0.293509
 Sum of Mulliken charges =  -0.00000
 Mulliken charges with hydrogens summed into heavy atoms:
               1
     1  O   -0.071475
     2  C    0.171567
     3  C   -0.017401
     4  O   -0.043150
     5  O   -0.228180
     6  C    0.142440
     7  C   -0.006243
     8  O   -0.055475
     9  C    0.107552
    10  O   -0.065476
    11  C    0.126482
    12  O   -0.060641
 Electronic spatial extent (au):  <R**2>=           2051.0319
 Charge=              0.0000 electrons
 Dipole moment (field-independent basis, Debye):
    X=             -3.1688    Y=             -4.1480    Z=              0.9322  Tot=              5.3025
 Quadrupole moment (field-independent basis, Debye-Ang):
   XX=            -71.5771   YY=            -64.1574   ZZ=            -72.3247
   XY=              0.8620   XZ=             -9.1803   YZ=             -3.9873
 Traceless Quadrupole moment (field-independent basis, Debye-Ang):
   XX=             -2.2240   YY=              5.1957   ZZ=             -2.9717
   XY=              0.8620   XZ=             -9.1803   YZ=             -3.9873
 Octapole moment (field-independent basis, Debye-Ang**2):
  XXX=            -55.2454  YYY=            -25.0166  ZZZ=              0.3170  XYY=            -14.9567
  XXY=            -18.8427  XXZ=             18.9854  XZZ=              6.2316  YZZ=             -3.8580
  YYZ=             -7.5119  XYZ=             -5.7627
 Hexadecapole moment (field-independent basis, Debye-Ang**3):
 XXXX=          -1551.0106 YYYY=           -619.8116 ZZZZ=           -276.7012 XXXY=            -14.5068
 XXXZ=            -51.6052 YYYX=             12.3033 YYYZ=              5.5138 ZZZX=              1.6815
 ZZZY=             -2.7154 XXYY=           -310.0146 XXZZ=           -283.6726 YYZZ=           -161.2625
 XXYZ=             19.5214 YYXZ=              7.9320 ZZXY=            -11.6321
 N-N= 8.359254933395D+02 E-N=-3.287102774662D+03  KE= 6.845005553353D+02
 No NMR shielding tensors so no spin-rotation constants.
 Leave Link  601 at Mon Feb 22 21:12:14 2021, MaxMem=   104857600 cpu:               8.8 elap:               0.4
 (Enter /sw/arch/RedHatEnterpriseServer7/EB_production/2019/software/Gaussian/g16.c01/l701.exe)
 ... and contract with generalized density number  0.
 Compute integral first derivatives.
 R6Disp: Adding Grimme-D3 dispersion energy 1st derivatives to the gradient.
 PrsmSu:  requested number of processors reduced to:  28 ShMem   1 Linda.
 D1PCM: PCM CHGder 1st derivatives, ID1Alg=3 FixD1E=F DoIter=F DoCFld=F I1PDM=0.
 GePol: Maximum number of non-zero 1st derivatives   =     182
 CoulSu:  requested number of processors reduced to:  29 ShMem   1 Linda.
 CoulSu:  requested number of processors reduced to:  30 ShMem   1 Linda.
 Leave Link  701 at Mon Feb 22 21:12:15 2021, MaxMem=   104857600 cpu:              32.8 elap:               1.2
 (Enter /sw/arch/RedHatEnterpriseServer7/EB_production/2019/software/Gaussian/g16.c01/l702.exe)
 L702 exits ... SP integral derivatives will be done elsewhere.
 Leave Link  702 at Mon Feb 22 21:12:15 2021, MaxMem=   104857600 cpu:               1.0 elap:               0.1
 (Enter /sw/arch/RedHatEnterpriseServer7/EB_production/2019/software/Gaussian/g16.c01/l703.exe)
 Integral derivatives from FoFJK, PRISM(SPDF).
 Compute integral first derivatives, UseDBF=F ICtDFT=           0.
 Calling FoFJK, ICntrl=      2527 FMM=F ISym2X=0 I1Cent= 0 IOpClX= 0 NMat=1 NMatS=1 NMatT=0.
 FoFJK:  IHMeth= 1 ICntrl=    2527 DoSepK=F KAlg= 0 I1Cent=           0 FoldK=F
 IRaf=         0 NMat=       1 IRICut=       1 DoRegI=T DoRafI=F ISym2E= 0 IDoP0=0 IntGTp=1.
 FoFCou: FMM=F IPFlag=           0 FMFlag=      100000 FMFlg1=         800
         NFxFlg=           0 DoJE=F BraDBF=F KetDBF=F FulRan=T
         wScrn=  0.000000 ICntrl=      2527 IOpCl=  0 I1Cent=           0 NGrid=           0
         NMat0=    1 NMatS0=      1 NMatT0=    0 NMatD0=    1 NMtDS0=    0 NMtDT0=    0
 Symmetry not used in FoFCou.
 Leave Link  703 at Mon Feb 22 21:12:19 2021, MaxMem=   104857600 cpu:             100.2 elap:               3.2
 (Enter /sw/arch/RedHatEnterpriseServer7/EB_production/2019/software/Gaussian/g16.c01/l716.exe)
 Dipole        =-1.24668709D+00-1.63195840D+00 3.66746244D-01
 ***** Axes restored to original set *****
 -------------------------------------------------------------------
 Center     Atomic                   Forces (Hartrees/Bohr)
 Number     Number              X              Y              Z
 -------------------------------------------------------------------
      1        8           0.004064465    0.002026363    0.009875430
      2        6           0.008052386   -0.020635009    0.002609181
      3        6          -0.016995961    0.007176933    0.026045839
      4        8          -0.010739452    0.007733005    0.002299750
      5        8           0.018439652   -0.010472433   -0.026852453
      6        6          -0.024438680    0.012448876   -0.008152450
      7        6           0.011057605    0.007348684    0.004120355
      8        8           0.004234733   -0.007366329   -0.007298337
      9        6           0.022246617   -0.006953358    0.008172104
     10        8          -0.002339779   -0.003395296   -0.007746272
     11        6          -0.012020161   -0.001269753    0.006003496
     12        8          -0.004541478    0.006304710   -0.005651776
     13        1           0.000352371    0.004382724   -0.000120097
     14        1          -0.005221612    0.001034037    0.003253165
     15        1          -0.002626407   -0.010629044   -0.007969101
     16        1          -0.002171842    0.000459911   -0.003905362
     17        1          -0.003203458    0.003656141    0.007192268
     18        1           0.007674836   -0.001341819   -0.005275598
     19        1          -0.005441951    0.002543894    0.009933466
     20        1          -0.003819734    0.000948277   -0.006329318
     21        1           0.006750001    0.009019097    0.004933429
     22        1          -0.001043129    0.001221929   -0.006478767
     23        1           0.009193337   -0.008079848    0.000409795
     24        1           0.002537642    0.003838308    0.000931253
 -------------------------------------------------------------------
 Cartesian Forces:  Max     0.026852453 RMS     0.009180501
 Leave Link  716 at Mon Feb 22 21:12:19 2021, MaxMem=   104857600 cpu:               1.1 elap:               0.1
 (Enter /sw/arch/RedHatEnterpriseServer7/EB_production/2019/software/Gaussian/g16.c01/l103.exe)

 GradGradGradGradGradGradGradGradGradGradGradGradGradGradGradGradGradGrad
 Berny optimization.
 FormGI is forming the generalized inverse of G from B-inverse, IUseBI=4.
 Internal  Forces:  Max     0.017359339 RMS     0.006169629
 Search for a local minimum.
 Step number   1 out of a maximum of  142
 All quantities printed in internal units (Hartrees-Bohrs-Radians)
 RMS Force = .61696D-02 SwitMx=.10000D-02 MixMth= 1
 Mixed Optimization -- RFO/linear search
 Second derivative matrix not updated -- first step.
 ITU=  0
     Eigenvalues ---    0.00230   0.00444   0.00467   0.01148   0.01287
     Eigenvalues ---    0.01293   0.01327   0.01339   0.01375   0.02774
     Eigenvalues ---    0.02968   0.04263   0.04366   0.04628   0.04787
     Eigenvalues ---    0.04828   0.05000   0.05588   0.05658   0.06323
     Eigenvalues ---    0.06426   0.06717   0.07126   0.07333   0.10500
     Eigenvalues ---    0.10713   0.11263   0.11570   0.11670   0.12505
     Eigenvalues ---    0.13904   0.16000   0.16000   0.16000   0.16000
     Eigenvalues ---    0.16000   0.16178   0.16822   0.17789   0.18913
     Eigenvalues ---    0.20117   0.22033   0.25476   0.26608   0.26751
     Eigenvalues ---    0.26977   0.27240   0.34339   0.34398   0.34446
     Eigenvalues ---    0.34537   0.34599   0.34638   0.35023   0.37043
     Eigenvalues ---    0.37835   0.40902   0.40970   0.41345   0.41467
     Eigenvalues ---    0.41872   0.51126   0.51182   0.51368   0.51405
     Eigenvalues ---    0.51493
 RFO step:  Lambda=-3.00610976D-02 EMin= 2.30000000D-03
 Linear search not attempted -- first point.
 Maximum step size (   0.300) exceeded in Quadratic search.
    -- Step size scaled by   0.986
 Iteration  1 RMS(Cart)=  0.08477480 RMS(Int)=  0.00296258
 Iteration  2 RMS(Cart)=  0.00404841 RMS(Int)=  0.00119460
 Iteration  3 RMS(Cart)=  0.00000987 RMS(Int)=  0.00119458
 Iteration  4 RMS(Cart)=  0.00000001 RMS(Int)=  0.00119458
 ITry= 1 IFail=0 DXMaxC= 4.03D-01 DCOld= 1.00D+10 DXMaxT= 3.00D-01 DXLimC= 3.00D+00 Rises=F
 Variable       Old X    -DE/DX   Delta X   Delta X   Delta X     New X
                                 (Linear)    (Quad)   (Total)
    R1        2.69087   0.01031   0.00000   0.02266   0.02266   2.71352
    R2        1.85088  -0.00298   0.00000  -0.00539  -0.00539   1.84549
    R3        2.94430  -0.01462   0.00000  -0.04808  -0.04808   2.89623
    R4        2.06266   0.00233   0.00000   0.00611   0.00611   2.06877
    R5        2.05638   0.01133   0.00000   0.02938   0.02938   2.08576
    R6        2.70256   0.00846   0.00000   0.01897   0.01897   2.72153
    R7        2.73768  -0.01140   0.00000  -0.02884  -0.02801   2.70967
    R8        2.95734  -0.01438   0.00000  -0.05126  -0.05017   2.90717
    R9        1.85446  -0.00304   0.00000  -0.00554  -0.00554   1.84892
   R10        2.72888  -0.00312   0.00000  -0.01139  -0.01114   2.71774
   R11        2.92977  -0.00944   0.00000  -0.02771  -0.02873   2.90104
   R12        2.06332   0.00815   0.00000   0.02137   0.02137   2.08468
   R13        2.06433   0.00321   0.00000   0.00843   0.00843   2.07276
   R14        2.69607   0.01230   0.00000   0.02727   0.02727   2.72334
   R15        2.93475  -0.00853   0.00000  -0.02525  -0.02614   2.90861
   R16        2.06663   0.00998   0.00000   0.02631   0.02631   2.09294
   R17        1.85391  -0.00667   0.00000  -0.01214  -0.01214   1.84177
   R18        2.69766   0.00906   0.00000   0.02015   0.02015   2.71781
   R19        2.94045  -0.01650   0.00000  -0.04864  -0.04882   2.89163
   R20        2.06762   0.00622   0.00000   0.01643   0.01643   2.08404
   R21        1.85173  -0.00521   0.00000  -0.00945  -0.00945   1.84229
   R22        2.70345   0.00999   0.00000   0.02243   0.02243   2.72589
   R23        2.06584   0.00721   0.00000   0.01897   0.01897   2.08481
   R24        1.85210  -0.00431   0.00000  -0.00782  -0.00782   1.84428
    A1        1.83579   0.00601   0.00000   0.03118   0.03118   1.86697
    A2        1.94815  -0.00482   0.00000  -0.01840  -0.01879   1.92936
    A3        1.88729   0.00232   0.00000  -0.00064  -0.00196   1.88533
    A4        1.87665   0.00832   0.00000   0.06687   0.06684   1.94349
    A5        1.91661  -0.00461   0.00000  -0.04517  -0.04589   1.87071
    A6        1.94607  -0.00283   0.00000  -0.01264  -0.01275   1.93331
    A7        1.88691   0.00221   0.00000   0.01324   0.01236   1.89926
    A8        1.85001   0.00693   0.00000   0.04884   0.05178   1.90179
    A9        1.97996  -0.01736   0.00000  -0.11219  -0.11485   1.86511
   A10        1.98831   0.00052   0.00000  -0.02519  -0.02890   1.95941
   A11        1.82305   0.01094   0.00000   0.10989   0.11127   1.93433
   A12        1.87699  -0.00728   0.00000  -0.00990  -0.01071   1.86628
   A13        1.93265   0.00761   0.00000   0.00932   0.00492   1.93757
   A14        1.84054  -0.00150   0.00000  -0.00780  -0.00780   1.83274
   A15        2.02917  -0.01011   0.00000  -0.05240  -0.05087   1.97831
   A16        1.95526   0.00158   0.00000   0.00107  -0.00026   1.95500
   A17        1.87777   0.00470   0.00000   0.04272   0.04252   1.92029
   A18        1.92544  -0.00869   0.00000  -0.06988  -0.06979   1.85565
   A19        1.89792  -0.00089   0.00000   0.01545   0.01549   1.91341
   A20        1.92915   0.00240   0.00000   0.00005  -0.00112   1.92803
   A21        1.87562   0.00107   0.00000   0.01379   0.01413   1.88975
   A22        1.92480   0.00674   0.00000   0.03204   0.03026   1.95506
   A23        1.94665  -0.00376   0.00000  -0.02719  -0.02744   1.91921
   A24        1.88921  -0.00057   0.00000  -0.00345  -0.00380   1.88541
   A25        1.93626  -0.00715   0.00000  -0.05100  -0.05064   1.88562
   A26        1.87108   0.00328   0.00000   0.04771   0.04738   1.91846
   A27        1.89335   0.00183   0.00000   0.00568   0.00621   1.89956
   A28        1.83903   0.00613   0.00000   0.03178   0.03178   1.87081
   A29        1.93305   0.00654   0.00000   0.03231   0.03084   1.96390
   A30        1.93663   0.00310   0.00000   0.00530   0.00475   1.94138
   A31        1.89379  -0.00179   0.00000   0.00158   0.00132   1.89511
   A32        1.94119  -0.01229   0.00000  -0.08062  -0.07956   1.86164
   A33        1.85424   0.00600   0.00000   0.06118   0.05973   1.91397
   A34        1.90227  -0.00136   0.00000  -0.01644  -0.01597   1.88630
   A35        1.83471   0.00750   0.00000   0.03889   0.03889   1.87361
   A36        1.96411  -0.00514   0.00000  -0.02581  -0.02496   1.93915
   A37        1.90953  -0.00576   0.00000  -0.02432  -0.02467   1.88487
   A38        1.91746   0.00152   0.00000  -0.02021  -0.02043   1.89703
   A39        1.88916   0.00946   0.00000   0.04960   0.04922   1.93838
   A40        1.91288  -0.00176   0.00000  -0.01444  -0.01641   1.89646
   A41        1.86802   0.00213   0.00000   0.03950   0.03936   1.90738
   A42        1.83610   0.00340   0.00000   0.01762   0.01762   1.85371
    D1        1.11248   0.00207   0.00000   0.02848   0.02853   1.14101
    D2       -3.06068  -0.00510   0.00000  -0.03938  -0.03978  -3.10046
    D3       -1.02710   0.00303   0.00000   0.01082   0.01117  -1.01593
    D4        1.03340   0.00104   0.00000  -0.01187  -0.01214   1.02126
    D5       -0.95693  -0.00748   0.00000  -0.11650  -0.11279  -1.06972
    D6        3.09374  -0.00308   0.00000  -0.00616  -0.00852   3.08522
    D7       -1.05945   0.00429   0.00000   0.03080   0.02997  -1.02947
    D8       -3.04977  -0.00423   0.00000  -0.07384  -0.07068  -3.12045
    D9        1.00089   0.00018   0.00000   0.03650   0.03360   1.03449
   D10        3.13271   0.00639   0.00000   0.05215   0.05134  -3.09913
   D11        1.14239  -0.00213   0.00000  -0.05249  -0.04931   1.09307
   D12       -1.09013   0.00228   0.00000   0.05785   0.05497  -1.03517
   D13       -1.06424   0.00586   0.00000   0.05867   0.05620  -1.00804
   D14        1.03165  -0.00544   0.00000   0.00635   0.00788   1.03953
   D15        3.08596   0.00532   0.00000   0.06661   0.06755  -3.12967
   D16        3.05879   0.00332   0.00000   0.06179   0.05858   3.11737
   D17        1.05236  -0.00306   0.00000  -0.00771  -0.00490   1.04746
   D18       -0.96337  -0.00405   0.00000  -0.06010  -0.06052  -1.02389
   D19        3.14159  -0.01090   0.00000  -0.10867  -0.10942   3.03217
   D20       -1.04084  -0.00626   0.00000  -0.07954  -0.08032  -1.12116
   D21        1.00505  -0.00618   0.00000  -0.05771  -0.05877   0.94628
   D22       -1.09680  -0.00682   0.00000  -0.06935  -0.06936  -1.16617
   D23        1.00395  -0.00218   0.00000  -0.04022  -0.04027   0.96369
   D24        3.04984  -0.00210   0.00000  -0.01839  -0.01872   3.03112
   D25        0.88502   0.00601   0.00000   0.06013   0.06073   0.94575
   D26        2.98578   0.01065   0.00000   0.08926   0.08983   3.07561
   D27       -1.25152   0.01074   0.00000   0.11109   0.11138  -1.14014
   D28        0.98660   0.00158   0.00000   0.04917   0.04993   1.03653
   D29       -1.09843  -0.00129   0.00000   0.00201   0.00198  -1.09645
   D30       -3.13949  -0.00055   0.00000  -0.00113   0.00045  -3.13905
   D31        1.25143  -0.01045   0.00000  -0.09997  -0.10034   1.15110
   D32       -0.90825  -0.00344   0.00000  -0.03818  -0.03763  -0.94588
   D33       -2.98987  -0.00308   0.00000  -0.02669  -0.02684  -3.01671
   D34       -2.95858  -0.00423   0.00000  -0.03637  -0.03660  -2.99519
   D35        1.16492   0.00277   0.00000   0.02542   0.02610   1.19102
   D36       -0.91670   0.00314   0.00000   0.03692   0.03689  -0.87981
   D37       -0.90357  -0.00208   0.00000  -0.01028  -0.01046  -0.91403
   D38       -3.06326   0.00493   0.00000   0.05151   0.05225  -3.01101
   D39        1.13831   0.00529   0.00000   0.06300   0.06304   1.20135
   D40        0.97590   0.00340   0.00000   0.03162   0.03277   1.00867
   D41        3.14159  -0.00166   0.00000  -0.01638  -0.01647   3.12512
   D42       -1.07721  -0.00148   0.00000  -0.00928  -0.01033  -1.08754
   D43        3.02545  -0.00616   0.00000  -0.05130  -0.05162   2.97383
   D44        0.86060   0.00276   0.00000   0.02556   0.02556   0.88616
   D45       -1.22885   0.00370   0.00000   0.04158   0.04149  -1.18736
   D46        0.87226  -0.00699   0.00000  -0.03625  -0.03699   0.83527
   D47       -1.29258   0.00193   0.00000   0.04061   0.04019  -1.25239
   D48        2.90114   0.00286   0.00000   0.05663   0.05612   2.95727
   D49       -1.17858  -0.00796   0.00000  -0.06831  -0.06868  -1.24725
   D50        2.93976   0.00096   0.00000   0.00855   0.00850   2.94827
   D51        0.85030   0.00189   0.00000   0.02457   0.02444   0.87474
   D52        0.97936   0.00221   0.00000   0.04064   0.04222   1.02158
   D53        3.14159   0.00212   0.00000   0.01298   0.01338  -3.12822
   D54       -1.07386  -0.00258   0.00000  -0.01379  -0.01577  -1.08964
   D55       -0.85870  -0.00153   0.00000  -0.03409  -0.03522  -0.89393
   D56       -2.97115   0.00250   0.00000  -0.02105  -0.02120  -2.99235
   D57        1.28042  -0.00439   0.00000  -0.08815  -0.08811   1.19230
   D58       -3.01890  -0.00337   0.00000  -0.02159  -0.02253  -3.04143
   D59        1.15183   0.00067   0.00000  -0.00855  -0.00850   1.14334
   D60       -0.87978  -0.00623   0.00000  -0.07565  -0.07542  -0.95520
   D61        1.22568  -0.00271   0.00000  -0.03933  -0.04081   1.18487
   D62       -0.88677   0.00132   0.00000  -0.02629  -0.02678  -0.91355
   D63       -2.91838  -0.00557   0.00000  -0.09339  -0.09370  -3.01208
   D64        3.11569   0.00132   0.00000   0.00152   0.00118   3.11688
   D65       -1.02155  -0.00258   0.00000  -0.01389  -0.01443  -1.03598
   D66        1.03892   0.00143   0.00000   0.01627   0.01714   1.05607
         Item               Value     Threshold  Converged?
 Maximum Force            0.017359     0.000450     NO 
 RMS     Force            0.006170     0.000300     NO 
 Maximum Displacement     0.403093     0.001800     NO 
 RMS     Displacement     0.085779     0.001200     NO 
[...]
   13      H13      7.66  -0.114   -1.44    1.08   -0.83
   14      H14      6.08  -0.039    0.14    0.86   -0.67
   15      H15      6.57  -0.040   -0.16    0.93   -0.82
   16      H16      6.41  -0.087   -0.65    0.90   -0.69
   17      H17      6.11  -0.039   -0.26    0.86   -0.67
   18      H18      6.52  -0.044   -0.67    0.92   -0.82
   19      H19      6.63  -0.039   -0.62    0.94   -0.94
   20      H20      8.35  -0.125   -2.45    1.18   -0.95
   21      H21      6.05  -0.037   -0.26    0.85   -0.68
   22      H22      8.59  -0.133   -2.63    1.21   -1.03
   23      H23      6.08  -0.030    0.07    0.86   -0.57
   24      H24      6.69  -0.088   -0.46    0.94   -0.71
 --------------------------------------------------------------------
 - cavitation energy not included in the total energy.
 - dispersion energy not included in the total energy.
 - repulsion  energy not included in the total energy.
 After PCM corrections, the energy is  -687.474240439     a.u.
 --------------------------------------------------------------------
 Writing COSMO formatted file "LKDRXBCSQODPBY-AZGQCCRYSA-N.cosmo"
 Recomputed dielectric energy= -0.039288 old= -0.039134 diff=-1.53D-04

 **********************************************************************

            Population analysis using the SCF Density.

 **********************************************************************

 Orbital symmetries:
       Occupied  (A) (A) (A) (A) (A) (A) (A) (A) (A) (A) (A) (A)
                 (A) (A) (A) (A) (A) (A) (A) (A) (A) (A) (A) (A)
                 (A) (A) (A) (A) (A) (A) (A) (A) (A) (A) (A) (A)
                 (A) (A) (A) (A) (A) (A) (A) (A) (A) (A) (A) (A)
       Virtual   (A) (A) (A) (A) (A) (A) (A) (A) (A) (A) (A) (A)
                 (A) (A) (A) (A) (A) (A) (A) (A) (A) (A) (A) (A)
                 (A) (A) (A) (A) (A) (A) (A) (A) (A) (A) (A) (A)
                 (A) (A) (A) (A) (A) (A) (A) (A) (A) (A) (A) (A)
                 (A) (A) (A) (A) (A) (A) (A) (A) (A) (A) (A) (A)
                 (A) (A) (A) (A) (A) (A) (A) (A) (A) (A) (A) (A)
                 (A) (A) (A) (A) (A) (A) (A) (A) (A) (A) (A) (A)
                 (A) (A) (A) (A) (A) (A) (A) (A) (A) (A) (A) (A)
                 (A) (A) (A) (A) (A) (A) (A) (A) (A) (A) (A) (A)
                 (A) (A) (A) (A) (A) (A) (A) (A) (A) (A) (A) (A)
                 (A) (A) (A) (A) (A) (A) (A) (A) (A) (A) (A) (A)
                 (A) (A) (A) (A) (A) (A) (A) (A) (A) (A) (A) (A)
                 (A) (A) (A) (A) (A) (A) (A) (A) (A) (A) (A) (A)
                 (A) (A) (A) (A) (A) (A) (A) (A) (A) (A) (A) (A)
                 (A) (A) (A) (A) (A) (A) (A) (A) (A) (A) (A) (A)
                 (A) (A) (A) (A) (A) (A) (A) (A) (A) (A) (A) (A)
                 (A) (A) (A) (A) (A) (A) (A) (A) (A) (A) (A) (A)
                 (A) (A) (A) (A) (A) (A) (A) (A) (A) (A) (A) (A)
                 (A) (A) (A) (A) (A) (A) (A) (A) (A) (A) (A) (A)
                 (A) (A) (A) (A) (A) (A) (A) (A) (A) (A) (A) (A)
                 (A) (A) (A) (A) (A) (A) (A) (A) (A) (A) (A) (A)
 The electronic state is 1-A.
 Alpha  occ. eigenvalues --  -18.78989 -18.78656 -18.78476 -18.78314 -18.77814
 Alpha  occ. eigenvalues --  -18.77641 -10.00875  -9.95792  -9.95727  -9.95590
 Alpha  occ. eigenvalues --   -9.94964  -9.94742  -0.99723  -0.95996  -0.94699
 Alpha  occ. eigenvalues --   -0.94339  -0.93101  -0.92479  -0.71930  -0.70764
 Alpha  occ. eigenvalues --   -0.63542  -0.59350  -0.56812  -0.53021  -0.49828
 Alpha  occ. eigenvalues --   -0.48789  -0.47863  -0.46028  -0.43704  -0.43167
 Alpha  occ. eigenvalues --   -0.42529  -0.41237  -0.39875  -0.38972  -0.37153
 Alpha  occ. eigenvalues --   -0.36329  -0.34811  -0.33041  -0.32074  -0.31138
 Alpha  occ. eigenvalues --   -0.30547  -0.28637  -0.27146  -0.25683  -0.24997
 Alpha  occ. eigenvalues --   -0.24521  -0.23791  -0.22945
 Alpha virt. eigenvalues --    0.00664   0.00987   0.03083   0.03813   0.05198
 Alpha virt. eigenvalues --    0.06751   0.07360   0.07660   0.08453   0.08930
 Alpha virt. eigenvalues --    0.09675   0.10141   0.11316   0.11464   0.12839
 Alpha virt. eigenvalues --    0.14126   0.14476   0.15682   0.17029   0.17049
 Alpha virt. eigenvalues --    0.18164   0.19901   0.21403   0.21814   0.25200
 Alpha virt. eigenvalues --    0.25571   0.26151   0.27977   0.28214   0.28637
 Alpha virt. eigenvalues --    0.28748   0.30378   0.30752   0.31302   0.32313
 Alpha virt. eigenvalues --    0.33090   0.33169   0.33927   0.34253   0.35248
 Alpha virt. eigenvalues --    0.36978   0.38290   0.39027   0.39122   0.40000
 Alpha virt. eigenvalues --    0.40451   0.40770   0.41252   0.42186   0.42914
 Alpha virt. eigenvalues --    0.43991   0.44793   0.45344   0.46769   0.47759
 Alpha virt. eigenvalues --    0.48503   0.49908   0.50382   0.51732   0.52787
 Alpha virt. eigenvalues --    0.54139   0.55306   0.56842   0.57620   0.58477
 Alpha virt. eigenvalues --    0.58881   0.61366   0.62884   0.64426   0.66106
 Alpha virt. eigenvalues --    0.67901   0.70669   0.71430   0.73439   0.77191
 Alpha virt. eigenvalues --    0.78670   0.80782   0.80905   0.85788   0.87981
 Alpha virt. eigenvalues --    0.90010   0.93577   0.96220   1.00698   1.11345
 Alpha virt. eigenvalues --    1.15929   1.18316   1.19713   1.21530   1.22900
 Alpha virt. eigenvalues --    1.24170   1.25247   1.27390   1.28430   1.29108
 Alpha virt. eigenvalues --    1.29733   1.30504   1.32992   1.33916   1.34599
 Alpha virt. eigenvalues --    1.35960   1.36734   1.38753   1.39697   1.41574
 Alpha virt. eigenvalues --    1.42683   1.42892   1.44742   1.46697   1.47695
 Alpha virt. eigenvalues --    1.49080   1.50053   1.51007   1.52935   1.54142
 Alpha virt. eigenvalues --    1.54684   1.57558   1.58553   1.60252   1.60617
 Alpha virt. eigenvalues --    1.64629   1.66550   1.67971   1.69744   1.70133
 Alpha virt. eigenvalues --    1.72373   1.73201   1.75529   1.75714   1.79090
 Alpha virt. eigenvalues --    1.81825   1.83875   1.86547   1.87140   1.89303
 Alpha virt. eigenvalues --    1.89638   1.92135   1.92890   1.94074   1.94578
 Alpha virt. eigenvalues --    1.95006   1.96719   1.98394   1.99154   1.99649
 Alpha virt. eigenvalues --    2.01625   2.03671   2.05722   2.06406   2.08054
 Alpha virt. eigenvalues --    2.09968   2.11526   2.15874   2.17187   2.18724
 Alpha virt. eigenvalues --    2.25383   2.25957   2.26797   2.28510   2.30452
 Alpha virt. eigenvalues --    2.32927   2.35266   2.38937   2.40253   2.42510
 Alpha virt. eigenvalues --    2.44914   2.47152   2.48425   2.50110   2.52051
 Alpha virt. eigenvalues --    2.54089   2.57755   2.58481   2.59844   2.60367
 Alpha virt. eigenvalues --    2.60973   2.61917   2.63029   2.63214   2.65445
 Alpha virt. eigenvalues --    2.65743   2.66982   2.69474   2.70653   2.71648
 Alpha virt. eigenvalues --    2.74320   2.77351   2.78105   2.80351   2.83155
 Alpha virt. eigenvalues --    2.83988   2.84529   2.85817   2.87070   2.87935
 Alpha virt. eigenvalues --    2.89162   2.89769   2.91072   2.91690   2.93349
 Alpha virt. eigenvalues --    2.94034   2.94733   2.95063   2.95922   2.98464
 Alpha virt. eigenvalues --    2.99398   3.01243   3.05391   3.05917   3.07318
 Alpha virt. eigenvalues --    3.08914   3.10618   3.10973   3.12113   3.16138
 Alpha virt. eigenvalues --    3.18100   3.22053   3.24932   3.25003   3.29553
 Alpha virt. eigenvalues --    3.30510   3.31486   3.34523   3.36847   3.39678
 Alpha virt. eigenvalues --    3.43237   3.44847   3.48578   3.79598   3.85524
 Alpha virt. eigenvalues --    3.88526   3.92814   3.95236   3.96410   4.07345
 Alpha virt. eigenvalues --    4.17181   4.17688   4.18435   4.19240   4.20199
 Alpha virt. eigenvalues --   21.60276  21.67746  21.73943  21.77225  21.81410
 Alpha virt. eigenvalues --   21.90543  43.12274  43.21137  43.29103  43.29877
 Alpha virt. eigenvalues --   43.35965  43.45743
          Condensed to atoms (all electrons):
               1          2          3          4          5          6
     1  O    7.963744   0.252632  -0.032829  -0.025315  -0.015162  -0.004395
     2  C    0.252632   5.444636   0.002119  -0.031203  -0.045828  -0.006137
     3  C   -0.032829   0.002119   6.722990   0.205179   0.107245  -0.282731
     4  O   -0.025315  -0.031203   0.205179   7.991296  -0.094903  -0.002160
     5  O   -0.015162  -0.045828   0.107245  -0.094903   8.141999   0.242385
     6  C   -0.004395  -0.006137  -0.282731  -0.002160   0.242385   5.409676
     7  C    0.001019   0.005414   0.123569  -0.013265  -0.018170   0.032659
     8  O   -0.000003  -0.002188   0.016139   0.000403  -0.007418  -0.025681
     9  C   -0.001310  -0.018917   0.086488  -0.028335  -0.073418  -0.044772
    10  O    0.000002  -0.000116   0.021510  -0.000329  -0.000471   0.015557
    11  C    0.013462  -0.110615  -0.657798  -0.048039   0.029634   0.122604
    12  O   -0.000021  -0.014424  -0.087738   0.005677   0.004235  -0.000803
    13  H    0.295076  -0.037244  -0.002194  -0.001214   0.014267  -0.000701
    14  H   -0.040321   0.376367  -0.046477  -0.006799   0.007033  -0.000430
    15  H   -0.038920   0.384588  -0.049318   0.008313  -0.000067   0.000999
    16  H    0.034374  -0.031511  -0.025100   0.297976  -0.000028  -0.001758
    17  H   -0.000006  -0.001083  -0.007048   0.028048  -0.046618   0.388112
    18  H    0.000009  -0.001349   0.012882   0.000690  -0.031895   0.357057
    19  H    0.000003   0.000412   0.000069  -0.000210   0.006244  -0.044498
    20  H   -0.000001  -0.000018   0.000505   0.000031   0.000737   0.000467
    21  H   -0.000025  -0.003414  -0.008466   0.023654   0.000436   0.018719
    22  H   -0.000000   0.000110  -0.002008   0.000034   0.000064   0.000496
    23  H   -0.000198  -0.043484  -0.036929   0.006863  -0.005059   0.015048
    24  H    0.000026   0.000715   0.017842  -0.000267  -0.000306  -0.001427
               7          8          9         10         11         12
     1  O    0.001019  -0.000003  -0.001310   0.000002   0.013462  -0.000021
     2  C    0.005414  -0.002188  -0.018917  -0.000116  -0.110615  -0.014424
     3  C    0.123569   0.016139   0.086488   0.021510  -0.657798  -0.087738
     4  O   -0.013265   0.000403  -0.028335  -0.000329  -0.048039   0.005677
     5  O   -0.018170  -0.007418  -0.073418  -0.000471   0.029634   0.004235
     6  C    0.032659  -0.025681  -0.044772   0.015557   0.122604  -0.000803
     7  C    5.712663   0.253904   0.007420  -0.052338  -0.156016   0.021880
     8  O    0.253904   7.970182  -0.057195   0.001695  -0.058799  -0.000271
     9  C    0.007420  -0.057195   5.920984   0.280334  -0.255925  -0.045176
    10  O   -0.052338   0.001695   0.280334   7.997842  -0.128652  -0.003485
    11  C   -0.156016  -0.058799  -0.255925  -0.128652   6.764336   0.281519
    12  O    0.021880  -0.000271  -0.045176  -0.003485   0.281519   7.950829
    13  H    0.000541  -0.000009  -0.000168   0.000001   0.001920  -0.000038
    14  H    0.000812  -0.000034  -0.000538   0.000033   0.007610   0.019235
    15  H   -0.002093   0.000426  -0.000009   0.000000   0.001239  -0.000636
    16  H    0.000290   0.000043   0.002452  -0.000003   0.008433  -0.000617
    17  H   -0.067817   0.008386   0.004297  -0.000283  -0.011524  -0.000038
    18  H   -0.010722  -0.009514   0.010607  -0.000368  -0.003105   0.000059
    19  H    0.392894  -0.044082  -0.073998  -0.003580   0.018064  -0.000345
    20  H   -0.039417   0.305009   0.011467  -0.000628   0.000283   0.000022
    21  H   -0.071576   0.004012   0.426545  -0.052285  -0.074152   0.004289
    22  H    0.001123   0.000542  -0.038627   0.310204   0.019105  -0.000108
    23  H   -0.031586   0.032196  -0.030110   0.002608   0.372562  -0.056152
    24  H    0.005126  -0.000109   0.000128   0.028242  -0.064301   0.305446
              13         14         15         16         17         18
     1  O    0.295076  -0.040321  -0.038920   0.034374  -0.000006   0.000009
     2  C   -0.037244   0.376367   0.384588  -0.031511  -0.001083  -0.001349
     3  C   -0.002194  -0.046477  -0.049318  -0.025100  -0.007048   0.012882
     4  O   -0.001214  -0.006799   0.008313   0.297976   0.028048   0.000690
     5  O    0.014267   0.007033  -0.000067  -0.000028  -0.046618  -0.031895
     6  C   -0.000701  -0.000430   0.000999  -0.001758   0.388112   0.357057
     7  C    0.000541   0.000812  -0.002093   0.000290  -0.067817  -0.010722
     8  O   -0.000009  -0.000034   0.000426   0.000043   0.008386  -0.009514
     9  C   -0.000168  -0.000538  -0.000009   0.002452   0.004297   0.010607
    10  O    0.000001   0.000033   0.000000  -0.000003  -0.000283  -0.000368
    11  C    0.001920   0.007610   0.001239   0.008433  -0.011524  -0.003105
    12  O   -0.000038   0.019235  -0.000636  -0.000617  -0.000038   0.000059
    13  H    0.420333   0.009816  -0.011178  -0.001735  -0.000005  -0.000093
    14  H    0.009816   0.556478  -0.041507  -0.004528   0.000039   0.000020
    15  H   -0.011178  -0.041507   0.583079   0.003199  -0.000040  -0.000068
    16  H   -0.001735  -0.004528   0.003199   0.416214  -0.000115  -0.000033
    17  H   -0.000005   0.000039  -0.000040  -0.000115   0.567036  -0.023868
    18  H   -0.000093   0.000020  -0.000068  -0.000033  -0.023868   0.516062
    19  H   -0.000008   0.000005  -0.000003  -0.000013   0.008008  -0.003837
    20  H   -0.000002  -0.000001   0.000035  -0.000005   0.000949   0.001902
    21  H   -0.000018   0.000005  -0.000005  -0.000256  -0.000029   0.000162
    22  H   -0.000000   0.000000  -0.000002  -0.000009   0.000034  -0.000010
    23  H   -0.000074  -0.000289   0.007179   0.000179   0.000381   0.000233
    24  H    0.000008  -0.000236  -0.000073   0.000081  -0.000000   0.000005
              19         20         21         22         23         24
     1  O    0.000003  -0.000001  -0.000025  -0.000000  -0.000198   0.000026
     2  C    0.000412  -0.000018  -0.003414   0.000110  -0.043484   0.000715
     3  C    0.000069   0.000505  -0.008466  -0.002008  -0.036929   0.017842
     4  O   -0.000210   0.000031   0.023654   0.000034   0.006863  -0.000267
     5  O    0.006244   0.000737   0.000436   0.000064  -0.005059  -0.000306
     6  C   -0.044498   0.000467   0.018719   0.000496   0.015048  -0.001427
     7  C    0.392894  -0.039417  -0.071576   0.001123  -0.031586   0.005126
     8  O   -0.044082   0.305009   0.004012   0.000542   0.032196  -0.000109
     9  C   -0.073998   0.011467   0.426545  -0.038627  -0.030110   0.000128
    10  O   -0.003580  -0.000628  -0.052285   0.310204   0.002608   0.028242
    11  C    0.018064   0.000283  -0.074152   0.019105   0.372562  -0.064301
    12  O   -0.000345   0.000022   0.004289  -0.000108  -0.056152   0.305446
    13  H   -0.000008  -0.000002  -0.000018  -0.000000  -0.000074   0.000008
    14  H    0.000005  -0.000001   0.000005   0.000000  -0.000289  -0.000236
    15  H   -0.000003   0.000035  -0.000005  -0.000002   0.007179  -0.000073
    16  H   -0.000013  -0.000005  -0.000256  -0.000009   0.000179   0.000081
    17  H    0.008008   0.000949  -0.000029   0.000034   0.000381  -0.000000
    18  H   -0.003837   0.001902   0.000162  -0.000010   0.000233   0.000005
    19  H    0.566472  -0.005420   0.000626   0.002742   0.000960  -0.000196
    20  H   -0.005420   0.414249  -0.000537  -0.000012  -0.000723   0.000011
    21  H    0.000626  -0.000537   0.536313  -0.009634   0.014833  -0.004267
    22  H    0.002742  -0.000012  -0.009634   0.394182  -0.001423  -0.000667
    23  H    0.000960  -0.000723   0.014833  -0.001423   0.587627  -0.005200
    24  H   -0.000196   0.000011  -0.004267  -0.000667  -0.005200   0.416432
 Mulliken charges:
               1
     1  O   -0.401840
     2  C   -0.119461
     3  C   -0.077901
     4  O   -0.316124
     5  O   -0.214933
     6  C   -0.188284
     7  C   -0.096315
     8  O   -0.387633
     9  C   -0.082227
    10  O   -0.415491
    11  C   -0.071843
    12  O   -0.383340
    13  H    0.312719
    14  H    0.163708
    15  H    0.154861
    16  H    0.302470
    17  H    0.153187
    18  H    0.185178
    19  H    0.179692
    20  H    0.311098
    21  H    0.195071
    22  H    0.323866
    23  H    0.170557
    24  H    0.302988
 Sum of Mulliken charges =  -0.00000
 Mulliken charges with hydrogens summed into heavy atoms:
               1
     1  O   -0.089120
     2  C    0.199108
     3  C   -0.077901
     4  O   -0.013655
     5  O   -0.214933
     6  C    0.150080
     7  C    0.083377
     8  O   -0.076535
     9  C    0.112843
    10  O   -0.091626
    11  C    0.098713
    12  O   -0.080352
 Electronic spatial extent (au):  <R**2>=           1987.3774
 Charge=              0.0000 electrons
 Dipole moment (field-independent basis, Debye):
    X=             -3.2413    Y=             -4.3494    Z=              2.1272  Tot=              5.8265
 Quadrupole moment (field-independent basis, Debye-Ang):
   XX=            -70.0740   YY=            -64.3841   ZZ=            -71.2646
   XY=             -1.4503   XZ=             -8.6608   YZ=             -0.7627
 Traceless Quadrupole moment (field-independent basis, Debye-Ang):
   XX=             -1.4998   YY=              4.1902   ZZ=             -2.6904
   XY=             -1.4503   XZ=             -8.6608   YZ=             -0.7627
 Octapole moment (field-independent basis, Debye-Ang**2):
  XXX=            -46.6968  YYY=            -27.8491  ZZZ=              0.6883  XYY=            -21.3288
  XXY=            -13.1269  XXZ=             28.1429  XZZ=              2.1378  YZZ=             -3.1421
  YYZ=             -4.1236  XYZ=             -9.0196
 Hexadecapole moment (field-independent basis, Debye-Ang**3):
 XXXX=          -1474.6543 YYYY=           -617.4409 ZZZZ=           -291.9579 XXXY=            -50.7521
 XXXZ=            -41.7914 YYYX=             -2.1860 YYYZ=             21.5813 ZZZX=              2.4573
 ZZZY=              5.8636 XXYY=           -275.4584 XXZZ=           -262.9479 YYZZ=           -160.2331
 XXYZ=             29.9266 YYXZ=              6.6937 ZZXY=             -5.4354
 N-N= 8.441485839887D+02 E-N=-3.303802439143D+03  KE= 6.845343254592D+02
 Unable to Open any file for archive entry.
 1\1\GINC-TCN1634\SP\RBP86\TZVP\C6H12O6\ELENAA\22-Feb-2021\0\\# BP86/TZ
 VP SCRF=COSMORS geom=CHECKPOINT guess=CHECKPOINT\\COSMO-file for #LKDR
 XBCSQODPBY-AZGQCCRYSA-N\\0,1\O,0,-0.2711327292,3.8552800696,-1.2030241
 843\C,0,-1.2939163529,3.0167537121,-1.7682905089\C,0,-2.1605267541,2.4
 124264146,-0.6549653894\O,0,-2.6156363884,3.42763316,0.2231417655\O,0,
 -1.2889045421,1.4862212303,0.0268022526\C,0,-1.9239768099,0.8252885755
 ,1.1404762571\C,0,-3.1385428647,-0.0000621605,0.6934197945\O,0,-2.7767
 438096,-1.0707973507,-0.195892409\C,0,-4.1034737888,0.9341869557,-0.05
 33225322\O,0,-5.2270528278,0.2574774614,-0.6480303682\C,0,-3.375387569
 2,1.6400402809,-1.2015736121\O,0,-4.2448513645,2.5403564343,-1.8978991
 321\H,0,0.3166031373,3.2686644851,-0.6887984743\H,0,-1.920002093,3.660
 4020138,-2.398630144\H,0,-0.8676585635,2.2053284025,-2.3816813796\H,0,
 -1.8642903867,4.052962526,0.3062231854\H,0,-2.2350137751,1.5640623084,
 1.8999711296\H,0,-1.1534978643,0.1760239892,1.5790767188\H,0,-3.643970
 9495,-0.3973548789,1.5956949565\H,0,-2.1544281928,-1.6487232314,0.2812
 560282\H,0,-4.4532225085,1.7034199656,0.6575161018\H,0,-5.8898882924,0
 .103906889,0.0481255484\H,0,-2.9816319123,0.8678723506,-1.8883390128\H
 ,0,-5.0805206988,2.046560286,-2.0155014495\\Version=ES64L-G16RevC.01\S
 tate=1-A\HF=-687.4742404\RMSD=4.419e-09\Dipole=0.1321394,-1.2812526,1.
 8962384\Quadrupole=4.2413824,-6.3058922,2.0645099,-1.037514,-1.3483245
 ,-4.0643202\PG=C01 [X(C6H12O6)]\\@
 The archive entry for this job was punched.


 IN-LAWS ARE LIKE SEEDS. YOU DON'T NEED THEM
 BUT THEY COME WITH THE TOMATO.
 Job cpu time:       0 days  0 hours  8 minutes 54.5 seconds.
 Elapsed time:       0 days  0 hours  0 minutes 17.2 seconds.
 File lengths (MBytes):  RWF=     68 Int=      0 D2E=      0 Chk=     10 Scr=      1
 Normal termination of Gaussian 16 at Mon Feb 22 21:17:17 2021.
