 Entering Gaussian System, Link 0=g16
 Input=LNTHITQWFMADLM-UHFFFAOYSA-N.gjf
 Output=LNTHITQWFMADLM-UHFFFAOYSA-N.log
 Initial command:
 /sw/arch/RedHatEnterpriseServer7/EB_production/2019/software/Gaussian/g16.c01/l1.exe "/scratch-local/elenaa.9715233/Gau-30177.inp" -scrdir="/scratch-local/elenaa.9715233/"
 Entering Link 1 = /sw/arch/RedHatEnterpriseServer7/EB_production/2019/software/Gaussian/g16.c01/l1.exe PID=     30178.
  
 Copyright (c) 1988-2019, Gaussian, Inc.  All Rights Reserved.
  
 This is part of the Gaussian(R) 16 program.  It is based on
 the Gaussian(R) 09 system (copyright 2009, Gaussian, Inc.),
 the Gaussian(R) 03 system (copyright 2003, Gaussian, Inc.),
 the Gaussian(R) 98 system (copyright 1998, Gaussian, Inc.),
 the Gaussian(R) 94 system (copyright 1995, Gaussian, Inc.),
 the Gaussian 92(TM) system (copyright 1992, Gaussian, Inc.),
 the Gaussian 90(TM) system (copyright 1990, Gaussian, Inc.),
 the Gaussian 88(TM) system (copyright 1988, Gaussian, Inc.),
 the Gaussian 86(TM) system (copyright 1986, Carnegie Mellon
 University), and the Gaussian 82(TM) system (copyright 1983,
 Carnegie Mellon University). Gaussian is a federally registered
 trademark of Gaussian, Inc.
  
 This software contains proprietary and confidential information,
 including trade secrets, belonging to Gaussian, Inc.
  
 This software is provided under written license and may be
 used, copied, transmitted, or stored only in accord with that
 written license.
  
 The following legend is applicable only to US Government
 contracts under FAR:
  
                    RESTRICTED RIGHTS LEGEND
  
 Use, reproduction and disclosure by the US Government is
 subject to restrictions as set forth in subparagraphs (a)
 and (c) of the Commercial Computer Software - Restricted
 Rights clause in FAR 52.227-19.
  
 Gaussian, Inc.
 340 Quinnipiac St., Bldg. 40, Wallingford CT 06492
  
  
 ---------------------------------------------------------------
 Warning -- This program may not be used in any manner that
 competes with the business of Gaussian, Inc. or will provide
 assistance to any competitor of Gaussian, Inc.  The licensee
 of this program is prohibited from giving any competitor of
 Gaussian, Inc. access to this program.  By using this program,
 the user acknowledges that Gaussian, Inc. is engaged in the
 business of creating and licensing software in the field of
 computational chemistry and represents and warrants to the
 licensee that it is not a competitor of Gaussian, Inc. and that
 it will not use this program in any manner prohibited above.
 ---------------------------------------------------------------
  

 Cite this work as:
 Gaussian 16, Revision C.01,
 M. J. Frisch, G. W. Trucks, H. B. Schlegel, G. E. Scuseria, 
 M. A. Robb, J. R. Cheeseman, G. Scalmani, V. Barone, 
 G. A. Petersson, H. Nakatsuji, X. Li, M. Caricato, A. V. Marenich, 
 J. Bloino, B. G. Janesko, R. Gomperts, B. Mennucci, H. P. Hratchian, 
 J. V. Ortiz, A. F. Izmaylov, J. L. Sonnenberg, D. Williams-Young, 
 F. Ding, F. Lipparini, F. Egidi, J. Goings, B. Peng, A. Petrone, 
 T. Henderson, D. Ranasinghe, V. G. Zakrzewski, J. Gao, N. Rega, 
 G. Zheng, W. Liang, M. Hada, M. Ehara, K. Toyota, R. Fukuda, 
 J. Hasegawa, M. Ishida, T. Nakajima, Y. Honda, O. Kitao, H. Nakai, 
 T. Vreven, K. Throssell, J. A. Montgomery, Jr., J. E. Peralta, 
 F. Ogliaro, M. J. Bearpark, J. J. Heyd, E. N. Brothers, K. N. Kudin, 
 V. N. Staroverov, T. A. Keith, R. Kobayashi, J. Normand, 
 K. Raghavachari, A. P. Rendell, J. C. Burant, S. S. Iyengar, 
 J. Tomasi, M. Cossi, J. M. Millam, M. Klene, C. Adamo, R. Cammi, 
 J. W. Ochterski, R. L. Martin, K. Morokuma, O. Farkas, 
 J. B. Foresman, and D. J. Fox, Gaussian, Inc., Wallingford CT, 2019.
 
 ******************************************
 Gaussian 16:  ES64L-G16RevC.01  3-Jul-2019
                22-Feb-2021 
 ******************************************
 %chk=LNTHITQWFMADLM-UHFFFAOYSA-N.chk
 %NProcShared=32
 Will use up to   32 processors via shared memory.
 -------------------------------------------------------------
 #P BP86/TZVP EmpiricalDispersion=GD3 SCRF=(Solvent=Water) Opt
 -------------------------------------------------------------
 1/18=20,19=15,26=3,38=1/1,3;
 2/9=110,12=2,17=6,18=5,40=1/2;
 3/5=19,7=101,11=2,25=1,30=1,70=2201,71=1,72=1,74=404,124=31/1,2,3;
 4//1;
 5/5=2,38=5,53=1/2;
 6/7=2,8=2,9=2,10=2,28=1/1;
 7//1,2,3,16;
 1/18=20,19=15,26=3/3(2);
 2/9=110/2;
 99//99;
 2/9=110/2;
 3/5=19,7=101,11=2,25=1,30=1,70=2205,71=1,72=1,74=404,124=31/1,2,3;
 4/5=5,16=3,69=1/1;
 5/5=2,38=5,53=1/2;
 7//1,2,3,16;
 1/18=20,19=15,26=3/3(-5);
 2/9=110/2;
 6/7=2,8=2,9=2,10=2,19=2,28=1/1;
 99/9=1/99;
 Leave Link    1 at Mon Feb 22 21:12:14 2021, MaxMem=           0 cpu:               2.4 elap:               0.1
 (Enter /sw/arch/RedHatEnterpriseServer7/EB_production/2019/software/Gaussian/g16.c01/l101.exe)
 -------------------------------------
 Particle #LNTHITQWFMADLM-UHFFFAOYSA-N
 -------------------------------------
 Symbolic Z-matrix:
 Charge =  0 Multiplicity = 1
 O                     1.80044  -0.33001   0.45642 
 C                     0.56556  -0.14156   0.55852 
 O                    -0.12279  -1.08347   1.245 
 C                    -0.0778    0.99172  -0.01091 
 C                    -1.48614   1.12949   0.02583 
 C                    -2.12889   2.2505   -0.54079 
 O                    -3.48131   2.36731  -0.4824 
 C                    -1.36342   3.25422  -1.16819 
 O                    -1.96157   4.33461  -1.73669 
 C                     0.04012   3.14145  -1.20517 
 O                     0.78296   4.11735  -1.7893 
 C                     0.67109   2.01954  -0.63174 
 H                     0.35012  -1.85039   1.63022 
 H                    -2.06277   0.4077    0.46481 
 H                    -3.78039   1.66978   0.13808 
 H                    -2.9253    4.19661  -1.62501 
 H                     1.71671   3.82616  -1.71556 
 H                     1.69057   1.95956  -0.668 
 
 ITRead=  0  0  0  0  0  0  0  0  0  0  0  0  0  0  0  0  0  0
 MicOpt= -1 -1 -1 -1 -1 -1 -1 -1 -1 -1 -1 -1 -1 -1 -1 -1 -1 -1
 NAtoms=     18 NQM=       18 NQMF=       0 NMMI=      0 NMMIF=      0
                NMic=       0 NMicF=      0.
                    Isotopes and Nuclear Properties:
 (Nuclear quadrupole moments (NQMom) in fm**2, nuclear magnetic moments (NMagM)
  in nuclear magnetons)

  Atom         1           2           3           4           5           6           7           8           9          10
 IAtWgt=          16          12          16          12          12          12          16          12          16          12
 AtmWgt=  15.9949146  12.0000000  15.9949146  12.0000000  12.0000000  12.0000000  15.9949146  12.0000000  15.9949146  12.0000000
 NucSpn=           0           0           0           0           0           0           0           0           0           0
 AtZEff=  -0.0000000  -0.0000000  -0.0000000  -0.0000000  -0.0000000  -0.0000000  -0.0000000  -0.0000000  -0.0000000  -0.0000000
 NQMom=    0.0000000   0.0000000   0.0000000   0.0000000   0.0000000   0.0000000   0.0000000   0.0000000   0.0000000   0.0000000
 NMagM=    0.0000000   0.0000000   0.0000000   0.0000000   0.0000000   0.0000000   0.0000000   0.0000000   0.0000000   0.0000000
 AtZNuc=   8.0000000   6.0000000   8.0000000   6.0000000   6.0000000   6.0000000   8.0000000   6.0000000   8.0000000   6.0000000

  Atom        11          12          13          14          15          16          17          18
 IAtWgt=          16          12           1           1           1           1           1           1
 AtmWgt=  15.9949146  12.0000000   1.0078250   1.0078250   1.0078250   1.0078250   1.0078250   1.0078250
 NucSpn=           0           0           1           1           1           1           1           1
 AtZEff=  -0.0000000  -0.0000000  -0.0000000  -0.0000000  -0.0000000  -0.0000000  -0.0000000  -0.0000000
 NQMom=    0.0000000   0.0000000   0.0000000   0.0000000   0.0000000   0.0000000   0.0000000   0.0000000
 NMagM=    0.0000000   0.0000000   2.7928460   2.7928460   2.7928460   2.7928460   2.7928460   2.7928460
 AtZNuc=   8.0000000   6.0000000   1.0000000   1.0000000   1.0000000   1.0000000   1.0000000   1.0000000
 Leave Link  101 at Mon Feb 22 21:12:14 2021, MaxMem=   104857600 cpu:               2.9 elap:               0.1
 (Enter /sw/arch/RedHatEnterpriseServer7/EB_production/2019/software/Gaussian/g16.c01/l103.exe)

 GradGradGradGradGradGradGradGradGradGradGradGradGradGradGradGradGradGrad
 Berny optimization.
 Initialization pass.
                           ----------------------------
                           !    Initial Parameters    !
                           ! (Angstroms and Degrees)  !
 --------------------------                            --------------------------
 ! Name  Definition              Value          Derivative Info.                !
 --------------------------------------------------------------------------------
 ! R1    R(1,2)                  1.2533         estimate D2E/DX2                !
 ! R2    R(2,3)                  1.3536         estimate D2E/DX2                !
 ! R3    R(2,4)                  1.4221         estimate D2E/DX2                !
 ! R4    R(3,13)                 0.9799         estimate D2E/DX2                !
 ! R5    R(4,5)                  1.4155         estimate D2E/DX2                !
 ! R6    R(4,12)                 1.4152         estimate D2E/DX2                !
 ! R7    R(5,6)                  1.411          estimate D2E/DX2                !
 ! R8    R(5,14)                 1.0228         estimate D2E/DX2                !
 ! R9    R(6,7)                  1.3587         estimate D2E/DX2                !
 ! R10   R(6,8)                  1.4096         estimate D2E/DX2                !
 ! R11   R(7,15)                 0.9803         estimate D2E/DX2                !
 ! R12   R(8,9)                  1.3595         estimate D2E/DX2                !
 ! R13   R(8,10)                 1.4085         estimate D2E/DX2                !
 ! R14   R(9,16)                 0.9799         estimate D2E/DX2                !
 ! R15   R(10,11)                1.3585         estimate D2E/DX2                !
 ! R16   R(10,12)                1.4091         estimate D2E/DX2                !
 ! R17   R(11,17)                0.9809         estimate D2E/DX2                !
 ! R18   R(12,18)                1.0219         estimate D2E/DX2                !
 ! A1    A(1,2,3)              115.9587         estimate D2E/DX2                !
 ! A2    A(1,2,4)              122.2033         estimate D2E/DX2                !
 ! A3    A(3,2,4)              121.838          estimate D2E/DX2                !
 ! A4    A(2,3,13)             119.9045         estimate D2E/DX2                !
 ! A5    A(2,4,5)              121.1482         estimate D2E/DX2                !
 ! A6    A(2,4,12)             120.9992         estimate D2E/DX2                !
 ! A7    A(5,4,12)             117.8526         estimate D2E/DX2                !
 ! A8    A(4,5,6)              121.3404         estimate D2E/DX2                !
 ! A9    A(4,5,14)             120.2218         estimate D2E/DX2                !
 ! A10   A(6,5,14)             118.4372         estimate D2E/DX2                !
 ! A11   A(5,6,7)              120.2964         estimate D2E/DX2                !
 ! A12   A(5,6,8)              119.8073         estimate D2E/DX2                !
 ! A13   A(7,6,8)              119.8962         estimate D2E/DX2                !
 ! A14   A(6,7,15)             105.6467         estimate D2E/DX2                !
 ! A15   A(6,8,9)              120.8682         estimate D2E/DX2                !
 ! A16   A(6,8,10)             119.7212         estimate D2E/DX2                !
 ! A17   A(9,8,10)             119.4104         estimate D2E/DX2                !
 ! A18   A(8,9,16)             105.8506         estimate D2E/DX2                !
 ! A19   A(8,10,11)            119.9112         estimate D2E/DX2                !
 ! A20   A(8,10,12)            119.9498         estimate D2E/DX2                !
 ! A21   A(11,10,12)           120.1385         estimate D2E/DX2                !
 ! A22   A(10,11,17)           105.9598         estimate D2E/DX2                !
 ! A23   A(4,12,10)            121.3204         estimate D2E/DX2                !
 ! A24   A(4,12,18)            120.0583         estimate D2E/DX2                !
 ! A25   A(10,12,18)           118.6209         estimate D2E/DX2                !
 ! D1    D(1,2,3,13)             0.3742         estimate D2E/DX2                !
 ! D2    D(4,2,3,13)          -179.6333         estimate D2E/DX2                !
 ! D3    D(1,2,4,5)            174.9387         estimate D2E/DX2                !
 ! D4    D(1,2,4,12)            -5.1338         estimate D2E/DX2                !
 ! D5    D(3,2,4,5)             -5.0534         estimate D2E/DX2                !
 ! D6    D(3,2,4,12)           174.8741         estimate D2E/DX2                !
 ! D7    D(2,4,5,6)           -179.8394         estimate D2E/DX2                !
 ! D8    D(2,4,5,14)            -0.1289         estimate D2E/DX2                !
 ! D9    D(12,4,5,6)             0.2309         estimate D2E/DX2                !
 ! D10   D(12,4,5,14)          179.9414         estimate D2E/DX2                !
 ! D11   D(2,4,12,10)          179.6147         estimate D2E/DX2                !
 ! D12   D(2,4,12,18)           -0.6129         estimate D2E/DX2                !
 ! D13   D(5,4,12,10)           -0.4554         estimate D2E/DX2                !
 ! D14   D(5,4,12,18)          179.3169         estimate D2E/DX2                !
 ! D15   D(4,5,6,7)           -179.3784         estimate D2E/DX2                !
 ! D16   D(4,5,6,8)              0.5221         estimate D2E/DX2                !
 ! D17   D(14,5,6,7)             0.9061         estimate D2E/DX2                !
 ! D18   D(14,5,6,8)          -179.1934         estimate D2E/DX2                !
 ! D19   D(5,6,7,15)            10.8465         estimate D2E/DX2                !
 ! D20   D(8,6,7,15)          -169.0539         estimate D2E/DX2                !
 ! D21   D(5,6,8,9)            179.1231         estimate D2E/DX2                !
 ! D22   D(5,6,8,10)            -1.0566         estimate D2E/DX2                !
 ! D23   D(7,6,8,9)             -0.976          estimate D2E/DX2                !
 ! D24   D(7,6,8,10)           178.8443         estimate D2E/DX2                !
 ! D25   D(6,8,9,16)            -2.061          estimate D2E/DX2                !
 ! D26   D(10,8,9,16)          178.1182         estimate D2E/DX2                !
 ! D27   D(6,8,10,11)         -178.9124         estimate D2E/DX2                !
 ! D28   D(6,8,10,12)            0.8379         estimate D2E/DX2                !
 ! D29   D(9,8,10,11)            0.9106         estimate D2E/DX2                !
 ! D30   D(9,8,10,12)         -179.3392         estimate D2E/DX2                !
 ! D31   D(8,10,11,17)        -178.9616         estimate D2E/DX2                !
 ! D32   D(12,10,11,17)          1.2887         estimate D2E/DX2                !
 ! D33   D(8,10,12,4)           -0.0747         estimate D2E/DX2                !
 ! D34   D(8,10,12,18)        -179.8503         estimate D2E/DX2                !
 ! D35   D(11,10,12,4)         179.675          estimate D2E/DX2                !
 ! D36   D(11,10,12,18)         -0.1006         estimate D2E/DX2                !
 --------------------------------------------------------------------------------
 Trust Radius=3.00D-01 FncErr=1.00D-07 GrdErr=1.00D-06 EigMax=2.50D+02 EigMin=1.00D-04
 Number of steps in this run=     89 maximum allowed number of steps=    108.
 GradGradGradGradGradGradGradGradGradGradGradGradGradGradGradGradGradGrad

 Leave Link  103 at Mon Feb 22 21:12:14 2021, MaxMem=   104857600 cpu:               0.4 elap:               0.0
 (Enter /sw/arch/RedHatEnterpriseServer7/EB_production/2019/software/Gaussian/g16.c01/l202.exe)
                          Input orientation:                          
 ---------------------------------------------------------------------
 Center     Atomic      Atomic             Coordinates (Angstroms)
 Number     Number       Type             X           Y           Z
 ---------------------------------------------------------------------
      1          8           0        1.800440   -0.330010    0.456420
      2          6           0        0.565560   -0.141560    0.558520
      3          8           0       -0.122790   -1.083470    1.245000
      4          6           0       -0.077800    0.991720   -0.010910
      5          6           0       -1.486140    1.129490    0.025830
      6          6           0       -2.128890    2.250500   -0.540790
      7          8           0       -3.481310    2.367310   -0.482400
      8          6           0       -1.363420    3.254220   -1.168190
      9          8           0       -1.961570    4.334610   -1.736690
     10          6           0        0.040120    3.141450   -1.205170
     11          8           0        0.782960    4.117350   -1.789300
     12          6           0        0.671090    2.019540   -0.631740
     13          1           0        0.350120   -1.850390    1.630220
     14          1           0       -2.062770    0.407700    0.464810
     15          1           0       -3.780390    1.669780    0.138080
     16          1           0       -2.925300    4.196610   -1.625010
     17          1           0        1.716710    3.826160   -1.715560
     18          1           0        1.690570    1.959560   -0.668000
 ---------------------------------------------------------------------
                    Distance matrix (angstroms):
                    1          2          3          4          5
     1  O    0.000000
     2  C    1.253342   0.000000
     3  O    2.210967   1.353616   0.000000
     4  C    2.343748   1.422141   2.426056   0.000000
     5  C    3.621761   2.471599   2.870939   1.415539   0.000000
     6  C    4.805527   3.767027   4.281219   2.464198   1.410975
     7  O    6.004482   4.873920   5.115804   3.701139   2.402332
     8  C    5.049364   4.270107   5.116464   2.847986   2.440332
     9  O    6.381311   5.629429   6.451913   4.207353   3.688537
    10  C    4.232097   3.763621   4.886698   2.462012   2.809415
    11  O    5.085030   4.868042   6.088997   3.697721   4.167831
    12  C    2.824873   2.469455   3.712286   1.415161   2.424506
    13  H    2.406822   2.028560   0.979900   3.309685   3.850403
    14  H    3.933024   2.686743   2.568230   2.123086   1.022833
    15  H    5.936848   4.727050   4.709957   3.767112   2.359681
    16  H    6.866969   5.981106   6.631008   4.580927   3.768777
    17  H    4.690230   4.715866   6.021058   3.762997   4.534613
    18  H    2.553140   2.680430   4.025901   2.120286   3.355876
                    6          7          8          9         10
     6  C    0.000000
     7  O    1.358710   0.000000
     8  C    1.409620   2.396325   0.000000
     9  O    2.408669   2.784443   1.359492   0.000000
    10  C    2.437170   3.677249   1.408549   2.390169   0.000000
    11  O    3.677333   4.791099   2.395353   2.753618   1.358455
    12  C    2.810961   4.169613   2.439558   3.675780   1.409123
    13  H    5.260805   6.077171   6.068308   7.411762   5.749261
    14  H    2.100361   2.597987   3.355362   4.503051   3.832019
    15  H    1.877645   0.980302   3.171519   3.731513   4.308878
    16  H    2.365829   2.227340   1.880493   0.979945   3.175428
    17  H    4.318730   5.537900   3.180241   3.713315   1.881563
    18  H    3.832637   5.191247   3.354577   4.485654   2.099857
                   11         12         13         14         15
    11  O    0.000000
    12  C    2.398597   0.000000
    13  H    6.891617   4.493979   0.000000
    14  H    5.190443   3.357743   3.504167   0.000000
    15  H    5.525356   4.531074   5.628427   2.156343   0.000000
    16  H    3.712744   4.319750   7.608621   4.412159   3.197583
    17  H    0.980876   2.351991   6.729415   5.542955   6.189028
    18  H    2.595598   1.021886   4.646971   4.216526   5.537611
                   16         17         18
    16  H    0.000000
    17  H    4.657648   0.000000
    18  H    5.217903   2.140622   0.000000
 Stoichiometry    C7H6O5
 Framework group  C1[X(C7H6O5)]
 Deg. of freedom    48
 Full point group                 C1      NOp   1
 Largest Abelian subgroup         C1      NOp   1
 Largest concise Abelian subgroup C1      NOp   1
                         Standard orientation:                         
 ---------------------------------------------------------------------
 Center     Atomic      Atomic             Coordinates (Angstroms)
 Number     Number       Type             X           Y           Z
 ---------------------------------------------------------------------
      1          8           0        3.135568    1.150634   -0.090826
      2          6           0        2.490253    0.079276   -0.009423
      3          8           0        3.228511   -1.052339    0.072406
      4          6           0        1.068436    0.049524   -0.003216
      5          6           0        0.361678   -1.176872   -0.017295
      6          6           0       -1.048880   -1.211077   -0.014582
      7          8           0       -1.705674   -2.400495   -0.015573
      8          6           0       -1.779017   -0.005302   -0.008704
      9          8           0       -3.138403   -0.012956   -0.023857
     10          6           0       -1.094494    1.225461    0.016978
     11          8           0       -1.794394    2.389398    0.045075
     12          6           0        0.314465    1.246906    0.018798
     13          1           0        4.206930   -0.998493    0.071112
     14          1           0        0.870371   -2.064076   -0.034225
     15          1           0       -1.021538   -3.080444    0.159409
     16          1           0       -3.400234   -0.956066   -0.071590
     17          1           0       -1.125271    3.106604    0.042181
     18          1           0        0.790230    2.151035    0.039982
 ---------------------------------------------------------------------
 Rotational constants (GHZ):           1.5605337           0.6567507           0.4624921
 Leave Link  202 at Mon Feb 22 21:12:14 2021, MaxMem=   104857600 cpu:               1.3 elap:               0.1
 (Enter /sw/arch/RedHatEnterpriseServer7/EB_production/2019/software/Gaussian/g16.c01/l301.exe)
 Standard basis: TZVP (5D, 7F)
 Ernie: Thresh=  0.10000D-02 Tol=  0.10000D-05 Strict=F.
 There are   276 symmetry adapted cartesian basis functions of A   symmetry.
 There are   264 symmetry adapted basis functions of A   symmetry.
   264 basis functions,   468 primitive gaussians,   276 cartesian basis functions
    44 alpha electrons       44 beta electrons
       nuclear repulsion energy       684.7685624984 Hartrees.
 IExCor=  404 DFT=T Ex=B Corr=P86 ExCW=0 ScaHFX=  0.000000
 ScaDFX=  1.000000  1.000000  1.000000  1.000000 ScalE2=  1.000000  1.000000
 IRadAn=      5 IRanWt=     -1 IRanGd=            0 ICorTp=0 IEmpDi=131
 NAtoms=   18 NActive=   18 NUniq=   18 SFac= 1.00D+00 NAtFMM=   60 NAOKFM=F Big=F
 Integral buffers will be    131072 words long.
 Raffenetti 2 integral format.
 Two-electron integral symmetry is turned on.
 R6Disp:  Grimme-D3 Dispersion energy=       -0.0155192535 Hartrees.
 Nuclear repulsion after empirical dispersion term =      684.7530432449 Hartrees.
 ------------------------------------------------------------------------------
 Polarizable Continuum Model (PCM)
 =================================
 Model                : PCM.
 Atomic radii         : UFF (Universal Force Field).
 Polarization charges : Total charges.
 Charge compensation  : None.
 Solution method      : On-the-fly selection.
 Cavity type          : Scaled VdW (van der Waals Surface) (Alpha=1.100).
 Cavity algorithm     : GePol (No added spheres)
                        Default sphere list used, NSphG=   18.
                        Lebedev-Laikov grids with approx.  5.0 points / Ang**2.
                        Smoothing algorithm: York/Karplus (Gamma=1.0000).
                        Polarization charges: spherical gaussians, with
                                              point-specific exponents (IZeta= 3).
                        Self-potential: point-specific (ISelfS= 7).
                        Self-field    : sphere-specific E.n sum rule (ISelfD= 2).
 1st derivatives      : Analytical E(r).r(x)/FMM algorithm (CHGder, D1EAlg=3).
                        Cavity 1st derivative terms included.
 Solvent              : Water, Eps=  78.355300 Eps(inf)=   1.777849
 ------------------------------------------------------------------------------
 Spheres list:
 ISph  on   Nord     Re0    Alpha      Xe            Ye            Ze
    1   O      1    1.7500  1.100      3.135568      1.150634     -0.090826
    2   C      2    1.9255  1.100      2.490253      0.079276     -0.009423
    3   O      3    1.7500  1.100      3.228511     -1.052339      0.072406
    4   C      4    1.9255  1.100      1.068436      0.049524     -0.003216
    5   C      5    1.9255  1.100      0.361678     -1.176872     -0.017295
    6   C      6    1.9255  1.100     -1.048880     -1.211077     -0.014582
    7   O      7    1.7500  1.100     -1.705674     -2.400495     -0.015573
    8   C      8    1.9255  1.100     -1.779017     -0.005302     -0.008704
    9   O      9    1.7500  1.100     -3.138403     -0.012956     -0.023857
   10   C     10    1.9255  1.100     -1.094494      1.225461      0.016978
   11   O     11    1.7500  1.100     -1.794394      2.389398      0.045075
   12   C     12    1.9255  1.100      0.314465      1.246906      0.018798
   13   H     13    1.4430  1.100      4.206930     -0.998493      0.071112
   14   H     14    1.4430  1.100      0.870371     -2.064076     -0.034225
   15   H     15    1.4430  1.100     -1.021538     -3.080444      0.159409
   16   H     16    1.4430  1.100     -3.400234     -0.956066     -0.071590
   17   H     17    1.4430  1.100     -1.125271      3.106604      0.042181
   18   H     18    1.4430  1.100      0.790230      2.151035      0.039982
 ------------------------------------------------------------------------------
 GePol: Number of generator spheres                  =      18
 GePol: Total number of spheres                      =      18
 GePol: Number of exposed spheres                    =      18 (100.00%)
 GePol: Number of points                             =    1614
 GePol: Average weight of points                     =       0.13
 GePol: Minimum weight of points                     =   0.28D-10
 GePol: Maximum weight of points                     =    0.20577
 GePol: Number of points with low weight             =      60
 GePol: Fraction of low-weight points (<1% of avg)   =       3.72%
 GePol: Cavity surface area                          =    209.355 Ang**2
 GePol: Cavity volume                                =    211.008 Ang**3
 Leave Link  301 at Mon Feb 22 21:12:15 2021, MaxMem=   104857600 cpu:               2.0 elap:               0.1
 (Enter /sw/arch/RedHatEnterpriseServer7/EB_production/2019/software/Gaussian/g16.c01/l302.exe)
 NPDir=0 NMtPBC=     1 NCelOv=     1 NCel=       1 NClECP=     1 NCelD=      1
         NCelK=      1 NCelE2=     1 NClLst=     1 CellRange=     0.0.
 One-electron integrals computed using PRISM.
 One-electron integral symmetry used in STVInt
 PrsmSu:  requested number of processors reduced to:  28 ShMem   1 Linda.
 NBasis=   264 RedAO= T EigKep=  1.01D-05  NBF=   264
 NBsUse=   264 1.00D-06 EigRej= -1.00D+00 NBFU=   264
 Precomputing XC quadrature grid using
 IXCGrd= 4 IRadAn=           5 IRanWt=          -1 IRanGd=           0 AccXCQ= 0.00D+00.
 Generated NRdTot=       0 NPtTot=           0 NUsed=           0 NTot=          32
 NSgBfM=   270   270   270   270   270 MxSgAt=    18 MxSgA2=    18.
 Leave Link  302 at Mon Feb 22 21:12:15 2021, MaxMem=   104857600 cpu:               6.7 elap:               0.2
 (Enter /sw/arch/RedHatEnterpriseServer7/EB_production/2019/software/Gaussian/g16.c01/l303.exe)
 DipDrv:  MaxL=1.
 Leave Link  303 at Mon Feb 22 21:12:15 2021, MaxMem=   104857600 cpu:               2.4 elap:               0.1
 (Enter /sw/arch/RedHatEnterpriseServer7/EB_production/2019/software/Gaussian/g16.c01/l401.exe)
 ExpMin= 9.52D-02 ExpMax= 2.70D+04 ExpMxC= 9.22D+02 IAcc=3 IRadAn=         5 AccDes= 0.00D+00
 Harris functional with IExCor=  404 and IRadAn=       5 diagonalized for initial guess.
 HarFok:  IExCor=  404 AccDes= 0.00D+00 IRadAn=         5 IDoV= 1 UseB2=F ITyADJ=14
 ICtDFT=  3500011 ScaDFX=  1.000000  1.000000  1.000000  1.000000
 FoFCou: FMM=F IPFlag=           0 FMFlag=      100000 FMFlg1=           0
         NFxFlg=           0 DoJE=T BraDBF=F KetDBF=T FulRan=T
         wScrn=  0.000000 ICntrl=       500 IOpCl=  0 I1Cent=   200000004 NGrid=           0
         NMat0=    1 NMatS0=      1 NMatT0=    0 NMatD0=    1 NMtDS0=    0 NMtDT0=    0
 Petite list used in FoFCou.
 Harris En= -646.880590536607    
 JPrj=0 DoOrth=F DoCkMO=F.
 Leave Link  401 at Mon Feb 22 21:12:16 2021, MaxMem=   104857600 cpu:              11.7 elap:               0.4
 (Enter /sw/arch/RedHatEnterpriseServer7/EB_production/2019/software/Gaussian/g16.c01/l502.exe)
 Integral symmetry usage will be decided dynamically.
 Closed shell SCF:
 Using DIIS extrapolation, IDIIS=  1040.
 NGot=   104857600 LenX=   104693262 LenY=   104616645
 Requested convergence on RMS density matrix=1.00D-08 within 128 cycles.
 Requested convergence on MAX density matrix=1.00D-06.
 Requested convergence on             energy=1.00D-06.
 No special actions if energy rises.
 Fock matrices will be formed incrementally for  20 cycles.

 Cycle   1  Pass 1  IDiag  1:
 FoFJK:  IHMeth= 1 ICntrl=     500 DoSepK=F KAlg= 0 I1Cent=           0 FoldK=F
 IRaf= 880000000 NMat=       1 IRICut=       1 DoRegI=T DoRafI=F ISym2E= 0 IDoP0=0 IntGTp=1.
 FoFCou: FMM=F IPFlag=           0 FMFlag=      100000 FMFlg1=           0
         NFxFlg=           0 DoJE=T BraDBF=F KetDBF=F FulRan=T
         wScrn=  0.000000 ICntrl=       500 IOpCl=  0 I1Cent=           0 NGrid=           0
         NMat0=    1 NMatS0=      1 NMatT0=    0 NMatD0=    1 NMtDS0=    0 NMtDT0=    0
 Symmetry not used in FoFCou.
 Inv3:  Mode=1 IEnd=     7814988.
 Iteration    1 A*A^-1 deviation from unit magnitude is 3.22D-15 for    225.
 Iteration    1 A*A^-1 deviation from orthogonality  is 1.97D-15 for    477    371.
 Iteration    1 A^-1*A deviation from unit magnitude is 3.11D-15 for    429.
 Iteration    1 A^-1*A deviation from orthogonality  is 1.64D-15 for   1552    621.
 E= -646.488782875733    
 DIIS: error= 3.20D-02 at cycle   1 NSaved=   1.
 NSaved= 1 IEnMin= 1 EnMin= -646.488782875733     IErMin= 1 ErrMin= 3.20D-02
 ErrMax= 3.20D-02  0.00D+00 EMaxC= 1.00D-01 BMatC= 3.35D-01 BMatP= 3.35D-01
 IDIUse=3 WtCom= 6.80D-01 WtEn= 3.20D-01
 Coeff-Com:  0.100D+01
 Coeff-En:   0.100D+01
 Coeff:      0.100D+01
 Gap=     0.123 Goal=   None    Shift=    0.000
 GapD=    0.123 DampG=1.000 DampE=0.500 DampFc=0.5000 IDamp=-1.
 Damping current iteration by 5.00D-01
 RMSDP=1.61D-02 MaxDP=1.69D+00              OVMax= 2.82D-01

 Cycle   2  Pass 1  IDiag  1:
 RMSU=  8.00D-03    CP:  1.07D+00
 E= -646.497783542652     Delta-E=       -0.009000666919 Rises=F Damp=T
 DIIS: error= 1.86D-02 at cycle   2 NSaved=   2.
 NSaved= 2 IEnMin= 2 EnMin= -646.497783542652     IErMin= 2 ErrMin= 1.86D-02
 ErrMax= 1.86D-02  0.00D+00 EMaxC= 1.00D-01 BMatC= 9.92D-02 BMatP= 3.35D-01
 IDIUse=3 WtCom= 8.14D-01 WtEn= 1.86D-01
 Coeff-Com:  0.324D+00 0.676D+00
 Coeff-En:   0.487D+00 0.513D+00
 Coeff:      0.355D+00 0.645D+00
 Gap=     0.150 Goal=   None    Shift=    0.000
 RMSDP=4.81D-03 MaxDP=4.71D-01 DE=-9.00D-03 OVMax= 3.06D-01

 Cycle   3  Pass 1  IDiag  1:
 RMSU=  2.75D-03    CP:  1.03D+00  5.12D-01
 E= -646.682415135409     Delta-E=       -0.184631592757 Rises=F Damp=F
 DIIS: error= 1.82D-02 at cycle   3 NSaved=   3.
 NSaved= 3 IEnMin= 3 EnMin= -646.682415135409     IErMin= 3 ErrMin= 1.82D-02
 ErrMax= 1.82D-02  0.00D+00 EMaxC= 1.00D-01 BMatC= 8.06D-02 BMatP= 9.92D-02
 IDIUse=3 WtCom= 8.18D-01 WtEn= 1.82D-01
 Coeff-Com:  0.183D+00 0.457D+00 0.360D+00
 Coeff-En:   0.282D-03 0.000D+00 0.100D+01
 Coeff:      0.150D+00 0.374D+00 0.476D+00
 Gap=     0.120 Goal=   None    Shift=    0.000
 RMSDP=2.70D-03 MaxDP=8.71D-02 DE=-1.85D-01 OVMax= 1.75D-01

 Cycle   4  Pass 1  IDiag  1:
 RMSU=  1.63D-03    CP:  1.04D+00  5.75D-01  2.40D-01
 E= -646.717549911198     Delta-E=       -0.035134775789 Rises=F Damp=F
 DIIS: error= 1.38D-02 at cycle   4 NSaved=   4.
 NSaved= 4 IEnMin= 4 EnMin= -646.717549911198     IErMin= 4 ErrMin= 1.38D-02
 ErrMax= 1.38D-02  0.00D+00 EMaxC= 1.00D-01 BMatC= 4.28D-02 BMatP= 8.06D-02
 IDIUse=3 WtCom= 8.62D-01 WtEn= 1.38D-01
 Coeff-Com:  0.736D-01 0.147D+00 0.375D+00 0.404D+00
 Coeff-En:   0.000D+00 0.000D+00 0.370D+00 0.630D+00
 Coeff:      0.634D-01 0.127D+00 0.374D+00 0.436D+00
 Gap=     0.126 Goal=   None    Shift=    0.000
 RMSDP=1.39D-03 MaxDP=8.81D-02 DE=-3.51D-02 OVMax= 9.47D-02

 Cycle   5  Pass 1  IDiag  1:
 RMSU=  3.36D-04    CP:  1.03D+00  4.80D-01  5.35D-01  5.33D-01
 E= -646.748167963119     Delta-E=       -0.030618051921 Rises=F Damp=F
 DIIS: error= 2.92D-03 at cycle   5 NSaved=   5.
 NSaved= 5 IEnMin= 5 EnMin= -646.748167963119     IErMin= 5 ErrMin= 2.92D-03
 ErrMax= 2.92D-03  0.00D+00 EMaxC= 1.00D-01 BMatC= 1.96D-03 BMatP= 4.28D-02
 IDIUse=3 WtCom= 9.71D-01 WtEn= 2.92D-02
 Coeff-Com:  0.188D-01 0.192D-01 0.176D+00 0.286D+00 0.501D+00
 Coeff-En:   0.000D+00 0.000D+00 0.000D+00 0.230D-01 0.977D+00
 Coeff:      0.183D-01 0.186D-01 0.170D+00 0.278D+00 0.515D+00
 Gap=     0.114 Goal=   None    Shift=    0.000
 RMSDP=2.50D-04 MaxDP=6.53D-03 DE=-3.06D-02 OVMax= 1.34D-02

 Cycle   6  Pass 1  IDiag  1:
 RMSU=  1.57D-04    CP:  1.03D+00  4.85D-01  5.09D-01  5.91D-01  5.59D-01
 E= -646.749745806921     Delta-E=       -0.001577843801 Rises=F Damp=F
 DIIS: error= 7.07D-04 at cycle   6 NSaved=   6.
 NSaved= 6 IEnMin= 6 EnMin= -646.749745806921     IErMin= 6 ErrMin= 7.07D-04
 ErrMax= 7.07D-04  0.00D+00 EMaxC= 1.00D-01 BMatC= 1.33D-04 BMatP= 1.96D-03
 IDIUse=3 WtCom= 9.93D-01 WtEn= 7.07D-03
 Coeff-Com:  0.373D-02-0.223D-03 0.565D-01 0.103D+00 0.288D+00 0.549D+00
 Coeff-En:   0.000D+00 0.000D+00 0.000D+00 0.000D+00 0.319D-01 0.968D+00
 Coeff:      0.371D-02-0.222D-03 0.561D-01 0.102D+00 0.286D+00 0.552D+00
 Gap=     0.115 Goal=   None    Shift=    0.000
 RMSDP=8.50D-05 MaxDP=5.40D-03 DE=-1.58D-03 OVMax= 5.78D-03

 Cycle   7  Pass 1  IDiag  1:
 RMSU=  5.03D-05    CP:  1.03D+00  4.91D-01  5.11D-01  5.90D-01  6.35D-01
                    CP:  7.37D-01
 E= -646.749840625412     Delta-E=       -0.000094818491 Rises=F Damp=F
 DIIS: error= 3.81D-04 at cycle   7 NSaved=   7.
 NSaved= 7 IEnMin= 7 EnMin= -646.749840625412     IErMin= 7 ErrMin= 3.81D-04
 ErrMax= 3.81D-04  0.00D+00 EMaxC= 1.00D-01 BMatC= 2.56D-05 BMatP= 1.33D-04
 IDIUse=3 WtCom= 9.96D-01 WtEn= 3.81D-03
 Coeff-Com:  0.415D-03-0.132D-02 0.141D-01 0.266D-01 0.124D+00 0.366D+00
 Coeff-Com:  0.469D+00
 Coeff-En:   0.000D+00 0.000D+00 0.000D+00 0.000D+00 0.000D+00 0.150D+00
 Coeff-En:   0.850D+00
 Coeff:      0.413D-03-0.131D-02 0.141D-01 0.265D-01 0.124D+00 0.366D+00
 Coeff:      0.471D+00
 Gap=     0.115 Goal=   None    Shift=    0.000
 RMSDP=2.57D-05 MaxDP=1.06D-03 DE=-9.48D-05 OVMax= 2.82D-03

 Cycle   8  Pass 1  IDiag  1:
 RMSU=  1.19D-05    CP:  1.03D+00  4.89D-01  5.13D-01  5.88D-01  6.37D-01
                    CP:  7.37D-01  6.09D-01
 E= -646.749862913074     Delta-E=       -0.000022287662 Rises=F Damp=F
 DIIS: error= 1.03D-04 at cycle   8 NSaved=   8.
 NSaved= 8 IEnMin= 8 EnMin= -646.749862913074     IErMin= 8 ErrMin= 1.03D-04
 ErrMax= 1.03D-04  0.00D+00 EMaxC= 1.00D-01 BMatC= 2.23D-06 BMatP= 2.56D-05
 IDIUse=3 WtCom= 9.99D-01 WtEn= 1.03D-03
 Coeff-Com:  0.907D-04-0.769D-03 0.502D-02 0.880D-02 0.579D-01 0.191D+00
 Coeff-Com:  0.297D+00 0.441D+00
 Coeff-En:   0.000D+00 0.000D+00 0.000D+00 0.000D+00 0.000D+00 0.000D+00
 Coeff-En:   0.589D-02 0.994D+00
 Coeff:      0.906D-04-0.769D-03 0.501D-02 0.879D-02 0.578D-01 0.191D+00
 Coeff:      0.297D+00 0.441D+00
 Gap=     0.115 Goal=   None    Shift=    0.000
 RMSDP=8.94D-06 MaxDP=4.27D-04 DE=-2.23D-05 OVMax= 8.29D-04

 Cycle   9  Pass 1  IDiag  1:
 RMSU=  5.74D-06    CP:  1.03D+00  4.89D-01  5.13D-01  5.87D-01  6.39D-01
                    CP:  7.49D-01  6.23D-01  6.18D-01
 E= -646.749864865836     Delta-E=       -0.000001952762 Rises=F Damp=F
 DIIS: error= 3.75D-05 at cycle   9 NSaved=   9.
 NSaved= 9 IEnMin= 9 EnMin= -646.749864865836     IErMin= 9 ErrMin= 3.75D-05
 ErrMax= 3.75D-05  0.00D+00 EMaxC= 1.00D-01 BMatC= 2.47D-07 BMatP= 2.23D-06
 IDIUse=1 WtCom= 1.00D+00 WtEn= 0.00D+00
 Coeff-Com:  0.652D-04-0.145D-03 0.784D-03 0.424D-03 0.134D-01 0.521D-01
 Coeff-Com:  0.102D+00 0.270D+00 0.561D+00
 Coeff:      0.652D-04-0.145D-03 0.784D-03 0.424D-03 0.134D-01 0.521D-01
 Coeff:      0.102D+00 0.270D+00 0.561D+00
 Gap=     0.115 Goal=   None    Shift=    0.000
 RMSDP=4.08D-06 MaxDP=2.46D-04 DE=-1.95D-06 OVMax= 3.43D-04

 Cycle  10  Pass 1  IDiag  1:
 RMSU=  2.60D-06    CP:  1.03D+00  4.89D-01  5.13D-01  5.86D-01  6.41D-01
                    CP:  7.54D-01  6.13D-01  7.21D-01  6.07D-01
 E= -646.749864975295     Delta-E=       -0.000000109459 Rises=F Damp=F
 DIIS: error= 1.67D-05 at cycle  10 NSaved=  10.
 NSaved=10 IEnMin=10 EnMin= -646.749864975295     IErMin=10 ErrMin= 1.67D-05
 ErrMax= 1.67D-05  0.00D+00 EMaxC= 1.00D-01 BMatC= 5.66D-08 BMatP= 2.47D-07
 IDIUse=1 WtCom= 1.00D+00 WtEn= 0.00D+00
 Coeff-Com:  0.377D-04-0.882D-04 0.170D-03-0.324D-03 0.519D-02 0.226D-01
 Coeff-Com:  0.492D-01 0.149D+00 0.398D+00 0.376D+00
 Coeff:      0.377D-04-0.882D-04 0.170D-03-0.324D-03 0.519D-02 0.226D-01
 Coeff:      0.492D-01 0.149D+00 0.398D+00 0.376D+00
 Gap=     0.115 Goal=   None    Shift=    0.000
 RMSDP=1.73D-06 MaxDP=1.05D-04 DE=-1.09D-07 OVMax= 1.13D-04

 Cycle  11  Pass 1  IDiag  1:
 RMSU=  4.54D-07    CP:  1.03D+00  4.89D-01  5.13D-01  5.86D-01  6.40D-01
                    CP:  7.52D-01  6.20D-01  6.90D-01  6.45D-01  4.59D-01
 E= -646.749865089644     Delta-E=       -0.000000114349 Rises=F Damp=F
 DIIS: error= 1.81D-06 at cycle  11 NSaved=  11.
 NSaved=11 IEnMin=11 EnMin= -646.749865089644     IErMin=11 ErrMin= 1.81D-06
 ErrMax= 1.81D-06  0.00D+00 EMaxC= 1.00D-01 BMatC= 8.14D-10 BMatP= 5.66D-08
 IDIUse=1 WtCom= 1.00D+00 WtEn= 0.00D+00
 Coeff-Com:  0.203D-04-0.324D-04 0.375D-04-0.153D-03 0.123D-02 0.606D-02
 Coeff-Com:  0.144D-01 0.451D-01 0.141D+00 0.158D+00 0.634D+00
 Coeff:      0.203D-04-0.324D-04 0.375D-04-0.153D-03 0.123D-02 0.606D-02
 Coeff:      0.144D-01 0.451D-01 0.141D+00 0.158D+00 0.634D+00
 Gap=     0.115 Goal=   None    Shift=    0.000
 RMSDP=2.33D-07 MaxDP=1.39D-05 DE=-1.14D-07 OVMax= 1.24D-05

 Cycle  12  Pass 1  IDiag  1:
 RMSU=  1.43D-07    CP:  1.03D+00  4.89D-01  5.13D-01  5.86D-01  6.40D-01
                    CP:  7.52D-01  6.21D-01  6.90D-01  6.63D-01  4.77D-01
                    CP:  7.37D-01
 E= -646.749865089983     Delta-E=       -0.000000000339 Rises=F Damp=F
 DIIS: error= 8.47D-07 at cycle  12 NSaved=  12.
 NSaved=12 IEnMin=12 EnMin= -646.749865089983     IErMin=12 ErrMin= 8.47D-07
 ErrMax= 8.47D-07  0.00D+00 EMaxC= 1.00D-01 BMatC= 3.38D-10 BMatP= 8.14D-10
 IDIUse=1 WtCom= 1.00D+00 WtEn= 0.00D+00
 Coeff-Com:  0.925D-05-0.147D-04 0.431D-05-0.549D-04 0.187D-03 0.128D-02
 Coeff-Com:  0.351D-02 0.108D-01 0.443D-01 0.564D-01 0.436D+00 0.448D+00
 Coeff:      0.925D-05-0.147D-04 0.431D-05-0.549D-04 0.187D-03 0.128D-02
 Coeff:      0.351D-02 0.108D-01 0.443D-01 0.564D-01 0.436D+00 0.448D+00
 Gap=     0.115 Goal=   None    Shift=    0.000
 RMSDP=1.09D-07 MaxDP=8.50D-06 DE=-3.39D-10 OVMax= 6.74D-06

 Cycle  13  Pass 1  IDiag  1:
 RMSU=  5.34D-08    CP:  1.03D+00  4.89D-01  5.13D-01  5.86D-01  6.40D-01
                    CP:  7.52D-01  6.22D-01  6.91D-01  6.58D-01  4.63D-01
                    CP:  7.80D-01  5.67D-01
 E= -646.749865090261     Delta-E=       -0.000000000278 Rises=F Damp=F
 DIIS: error= 1.85D-07 at cycle  13 NSaved=  13.
 NSaved=13 IEnMin=13 EnMin= -646.749865090261     IErMin=13 ErrMin= 1.85D-07
 ErrMax= 1.85D-07  0.00D+00 EMaxC= 1.00D-01 BMatC= 6.46D-12 BMatP= 3.38D-10
 IDIUse=1 WtCom= 1.00D+00 WtEn= 0.00D+00
 Coeff-Com:  0.320D-05-0.475D-05 0.817D-06-0.158D-04 0.197D-04 0.238D-03
 Coeff-Com:  0.754D-03 0.240D-02 0.119D-01 0.162D-01 0.156D+00 0.198D+00
 Coeff-Com:  0.615D+00
 Coeff:      0.320D-05-0.475D-05 0.817D-06-0.158D-04 0.197D-04 0.238D-03
 Coeff:      0.754D-03 0.240D-02 0.119D-01 0.162D-01 0.156D+00 0.198D+00
 Coeff:      0.615D+00
 Gap=     0.115 Goal=   None    Shift=    0.000
 RMSDP=2.72D-08 MaxDP=1.84D-06 DE=-2.78D-10 OVMax= 2.42D-06

 Cycle  14  Pass 1  IDiag  1:
 RMSU=  1.46D-08    CP:  1.03D+00  4.89D-01  5.13D-01  5.86D-01  6.40D-01
                    CP:  7.52D-01  6.21D-01  6.90D-01  6.59D-01  4.67D-01
                    CP:  7.88D-01  6.21D-01  7.32D-01
 E= -646.749865090259     Delta-E=        0.000000000001 Rises=F Damp=F
 DIIS: error= 1.38D-07 at cycle  14 NSaved=  14.
 NSaved=14 IEnMin=13 EnMin= -646.749865090261     IErMin=14 ErrMin= 1.38D-07
 ErrMax= 1.38D-07  0.00D+00 EMaxC= 1.00D-01 BMatC= 3.95D-12 BMatP= 6.46D-12
 IDIUse=1 WtCom= 1.00D+00 WtEn= 0.00D+00
 Coeff-Com:  0.103D-05-0.151D-05 0.156D-06-0.342D-05-0.129D-04-0.180D-04
 Coeff-Com:  0.260D-04 0.164D-03 0.227D-02 0.387D-02 0.541D-01 0.832D-01
 Coeff-Com:  0.452D+00 0.405D+00
 Coeff:      0.103D-05-0.151D-05 0.156D-06-0.342D-05-0.129D-04-0.180D-04
 Coeff:      0.260D-04 0.164D-03 0.227D-02 0.387D-02 0.541D-01 0.832D-01
 Coeff:      0.452D+00 0.405D+00
 Gap=     0.115 Goal=   None    Shift=    0.000
 RMSDP=1.03D-08 MaxDP=2.98D-07 DE= 1.48D-12 OVMax= 1.22D-06

 Cycle  15  Pass 1  IDiag  1:
 RMSU=  5.86D-09    CP:  1.03D+00  4.89D-01  5.13D-01  5.86D-01  6.40D-01
                    CP:  7.52D-01  6.21D-01  6.90D-01  6.59D-01  4.68D-01
                    CP:  7.92D-01  6.00D-01  7.54D-01  5.42D-01
 E= -646.749865090270     Delta-E=       -0.000000000010 Rises=F Damp=F
 DIIS: error= 1.76D-08 at cycle  15 NSaved=  15.
 NSaved=15 IEnMin=15 EnMin= -646.749865090270     IErMin=15 ErrMin= 1.76D-08
 ErrMax= 1.76D-08  0.00D+00 EMaxC= 1.00D-01 BMatC= 6.52D-14 BMatP= 3.95D-12
 IDIUse=1 WtCom= 1.00D+00 WtEn= 0.00D+00
 Coeff-Com:  0.229D-06-0.337D-06 0.240D-07-0.755D-06-0.519D-05-0.187D-04
 Coeff-Com: -0.294D-04-0.447D-04 0.300D-03 0.757D-03 0.139D-01 0.236D-01
 Coeff-Com:  0.157D+00 0.182D+00 0.623D+00
 Coeff:      0.229D-06-0.337D-06 0.240D-07-0.755D-06-0.519D-05-0.187D-04
 Coeff:     -0.294D-04-0.447D-04 0.300D-03 0.757D-03 0.139D-01 0.236D-01
 Coeff:      0.157D+00 0.182D+00 0.623D+00
 Gap=     0.115 Goal=   None    Shift=    0.000
 RMSDP=2.49D-09 MaxDP=1.45D-07 DE=-1.02D-11 OVMax= 1.41D-07

 Error on total polarization charges =  0.01049
 SCF Done:  E(RB-P86) =  -646.749865090     A.U. after   15 cycles
            NFock= 15  Conv=0.25D-08     -V/T= 2.0038
 KE= 6.443273691878D+02 PE=-2.886792132856D+03 EE= 9.109618553327D+02
 Leave Link  502 at Mon Feb 22 21:12:31 2021, MaxMem=   104857600 cpu:             481.8 elap:              15.4
 (Enter /sw/arch/RedHatEnterpriseServer7/EB_production/2019/software/Gaussian/g16.c01/l601.exe)
 Copying SCF densities to generalized density rwf, IOpCl= 0 IROHF=0.

 **********************************************************************

            Population analysis using the SCF Density.

 **********************************************************************

 Orbital symmetries:
       Occupied  (A) (A) (A) (A) (A) (A) (A) (A) (A) (A) (A) (A)
                 (A) (A) (A) (A) (A) (A) (A) (A) (A) (A) (A) (A)
                 (A) (A) (A) (A) (A) (A) (A) (A) (A) (A) (A) (A)
                 (A) (A) (A) (A) (A) (A) (A) (A)
       Virtual   (A) (A) (A) (A) (A) (A) (A) (A) (A) (A) (A) (A)
                 (A) (A) (A) (A) (A) (A) (A) (A) (A) (A) (A) (A)
                 (A) (A) (A) (A) (A) (A) (A) (A) (A) (A) (A) (A)
                 (A) (A) (A) (A) (A) (A) (A) (A) (A) (A) (A) (A)
                 (A) (A) (A) (A) (A) (A) (A) (A) (A) (A) (A) (A)
                 (A) (A) (A) (A) (A) (A) (A) (A) (A) (A) (A) (A)
                 (A) (A) (A) (A) (A) (A) (A) (A) (A) (A) (A) (A)
                 (A) (A) (A) (A) (A) (A) (A) (A) (A) (A) (A) (A)
                 (A) (A) (A) (A) (A) (A) (A) (A) (A) (A) (A) (A)
                 (A) (A) (A) (A) (A) (A) (A) (A) (A) (A) (A) (A)
                 (A) (A) (A) (A) (A) (A) (A) (A) (A) (A) (A) (A)
                 (A) (A) (A) (A) (A) (A) (A) (A) (A) (A) (A) (A)
                 (A) (A) (A) (A) (A) (A) (A) (A) (A) (A) (A) (A)
                 (A) (A) (A) (A) (A) (A) (A) (A) (A) (A) (A) (A)
                 (A) (A) (A) (A) (A) (A) (A) (A) (A) (A) (A) (A)
                 (A) (A) (A) (A) (A) (A) (A) (A) (A) (A) (A) (A)
                 (A) (A) (A) (A) (A) (A) (A) (A) (A) (A) (A) (A)
                 (A) (A) (A) (A) (A) (A) (A) (A) (A) (A) (A) (A)
                 (A) (A) (A) (A)
 The electronic state is 1-A.
 Alpha  occ. eigenvalues --  -18.82583 -18.82295 -18.81872 -18.81633 -18.75239
 Alpha  occ. eigenvalues --  -10.03206  -9.98272  -9.98197  -9.98131  -9.93198
 Alpha  occ. eigenvalues --   -9.91468  -9.91388  -1.01716  -1.01594  -1.00080
 Alpha  occ. eigenvalues --   -0.98750  -0.91770  -0.79625  -0.71655  -0.68941
 Alpha  occ. eigenvalues --   -0.63188  -0.60988  -0.56662  -0.53759  -0.52123
 Alpha  occ. eigenvalues --   -0.48431  -0.47033  -0.45727  -0.42622  -0.41991
 Alpha  occ. eigenvalues --   -0.41379  -0.40420  -0.38571  -0.36883  -0.35903
 Alpha  occ. eigenvalues --   -0.34897  -0.33805  -0.33732  -0.33133  -0.30111
 Alpha  occ. eigenvalues --   -0.27795  -0.23445  -0.21420  -0.20993
 Alpha virt. eigenvalues --   -0.09533  -0.04516  -0.00950   0.01501   0.01778
 Alpha virt. eigenvalues --    0.02197   0.04073   0.07766   0.08758   0.10308
 Alpha virt. eigenvalues --    0.10491   0.12676   0.13693   0.14951   0.16038
 Alpha virt. eigenvalues --    0.17104   0.17475   0.19679   0.20515   0.21822
 Alpha virt. eigenvalues --    0.21863   0.22785   0.23055   0.23624   0.25236
 Alpha virt. eigenvalues --    0.26072   0.27366   0.27999   0.28328   0.29255
 Alpha virt. eigenvalues --    0.29721   0.31395   0.32135   0.32578   0.33093
 Alpha virt. eigenvalues --    0.34533   0.36047   0.37017   0.38867   0.39775
 Alpha virt. eigenvalues --    0.40302   0.41754   0.42285   0.43322   0.43945
 Alpha virt. eigenvalues --    0.44435   0.45211   0.45757   0.46289   0.49065
 Alpha virt. eigenvalues --    0.49737   0.51517   0.52438   0.54565   0.55237
 Alpha virt. eigenvalues --    0.57166   0.57221   0.57980   0.60178   0.60921
 Alpha virt. eigenvalues --    0.62692   0.64415   0.65185   0.68012   0.69532
 Alpha virt. eigenvalues --    0.70466   0.72290   0.73102   0.77006   0.78494
 Alpha virt. eigenvalues --    0.81315   0.84121   0.86468   0.88652   0.92700
 Alpha virt. eigenvalues --    0.93989   1.11686   1.13857   1.17702   1.18215
 Alpha virt. eigenvalues --    1.18639   1.19494   1.23581   1.24937   1.27323
 Alpha virt. eigenvalues --    1.28137   1.28838   1.29520   1.31513   1.32962
 Alpha virt. eigenvalues --    1.33498   1.33927   1.34842   1.35919   1.36119
 Alpha virt. eigenvalues --    1.38606   1.39336   1.41175   1.41458   1.41750
 Alpha virt. eigenvalues --    1.41993   1.43898   1.45099   1.45303   1.46001
 Alpha virt. eigenvalues --    1.46820   1.48124   1.49198   1.52679   1.54904
 Alpha virt. eigenvalues --    1.57405   1.61398   1.62301   1.69761   1.73358
 Alpha virt. eigenvalues --    1.76132   1.78317   1.81843   1.82710   1.83500
 Alpha virt. eigenvalues --    1.84452   1.86531   1.89403   1.91591   1.94176
 Alpha virt. eigenvalues --    1.95389   1.97213   2.01418   2.03122   2.07078
 Alpha virt. eigenvalues --    2.07606   2.09343   2.10964   2.12976   2.14559
 Alpha virt. eigenvalues --    2.16998   2.17191   2.18371   2.18848   2.20131
 Alpha virt. eigenvalues --    2.23536   2.25374   2.25880   2.28556   2.32630
 Alpha virt. eigenvalues --    2.34754   2.39431   2.42026   2.45752   2.46559
 Alpha virt. eigenvalues --    2.47519   2.48862   2.49473   2.52965   2.54000
 Alpha virt. eigenvalues --    2.55859   2.57662   2.59073   2.59239   2.59523
 Alpha virt. eigenvalues --    2.61239   2.62900   2.64901   2.66880   2.71770
 Alpha virt. eigenvalues --    2.72959   2.76633   2.77459   2.78529   2.81829
 Alpha virt. eigenvalues --    2.82764   2.83558   2.84766   2.86186   2.86373
 Alpha virt. eigenvalues --    2.88739   2.89671   2.91986   2.95121   2.96547
 Alpha virt. eigenvalues --    2.98970   3.01577   3.03467   3.05558   3.06206
 Alpha virt. eigenvalues --    3.07443   3.07628   3.09451   3.13701   3.15082
 Alpha virt. eigenvalues --    3.20577   3.21653   3.23082   3.25296   3.26763
 Alpha virt. eigenvalues --    3.34060   3.40050   3.49944   3.53194   3.74012
 Alpha virt. eigenvalues --    3.84473   3.89928   4.02281   4.04589   4.13061
 Alpha virt. eigenvalues --    4.15859   4.22218   4.26628  21.10705  21.54086
 Alpha virt. eigenvalues --   21.66208  21.77993  21.83823  21.89929  21.94986
 Alpha virt. eigenvalues --   43.04648  43.09148  43.14620  43.17586  43.30262
          Condensed to atoms (all electrons):
               1          2          3          4          5          6
     1  O    8.007706   0.677310  -0.130858  -0.241848   0.013506  -0.001734
     2  C    0.677310   5.258574   0.423144  -0.412532   0.044979  -0.009531
     3  O   -0.130858   0.423144   7.873385  -0.216047   0.027607  -0.000686
     4  C   -0.241848  -0.412532  -0.216047   6.740473  -0.118134   0.117899
     5  C    0.013506   0.044979   0.027607  -0.118134   6.160832  -0.001130
     6  C   -0.001734  -0.009531  -0.000686   0.117899  -0.001130   5.783312
     7  O    0.000002   0.000260  -0.000009   0.015984  -0.110542   0.348271
     8  C    0.000891   0.009179   0.000703   0.033130  -0.068570   0.217121
     9  O   -0.000000   0.000034  -0.000000  -0.003362   0.015424  -0.118079
    10  C    0.008249   0.033423   0.000257   0.024899  -0.060737  -0.316402
    11  O   -0.000017  -0.000418   0.000001   0.018194   0.000663   0.006835
    12  C    0.018915  -0.118967   0.011330   0.090358  -0.124964  -0.046285
    13  H    0.002722  -0.029336   0.294908   0.028426  -0.003201   0.000081
    14  H    0.000677  -0.023429   0.012145   0.005789   0.378279  -0.056902
    15  H    0.000000  -0.000139  -0.000051   0.005330  -0.018557  -0.023298
    16  H   -0.000000  -0.000048  -0.000000  -0.000938   0.004264  -0.055476
    17  H   -0.000087  -0.000383  -0.000001   0.006349   0.000151  -0.001740
    18  H    0.024592  -0.026592   0.001669  -0.021363   0.015907   0.003117
               7          8          9         10         11         12
     1  O    0.000002   0.000891  -0.000000   0.008249  -0.000017   0.018915
     2  C    0.000260   0.009179   0.000034   0.033423  -0.000418  -0.118967
     3  O   -0.000009   0.000703  -0.000000   0.000257   0.000001   0.011330
     4  C    0.015984   0.033130  -0.003362   0.024899   0.018194   0.090358
     5  C   -0.110542  -0.068570   0.015424  -0.060737   0.000663  -0.124964
     6  C    0.348271   0.217121  -0.118079  -0.316402   0.006835  -0.046285
     7  O    7.806334  -0.085805   0.003223   0.009128  -0.000029   0.000992
     8  C   -0.085805   5.645658   0.443552   0.257408  -0.108843  -0.268483
     9  O    0.003223   0.443552   7.731784  -0.134352   0.012971   0.007178
    10  C    0.009128   0.257408  -0.134352   5.462808   0.406044   0.268424
    11  O   -0.000029  -0.108843   0.012971   0.406044   7.750627  -0.112309
    12  C    0.000992  -0.268483   0.007178   0.268424  -0.112309   6.075365
    13  H   -0.000001  -0.000025  -0.000000   0.000033  -0.000000  -0.000439
    14  H   -0.004502   0.008161  -0.000033   0.002626  -0.000010   0.015367
    15  H    0.312387   0.011210  -0.000104  -0.001372   0.000008   0.000112
    16  H    0.014698  -0.012912   0.303359   0.029323  -0.000321  -0.000806
    17  H    0.000008   0.024099  -0.000408  -0.031078   0.304181  -0.027140
    18  H    0.000001   0.017293  -0.000055  -0.049009  -0.006196   0.378137
              13         14         15         16         17         18
     1  O    0.002722   0.000677   0.000000  -0.000000  -0.000087   0.024592
     2  C   -0.029336  -0.023429  -0.000139  -0.000048  -0.000383  -0.026592
     3  O    0.294908   0.012145  -0.000051  -0.000000  -0.000001   0.001669
     4  C    0.028426   0.005789   0.005330  -0.000938   0.006349  -0.021363
     5  C   -0.003201   0.378279  -0.018557   0.004264   0.000151   0.015907
     6  C    0.000081  -0.056902  -0.023298  -0.055476  -0.001740   0.003117
     7  O   -0.000001  -0.004502   0.312387   0.014698   0.000008   0.000001
     8  C   -0.000025   0.008161   0.011210  -0.012912   0.024099   0.017293
     9  O   -0.000000  -0.000033  -0.000104   0.303359  -0.000408  -0.000055
    10  C    0.000033   0.002626  -0.001372   0.029323  -0.031078  -0.049009
    11  O   -0.000000  -0.000010   0.000008  -0.000321   0.304181  -0.006196
    12  C   -0.000439   0.015367   0.000112  -0.000806  -0.027140   0.378137
    13  H    0.371888  -0.000345  -0.000000   0.000000  -0.000000  -0.000035
    14  H   -0.000345   0.489772   0.002123  -0.000033   0.000005  -0.000623
    15  H   -0.000000   0.002123   0.385597  -0.000753  -0.000002   0.000007
    16  H    0.000000  -0.000033  -0.000753   0.404713   0.000051   0.000016
    17  H   -0.000000   0.000005  -0.000002   0.000051   0.408782   0.001299
    18  H   -0.000035  -0.000623   0.000007   0.000016   0.001299   0.506434
 Mulliken charges:
               1
     1  O   -0.380026
     2  C    0.174472
     3  O   -0.297496
     4  C   -0.072607
     5  C   -0.155777
     6  C    0.154629
     7  O   -0.310400
     8  C   -0.123767
     9  O   -0.261132
    10  C    0.090327
    11  O   -0.271380
    12  C   -0.166785
    13  H    0.335325
    14  H    0.170934
    15  H    0.327502
    16  H    0.314865
    17  H    0.315914
    18  H    0.155401
 Sum of Mulliken charges =  -0.00000
 Mulliken charges with hydrogens summed into heavy atoms:
               1
     1  O   -0.380026
     2  C    0.174472
     3  O    0.037829
     4  C   -0.072607
     5  C    0.015157
     6  C    0.154629
     7  O    0.017102
     8  C   -0.123767
     9  O    0.053733
    10  C    0.090327
    11  O    0.044535
    12  C   -0.011384
 Electronic spatial extent (au):  <R**2>=           2210.8437
 Charge=             -0.0000 electrons
 Dipole moment (field-independent basis, Debye):
    X=             -0.1077    Y=             -4.0638    Z=              0.4217  Tot=              4.0870
 Quadrupole moment (field-independent basis, Debye-Ang):
   XX=            -73.1904   YY=            -54.2365   ZZ=            -70.5563
   XY=             -3.4740   XZ=              0.8446   YZ=             -0.4327
 Traceless Quadrupole moment (field-independent basis, Debye-Ang):
   XX=             -7.1960   YY=             11.7579   ZZ=             -4.5619
   XY=             -3.4740   XZ=              0.8446   YZ=             -0.4327
 Octapole moment (field-independent basis, Debye-Ang**2):
  XXX=             35.6461  YYY=             -5.9915  ZZZ=              0.2256  XYY=            -11.4796
  XXY=            -64.6126  XXZ=              2.0011  XZZ=              0.2039  YZZ=             -1.0435
  YYZ=              4.1767  XYZ=              1.8842
 Hexadecapole moment (field-independent basis, Debye-Ang**3):
 XXXX=          -1557.5037 YYYY=           -570.6565 ZZZZ=            -70.8025 XXXY=            -91.8436
 XXXZ=             18.4272 YYYX=            -14.7996 YYYZ=             -9.5349 ZZZX=              0.3751
 ZZZY=             -0.5528 XXYY=           -487.2804 XXZZ=           -314.8045 YYZZ=           -153.0452
 XXYZ=              2.8929 YYXZ=             -1.8717 ZZXY=             -0.1347
 N-N= 6.847530432449D+02 E-N=-2.886792132202D+03  KE= 6.443273691878D+02
 No NMR shielding tensors so no spin-rotation constants.
 Leave Link  601 at Mon Feb 22 21:12:31 2021, MaxMem=   104857600 cpu:               4.0 elap:               0.2
 (Enter /sw/arch/RedHatEnterpriseServer7/EB_production/2019/software/Gaussian/g16.c01/l701.exe)
 ... and contract with generalized density number  0.
 Compute integral first derivatives.
 R6Disp: Adding Grimme-D3 dispersion energy 1st derivatives to the gradient.
 PrsmSu:  requested number of processors reduced to:  29 ShMem   1 Linda.
 D1PCM: PCM CHGder 1st derivatives, ID1Alg=3 FixD1E=F DoIter=F DoCFld=F I1PDM=0.
 GePol: Maximum number of non-zero 1st derivatives   =     205
 CoulSu:  requested number of processors reduced to:  29 ShMem   1 Linda.
 CoulSu:  requested number of processors reduced to:  30 ShMem   1 Linda.
 Leave Link  701 at Mon Feb 22 21:12:32 2021, MaxMem=   104857600 cpu:              20.9 elap:               0.7
 (Enter /sw/arch/RedHatEnterpriseServer7/EB_production/2019/software/Gaussian/g16.c01/l702.exe)
 L702 exits ... SP integral derivatives will be done elsewhere.
 Leave Link  702 at Mon Feb 22 21:12:32 2021, MaxMem=   104857600 cpu:               0.5 elap:               0.0
 (Enter /sw/arch/RedHatEnterpriseServer7/EB_production/2019/software/Gaussian/g16.c01/l703.exe)
 Integral derivatives from FoFJK, PRISM(SPDF).
 Compute integral first derivatives, UseDBF=F ICtDFT=           0.
 Calling FoFJK, ICntrl=      2527 FMM=F ISym2X=0 I1Cent= 0 IOpClX= 0 NMat=1 NMatS=1 NMatT=0.
 FoFJK:  IHMeth= 1 ICntrl=    2527 DoSepK=F KAlg= 0 I1Cent=           0 FoldK=F
 IRaf=         0 NMat=       1 IRICut=       1 DoRegI=T DoRafI=F ISym2E= 0 IDoP0=0 IntGTp=1.
 FoFCou: FMM=F IPFlag=           0 FMFlag=      100000 FMFlg1=         800
         NFxFlg=           0 DoJE=F BraDBF=F KetDBF=F FulRan=T
         wScrn=  0.000000 ICntrl=      2527 IOpCl=  0 I1Cent=           0 NGrid=           0
         NMat0=    1 NMatS0=      1 NMatT0=    0 NMatD0=    1 NMtDS0=    0 NMtDT0=    0
 Symmetry not used in FoFCou.
 Leave Link  703 at Mon Feb 22 21:12:34 2021, MaxMem=   104857600 cpu:              65.7 elap:               2.2
 (Enter /sw/arch/RedHatEnterpriseServer7/EB_production/2019/software/Gaussian/g16.c01/l716.exe)
 Dipole        =-4.23876322D-02-1.59880646D+00 1.65919218D-01
 ***** Axes restored to original set *****
 -------------------------------------------------------------------
 Center     Atomic                   Forces (Hartrees/Bohr)
 Number     Number              X              Y              Z
 -------------------------------------------------------------------
      1        8          -0.009747170    0.011480500   -0.004595342
      2        6           0.075224048   -0.048706004    0.016403613
      3        8          -0.049082372    0.011120109    0.001906374
      4        6          -0.037048379    0.029162029   -0.010807059
      5        6           0.030437667    0.042724152   -0.025726574
      6        6           0.027518675   -0.021137391    0.010115570
      7        8          -0.008208048    0.003818407    0.000439858
      8        6          -0.004111544    0.000574622   -0.001006286
      9        8          -0.005394216    0.002332451   -0.001087861
     10        6           0.004014493   -0.022466028    0.012180572
     11        8           0.004073552    0.005441672   -0.003859510
     12        6          -0.057922204    0.002408377    0.002160120
     13        1           0.013627674    0.011387082   -0.009693522
     14        1          -0.029597389   -0.039645257    0.024111807
     15        1          -0.006079783    0.005365049   -0.004571041
     16        1          -0.000353029    0.004990666   -0.001796240
     17        1          -0.002820304    0.006245751   -0.002952760
     18        1           0.055468331   -0.005096188   -0.001221718
 -------------------------------------------------------------------
 Cartesian Forces:  Max     0.075224048 RMS     0.023209706
 Leave Link  716 at Mon Feb 22 21:12:35 2021, MaxMem=   104857600 cpu:               1.0 elap:               0.1
 (Enter /sw/arch/RedHatEnterpriseServer7/EB_production/2019/software/Gaussian/g16.c01/l103.exe)

 GradGradGradGradGradGradGradGradGradGradGradGradGradGradGradGradGradGrad
 Berny optimization.
 FormGI is forming the generalized inverse of G from B-inverse, IUseBI=4.
 Internal  Forces:  Max     0.055679516 RMS     0.013103509
 Search for a local minimum.
 Step number   1 out of a maximum of   89
 All quantities printed in internal units (Hartrees-Bohrs-Radians)
 RMS Force = .13104D-01 SwitMx=.10000D-02 MixMth= 1
 Mixed Optimization -- RFO/linear search
 Second derivative matrix not updated -- first step.
 ITU=  0
     Eigenvalues ---    0.01796   0.01861   0.01897   0.01913   0.01928
     Eigenvalues ---    0.01947   0.01952   0.01969   0.02002   0.02012
     Eigenvalues ---    0.02021   0.02228   0.02238   0.02241   0.02305
     Eigenvalues ---    0.16000   0.16000   0.16000   0.16000   0.16000
     Eigenvalues ---    0.16000   0.23468   0.23480   0.24999   0.25000
     Eigenvalues ---    0.25000   0.25000   0.25000   0.25000   0.25000
     Eigenvalues ---    0.40250   0.40339   0.42139   0.43339   0.43704
     Eigenvalues ---    0.43889   0.43981   0.44038   0.44152   0.51215
     Eigenvalues ---    0.51326   0.51396   0.51404   0.53050   0.53209
     Eigenvalues ---    0.53261   0.54259   0.82014
 RFO step:  Lambda=-3.88703839D-02 EMin= 1.79586749D-02
 Linear search not attempted -- first point.
 Maximum step size (   0.300) exceeded in Quadratic search.
    -- Step size scaled by   0.847
 Iteration  1 RMS(Cart)=  0.05471645 RMS(Int)=  0.00226494
 Iteration  2 RMS(Cart)=  0.00286917 RMS(Int)=  0.00006290
 Iteration  3 RMS(Cart)=  0.00000144 RMS(Int)=  0.00006290
 Iteration  4 RMS(Cart)=  0.00000000 RMS(Int)=  0.00006290
 ITry= 1 IFail=0 DXMaxC= 1.72D-01 DCOld= 1.00D+10 DXMaxT= 3.00D-01 DXLimC= 3.00D+00 Rises=F
 Variable       Old X    -DE/DX   Delta X   Delta X   Delta X     New X
                                 (Linear)    (Quad)   (Total)
    R1        2.36847  -0.01095   0.00000  -0.01079  -0.01079   2.35768
    R2        2.55796  -0.00159   0.00000  -0.00232  -0.00232   2.55565
    R3        2.68746   0.02692   0.00000   0.04952   0.04952   2.73698
    R4        1.85174  -0.00614   0.00000  -0.00941  -0.00941   1.84234
    R5        2.67498  -0.00449   0.00000  -0.00823  -0.00821   2.66677
    R6        2.67427  -0.00667   0.00000  -0.01212  -0.01211   2.66216
    R7        2.66636  -0.01007   0.00000  -0.01787  -0.01786   2.64850
    R8        1.93287   0.05501   0.00000   0.09748   0.09748   2.03035
    R9        2.56759   0.01483   0.00000   0.02199   0.02199   2.58958
   R10        2.66380  -0.00235   0.00000  -0.00402  -0.00403   2.65977
   R11        1.85250  -0.00485   0.00000  -0.00744  -0.00744   1.84507
   R12        2.56907   0.00955   0.00000   0.01420   0.01420   2.58327
   R13        2.66177   0.00015   0.00000   0.00040   0.00038   2.66215
   R14        1.85183  -0.00055   0.00000  -0.00085  -0.00085   1.85098
   R15        2.56711   0.01201   0.00000   0.01779   0.01779   2.58490
   R16        2.66286  -0.00864   0.00000  -0.01521  -0.01522   2.64764
   R17        1.85359  -0.00477   0.00000  -0.00732  -0.00732   1.84626
   R18        1.93109   0.05568   0.00000   0.09836   0.09836   2.02944
    A1        2.02386   0.03341   0.00000   0.09790   0.09790   2.12176
    A2        2.13285   0.00664   0.00000   0.01945   0.01945   2.15230
    A3        2.12648  -0.04004   0.00000  -0.11735  -0.11735   2.00912
    A4        2.09273  -0.03570   0.00000  -0.15197  -0.15197   1.94075
    A5        2.11443  -0.00022   0.00000  -0.00070  -0.00072   2.11372
    A6        2.11183  -0.00799   0.00000  -0.02345  -0.02347   2.08837
    A7        2.05692   0.00821   0.00000   0.02415   0.02418   2.08110
    A8        2.11779  -0.00597   0.00000  -0.01920  -0.01917   2.09862
    A9        2.09827   0.00133   0.00000   0.00255   0.00253   2.10080
   A10        2.06712   0.00464   0.00000   0.01664   0.01663   2.08375
   A11        2.09957   0.01760   0.00000   0.05121   0.05119   2.15076
   A12        2.09103   0.00284   0.00000   0.00911   0.00909   2.10013
   A13        2.09258  -0.02045   0.00000  -0.06030  -0.06031   2.03227
   A14        1.84388   0.01467   0.00000   0.06243   0.06243   1.90632
   A15        2.10955   0.00317   0.00000   0.00876   0.00878   2.11833
   A16        2.08953  -0.00128   0.00000  -0.00272  -0.00275   2.08678
   A17        2.08410  -0.00189   0.00000  -0.00605  -0.00604   2.07806
   A18        1.84744   0.00967   0.00000   0.04116   0.04116   1.88860
   A19        2.09284  -0.01370   0.00000  -0.04056  -0.04055   2.05230
   A20        2.09352   0.00043   0.00000   0.00210   0.00207   2.09559
   A21        2.09681   0.01327   0.00000   0.03846   0.03847   2.13528
   A22        1.84935   0.01065   0.00000   0.04535   0.04535   1.89470
   A23        2.11744  -0.00422   0.00000  -0.01340  -0.01339   2.10405
   A24        2.09541   0.00022   0.00000  -0.00136  -0.00137   2.09405
   A25        2.07033   0.00401   0.00000   0.01476   0.01476   2.08509
    D1        0.00653  -0.00031   0.00000  -0.00423  -0.00421   0.00232
    D2       -3.13519  -0.00037   0.00000  -0.00507  -0.00508  -3.14027
    D3        3.05326   0.00026   0.00000   0.00384   0.00385   3.05710
    D4       -0.08960   0.00048   0.00000   0.00721   0.00722  -0.08238
    D5       -0.08820   0.00032   0.00000   0.00473   0.00473  -0.08347
    D6        3.05213   0.00054   0.00000   0.00810   0.00810   3.06023
    D7       -3.13879   0.00001   0.00000   0.00014   0.00016  -3.13863
    D8       -0.00225  -0.00001   0.00000  -0.00025  -0.00028  -0.00253
    D9        0.00403  -0.00020   0.00000  -0.00310  -0.00316   0.00087
   D10        3.14057  -0.00022   0.00000  -0.00348  -0.00360   3.13697
   D11        3.13487  -0.00002   0.00000  -0.00034  -0.00035   3.13452
   D12       -0.01070   0.00001   0.00000   0.00025   0.00024  -0.01046
   D13       -0.00795   0.00019   0.00000   0.00291   0.00294  -0.00500
   D14        3.12967   0.00022   0.00000   0.00349   0.00353   3.13320
   D15       -3.13074  -0.00057   0.00000  -0.00848  -0.00876  -3.13950
   D16        0.00911   0.00005   0.00000   0.00055   0.00056   0.00967
   D17        0.01581  -0.00054   0.00000  -0.00806  -0.00828   0.00753
   D18       -3.12752   0.00008   0.00000   0.00096   0.00103  -3.12648
   D19        0.18931  -0.00020   0.00000  -0.00267  -0.00271   0.18660
   D20       -2.95055  -0.00085   0.00000  -0.01178  -0.01175  -2.96230
   D21        3.12629   0.00036   0.00000   0.00553   0.00560   3.13189
   D22       -0.01844   0.00016   0.00000   0.00242   0.00243  -0.01601
   D23       -0.01703   0.00102   0.00000   0.01463   0.01441  -0.00262
   D24        3.12142   0.00082   0.00000   0.01152   0.01124   3.13266
   D25       -0.03597   0.00062   0.00000   0.00841   0.00838  -0.02759
   D26        3.10875   0.00082   0.00000   0.01150   0.01153   3.12027
   D27       -3.12261  -0.00021   0.00000  -0.00249  -0.00250  -3.12511
   D28        0.01462  -0.00020   0.00000  -0.00273  -0.00277   0.01186
   D29        0.01589  -0.00041   0.00000  -0.00553  -0.00557   0.01033
   D30       -3.13006  -0.00039   0.00000  -0.00576  -0.00584  -3.13590
   D31       -3.12347  -0.00011   0.00000  -0.00151  -0.00154  -3.12501
   D32        0.02249  -0.00009   0.00000  -0.00119  -0.00116   0.02133
   D33       -0.00130  -0.00003   0.00000  -0.00013  -0.00008  -0.00138
   D34       -3.13898  -0.00005   0.00000  -0.00067  -0.00063  -3.13961
   D35        3.13592  -0.00008   0.00000  -0.00056  -0.00057   3.13535
   D36       -0.00176  -0.00010   0.00000  -0.00110  -0.00112  -0.00287
         Item               Value     Threshold  Converged?
 Maximum Force            0.055680     0.000450     NO 
 RMS     Force            0.013104     0.000300     NO 
 Maximum Displacement     0.171994     0.001800     NO 
 RMS     Displacement     0.055451     0.001200     NO 
 Predicted change in Energy=-2.074994D-02
 Lowest energy point so far.  Saving SCF results.
 GradGradGradGradGradGradGradGradGradGradGradGradGradGradGradGradGradGrad

 Leave Link  103 at Mon Feb 22 21:12:35 2021, MaxMem=   104857600 cpu:               1.5 elap:               0.1
 (Enter /sw/arch/RedHatEnterpriseServer7/EB_production/2019/software/Gaussian/g16.c01/l202.exe)
                          Input orientation:                          
 ---------------------------------------------------------------------
 Center     Atomic      Atomic             Coordinates (Angstroms)
 Number     Number       Type             X           Y           Z
 ---------------------------------------------------------------------
      1          8           0        1.839727   -0.348413    0.470445
      2          6           0        0.610110   -0.160575    0.567095
      3          8           0       -0.189498   -1.030750    1.224651
      4          6           0       -0.067170    0.984496   -0.005452
      5          6           0       -1.472733    1.100194    0.044302
      6          6           0       -2.109661    2.214461   -0.518728
      7          8           0       -3.468615    2.390124   -0.503061
      8          6           0       -1.354765    3.221641   -1.148601
      9          8           0       -1.954683    4.311817   -1.714577
     10          6           0        0.049080    3.112926   -1.193104
     11          8           0        0.743920    4.124214   -1.797724
     12          6           0        0.685409    2.001123   -0.625676
     13          1           0        0.323595   -1.776471    1.586740
     14          1           0       -2.064724    0.333476    0.509127
     15          1           0       -3.871405    1.728895    0.091774
     16          1           0       -2.923956    4.216057   -1.610892
     17          1           0        1.696307    3.908365   -1.767736
     18          1           0        1.756252    1.928989   -0.663463
 ---------------------------------------------------------------------
                    Distance matrix (angstroms):
                    1          2          3          4          5
     1  O    0.000000
     2  C    1.247630   0.000000
     3  O    2.269838   1.352390   0.000000
     4  C    2.374738   1.448346   2.364177   0.000000
     5  C    3.640392   2.490198   2.753332   1.411195   0.000000
     6  C    4.810869   3.770539   4.154250   2.438860   1.401525
     7  O    6.051924   4.928214   5.043805   3.713924   2.438661
     8  C    5.056815   4.271268   5.007295   2.823032   2.436693
     9  O    6.394498   5.637949   6.348067   4.189854   3.693298
    10  C    4.237296   3.758838   4.803385   2.440132   2.810370
    11  O    5.133203   4.895885   6.048113   3.705122   4.177476
    12  C    2.838001   2.470083   3.658063   1.408752   2.432719
    13  H    2.363074   1.932068   0.974922   3.211030   3.725736
    14  H    3.963737   2.720696   2.426841   2.163063   1.074417
    15  H    6.088976   4.886718   4.738723   3.877601   2.480150
    16  H    6.918022   6.032259   6.560986   4.602352   3.815012
    17  H    4.811464   4.815343   6.074990   3.842461   4.605662
    18  H    2.545443   2.682199   4.013848   2.156366   3.407958
                    6          7          8          9         10
     6  C    0.000000
     7  O    1.370349   0.000000
     8  C    1.407487   2.361462   0.000000
     9  O    2.419292   2.729957   1.367008   0.000000
    10  C    2.433554   3.656881   1.408752   2.392559   0.000000
    11  O    3.664138   4.735892   2.374969   2.706393   1.367871
    12  C    2.805239   4.173999   2.434220   3.673567   1.401069
    13  H    5.126526   6.009046   5.939706   7.290850   5.631083
    14  H    2.143971   2.687979   3.404938   4.558965   3.884726
    15  H    1.926715   0.976366   3.178097   3.688931   4.351627
    16  H    2.421215   2.204081   1.914402   0.979495   3.198498
    17  H    4.349106   5.529998   3.188096   3.673598   1.917363
    18  H    3.879140   5.247628   3.403635   4.533623   2.143982
                   11         12         13         14         15
    11  O    0.000000
    12  C    2.425827   0.000000
    13  H    6.815376   4.392711   0.000000
    14  H    5.251641   3.410580   3.364104   0.000000
    15  H    5.532538   4.620974   5.667499   2.320663   0.000000
    16  H    3.673779   4.347884   7.528733   4.506350   3.159542
    17  H    0.977001   2.442087   6.741974   5.666506   6.261572
    18  H    2.670276   1.073935   4.565781   4.303544   5.681632
                   16         17         18
    16  H    0.000000
    17  H    4.633152   0.000000
    18  H    5.294586   2.267364   0.000000
 Stoichiometry    C7H6O5
 Framework group  C1[X(C7H6O5)]
 Deg. of freedom    48
 Full point group                 C1      NOp   1
 RotChk:  IX=0 Diff= 1.01D-02
 Largest Abelian subgroup         C1      NOp   1
 Largest concise Abelian subgroup C1      NOp   1
                         Standard orientation:                         
 ---------------------------------------------------------------------
 Center     Atomic      Atomic             Coordinates (Angstroms)
 Number     Number       Type             X           Y           Z
 ---------------------------------------------------------------------
      1          8           0        3.173159    1.153904   -0.084674
      2          6           0        2.520861    0.093104   -0.008559
      3          8           0        3.132925   -1.110073    0.073299
      4          6           0        1.073230    0.048084   -0.001942
      5          6           0        0.381987   -1.182141   -0.016043
      6          6           0       -1.019356   -1.204513   -0.012927
      7          8           0       -1.751935   -2.362560   -0.023601
      8          6           0       -1.749367   -0.001154   -0.007468
      9          8           0       -3.116347    0.001966   -0.015675
     10          6           0       -1.062321    1.228507    0.014466
     11          8           0       -1.811759    2.372540    0.039011
     12          6           0        0.338583    1.249975    0.016326
     13          1           0        4.103005   -1.013345    0.065456
     14          1           0        0.924092   -2.109588   -0.034347
     15          1           0       -1.157788   -3.120321    0.137889
     16          1           0       -3.424337   -0.927184   -0.050810
     17          1           0       -1.207469    3.140238    0.036819
     18          1           0        0.852458    2.192801    0.034988
 ---------------------------------------------------------------------
 Rotational constants (GHZ):           1.5659406           0.6611461           0.4651137
 Leave Link  202 at Mon Feb 22 21:12:35 2021, MaxMem=   104857600 cpu:               0.7 elap:               0.1
 (Enter /sw/arch/RedHatEnterpriseServer7/EB_production/2019/software/Gaussian/g16.c01/l301.exe)
 Standard basis: TZVP (5D, 7F)
 Ernie: Thresh=  0.10000D-02 Tol=  0.10000D-05 Strict=F.
 There are   276 symmetry adapted cartesian basis functions of A   symmetry.
 There are   264 symmetry adapted basis functions of A   symmetry.
   264 basis functions,   468 primitive gaussians,   276 cartesian basis functions
    44 alpha electrons       44 beta electrons
       nuclear repulsion energy       685.0241102050 Hartrees.
 IExCor=  404 DFT=T Ex=B Corr=P86 ExCW=0 ScaHFX=  0.000000
 ScaDFX=  1.000000  1.000000  1.000000  1.000000 ScalE2=  1.000000  1.000000
 IRadAn=      5 IRanWt=     -1 IRanGd=            0 ICorTp=0 IEmpDi=131
 NAtoms=   18 NActive=   18 NUniq=   18 SFac= 1.00D+00 NAtFMM=   60 NAOKFM=F Big=F
 Integral buffers will be    131072 words long.
 Raffenetti 2 integral format.
 Two-electron integral symmetry is turned on.
 R6Disp:  Grimme-D3 Dispersion energy=       -0.0156460177 Hartrees.
 Nuclear repulsion after empirical dispersion term =      685.0084641874 Hartrees.
 ------------------------------------------------------------------------------
 Polarizable Continuum Model (PCM)
 =================================
 Model                : PCM.
 Atomic radii         : UFF (Universal Force Field).
 Polarization charges : Total charges.
 Charge compensation  : None.
 Solution method      : On-the-fly selection.
 Cavity type          : Scaled VdW (van der Waals Surface) (Alpha=1.100).
 Cavity algorithm     : GePol (No added spheres)
                        Default sphere list used, NSphG=   18.
                        Lebedev-Laikov grids with approx.  5.0 points / Ang**2.
                        Smoothing algorithm: York/Karplus (Gamma=1.0000).
                        Polarization charges: spherical gaussians, with
                                              point-specific exponents (IZeta= 3).
                        Self-potential: point-specific (ISelfS= 7).
                        Self-field    : sphere-specific E.n sum rule (ISelfD= 2).
 1st derivatives      : Analytical E(r).r(x)/FMM algorithm (CHGder, D1EAlg=3).
                        Cavity 1st derivative terms included.
 Solvent              : Water, Eps=  78.355300 Eps(inf)=   1.777849
 ------------------------------------------------------------------------------
 Spheres list:
 ISph  on   Nord     Re0    Alpha      Xe            Ye            Ze
    1   O      1    1.7500  1.100      3.173159      1.153904     -0.084674
    2   C      2    1.9255  1.100      2.520861      0.093104     -0.008559
    3   O      3    1.7500  1.100      3.132925     -1.110073      0.073299
    4   C      4    1.9255  1.100      1.073230      0.048084     -0.001942
    5   C      5    1.9255  1.100      0.381987     -1.182141     -0.016043
    6   C      6    1.9255  1.100     -1.019356     -1.204513     -0.012927
    7   O      7    1.7500  1.100     -1.751935     -2.362560     -0.023601
    8   C      8    1.9255  1.100     -1.749367     -0.001154     -0.007468
    9   O      9    1.7500  1.100     -3.116347      0.001966     -0.015675
   10   C     10    1.9255  1.100     -1.062321      1.228507      0.014466
   11   O     11    1.7500  1.100     -1.811759      2.372540      0.039011
   12   C     12    1.9255  1.100      0.338583      1.249975      0.016326
   13   H     13    1.4430  1.100      4.103005     -1.013345      0.065456
   14   H     14    1.4430  1.100      0.924092     -2.109588     -0.034347
   15   H     15    1.4430  1.100     -1.157788     -3.120321      0.137889
   16   H     16    1.4430  1.100     -3.424337     -0.927184     -0.050810
   17   H     17    1.4430  1.100     -1.207469      3.140238      0.036819
   18   H     18    1.4430  1.100      0.852458      2.192801      0.034988
 ------------------------------------------------------------------------------
 GePol: Number of generator spheres                  =      18
 GePol: Total number of spheres                      =      18
 GePol: Number of exposed spheres                    =      18 (100.00%)
 GePol: Number of points                             =    1612
 GePol: Average weight of points                     =       0.13
 GePol: Minimum weight of points                     =   0.19D-07
 GePol: Maximum weight of points                     =    0.20577
 GePol: Number of points with low weight             =      69
 GePol: Fraction of low-weight points (<1% of avg)   =       4.28%
 GePol: Cavity surface area                          =    209.965 Ang**2
 GePol: Cavity volume                                =    211.886 Ang**3
 Leave Link  301 at Mon Feb 22 21:12:35 2021, MaxMem=   104857600 cpu:               1.8 elap:               0.1
 (Enter /sw/arch/RedHatEnterpriseServer7/EB_production/2019/software/Gaussian/g16.c01/l302.exe)
 NPDir=0 NMtPBC=     1 NCelOv=     1 NCel=       1 NClECP=     1 NCelD=      1
         NCelK=      1 NCelE2=     1 NClLst=     1 CellRange=     0.0.
 One-electron integrals computed using PRISM.
[...]
                        Polarization charges: point-like.
                        Self-potential: constant (ISelfS= 1).
                        Self-field    : global E.n sum rule (ISelfD= 3).
 Solvent              : Water, Eps=  78.355300 Eps(inf)=   1.777849
 ------------------------------------------------------------------------------
 Spheres list:
 ISph  on   Nord     Re0    Alpha      Xe            Ye            Ze
    1   O      1    1.7200  1.000      3.196207      1.143051      0.002481
    2   C      2    2.0000  1.000      2.541362      0.104372      0.000216
    3   O      3    1.7200  1.000      3.137954     -1.126310     -0.002531
    4   C      4    2.0000  1.000      1.062429      0.031694      0.000175
    5   C      5    2.0000  1.000      0.379550     -1.199092      0.000353
    6   C      6    2.0000  1.000     -1.013434     -1.200338      0.000317
    7   O      7    1.7200  1.000     -1.800337     -2.330376      0.000385
    8   C      8    2.0000  1.000     -1.743854      0.006526     -0.000102
    9   O      9    1.7200  1.000     -3.108570      0.008262     -0.000271
   10   C     10    2.0000  1.000     -1.050998      1.234280     -0.000313
   11   O     11    1.7200  1.000     -1.819918      2.370904     -0.000957
   12   C     12    2.0000  1.000      0.344936      1.240724     -0.000450
   13   H     13    1.3000  1.000      4.106001     -0.972725     -0.001463
   14   H     14    1.3000  1.000      0.929285     -2.140576      0.000640
   15   H     15    1.3000  1.000     -1.247468     -3.132692      0.003491
   16   H     16    1.3000  1.000     -3.405668     -0.925195      0.002433
   17   H     17    1.3000  1.000     -1.235185      3.151458      0.001477
   18   H     18    1.3000  1.000      0.890415      2.186484     -0.000612
 ------------------------------------------------------------------------------
 One-electron integrals computed using PRISM.
 PrsmSu:  requested number of processors reduced to:  28 ShMem   1 Linda.
 NBasis=   264 RedAO= T EigKep=  9.92D-06  NBF=   264
 NBsUse=   264 1.00D-06 EigRej= -1.00D+00 NBFU=   264
 Initial guess from the checkpoint file:  "LNTHITQWFMADLM-UHFFFAOYSA-N.chk"
 B after Tr=    -0.000000   -0.000000   -0.000000
         Rot=    1.000000    0.000000    0.000000   -0.000000 Ang=   0.00 deg.
 Requested convergence on RMS density matrix=1.00D-08 within 128 cycles.
 Requested convergence on MAX density matrix=1.00D-06.
 Requested convergence on             energy=1.00D-06.
 No special actions if energy rises.
 Inv3:  Mode=1 IEnd=     5227200.
 Iteration    1 A*A^-1 deviation from unit magnitude is 4.26D-14 for   1089.
 Iteration    1 A*A^-1 deviation from orthogonality  is 1.42D-14 for   1089    450.
 Iteration    1 A^-1*A deviation from unit magnitude is 2.49D-14 for   1089.
 Iteration    1 A^-1*A deviation from orthogonality  is 1.24D-14 for   1089   1073.
 Error on nuclear    polarization charges =  0.02501
 Error on electronic polarization charges = -0.04998
 SCF Done:  E(RB-P86) =  -646.770418961     A.U. after   12 cycles
            NFock= 12  Conv=0.27D-08     -V/T= 2.0041
 --------------------------------------------------------------------
 Variational C-PCM results
 =========================
 <psi(f)|   H    |psi(f)>                     (a.u.) =    -646.735103
 <psi(f)|H+V(f)/2|psi(f)>                     (a.u.) =    -646.770419
 Total free energy in solution:
 - with all non electrostatic terms           (a.u.) =    -646.758865
 --------------------------------------------------------------------
 (Polarized solute)-Solvent               (kcal/mol) =     -22.16
 --------------------------------------------------------------------
 Cavitation energy                        (kcal/mol) =      23.46
 Dispersion energy                        (kcal/mol) =     -17.63
 Repulsion energy                         (kcal/mol) =       1.42
 Total non electrostatic                  (kcal/mol) =       7.25
 --------------------------------------------------------------------
 Partition over spheres:
 Sphere  on Atom  Surface  Charge   GEl     GCav    GDR
    1      O1      19.32   0.241   -3.91    2.40   -1.64
    2      C2      10.60  -0.023   -0.05    1.24   -0.79
    3      O3      14.46   0.078   -0.49    1.80   -1.26
    4      C4       5.74   0.016   -0.08    0.67   -0.36
    5      C5      12.14   0.013   -0.43    1.43   -0.95
    6      C6       7.92   0.002   -0.10    0.93   -0.58
    7      O7      14.22   0.076   -0.18    1.77   -1.34
    8      C8       7.94  -0.001   -0.06    0.93   -0.59
    9      O9      15.65   0.112   -2.05    1.94   -1.48
   10      C10      7.92   0.006   -0.10    0.93   -0.58
   11      O11     15.52   0.119   -2.14    1.93   -1.42
   12      C12     12.07   0.014   -0.40    1.42   -0.95
   13      H13      8.39  -0.148   -2.55    1.18   -0.90
   14      H14      5.77  -0.046   -0.66    0.81   -0.51
   15      H15      8.31  -0.155   -4.18    1.17   -0.88
   16      H16      6.43  -0.111   -1.55    0.91   -0.62
   17      H17      8.14  -0.148   -2.90    1.15   -0.85
   18      H18      5.95  -0.045   -0.32    0.84   -0.51
 --------------------------------------------------------------------
 - cavitation energy not included in the total energy.
 - dispersion energy not included in the total energy.
 - repulsion  energy not included in the total energy.
 After PCM corrections, the energy is  -646.770418961     a.u.
 --------------------------------------------------------------------
 Writing COSMO formatted file "LNTHITQWFMADLM-UHFFFAOYSA-N.cosmo"
 Recomputed dielectric energy= -0.035412 old= -0.035316 diff=-9.56D-05

 **********************************************************************

            Population analysis using the SCF Density.

 **********************************************************************

 Orbital symmetries:
       Occupied  (A) (A) (A) (A) (A) (A) (A) (A) (A) (A) (A) (A)
                 (A) (A) (A) (A) (A) (A) (A) (A) (A) (A) (A) (A)
                 (A) (A) (A) (A) (A) (A) (A) (A) (A) (A) (A) (A)
                 (A) (A) (A) (A) (A) (A) (A) (A)
       Virtual   (A) (A) (A) (A) (A) (A) (A) (A) (A) (A) (A) (A)
                 (A) (A) (A) (A) (A) (A) (A) (A) (A) (A) (A) (A)
                 (A) (A) (A) (A) (A) (A) (A) (A) (A) (A) (A) (A)
                 (A) (A) (A) (A) (A) (A) (A) (A) (A) (A) (A) (A)
                 (A) (A) (A) (A) (A) (A) (A) (A) (A) (A) (A) (A)
                 (A) (A) (A) (A) (A) (A) (A) (A) (A) (A) (A) (A)
                 (A) (A) (A) (A) (A) (A) (A) (A) (A) (A) (A) (A)
                 (A) (A) (A) (A) (A) (A) (A) (A) (A) (A) (A) (A)
                 (A) (A) (A) (A) (A) (A) (A) (A) (A) (A) (A) (A)
                 (A) (A) (A) (A) (A) (A) (A) (A) (A) (A) (A) (A)
                 (A) (A) (A) (A) (A) (A) (A) (A) (A) (A) (A) (A)
                 (A) (A) (A) (A) (A) (A) (A) (A) (A) (A) (A) (A)
                 (A) (A) (A) (A) (A) (A) (A) (A) (A) (A) (A) (A)
                 (A) (A) (A) (A) (A) (A) (A) (A) (A) (A) (A) (A)
                 (A) (A) (A) (A) (A) (A) (A) (A) (A) (A) (A) (A)
                 (A) (A) (A) (A) (A) (A) (A) (A) (A) (A) (A) (A)
                 (A) (A) (A) (A) (A) (A) (A) (A) (A) (A) (A) (A)
                 (A) (A) (A) (A) (A) (A) (A) (A) (A) (A) (A) (A)
                 (A) (A) (A) (A)
 The electronic state is 1-A.
 Alpha  occ. eigenvalues --  -18.81896 -18.81604 -18.81505 -18.81000 -18.76693
 Alpha  occ. eigenvalues --  -10.03384  -9.97556  -9.97493  -9.97454  -9.92687
 Alpha  occ. eigenvalues --   -9.91429  -9.91277  -1.02036  -1.00581  -0.98555
 Alpha  occ. eigenvalues --   -0.97275  -0.93674  -0.79360  -0.70615  -0.68648
 Alpha  occ. eigenvalues --   -0.61852  -0.60079  -0.55054  -0.52592  -0.50862
 Alpha  occ. eigenvalues --   -0.47787  -0.45272  -0.44428  -0.43550  -0.41611
 Alpha  occ. eigenvalues --   -0.40249  -0.40190  -0.37234  -0.36756  -0.35706
 Alpha  occ. eigenvalues --   -0.34666  -0.33320  -0.32981  -0.32933  -0.29673
 Alpha  occ. eigenvalues --   -0.28851  -0.25084  -0.21277  -0.20416
 Alpha virt. eigenvalues --   -0.08731  -0.03639   0.00167   0.01357   0.02825
 Alpha virt. eigenvalues --    0.03535   0.05169   0.08108   0.08873   0.09498
 Alpha virt. eigenvalues --    0.10993   0.12888   0.13773   0.14749   0.16748
 Alpha virt. eigenvalues --    0.17268   0.18161   0.19434   0.20641   0.21270
 Alpha virt. eigenvalues --    0.22413   0.22667   0.23203   0.23826   0.26208
 Alpha virt. eigenvalues --    0.26590   0.27806   0.28172   0.28486   0.29342
 Alpha virt. eigenvalues --    0.29606   0.30630   0.32514   0.32820   0.34222
 Alpha virt. eigenvalues --    0.35688   0.36084   0.36485   0.38220   0.38723
 Alpha virt. eigenvalues --    0.40179   0.41407   0.42333   0.43716   0.43739
 Alpha virt. eigenvalues --    0.44465   0.45068   0.45791   0.46179   0.48946
 Alpha virt. eigenvalues --    0.50017   0.52546   0.52808   0.55433   0.56285
 Alpha virt. eigenvalues --    0.57007   0.57506   0.57751   0.60246   0.60442
 Alpha virt. eigenvalues --    0.63327   0.63807   0.64905   0.68920   0.69334
 Alpha virt. eigenvalues --    0.71030   0.72976   0.73980   0.78081   0.79681
 Alpha virt. eigenvalues --    0.82784   0.84282   0.86760   0.90913   0.92636
 Alpha virt. eigenvalues --    0.94294   1.10915   1.14326   1.18391   1.18892
 Alpha virt. eigenvalues --    1.19721   1.22137   1.24041   1.25277   1.27976
 Alpha virt. eigenvalues --    1.28967   1.29885   1.31056   1.31930   1.32741
 Alpha virt. eigenvalues --    1.33706   1.34245   1.35073   1.35631   1.36117
 Alpha virt. eigenvalues --    1.38464   1.39059   1.40614   1.41248   1.41563
 Alpha virt. eigenvalues --    1.42812   1.43293   1.45263   1.46038   1.47254
 Alpha virt. eigenvalues --    1.48011   1.49005   1.50793   1.52202   1.54428
 Alpha virt. eigenvalues --    1.58922   1.63226   1.66157   1.69457   1.70689
 Alpha virt. eigenvalues --    1.73992   1.77705   1.81351   1.81899   1.83471
 Alpha virt. eigenvalues --    1.84425   1.84652   1.89704   1.91519   1.94390
 Alpha virt. eigenvalues --    1.94726   1.95476   2.02090   2.06120   2.07277
 Alpha virt. eigenvalues --    2.07610   2.08188   2.10975   2.11587   2.14634
 Alpha virt. eigenvalues --    2.16126   2.17442   2.19233   2.19326   2.21685
 Alpha virt. eigenvalues --    2.22337   2.23716   2.24231   2.28092   2.32658
 Alpha virt. eigenvalues --    2.37091   2.38132   2.42355   2.45030   2.46908
 Alpha virt. eigenvalues --    2.47369   2.48420   2.48647   2.53074   2.54005
 Alpha virt. eigenvalues --    2.55348   2.57968   2.58347   2.58684   2.58909
 Alpha virt. eigenvalues --    2.61056   2.62475   2.63822   2.67205   2.70880
 Alpha virt. eigenvalues --    2.72285   2.77232   2.79014   2.80055   2.80823
 Alpha virt. eigenvalues --    2.84042   2.85016   2.85145   2.86575   2.88384
 Alpha virt. eigenvalues --    2.89731   2.91014   2.93951   2.95614   2.97526
 Alpha virt. eigenvalues --    2.98589   3.01029   3.03622   3.04488   3.06048
 Alpha virt. eigenvalues --    3.07741   3.09921   3.10709   3.12322   3.14714
 Alpha virt. eigenvalues --    3.16887   3.21304   3.22342   3.24990   3.26221
 Alpha virt. eigenvalues --    3.34103   3.34895   3.45798   3.50286   3.75468
 Alpha virt. eigenvalues --    3.82031   3.88423   4.03402   4.10226   4.14216
 Alpha virt. eigenvalues --    4.17600   4.20747   4.25876  21.07975  21.56962
 Alpha virt. eigenvalues --   21.61529  21.77698  21.82792  21.86325  21.94942
 Alpha virt. eigenvalues --   43.05600  43.09313  43.14985  43.17499  43.29593
          Condensed to atoms (all electrons):
               1          2          3          4          5          6
     1  O    7.973953   0.643535  -0.101004  -0.203625   0.012118  -0.001245
     2  C    0.643535   5.038084   0.380064  -0.112146  -0.025238   0.003725
     3  O   -0.101004   0.380064   7.890035  -0.226170   0.023823  -0.000475
     4  C   -0.203625  -0.112146  -0.226170   6.267834   0.107663   0.073490
     5  C    0.012118  -0.025238   0.023823   0.107663   5.814448   0.085706
     6  C   -0.001245   0.003725  -0.000475   0.073490   0.085706   5.734432
     7  O    0.000001   0.000017  -0.000012   0.013675  -0.100629   0.363699
     8  C    0.000787   0.004912   0.001170   0.006059  -0.060041   0.154064
     9  O   -0.000000   0.000042  -0.000000  -0.001965   0.013424  -0.121084
    10  C    0.005819   0.014819  -0.000485   0.044377  -0.043730  -0.243507
    11  O   -0.000004  -0.000392   0.000001   0.016871   0.000777   0.006782
    12  C    0.020977  -0.066382   0.014185   0.161494  -0.149251  -0.021225
    13  H    0.001999  -0.020873   0.288337   0.025975  -0.002788   0.000064
    14  H    0.000569  -0.018601   0.015122  -0.025499   0.391825  -0.040315
    15  H    0.000000  -0.000097  -0.000037   0.003038  -0.013226  -0.026095
    16  H   -0.000000  -0.000031  -0.000000  -0.000891   0.004288  -0.047360
    17  H   -0.000045  -0.000294  -0.000000   0.003423   0.000513  -0.001934
    18  H    0.020477  -0.027202   0.001270  -0.037025   0.012568   0.000432
               7          8          9         10         11         12
     1  O    0.000001   0.000787  -0.000000   0.005819  -0.000004   0.020977
     2  C    0.000017   0.004912   0.000042   0.014819  -0.000392  -0.066382
     3  O   -0.000012   0.001170  -0.000000  -0.000485   0.000001   0.014185
     4  C    0.013675   0.006059  -0.001965   0.044377   0.016871   0.161494
     5  C   -0.100629  -0.060041   0.013424  -0.043730   0.000777  -0.149251
     6  C    0.363699   0.154064  -0.121084  -0.243507   0.006782  -0.021225
     7  O    7.842926  -0.106599   0.002883   0.008285  -0.000040   0.001184
     8  C   -0.106599   5.657985   0.439003   0.267298  -0.115913  -0.244190
     9  O    0.002883   0.439003   7.751044  -0.114366   0.014154   0.005294
    10  C    0.008285   0.267298  -0.114366   5.374064   0.411225   0.298432
    11  O   -0.000040  -0.115913   0.014154   0.411225   7.783769  -0.107798
    12  C    0.001184  -0.244190   0.005294   0.298432  -0.107798   5.831614
    13  H   -0.000001  -0.000038  -0.000000   0.000059  -0.000000  -0.000909
    14  H   -0.003097   0.009551  -0.000060   0.000382  -0.000002   0.011065
    15  H    0.314479   0.013118   0.000084  -0.001087   0.000009   0.000152
    16  H    0.018321  -0.018348   0.305798   0.025225  -0.000277  -0.000855
    17  H    0.000009   0.023576  -0.000303  -0.032958   0.307984  -0.022136
    18  H    0.000004   0.016515  -0.000085  -0.031945  -0.004216   0.384702
              13         14         15         16         17         18
     1  O    0.001999   0.000569   0.000000  -0.000000  -0.000045   0.020477
     2  C   -0.020873  -0.018601  -0.000097  -0.000031  -0.000294  -0.027202
     3  O    0.288337   0.015122  -0.000037  -0.000000  -0.000000   0.001270
     4  C    0.025975  -0.025499   0.003038  -0.000891   0.003423  -0.037025
     5  C   -0.002788   0.391825  -0.013226   0.004288   0.000513   0.012568
     6  C    0.000064  -0.040315  -0.026095  -0.047360  -0.001934   0.000432
     7  O   -0.000001  -0.003097   0.314479   0.018321   0.000009   0.000004
     8  C   -0.000038   0.009551   0.013118  -0.018348   0.023576   0.016515
     9  O   -0.000000  -0.000060   0.000084   0.305798  -0.000303  -0.000085
    10  C    0.000059   0.000382  -0.001087   0.025225  -0.032958  -0.031945
    11  O   -0.000000  -0.000002   0.000009  -0.000277   0.307984  -0.004216
    12  C   -0.000909   0.011065   0.000152  -0.000855  -0.022136   0.384702
    13  H    0.377048  -0.000460  -0.000000  -0.000000  -0.000000  -0.000062
    14  H   -0.000460   0.480920   0.002037  -0.000035   0.000002  -0.000269
    15  H   -0.000000   0.002037   0.361016  -0.000782  -0.000002   0.000001
    16  H   -0.000000  -0.000035  -0.000782   0.381846   0.000045   0.000015
    17  H   -0.000000   0.000002  -0.000002   0.000045   0.383065   0.001948
    18  H   -0.000062  -0.000269   0.000001   0.000015   0.001948   0.497803
 Mulliken charges:
               1
     1  O   -0.374313
     2  C    0.186058
     3  O   -0.285824
     4  C   -0.116579
     5  C   -0.072251
     6  C    0.080847
     7  O   -0.355105
     8  C   -0.048909
     9  O   -0.293863
    10  C    0.018094
    11  O   -0.312931
    12  C   -0.116351
    13  H    0.331648
    14  H    0.176866
    15  H    0.347391
    16  H    0.333042
    17  H    0.337109
    18  H    0.165071
 Sum of Mulliken charges =  -0.00000
 Mulliken charges with hydrogens summed into heavy atoms:
               1
     1  O   -0.374313
     2  C    0.186058
     3  O    0.045824
     4  C   -0.116579
     5  C    0.104615
     6  C    0.080847
     7  O   -0.007714
     8  C   -0.048909
     9  O    0.039179
    10  C    0.018094
    11  O    0.024178
    12  C    0.048720
 Electronic spatial extent (au):  <R**2>=           2206.8713
 Charge=              0.0000 electrons
 Dipole moment (field-independent basis, Debye):
    X=              0.3246    Y=             -4.0924    Z=              0.0142  Tot=              4.1053
 Quadrupole moment (field-independent basis, Debye-Ang):
   XX=            -73.8089   YY=            -51.1156   ZZ=            -70.9184
   XY=             -1.6724   XZ=             -0.0444   YZ=             -0.0288
 Traceless Quadrupole moment (field-independent basis, Debye-Ang):
   XX=             -8.5279   YY=             14.1654   ZZ=             -5.6375
   XY=             -1.6724   XZ=             -0.0444   YZ=             -0.0288
 Octapole moment (field-independent basis, Debye-Ang**2):
  XXX=             32.7813  YYY=             -8.6553  ZZZ=              0.0066  XYY=            -18.3705
  XXY=            -63.5989  XXZ=              0.0328  XZZ=              0.6067  YZZ=             -0.7682
  YYZ=              0.1263  XYZ=             -0.0166
 Hexadecapole moment (field-independent basis, Debye-Ang**3):
 XXXX=          -1606.3257 YYYY=           -512.4959 ZZZZ=            -70.7445 XXXY=            -75.0354
 XXXZ=             -0.4950 YYYX=             -1.9823 YYYZ=             -0.1451 ZZZX=             -0.0190
 ZZZY=             -0.0065 XXYY=           -479.4923 XXZZ=           -315.5880 YYZZ=           -153.4876
 XXYZ=             -0.1819 YYXZ=             -0.1968 ZZXY=              0.2209
 N-N= 6.844832413080D+02 E-N=-2.886381428888D+03  KE= 6.441069123615D+02
 Unable to Open any file for archive entry.
 1\1\GINC-TCN1659\SP\RBP86\TZVP\C7H6O5\ELENAA\22-Feb-2021\0\\# BP86/TZV
 P SCRF=COSMORS geom=CHECKPOINT guess=CHECKPOINT\\COSMO-file for #LNTHI
 TQWFMADLM-UHFFFAOYSA-N\\0,1\O,0,1.8567209507,-0.3162852679,0.566673860
 3\C,0,0.6390710906,-0.1599761659,0.5907020328\O,0,-0.194942929,-1.0691
 113669,1.1809561068\C,0,-0.0817351184,0.9936647999,0.0058291761\C,0,-1
 .483075075,1.106072902,0.0748878875\C,0,-2.1020073101,2.2162690296,-0.
 4950196401\O,0,-3.4595741876,2.4469377674,-0.4971623892\C,0,-1.3488652
 66,3.222190897,-1.136060222\O,0,-1.9526093367,4.3108291745,-1.69535591
 78\C,0,0.0541902107,3.1007461755,-1.2002054882\O,0,0.7275492944,4.1125
 917396,-1.8373153484\C,0,0.6790565801,1.9899390538,-0.6307114607\H,0,0
 .371569004,-1.7865018122,1.534679101\H,0,-2.0795119963,0.3373295501,0.
 5667169445\H,0,-3.9301826561,1.7259426379,-0.0410043899\H,0,-2.9172721
 876,4.2212847386,-1.5503604291\H,0,1.6837383576,3.9216343162,-1.816820
 8167\H,0,1.7650705747,1.8870118309,-0.6753090069\\Version=ES64L-G16Rev
 C.01\State=1-A\HF=-646.770419\RMSD=2.683e-09\Dipole=-1.3799046,-0.6644
 2,0.512937\Quadrupole=6.1238424,-3.0277396,-3.0961028,6.0498499,-4.438
 3063,-1.2088594\PG=C01 [X(C7H6O5)]\\@
 The archive entry for this job was punched.


 NOTHING PUZZLES ME MORE THAN TIME AND SPACE; AND YET NOTHING TROUBLES ME LESS
                                                          -- CHARLES LAMB (1810)
 Job cpu time:       0 days  0 hours  6 minutes 33.3 seconds.
 Elapsed time:       0 days  0 hours  0 minutes 12.8 seconds.
 File lengths (MBytes):  RWF=     57 Int=      0 D2E=      0 Chk=      9 Scr=      1
 Normal termination of Gaussian 16 at Mon Feb 22 21:15:07 2021.
