 Entering Gaussian System, Link 0=g16
 Input=LSEFCHWGJNHZNT-UHFFFAOYSA-M.gjf
 Output=LSEFCHWGJNHZNT-UHFFFAOYSA-M.log
 Initial command:
 /sw/arch/RedHatEnterpriseServer7/EB_production/2020/software/Gaussian/g16.c01/l1.exe "/scratch-local/elenaa.10684802/Gau-19801.inp" -scrdir="/scratch-local/elenaa.10684802/"
 Entering Link 1 = /sw/arch/RedHatEnterpriseServer7/EB_production/2020/software/Gaussian/g16.c01/l1.exe PID=     19802.
  
 Copyright (c) 1988-2019, Gaussian, Inc.  All Rights Reserved.
  
 This is part of the Gaussian(R) 16 program.  It is based on
 the Gaussian(R) 09 system (copyright 2009, Gaussian, Inc.),
 the Gaussian(R) 03 system (copyright 2003, Gaussian, Inc.),
 the Gaussian(R) 98 system (copyright 1998, Gaussian, Inc.),
 the Gaussian(R) 94 system (copyright 1995, Gaussian, Inc.),
 the Gaussian 92(TM) system (copyright 1992, Gaussian, Inc.),
 the Gaussian 90(TM) system (copyright 1990, Gaussian, Inc.),
 the Gaussian 88(TM) system (copyright 1988, Gaussian, Inc.),
 the Gaussian 86(TM) system (copyright 1986, Carnegie Mellon
 University), and the Gaussian 82(TM) system (copyright 1983,
 Carnegie Mellon University). Gaussian is a federally registered
 trademark of Gaussian, Inc.
  
 This software contains proprietary and confidential information,
 including trade secrets, belonging to Gaussian, Inc.
  
 This software is provided under written license and may be
 used, copied, transmitted, or stored only in accord with that
 written license.
  
 The following legend is applicable only to US Government
 contracts under FAR:
  
                    RESTRICTED RIGHTS LEGEND
  
 Use, reproduction and disclosure by the US Government is
 subject to restrictions as set forth in subparagraphs (a)
 and (c) of the Commercial Computer Software - Restricted
 Rights clause in FAR 52.227-19.
  
 Gaussian, Inc.
 340 Quinnipiac St., Bldg. 40, Wallingford CT 06492
  
  
 ---------------------------------------------------------------
 Warning -- This program may not be used in any manner that
 competes with the business of Gaussian, Inc. or will provide
 assistance to any competitor of Gaussian, Inc.  The licensee
 of this program is prohibited from giving any competitor of
 Gaussian, Inc. access to this program.  By using this program,
 the user acknowledges that Gaussian, Inc. is engaged in the
 business of creating and licensing software in the field of
 computational chemistry and represents and warrants to the
 licensee that it is not a competitor of Gaussian, Inc. and that
 it will not use this program in any manner prohibited above.
 ---------------------------------------------------------------
  

 Cite this work as:
 Gaussian 16, Revision C.01,
 M. J. Frisch, G. W. Trucks, H. B. Schlegel, G. E. Scuseria, 
 M. A. Robb, J. R. Cheeseman, G. Scalmani, V. Barone, 
 G. A. Petersson, H. Nakatsuji, X. Li, M. Caricato, A. V. Marenich, 
 J. Bloino, B. G. Janesko, R. Gomperts, B. Mennucci, H. P. Hratchian, 
 J. V. Ortiz, A. F. Izmaylov, J. L. Sonnenberg, D. Williams-Young, 
 F. Ding, F. Lipparini, F. Egidi, J. Goings, B. Peng, A. Petrone, 
 T. Henderson, D. Ranasinghe, V. G. Zakrzewski, J. Gao, N. Rega, 
 G. Zheng, W. Liang, M. Hada, M. Ehara, K. Toyota, R. Fukuda, 
 J. Hasegawa, M. Ishida, T. Nakajima, Y. Honda, O. Kitao, H. Nakai, 
 T. Vreven, K. Throssell, J. A. Montgomery, Jr., J. E. Peralta, 
 F. Ogliaro, M. J. Bearpark, J. J. Heyd, E. N. Brothers, K. N. Kudin, 
 V. N. Staroverov, T. A. Keith, R. Kobayashi, J. Normand, 
 K. Raghavachari, A. P. Rendell, J. C. Burant, S. S. Iyengar, 
 J. Tomasi, M. Cossi, J. M. Millam, M. Klene, C. Adamo, R. Cammi, 
 J. W. Ochterski, R. L. Martin, K. Morokuma, O. Farkas, 
 J. B. Foresman, and D. J. Fox, Gaussian, Inc., Wallingford CT, 2019.
 
 ******************************************
 Gaussian 16:  ES64L-G16RevC.01  3-Jul-2019
                21-Aug-2021 
 ******************************************
 %chk=LSEFCHWGJNHZNT-UHFFFAOYSA-M.chk
 %NProcShared=24
 Will use up to   24 processors via shared memory.
 -------------------------------------------------------------
 #P BP86/TZVP EmpiricalDispersion=GD3 SCRF=(Solvent=Water) Opt
 -------------------------------------------------------------
 1/18=20,19=15,26=3,38=1/1,3;
 2/9=110,12=2,17=6,18=5,40=1/2;
 3/5=19,7=101,11=2,25=1,30=1,70=2201,71=1,72=1,74=404,124=31/1,2,3;
 4//1;
 5/5=2,38=5,53=1/2;
 6/7=2,8=2,9=2,10=2,28=1/1;
 7//1,2,3,16;
 1/18=20,19=15,26=3/3(2);
 2/9=110/2;
 99//99;
 2/9=110/2;
 3/5=19,7=101,11=2,25=1,30=1,70=2205,71=1,72=1,74=404,124=31/1,2,3;
 4/5=5,16=3,69=1/1;
 5/5=2,38=5,53=1/2;
 7//1,2,3,16;
 1/18=20,19=15,26=3/3(-5);
 2/9=110/2;
 6/7=2,8=2,9=2,10=2,19=2,28=1/1;
 99/9=1/99;
 Leave Link    1 at Sat Aug 21 11:52:07 2021, MaxMem=           0 cpu:               1.7 elap:               0.1
 (Enter /sw/arch/RedHatEnterpriseServer7/EB_production/2020/software/Gaussian/g16.c01/l101.exe)
 -------------------------------------
 Particle #LSEFCHWGJNHZNT-UHFFFAOYSA-M
 -------------------------------------
 Symbolic Z-matrix:
 Charge =  0 Multiplicity = 1
 C                    -0.46012  -1.71812  -2.80734 
 P                    -0.80858  -0.60846  -1.40326 
 C                    -2.14279   0.54594  -1.85186 
 C                    -2.95467   1.07865  -0.84424 
 C                    -3.9393    2.00006  -1.18077 
 C                    -4.12234   2.37757  -2.50843 
 C                    -3.31036   1.8444   -3.50882 
 C                    -2.31484   0.93115  -3.18689 
 C                     0.69103   0.33616  -0.98568 
 C                     0.56471   1.59307  -0.38163 
 C                     1.7111    2.29031  -0.0146 
 C                     2.97133   1.7472   -0.2575 
 C                     3.09262   0.49373  -0.85901 
 C                     1.9559   -0.21999  -1.22159 
 C                    -1.32294  -1.59213   0.0402 
 C                    -1.07413  -1.10307   1.32947 
 C                    -1.51266  -1.83349   2.43225 
 C                    -2.1814   -3.04506   2.25252 
 C                    -2.42871  -3.52787   0.96478 
 C                    -2.00602  -2.80358  -0.14684 
 Br                   -1.7515    2.39188   2.45044 
 H                    -1.40592  -2.11149  -3.19979 
 H                     0.06109  -1.15506  -3.5918 
 H                     0.17096  -2.54682  -2.4634 
 H                    -2.80605   0.80945   0.20419 
 H                    -4.56587   2.42397  -0.3949 
 H                    -4.9017    3.09589  -2.76778 
 H                    -3.45241   2.14133  -4.54876 
 H                    -1.68265   0.52561  -3.97764 
 H                    -0.41655   2.01979  -0.16415 
 H                     1.61341   3.26522   0.46504 
 H                     3.86728   2.30181   0.02633 
 H                     4.07888   0.06753  -1.04792 
 H                     2.06401  -1.20076  -1.6863 
 H                    -0.57437  -0.14442   1.48284 
 H                    -1.32873  -1.44813   3.43627 
 H                    -2.5162   -3.6166    3.11997 
 H                    -2.95343  -4.47391   0.82342 
 H                    -2.20999  -3.18841  -1.14687 
 
 Add virtual bond connecting atoms H25        and Br21       Dist= 5.56D+00.
 Add virtual bond connecting atoms H30        and Br21       Dist= 5.59D+00.
 Add virtual bond connecting atoms H35        and Br21       Dist= 5.59D+00.
 ITRead=  0  0  0  0  0  0  0  0  0  0  0  0  0  0  0  0  0  0  0  0
 ITRead=  0  0  0  0  0  0  0  0  0  0  0  0  0  0  0  0  0  0  0
 MicOpt= -1 -1 -1 -1 -1 -1 -1 -1 -1 -1 -1 -1 -1 -1 -1 -1 -1 -1 -1 -1
 MicOpt= -1 -1 -1 -1 -1 -1 -1 -1 -1 -1 -1 -1 -1 -1 -1 -1 -1 -1 -1
 NAtoms=     39 NQM=       39 NQMF=       0 NMMI=      0 NMMIF=      0
                NMic=       0 NMicF=      0.
                    Isotopes and Nuclear Properties:
 (Nuclear quadrupole moments (NQMom) in fm**2, nuclear magnetic moments (NMagM)
  in nuclear magnetons)

  Atom         1           2           3           4           5           6           7           8           9          10
 IAtWgt=          12          31          12          12          12          12          12          12          12          12
 AtmWgt=  12.0000000  30.9737634  12.0000000  12.0000000  12.0000000  12.0000000  12.0000000  12.0000000  12.0000000  12.0000000
 NucSpn=           0           1           0           0           0           0           0           0           0           0
 AtZEff=  -0.0000000  -0.0000000  -0.0000000  -0.0000000  -0.0000000  -0.0000000  -0.0000000  -0.0000000  -0.0000000  -0.0000000
 NQMom=    0.0000000   0.0000000   0.0000000   0.0000000   0.0000000   0.0000000   0.0000000   0.0000000   0.0000000   0.0000000
 NMagM=    0.0000000   1.1316000   0.0000000   0.0000000   0.0000000   0.0000000   0.0000000   0.0000000   0.0000000   0.0000000
 AtZNuc=   6.0000000  15.0000000   6.0000000   6.0000000   6.0000000   6.0000000   6.0000000   6.0000000   6.0000000   6.0000000

  Atom        11          12          13          14          15          16          17          18          19          20
 IAtWgt=          12          12          12          12          12          12          12          12          12          12
 AtmWgt=  12.0000000  12.0000000  12.0000000  12.0000000  12.0000000  12.0000000  12.0000000  12.0000000  12.0000000  12.0000000
 NucSpn=           0           0           0           0           0           0           0           0           0           0
 AtZEff=  -0.0000000  -0.0000000  -0.0000000  -0.0000000  -0.0000000  -0.0000000  -0.0000000  -0.0000000  -0.0000000  -0.0000000
 NQMom=    0.0000000   0.0000000   0.0000000   0.0000000   0.0000000   0.0000000   0.0000000   0.0000000   0.0000000   0.0000000
 NMagM=    0.0000000   0.0000000   0.0000000   0.0000000   0.0000000   0.0000000   0.0000000   0.0000000   0.0000000   0.0000000
 AtZNuc=   6.0000000   6.0000000   6.0000000   6.0000000   6.0000000   6.0000000   6.0000000   6.0000000   6.0000000   6.0000000

  Atom        21          22          23          24          25          26          27          28          29          30
 IAtWgt=          79           1           1           1           1           1           1           1           1           1
 AtmWgt=  78.9183361   1.0078250   1.0078250   1.0078250   1.0078250   1.0078250   1.0078250   1.0078250   1.0078250   1.0078250
 NucSpn=           3           1           1           1           1           1           1           1           1           1
 AtZEff=  -0.0000000  -0.0000000  -0.0000000  -0.0000000  -0.0000000  -0.0000000  -0.0000000  -0.0000000  -0.0000000  -0.0000000
 NQMom=   31.3000000   0.0000000   0.0000000   0.0000000   0.0000000   0.0000000   0.0000000   0.0000000   0.0000000   0.0000000
 NMagM=    2.1063990   2.7928460   2.7928460   2.7928460   2.7928460   2.7928460   2.7928460   2.7928460   2.7928460   2.7928460
 AtZNuc=  35.0000000   1.0000000   1.0000000   1.0000000   1.0000000   1.0000000   1.0000000   1.0000000   1.0000000   1.0000000

  Atom        31          32          33          34          35          36          37          38          39
 IAtWgt=           1           1           1           1           1           1           1           1           1
 AtmWgt=   1.0078250   1.0078250   1.0078250   1.0078250   1.0078250   1.0078250   1.0078250   1.0078250   1.0078250
 NucSpn=           1           1           1           1           1           1           1           1           1
 AtZEff=  -0.0000000  -0.0000000  -0.0000000  -0.0000000  -0.0000000  -0.0000000  -0.0000000  -0.0000000  -0.0000000
 NQMom=    0.0000000   0.0000000   0.0000000   0.0000000   0.0000000   0.0000000   0.0000000   0.0000000   0.0000000
 NMagM=    2.7928460   2.7928460   2.7928460   2.7928460   2.7928460   2.7928460   2.7928460   2.7928460   2.7928460
 AtZNuc=   1.0000000   1.0000000   1.0000000   1.0000000   1.0000000   1.0000000   1.0000000   1.0000000   1.0000000
 Leave Link  101 at Sat Aug 21 11:52:08 2021, MaxMem=   104857600 cpu:               2.1 elap:               0.1
 (Enter /sw/arch/RedHatEnterpriseServer7/EB_production/2020/software/Gaussian/g16.c01/l103.exe)

 GradGradGradGradGradGradGradGradGradGradGradGradGradGradGradGradGradGrad
 Berny optimization.
 Initialization pass.
                           ----------------------------
                           !    Initial Parameters    !
                           ! (Angstroms and Degrees)  !
 --------------------------                            --------------------------
 ! Name  Definition              Value          Derivative Info.                !
 --------------------------------------------------------------------------------
 ! R1    R(1,2)                  1.8232         estimate D2E/DX2                !
 ! R2    R(1,22)                 1.0969         estimate D2E/DX2                !
 ! R3    R(1,23)                 1.0973         estimate D2E/DX2                !
 ! R4    R(1,24)                 1.0969         estimate D2E/DX2                !
 ! R5    R(2,3)                  1.8204         estimate D2E/DX2                !
 ! R6    R(2,9)                  1.8209         estimate D2E/DX2                !
 ! R7    R(2,15)                 1.8209         estimate D2E/DX2                !
 ! R8    R(3,4)                  1.3994         estimate D2E/DX2                !
 ! R9    R(3,8)                  1.4001         estimate D2E/DX2                !
 ! R10   R(4,5)                  1.3899         estimate D2E/DX2                !
 ! R11   R(4,25)                 1.0926         estimate D2E/DX2                !
 ! R12   R(5,6)                  1.3924         estimate D2E/DX2                !
 ! R13   R(5,26)                 1.0908         estimate D2E/DX2                !
 ! R14   R(6,7)                  1.3944         estimate D2E/DX2                !
 ! R15   R(6,27)                 1.0912         estimate D2E/DX2                !
 ! R16   R(7,8)                  1.3888         estimate D2E/DX2                !
 ! R17   R(7,28)                 1.0908         estimate D2E/DX2                !
 ! R18   R(8,29)                 1.0906         estimate D2E/DX2                !
 ! R19   R(9,10)                 1.4002         estimate D2E/DX2                !
 ! R20   R(9,14)                 1.4017         estimate D2E/DX2                !
 ! R21   R(10,11)                1.3911         estimate D2E/DX2                !
 ! R22   R(10,30)                1.0919         estimate D2E/DX2                !
 ! R23   R(11,12)                1.3936         estimate D2E/DX2                !
 ! R24   R(11,31)                1.0909         estimate D2E/DX2                !
 ! R25   R(12,13)                1.3956         estimate D2E/DX2                !
 ! R26   R(12,32)                1.0913         estimate D2E/DX2                !
 ! R27   R(13,14)                1.3903         estimate D2E/DX2                !
 ! R28   R(13,33)                1.0909         estimate D2E/DX2                !
 ! R29   R(14,34)                1.0907         estimate D2E/DX2                !
 ! R30   R(15,16)                1.4012         estimate D2E/DX2                !
 ! R31   R(15,20)                1.4033         estimate D2E/DX2                !
 ! R32   R(16,17)                1.3935         estimate D2E/DX2                !
 ! R33   R(16,35)                1.0919         estimate D2E/DX2                !
 ! R34   R(17,18)                1.3955         estimate D2E/DX2                !
 ! R35   R(17,36)                1.091          estimate D2E/DX2                !
 ! R36   R(18,19)                1.3973         estimate D2E/DX2                !
 ! R37   R(18,37)                1.0914         estimate D2E/DX2                !
 ! R38   R(19,20)                1.3925         estimate D2E/DX2                !
 ! R39   R(19,38)                1.091          estimate D2E/DX2                !
 ! R40   R(20,39)                1.0908         estimate D2E/DX2                !
 ! R41   R(21,25)                2.9431         estimate D2E/DX2                !
 ! R42   R(21,30)                2.9592         estimate D2E/DX2                !
 ! R43   R(21,35)                2.9588         estimate D2E/DX2                !
 ! A1    A(2,1,22)             109.207          estimate D2E/DX2                !
 ! A2    A(2,1,23)             109.2096         estimate D2E/DX2                !
 ! A3    A(2,1,24)             109.1643         estimate D2E/DX2                !
 ! A4    A(22,1,23)            109.7419         estimate D2E/DX2                !
 ! A5    A(22,1,24)            109.7132         estimate D2E/DX2                !
 ! A6    A(23,1,24)            109.7871         estimate D2E/DX2                !
 ! A7    A(1,2,3)              109.6484         estimate D2E/DX2                !
 ! A8    A(1,2,9)              109.5692         estimate D2E/DX2                !
 ! A9    A(1,2,15)             109.6134         estimate D2E/DX2                !
 ! A10   A(3,2,9)              109.3382         estimate D2E/DX2                !
 ! A11   A(3,2,15)             109.3221         estimate D2E/DX2                !
 ! A12   A(9,2,15)             109.3349         estimate D2E/DX2                !
 ! A13   A(2,3,4)              119.2865         estimate D2E/DX2                !
 ! A14   A(2,3,8)              119.9669         estimate D2E/DX2                !
 ! A15   A(4,3,8)              120.7011         estimate D2E/DX2                !
 ! A16   A(3,4,5)              119.2774         estimate D2E/DX2                !
 ! A17   A(3,4,25)             121.2139         estimate D2E/DX2                !
 ! A18   A(5,4,25)             119.4754         estimate D2E/DX2                !
 ! A19   A(4,5,6)              120.2488         estimate D2E/DX2                !
 ! A20   A(4,5,26)             119.3484         estimate D2E/DX2                !
 ! A21   A(6,5,26)             120.4028         estimate D2E/DX2                !
 ! A22   A(5,6,7)              120.256          estimate D2E/DX2                !
 ! A23   A(5,6,27)             119.9354         estimate D2E/DX2                !
 ! A24   A(7,6,27)             119.8083         estimate D2E/DX2                !
 ! A25   A(6,7,8)              120.169          estimate D2E/DX2                !
 ! A26   A(6,7,28)             120.2696         estimate D2E/DX2                !
 ! A27   A(8,7,28)             119.5614         estimate D2E/DX2                !
 ! A28   A(3,8,7)              119.343          estimate D2E/DX2                !
 ! A29   A(3,8,29)             121.1866         estimate D2E/DX2                !
 ! A30   A(7,8,29)             119.4703         estimate D2E/DX2                !
 ! A31   A(2,9,10)             119.3611         estimate D2E/DX2                !
 ! A32   A(2,9,14)             119.9164         estimate D2E/DX2                !
 ! A33   A(10,9,14)            120.6743         estimate D2E/DX2                !
 ! A34   A(9,10,11)            119.3013         estimate D2E/DX2                !
 ! A35   A(9,10,30)            121.1846         estimate D2E/DX2                !
 ! A36   A(11,10,30)           119.4828         estimate D2E/DX2                !
 ! A37   A(10,11,12)           120.2588         estimate D2E/DX2                !
 ! A38   A(10,11,31)           119.3503         estimate D2E/DX2                !
 ! A39   A(12,11,31)           120.3909         estimate D2E/DX2                !
 ! A40   A(11,12,13)           120.2476         estimate D2E/DX2                !
 ! A41   A(11,12,32)           119.9361         estimate D2E/DX2                !
 ! A42   A(13,12,32)           119.8159         estimate D2E/DX2                !
 ! A43   A(12,13,14)           120.1601         estimate D2E/DX2                !
 ! A44   A(12,13,33)           120.2726         estimate D2E/DX2                !
 ! A45   A(14,13,33)           119.5674         estimate D2E/DX2                !
 ! A46   A(9,14,13)            119.3534         estimate D2E/DX2                !
 ! A47   A(9,14,34)            121.1937         estimate D2E/DX2                !
 ! A48   A(13,14,34)           119.4527         estimate D2E/DX2                !
 ! A49   A(2,15,16)            119.3859         estimate D2E/DX2                !
 ! A50   A(2,15,20)            119.8809         estimate D2E/DX2                !
 ! A51   A(16,15,20)           120.6906         estimate D2E/DX2                !
 ! A52   A(15,16,17)           119.296          estimate D2E/DX2                !
 ! A53   A(15,16,35)           121.1276         estimate D2E/DX2                !
 ! A54   A(17,16,35)           119.5416         estimate D2E/DX2                !
 ! A55   A(16,17,18)           120.2619         estimate D2E/DX2                !
 ! A56   A(16,17,36)           119.3439         estimate D2E/DX2                !
 ! A57   A(18,17,36)           120.3942         estimate D2E/DX2                !
 ! A58   A(17,18,19)           120.2305         estimate D2E/DX2                !
 ! A59   A(17,18,37)           119.9526         estimate D2E/DX2                !
 ! A60   A(19,18,37)           119.8165         estimate D2E/DX2                !
 ! A61   A(18,19,20)           120.1494         estimate D2E/DX2                !
 ! A62   A(18,19,38)           120.2738         estimate D2E/DX2                !
 ! A63   A(20,19,38)           119.5768         estimate D2E/DX2                !
 ! A64   A(15,20,19)           119.3668         estimate D2E/DX2                !
 ! A65   A(15,20,39)           121.1853         estimate D2E/DX2                !
 ! A66   A(19,20,39)           119.4478         estimate D2E/DX2                !
 ! A67   A(25,21,30)            54.5269         estimate D2E/DX2                !
 ! A68   A(25,21,35)            55.3936         estimate D2E/DX2                !
 ! A69   A(30,21,35)            54.8161         estimate D2E/DX2                !
 ! A70   A(4,25,21)            130.4391         estimate D2E/DX2                !
 ! A71   A(10,30,21)           129.0899         estimate D2E/DX2                !
 ! A72   A(16,35,21)           128.0552         estimate D2E/DX2                !
 ! D1    D(22,1,2,3)           -47.2841         estimate D2E/DX2                !
 ! D2    D(22,1,2,9)          -167.2901         estimate D2E/DX2                !
 ! D3    D(22,1,2,15)           72.7295         estimate D2E/DX2                !
 ! D4    D(23,1,2,3)            72.7269         estimate D2E/DX2                !
 ! D5    D(23,1,2,9)           -47.2791         estimate D2E/DX2                !
 ! D6    D(23,1,2,15)         -167.2595         estimate D2E/DX2                !
 ! D7    D(24,1,2,3)          -167.2328         estimate D2E/DX2                !
 ! D8    D(24,1,2,9)            72.7612         estimate D2E/DX2                !
 ! D9    D(24,1,2,15)          -47.2192         estimate D2E/DX2                !
 ! D10   D(1,2,3,4)            153.1124         estimate D2E/DX2                !
 ! D11   D(1,2,3,8)            -29.3242         estimate D2E/DX2                !
 ! D12   D(9,2,3,4)            -86.7407         estimate D2E/DX2                !
 ! D13   D(9,2,3,8)             90.8226         estimate D2E/DX2                !
 ! D14   D(15,2,3,4)            32.9212         estimate D2E/DX2                !
 ! D15   D(15,2,3,8)          -149.5155         estimate D2E/DX2                !
 ! D16   D(1,2,9,10)           152.9775         estimate D2E/DX2                !
 ! D17   D(1,2,9,14)           -29.5307         estimate D2E/DX2                !
 ! D18   D(3,2,9,10)            32.7822         estimate D2E/DX2                !
 ! D19   D(3,2,9,14)          -149.7261         estimate D2E/DX2                !
 ! D20   D(15,2,9,10)          -86.8719         estimate D2E/DX2                !
 ! D21   D(15,2,9,14)           90.6198         estimate D2E/DX2                !
 ! D22   D(1,2,15,16)          151.6553         estimate D2E/DX2                !
 ! D23   D(1,2,15,20)          -30.7029         estimate D2E/DX2                !
 ! D24   D(3,2,15,16)          -88.1321         estimate D2E/DX2                !
 ! D25   D(3,2,15,20)           89.5097         estimate D2E/DX2                !
 ! D26   D(9,2,15,16)           31.5319         estimate D2E/DX2                !
 ! D27   D(9,2,15,20)         -150.8263         estimate D2E/DX2                !
 ! D28   D(2,3,4,5)            177.5004         estimate D2E/DX2                !
 ! D29   D(2,3,4,25)            -0.3898         estimate D2E/DX2                !
 ! D30   D(8,3,4,5)             -0.0446         estimate D2E/DX2                !
 ! D31   D(8,3,4,25)          -177.9347         estimate D2E/DX2                !
 ! D32   D(2,3,8,7)           -178.0172         estimate D2E/DX2                !
 ! D33   D(2,3,8,29)             2.0964         estimate D2E/DX2                !
 ! D34   D(4,3,8,7)             -0.4889         estimate D2E/DX2                !
 ! D35   D(4,3,8,29)           179.6247         estimate D2E/DX2                !
 ! D36   D(3,4,5,6)              0.6136         estimate D2E/DX2                !
 ! D37   D(3,4,5,26)          -179.3596         estimate D2E/DX2                !
 ! D38   D(25,4,5,6)           178.541          estimate D2E/DX2                !
 ! D39   D(25,4,5,26)           -1.4323         estimate D2E/DX2                !
 ! D40   D(3,4,25,21)          108.8416         estimate D2E/DX2                !
 ! D41   D(5,4,25,21)          -69.0444         estimate D2E/DX2                !
 ! D42   D(4,5,6,7)             -0.6507         estimate D2E/DX2                !
 ! D43   D(4,5,6,27)           179.5547         estimate D2E/DX2                !
 ! D44   D(26,5,6,7)           179.3223         estimate D2E/DX2                !
 ! D45   D(26,5,6,27)           -0.4723         estimate D2E/DX2                !
 ! D46   D(5,6,7,8)              0.1087         estimate D2E/DX2                !
 ! D47   D(5,6,7,28)          -179.8923         estimate D2E/DX2                !
 ! D48   D(27,6,7,8)           179.9035         estimate D2E/DX2                !
 ! D49   D(27,6,7,28)           -0.0975         estimate D2E/DX2                !
 ! D50   D(6,7,8,3)              0.4551         estimate D2E/DX2                !
 ! D51   D(6,7,8,29)          -179.6564         estimate D2E/DX2                !
 ! D52   D(28,7,8,3)          -179.5439         estimate D2E/DX2                !
 ! D53   D(28,7,8,29)            0.3446         estimate D2E/DX2                !
 ! D54   D(2,9,10,11)          177.4558         estimate D2E/DX2                !
 ! D55   D(2,9,10,30)           -0.498          estimate D2E/DX2                !
 ! D56   D(14,9,10,11)          -0.0165         estimate D2E/DX2                !
 ! D57   D(14,9,10,30)        -177.9702         estimate D2E/DX2                !
 ! D58   D(2,9,14,13)         -177.9593         estimate D2E/DX2                !
 ! D59   D(2,9,14,34)            2.1891         estimate D2E/DX2                !
 ! D60   D(10,9,14,13)          -0.501          estimate D2E/DX2                !
 ! D61   D(10,9,14,34)         179.6474         estimate D2E/DX2                !
 ! D62   D(9,10,11,12)           0.5804         estimate D2E/DX2                !
 ! D63   D(9,10,11,31)        -179.397          estimate D2E/DX2                !
 ! D64   D(30,10,11,12)        178.5694         estimate D2E/DX2                !
 ! D65   D(30,10,11,31)         -1.408          estimate D2E/DX2                !
 ! D66   D(9,10,30,21)         108.2768         estimate D2E/DX2                !
 ! D67   D(11,10,30,21)        -69.6733         estimate D2E/DX2                !
 ! D68   D(10,11,12,13)         -0.6278         estimate D2E/DX2                !
 ! D69   D(10,11,12,32)        179.5761         estimate D2E/DX2                !
 ! D70   D(31,11,12,13)        179.3494         estimate D2E/DX2                !
 ! D71   D(31,11,12,32)         -0.4468         estimate D2E/DX2                !
 ! D72   D(11,12,13,14)          0.102          estimate D2E/DX2                !
 ! D73   D(11,12,13,33)       -179.9045         estimate D2E/DX2                !
 ! D74   D(32,12,13,14)        179.8984         estimate D2E/DX2                !
 ! D75   D(32,12,13,33)         -0.1081         estimate D2E/DX2                !
 ! D76   D(12,13,14,9)           0.4565         estimate D2E/DX2                !
 ! D77   D(12,13,14,34)       -179.6893         estimate D2E/DX2                !
 ! D78   D(33,13,14,9)        -179.5371         estimate D2E/DX2                !
 ! D79   D(33,13,14,34)          0.3172         estimate D2E/DX2                !
 ! D80   D(2,15,16,17)         177.6344         estimate D2E/DX2                !
 ! D81   D(2,15,16,35)          -0.21           estimate D2E/DX2                !
 ! D82   D(20,15,16,17)          0.0122         estimate D2E/DX2                !
 ! D83   D(20,15,16,35)       -177.8323         estimate D2E/DX2                !
 ! D84   D(2,15,20,19)        -178.1384         estimate D2E/DX2                !
 ! D85   D(2,15,20,39)           1.9692         estimate D2E/DX2                !
 ! D86   D(16,15,20,19)         -0.5279         estimate D2E/DX2                !
 ! D87   D(16,15,20,39)        179.5798         estimate D2E/DX2                !
 ! D88   D(15,16,17,18)          0.5898         estimate D2E/DX2                !
 ! D89   D(15,16,17,36)       -179.3508         estimate D2E/DX2                !
 ! D90   D(35,16,17,18)        178.4689         estimate D2E/DX2                !
 ! D91   D(35,16,17,36)         -1.4717         estimate D2E/DX2                !
 ! D92   D(15,16,35,21)        108.2237         estimate D2E/DX2                !
 ! D93   D(17,16,35,21)        -69.6156         estimate D2E/DX2                !
 ! D94   D(16,17,18,19)         -0.6768         estimate D2E/DX2                !
 ! D95   D(16,17,18,37)        179.5513         estimate D2E/DX2                !
 ! D96   D(36,17,18,19)        179.2632         estimate D2E/DX2                !
 ! D97   D(36,17,18,37)         -0.5088         estimate D2E/DX2                !
 ! D98   D(17,18,19,20)          0.1529         estimate D2E/DX2                !
 ! D99   D(17,18,19,38)       -179.8638         estimate D2E/DX2                !
 ! D100  D(37,18,19,20)        179.9252         estimate D2E/DX2                !
 ! D101  D(37,18,19,38)         -0.0915         estimate D2E/DX2                !
 ! D102  D(18,19,20,15)          0.4435         estimate D2E/DX2                !
 ! D103  D(18,19,20,39)       -179.6623         estimate D2E/DX2                !
 ! D104  D(38,19,20,15)       -179.5399         estimate D2E/DX2                !
 ! D105  D(38,19,20,39)          0.3543         estimate D2E/DX2                !
 ! D106  D(30,21,25,4)         -52.2956         estimate D2E/DX2                !
 ! D107  D(35,21,25,4)        -120.7081         estimate D2E/DX2                !
 ! D108  D(25,21,30,10)       -121.0235         estimate D2E/DX2                !
 ! D109  D(35,21,30,10)        -51.5651         estimate D2E/DX2                !
 ! D110  D(25,21,35,16)        -52.6535         estimate D2E/DX2                !
 ! D111  D(30,21,35,16)       -120.5546         estimate D2E/DX2                !
 --------------------------------------------------------------------------------
 Trust Radius=3.00D-01 FncErr=1.00D-07 GrdErr=1.00D-06 EigMax=2.50D+02 EigMin=1.00D-04
 Number of steps in this run=    234 maximum allowed number of steps=    234.
 GradGradGradGradGradGradGradGradGradGradGradGradGradGradGradGradGradGrad

 Leave Link  103 at Sat Aug 21 11:52:08 2021, MaxMem=   104857600 cpu:               0.3 elap:               0.0
 (Enter /sw/arch/RedHatEnterpriseServer7/EB_production/2020/software/Gaussian/g16.c01/l202.exe)
                          Input orientation:                          
 ---------------------------------------------------------------------
 Center     Atomic      Atomic             Coordinates (Angstroms)
 Number     Number       Type             X           Y           Z
 ---------------------------------------------------------------------
      1          6           0       -0.460124   -1.718124   -2.807336
      2         15           0       -0.808584   -0.608459   -1.403255
      3          6           0       -2.142793    0.545935   -1.851857
      4          6           0       -2.954670    1.078648   -0.844240
      5          6           0       -3.939297    2.000055   -1.180771
      6          6           0       -4.122338    2.377573   -2.508425
      7          6           0       -3.310356    1.844404   -3.508817
      8          6           0       -2.314837    0.931145   -3.186889
      9          6           0        0.691027    0.336160   -0.985676
     10          6           0        0.564708    1.593067   -0.381630
     11          6           0        1.711098    2.290314   -0.014601
     12          6           0        2.971334    1.747195   -0.257499
     13          6           0        3.092621    0.493733   -0.859008
     14          6           0        1.955902   -0.219994   -1.221590
     15          6           0       -1.322941   -1.592126    0.040204
     16          6           0       -1.074128   -1.103068    1.329474
     17          6           0       -1.512658   -1.833487    2.432248
     18          6           0       -2.181403   -3.045062    2.252524
     19          6           0       -2.428706   -3.527868    0.964784
     20          6           0       -2.006018   -2.803581   -0.146838
     21         35           0       -1.751500    2.391879    2.450444
     22          1           0       -1.405920   -2.111487   -3.199788
     23          1           0        0.061092   -1.155063   -3.591804
     24          1           0        0.170963   -2.546815   -2.463396
     25          1           0       -2.806052    0.809446    0.204188
     26          1           0       -4.565869    2.423972   -0.394898
     27          1           0       -4.901702    3.095890   -2.767783
     28          1           0       -3.452411    2.141330   -4.548760
     29          1           0       -1.682654    0.525609   -3.977639
     30          1           0       -0.416549    2.019785   -0.164145
     31          1           0        1.613408    3.265217    0.465044
     32          1           0        3.867280    2.301811    0.026327
     33          1           0        4.078875    0.067527   -1.047916
     34          1           0        2.064007   -1.200757   -1.686300
     35          1           0       -0.574370   -0.144420    1.482841
     36          1           0       -1.328732   -1.448130    3.436268
     37          1           0       -2.516198   -3.616599    3.119969
     38          1           0       -2.953432   -4.473911    0.823424
     39          1           0       -2.209994   -3.188409   -1.146870
 ---------------------------------------------------------------------
                    Distance matrix (angstroms):
                    1          2          3          4          5
     1  C    0.000000
     2  P    1.823246   0.000000
     3  C    2.978301   1.820435   0.000000
     4  C    4.230655   2.786488   1.399364   0.000000
     5  C    5.345579   4.081079   2.406709   1.389868   0.000000
     6  C    5.502353   4.595514   2.775712   2.412502   1.392368
     7  C    4.616005   4.087639   2.407227   2.795150   2.416525
     8  C    3.256171   2.796521   1.400106   2.432930   2.793913
     9  C    2.977193   1.820854   2.970658   3.723224   4.924074
    10  C    4.230640   2.788614   3.254015   3.586733   4.592421
    11  C    5.346134   4.084121   4.612032   4.891403   5.776778
    12  C    5.503182   4.598874   5.489927   5.992390   6.976617
    13  C    4.616307   4.090285   5.328981   6.075531   7.198639
    14  C    3.255175   2.797551   4.217011   5.093386   6.299496
    15  C    2.978055   1.820917   2.970414   3.252355   4.608673
    16  C    4.227114   2.789796   3.739268   3.608512   4.913237
    17  C    5.345501   4.087481   4.940878   4.614683   5.799873
    18  C    5.506882   4.602867   5.453686   5.214679   6.350662
    19  C    4.623784   4.093330   4.960956   4.976866   6.119087
    20  C    3.262860   2.798391   3.760991   4.056848   5.280294
    21  Br   6.797354   4.974145   4.697916   3.745282   4.257429
    22  H    1.096943   2.417320   3.069494   4.257252   5.234425
    23  H    1.097312   2.417614   3.282974   4.651171   5.636574
    24  H    1.096948   2.416741   3.910569   5.053240   6.262060
    25  H    4.578347   2.929882   2.176390   1.092592   2.149397
    26  H    6.311415   4.932506   3.394267   2.146571   1.090823
    27  H    6.550108   5.686629   3.866881   3.400032   2.155385
    28  H    5.184759   4.944225   3.396126   3.885937   3.405931
    29  H    2.810432   2.945770   2.175107   3.426670   3.884443
    30  H    4.578244   2.932022   2.828520   2.791116   3.666561
    31  H    6.312028   4.935783   5.183780   5.230932   5.928058
    32  H    6.551027   5.690086   6.536945   6.985200   7.905111
    33  H    5.185231   4.946764   6.291609   7.108770   8.248842
    34  H    2.809916   2.946644   4.558016   5.576009   6.822054
    35  H    4.571128   2.932531   3.749233   3.546411   4.797534
    36  H    6.309514   4.939290   5.709926   5.229821   6.326301
    37  H    6.554738   5.694243   6.495011   6.160565   7.215842
    38  H    5.195514   4.949767   5.745704   5.797587   6.848428
    39  H    2.825054   2.947172   3.800901   4.342108   5.469168
                    6          7          8          9         10
     6  C    0.000000
     7  C    1.394406   0.000000
     8  C    2.412370   1.388790   0.000000
     9  C    5.445605   4.965089   3.772872   0.000000
    10  C    5.206449   4.985839   4.074236   1.400230   0.000000
    11  C    6.344742   6.133790   5.302726   2.408786   1.391069
    12  C    7.468884   7.073906   6.098432   2.778680   2.414749
    13  C    7.637085   7.060022   5.903470   2.410089   2.797636
    14  C    6.734115   6.101362   4.840117   1.401739   2.434778
    15  C    5.485494   5.324951   4.214841   2.970990   3.726475
    16  C    6.011316   6.090761   5.106360   3.247625   3.589262
    17  C    6.996692   7.214905   6.313587   4.609317   4.896390
    18  C    7.472539   7.640318   6.739083   5.492673   5.999344
    19  C    7.057323   7.046398   6.093616   5.335517   6.082543
    20  C    6.074558   5.882853   4.825501   4.223230   5.098458
    21  Br   5.496495   6.184056   5.850694   4.690292   3.744805
    22  H    5.292312   4.401301   3.175517   3.910301   5.054613
    23  H    5.581605   4.513352   3.187673   3.067974   4.255710
    24  H    6.533304   5.700464   4.335764   3.281108   4.650528
    25  H    3.398514   3.887398   3.428630   3.724156   3.509881
    26  H    2.160062   3.407155   3.884700   5.687085   5.197442
    27  H    1.091171   2.155860   3.399065   6.486188   6.150922
    28  H    2.160458   1.090792   2.147863   5.755196   5.814018
    29  H    3.397119   2.146725   1.090596   3.823885   4.372800
    30  H    4.399606   4.426252   3.731704   2.176288   1.091904
    31  H    6.521366   6.484885   5.849412   3.396285   2.147723
    32  H    8.382404   8.014045   7.100849   3.869951   3.402312
    33  H    8.644611   7.988370   6.797102   3.399052   3.888519
    34  H    7.193831   6.440369   5.096180   2.176709   3.428631
    35  H    5.905822   6.029734   5.098279   2.815273   2.791525
    36  H    7.601290   7.937369   7.106304   5.178485   5.235488
    37  H    8.377864   8.625198   7.778109   6.539642   6.992410
    38  H    7.707814   7.669212   6.760551   6.300135   7.116016
    39  H    6.040782   5.667345   4.598195   4.567767   5.580957
                   11         12         13         14         15
    11  C    0.000000
    12  C    1.393618   0.000000
    13  C    2.418539   1.395597   0.000000
    14  C    2.796140   2.414623   1.390324   0.000000
    15  C    4.927650   5.447980   4.965539   3.771695   0.000000
    16  C    4.591194   5.196946   4.970012   4.058181   1.401179
    17  C    5.778011   6.337366   6.120205   5.290066   2.411664
    18  C    6.982668   7.471054   7.072484   6.096538   2.782506
    19  C    7.207525   7.647267   7.069975   5.911603   2.413434
    20  C    6.307314   6.745060   6.113558   4.850446   1.403283
    21  Br   4.251629   5.482129   6.166112   5.835284   4.676026
    22  H    6.263950   6.535047   5.701166   4.335073   3.282403
    23  H    5.233500   5.292466   4.401917   3.175307   3.911273
    24  H    5.636172   5.580912   4.511660   3.184680   3.067767
    25  H    4.758727   5.871177   6.002033   5.076297   2.827376
    26  H    6.289897   7.568774   7.911617   7.085723   5.180245
    27  H    7.208196   8.372885   8.621128   7.772550   6.532214
    28  H    6.873327   7.735293   7.691963   6.774641   6.287442
    29  H    5.507940   6.082049   5.703519   4.625021   4.556013
    30  H    2.149984   3.400113   3.889209   3.429770   3.729505
    31  H    1.090889   2.161116   3.409151   3.886995   5.691785
    32  H    2.156601   1.091272   2.157095   3.401494   6.488554
    33  H    3.408062   2.161641   1.090887   2.149383   5.754830
    34  H    3.886734   3.399285   2.147965   1.090659   3.821702
    35  H    3.659730   4.379384   4.397536   3.704313   2.176560
    36  H    5.926637   6.507272   6.462862   5.830333   3.399120
    37  H    7.911206   8.383948   8.011613   7.098291   3.873926
    38  H    8.259229   8.658719   8.003925   6.810246   3.402443
    39  H    6.831793   7.210917   6.462102   5.115834   2.178102
                   16         17         18         19         20
    16  C    0.000000
    17  C    1.393532   0.000000
    18  C    2.418557   1.395505   0.000000
    19  C    2.801345   2.421471   1.397331   0.000000
    20  C    2.437142   2.799316   2.417853   1.392466   0.000000
    21  Br   3.732300   4.232150   5.457501   6.140782   5.814074
    22  H    4.652011   5.639903   5.585754   4.516180   3.187415
    23  H    5.050783   6.263078   6.538888   5.708922   4.342620
    24  H    4.245058   5.225968   5.293560   4.412841   3.189297
    25  H    2.814878   3.690828   4.409433   4.419637   3.717155
    26  H    5.254115   5.953218   6.527239   6.468431   5.825949
    27  H    7.004933   7.926203   8.385392   7.995119   7.075175
    28  H    7.122920   8.264157   8.647057   7.974142   6.776512
    29  H    5.584652   6.832341   7.198151   6.435434   5.085578
    30  H    3.523566   4.773931   5.882829   6.008303   5.078540
    31  H    5.201154   6.295948   7.577288   7.920507   7.092598
    32  H    6.140758   7.199505   8.374459   8.631645   7.783999
    33  H    5.794456   6.854972   7.731248   7.702366   6.788308
    34  H    4.353427   5.491386   6.077771   5.712107   4.637250
    35  H    1.091918   2.152837   3.404217   3.892899   3.431706
    36  H    2.149993   1.091048   2.162982   3.412255   3.890323
    37  H    3.406358   2.158597   1.091422   2.158784   3.404895
    38  H    3.892358   3.411156   2.163323   1.091017   2.151512
    39  H    3.430906   3.890010   3.402535   2.149919   1.090762
                   21         22         23         24         25
    21  Br   0.000000
    22  H    7.233592   0.000000
    23  H    7.237061   1.794588   0.000000
    24  H    7.227198   1.793974   1.795090   0.000000
    25  H    2.943100   4.698859   5.146782   5.219493   0.000000
    26  H    4.002209   6.198635   6.666218   7.171122   2.462225
    27  H    6.135902   6.286803   6.586269   7.593728   4.295601
    28  H    7.207269   4.908595   4.911891   6.281424   4.978173
    29  H    6.693874   2.763315   2.452382   3.894691   4.339385
    30  H    2.959159   5.221244   4.696450   5.146412   2.703759
    31  H    4.003391   7.173303   6.197304   6.666043   5.062656
    32  H    6.120061   7.595502   6.287123   6.585640   6.840479
    33  H    7.185709   6.281849   4.910058   4.910208   7.037075
    34  H    6.676659   3.893645   2.764905   2.449360   5.597529
    35  H    2.958835   5.146634   5.213179   4.679723   2.743213
    36  H    3.987010   6.669576   7.170167   6.185647   4.210162
    37  H    6.093836   6.590706   7.599308   6.288023   5.308076
    38  H    7.157577   4.915493   6.292563   4.927345   5.321563
    39  H    6.655111   2.453725   3.907689   2.795325   4.261864
                   26         27         28         29         30
    26  H    0.000000
    27  H    2.488944   0.000000
    28  H    4.309785   2.486666   0.000000
    29  H    4.975213   4.293293   2.463488   0.000000
    30  H    4.175341   5.296558   5.334424   4.286994   0.000000
    31  H    6.295289   7.275060   7.215530   6.173079   2.463271
    32  H    8.444546   9.237568   8.633368   7.070248   4.297326
    33  H    8.983923   9.632221   8.560189   6.479840   4.980080
    34  H    7.665614   8.255415   7.056493   4.718903   4.340738
    35  H    5.104371   6.877006   7.063143   5.611958   2.724198
    36  H    6.336408   8.479651   9.008602   7.680294   5.081485
    37  H    7.283127   9.241957   9.635333   8.260068   6.852938
    38  H    7.187841   8.602000   8.536437   7.047005   7.041247
    39  H    6.133060   7.026028   6.443801   4.699497   5.595309
                   31         32         33         34         35
    31  H    0.000000
    32  H    2.490093   0.000000
    33  H    4.311937   2.488131   0.000000
    34  H    4.977574   4.295680   2.464908   0.000000
    35  H    4.177069   5.275769   5.301164   4.256799   0.000000
    36  H    6.300794   7.258670   7.186608   6.149193   2.466698
    37  H    8.453500   9.238343   8.627806   7.065040   4.301966
    38  H    8.993251   9.647170   8.577874   6.495148   4.983900
    39  H    7.672415   8.273582   7.082428   4.744347   4.342409
                   36         37         38         39
    36  H    0.000000
    37  H    2.492464   0.000000
    38  H    4.315316   2.490035   0.000000
    39  H    4.980999   4.299189   2.467240   0.000000
 Stoichiometry    C19H18BrP
 Framework group  C1[X(C19H18BrP)]
 Deg. of freedom   111
 Full point group                 C1      NOp   1
 Largest Abelian subgroup         C1      NOp   1
 Largest concise Abelian subgroup C1      NOp   1
                         Standard orientation:                         
 ---------------------------------------------------------------------
 Center     Atomic      Atomic             Coordinates (Angstroms)
 Number     Number       Type             X           Y           Z
 ---------------------------------------------------------------------
      1          6           0        3.423486    0.087675    0.370857
      2         15           0        1.611950    0.040023    0.170132
      3          6           0        1.169710   -1.176509   -1.109890
      4          6           0       -0.082956   -1.798226   -1.059764
      5          6           0       -0.441049   -2.687715   -2.065902
      6          6           0        0.443899   -2.965255   -3.104424
      7          6           0        1.690772   -2.342701   -3.150290
      8          6           0        2.058586   -1.443032   -2.158299
      9          6           0        1.010007    1.684843   -0.327605
     10          6           0       -0.172847    1.787366   -1.069891
     11          6           0       -0.660039    3.046816   -1.403814
     12          6           0        0.029897    4.192920   -1.013166
     13          6           0        1.208017    4.086156   -0.272676
     14          6           0        1.701653    2.834617    0.078003
     15          6           0        0.834553   -0.434763    1.746828
     16          6           0       -0.460474    0.014316    2.037578
     17          6           0       -1.072739   -0.390633    3.222095
     18          6           0       -0.396783   -1.224574    4.113756
     19          6           0        0.893940   -1.671196    3.818631
     20          6           0        1.514268   -1.283617    2.633753
     21         35           0       -3.334231   -0.083272   -0.341931
     22          1           0        3.805455   -0.937939    0.445013
     23          1           0        3.869981    0.587575   -0.497956
     24          1           0        3.670046    0.641355    1.285155
     25          1           0       -0.796241   -1.571341   -0.263833
     26          1           0       -1.421384   -3.164991   -2.033587
     27          1           0        0.160333   -3.669954   -3.887777
     28          1           0        2.383522   -2.558639   -3.964719
     29          1           0        3.034304   -0.958407   -2.208440
     30          1           0       -0.735796    0.898572   -1.362099
     31          1           0       -1.586772    3.127839   -1.973585
     32          1           0       -0.353396    5.178136   -1.283927
     33          1           0        1.747575    4.983072    0.034657
     34          1           0        2.620619    2.764746    0.661234
     35          1           0       -1.009392    0.646426    1.336571
     36          1           0       -2.085178   -0.050033    3.444230
     37          1           0       -0.878332   -1.532714    5.043468
     38          1           0        1.422200   -2.324990    4.514197
     39          1           0        2.519865   -1.643476    2.412307
 ---------------------------------------------------------------------
 Rotational constants (GHZ):           0.2067820           0.1911357           0.1910302
 Leave Link  202 at Sat Aug 21 11:52:08 2021, MaxMem=   104857600 cpu:               0.6 elap:               0.1
 (Enter /sw/arch/RedHatEnterpriseServer7/EB_production/2020/software/Gaussian/g16.c01/l301.exe)
 Standard basis: TZVP (5D, 7F)
 Ernie: Thresh=  0.10000D-02 Tol=  0.10000D-05 Strict=F.
 There are   550 symmetry adapted cartesian basis functions of A   symmetry.
 There are   527 symmetry adapted basis functions of A   symmetry.
   527 basis functions,   954 primitive gaussians,   550 cartesian basis functions
    91 alpha electrons       91 beta electrons
       nuclear repulsion energy      2130.9802058678 Hartrees.
 IExCor=  404 DFT=T Ex=B Corr=P86 ExCW=0 ScaHFX=  0.000000
 ScaDFX=  1.000000  1.000000  1.000000  1.000000 ScalE2=  1.000000  1.000000
 IRadAn=      5 IRanWt=     -1 IRanGd=            0 ICorTp=0 IEmpDi=131
 NAtoms=   39 NActive=   39 NUniq=   39 SFac= 1.00D+00 NAtFMM=   60 NAOKFM=F Big=F
 Integral buffers will be    131072 words long.
 Raffenetti 2 integral format.
 Two-electron integral symmetry is turned on.
 R6Disp:  Grimme-D3 Dispersion energy=       -0.0520167765 Hartrees.
 Nuclear repulsion after empirical dispersion term =     2130.9281890913 Hartrees.
 ------------------------------------------------------------------------------
 Polarizable Continuum Model (PCM)
 =================================
 Model                : PCM.
 Atomic radii         : UFF (Universal Force Field).
 Polarization charges : Total charges.
 Charge compensation  : None.
 Solution method      : On-the-fly selection.
 Cavity type          : Scaled VdW (van der Waals Surface) (Alpha=1.100).
 Cavity algorithm     : GePol (No added spheres)
                        Default sphere list used, NSphG=   39.
                        Lebedev-Laikov grids with approx.  5.0 points / Ang**2.
                        Smoothing algorithm: York/Karplus (Gamma=1.0000).
                        Polarization charges: spherical gaussians, with
                                              point-specific exponents (IZeta= 3).
                        Self-potential: point-specific (ISelfS= 7).
                        Self-field    : sphere-specific E.n sum rule (ISelfD= 2).
 1st derivatives      : Analytical E(r).r(x)/FMM algorithm (CHGder, D1EAlg=3).
                        Cavity 1st derivative terms included.
 Solvent              : Water, Eps=  78.355300 Eps(inf)=   1.777849
 ------------------------------------------------------------------------------
 GePol: Number of generator spheres                  =      39
 GePol: Total number of spheres                      =      39
 GePol: Number of exposed spheres                    =      39 (100.00%)
 GePol: Number of points                             =    3075
 GePol: Average weight of points                     =       0.13
 GePol: Minimum weight of points                     =   0.16D-09
 GePol: Maximum weight of points                     =    0.20577
 GePol: Number of points with low weight             =     224
 GePol: Fraction of low-weight points (<1% of avg)   =       7.28%
 GePol: Cavity surface area                          =    396.615 Ang**2
 GePol: Cavity volume                                =    448.353 Ang**3
 Leave Link  301 at Sat Aug 21 11:52:08 2021, MaxMem=   104857600 cpu:               2.2 elap:               0.1
 (Enter /sw/arch/RedHatEnterpriseServer7/EB_production/2020/software/Gaussian/g16.c01/l302.exe)
 NPDir=0 NMtPBC=     1 NCelOv=     1 NCel=       1 NClECP=     1 NCelD=      1
         NCelK=      1 NCelE2=     1 NClLst=     1 CellRange=     0.0.
 One-electron integrals computed using PRISM.
 One-electron integral symmetry used in STVInt
 PrsmSu:  requested number of processors reduced to:  13 ShMem   1 Linda.
 NBasis=   527 RedAO= T EigKep=  8.16D-06  NBF=   527
 NBsUse=   527 1.00D-06 EigRej= -1.00D+00 NBFU=   527
 Precomputing XC quadrature grid using
 IXCGrd= 4 IRadAn=           5 IRanWt=          -1 IRanGd=           0 AccXCQ= 0.00D+00.
 Generated NRdTot=       0 NPtTot=           0 NUsed=           0 NTot=          32
 NSgBfM=   537   537   537   537   537 MxSgAt=    39 MxSgA2=    39.
 Leave Link  302 at Sat Aug 21 11:52:09 2021, MaxMem=   104857600 cpu:              12.9 elap:               0.6
 (Enter /sw/arch/RedHatEnterpriseServer7/EB_production/2020/software/Gaussian/g16.c01/l303.exe)
 DipDrv:  MaxL=1.
 Leave Link  303 at Sat Aug 21 11:52:09 2021, MaxMem=   104857600 cpu:               2.3 elap:               0.1
 (Enter /sw/arch/RedHatEnterpriseServer7/EB_production/2020/software/Gaussian/g16.c01/l401.exe)
 ExpMin= 9.04D-02 ExpMax= 5.65D+05 ExpMxC= 5.46D+03 IAcc=3 IRadAn=         5 AccDes= 0.00D+00
 Harris functional with IExCor=  404 and IRadAn=       5 diagonalized for initial guess.
 HarFok:  IExCor=  404 AccDes= 0.00D+00 IRadAn=         5 IDoV= 1 UseB2=F ITyADJ=14
 ICtDFT=  3500011 ScaDFX=  1.000000  1.000000  1.000000  1.000000
 FoFCou: FMM=F IPFlag=           0 FMFlag=      100000 FMFlg1=           0
         NFxFlg=           0 DoJE=T BraDBF=F KetDBF=T FulRan=T
         wScrn=  0.000000 ICntrl=       500 IOpCl=  0 I1Cent=   200000004 NGrid=           0
         NMat0=    1 NMatS0=      1 NMatT0=    0 NMatD0=    1 NMtDS0=    0 NMtDT0=    0
 Petite list used in FoFCou.
 Harris En= -3651.41433710044    
 JPrj=0 DoOrth=F DoCkMO=F.
 Leave Link  401 at Sat Aug 21 11:52:11 2021, MaxMem=   104857600 cpu:              38.0 elap:               1.6
 (Enter /sw/arch/RedHatEnterpriseServer7/EB_production/2020/software/Gaussian/g16.c01/l502.exe)
 Integral symmetry usage will be decided dynamically.
 Closed shell SCF:
 Using DIIS extrapolation, IDIIS=  1040.
 NGot=   104857600 LenX=   104233034 LenY=   103929984
 Requested convergence on RMS density matrix=1.00D-08 within 128 cycles.
 Requested convergence on MAX density matrix=1.00D-06.
 Requested convergence on             energy=1.00D-06.
 No special actions if energy rises.
 Fock matrices will be formed incrementally for  20 cycles.

 Cycle   1  Pass 1  IDiag  1:
 FoFJK:  IHMeth= 1 ICntrl=     500 DoSepK=F KAlg= 0 I1Cent=           0 FoldK=F
 IRaf= 830000000 NMat=       1 IRICut=       1 DoRegI=T DoRafI=F ISym2E= 0 IDoP0=0 IntGTp=1.
 FoFCou: FMM=F IPFlag=           0 FMFlag=      100000 FMFlg1=           0
         NFxFlg=           0 DoJE=T BraDBF=F KetDBF=F FulRan=T
         wScrn=  0.000000 ICntrl=       500 IOpCl=  0 I1Cent=           0 NGrid=           0
         NMat0=    1 NMatS0=      1 NMatT0=    0 NMatD0=    1 NMtDS0=    0 NMtDT0=    0
 Symmetry not used in FoFCou.
 Inv3:  Mode=1 IEnd=    28366875.
 Iteration    1 A*A^-1 deviation from unit magnitude is 2.78D-15 for    117.
 Iteration    1 A*A^-1 deviation from orthogonality  is 2.89D-15 for   2598    669.
 Iteration    1 A^-1*A deviation from unit magnitude is 2.89D-15 for   1647.
 Iteration    1 A^-1*A deviation from orthogonality  is 5.70D-15 for   1418   1327.
 E= -3650.47234235784    
 DIIS: error= 2.98D-02 at cycle   1 NSaved=   1.
 NSaved= 1 IEnMin= 1 EnMin= -3650.47234235784     IErMin= 1 ErrMin= 2.98D-02
 ErrMax= 2.98D-02  0.00D+00 EMaxC= 1.00D-01 BMatC= 5.75D-01 BMatP= 5.75D-01
 IDIUse=3 WtCom= 7.02D-01 WtEn= 2.98D-01
 Coeff-Com:  0.100D+01
 Coeff-En:   0.100D+01
 Coeff:      0.100D+01
 Gap=     0.128 Goal=   None    Shift=    0.000
 GapD=    0.128 DampG=1.000 DampE=0.500 DampFc=0.5000 IDamp=-1.
 Damping current iteration by 5.00D-01
 RMSDP=1.06D-02 MaxDP=5.74D-01              OVMax= 2.26D-01

 Cycle   2  Pass 1  IDiag  1:
 RMSU=  5.23D-03    CP:  1.06D+00
 E= -3650.61040544006     Delta-E=       -0.138063082213 Rises=F Damp=T
 DIIS: error= 1.14D-02 at cycle   2 NSaved=   2.
 NSaved= 2 IEnMin= 2 EnMin= -3650.61040544006     IErMin= 2 ErrMin= 1.14D-02
 ErrMax= 1.14D-02  0.00D+00 EMaxC= 1.00D-01 BMatC= 7.46D-02 BMatP= 5.75D-01
 IDIUse=3 WtCom= 8.86D-01 WtEn= 1.14D-01
 Coeff-Com:  0.162D+00 0.838D+00
 Coeff-En:   0.348D+00 0.652D+00
 Coeff:      0.183D+00 0.817D+00
 Gap=     0.137 Goal=   None    Shift=    0.000
 RMSDP=5.10D-03 MaxDP=2.83D-01 DE=-1.38D-01 OVMax= 2.18D-01

 Cycle   3  Pass 1  IDiag  1:
 RMSU=  2.45D-03    CP:  9.73D-01  1.71D-01
 E= -3650.89569305980     Delta-E=       -0.285287619746 Rises=F Damp=F
 DIIS: error= 1.40D-02 at cycle   3 NSaved=   3.
 NSaved= 3 IEnMin= 3 EnMin= -3650.89569305980     IErMin= 2 ErrMin= 1.14D-02
 ErrMax= 1.40D-02  0.00D+00 EMaxC= 1.00D-01 BMatC= 7.43D-02 BMatP= 7.46D-02
 IDIUse=3 WtCom= 8.60D-01 WtEn= 1.40D-01
 Coeff-Com:  0.263D-01 0.495D+00 0.479D+00
 Coeff-En:   0.000D+00 0.000D+00 0.100D+01
 Coeff:      0.226D-01 0.425D+00 0.552D+00
 Gap=     0.103 Goal=   None    Shift=    0.000
 RMSDP=2.76D-03 MaxDP=1.52D-01 DE=-2.85D-01 OVMax= 1.49D-01

 Cycle   4  Pass 1  IDiag  1:
 RMSU=  1.01D-03    CP:  1.02D+00  5.73D-01  4.56D-01
 E= -3650.92471388656     Delta-E=       -0.029020826762 Rises=F Damp=F
 DIIS: error= 1.32D-02 at cycle   4 NSaved=   4.
 NSaved= 4 IEnMin= 4 EnMin= -3650.92471388656     IErMin= 2 ErrMin= 1.14D-02
 ErrMax= 1.32D-02  0.00D+00 EMaxC= 1.00D-01 BMatC= 4.88D-02 BMatP= 7.43D-02
 IDIUse=3 WtCom= 8.68D-01 WtEn= 1.32D-01
 Coeff-Com: -0.254D-02 0.203D+00 0.424D+00 0.376D+00
 Coeff-En:   0.000D+00 0.000D+00 0.426D+00 0.574D+00
 Coeff:     -0.220D-02 0.176D+00 0.424D+00 0.402D+00
 Gap=     0.111 Goal=   None    Shift=    0.000
 RMSDP=1.06D-03 MaxDP=6.53D-02 DE=-2.90D-02 OVMax= 8.01D-02

 Cycle   5  Pass 1  IDiag  1:
 RMSU=  3.70D-04    CP:  1.00D+00  4.34D-01  6.19D-01  5.06D-01
 E= -3650.98128047507     Delta-E=       -0.056566588509 Rises=F Damp=F
 DIIS: error= 1.67D-03 at cycle   5 NSaved=   5.
 NSaved= 5 IEnMin= 5 EnMin= -3650.98128047507     IErMin= 5 ErrMin= 1.67D-03
 ErrMax= 1.67D-03  0.00D+00 EMaxC= 1.00D-01 BMatC= 1.53D-03 BMatP= 4.88D-02
 IDIUse=3 WtCom= 9.83D-01 WtEn= 1.67D-02
 Coeff-Com: -0.312D-02 0.438D-01 0.171D+00 0.219D+00 0.570D+00
 Coeff-En:   0.000D+00 0.000D+00 0.000D+00 0.000D+00 0.100D+01
 Coeff:     -0.307D-02 0.431D-01 0.168D+00 0.215D+00 0.577D+00
 Gap=     0.109 Goal=   None    Shift=    0.000
 RMSDP=2.01D-04 MaxDP=1.07D-02 DE=-5.66D-02 OVMax= 1.17D-02

 Cycle   6  Pass 1  IDiag  1:
 RMSU=  9.04D-05    CP:  1.00D+00  4.11D-01  6.46D-01  5.34D-01  6.96D-01
 E= -3650.98256012056     Delta-E=       -0.001279645489 Rises=F Damp=F
 DIIS: error= 8.07D-04 at cycle   6 NSaved=   6.
 NSaved= 6 IEnMin= 6 EnMin= -3650.98256012056     IErMin= 6 ErrMin= 8.07D-04
 ErrMax= 8.07D-04  0.00D+00 EMaxC= 1.00D-01 BMatC= 2.98D-04 BMatP= 1.53D-03
 IDIUse=3 WtCom= 9.92D-01 WtEn= 8.07D-03
 Coeff-Com: -0.220D-02 0.768D-02 0.668D-01 0.102D+00 0.375D+00 0.451D+00
 Coeff-En:   0.000D+00 0.000D+00 0.000D+00 0.000D+00 0.166D+00 0.834D+00
 Coeff:     -0.218D-02 0.762D-02 0.663D-01 0.101D+00 0.373D+00 0.454D+00
 Gap=     0.109 Goal=   None    Shift=    0.000
 RMSDP=6.13D-05 MaxDP=2.25D-03 DE=-1.28D-03 OVMax= 4.62D-03

 Cycle   7  Pass 1  IDiag  1:
 RMSU=  2.86D-05    CP:  1.00D+00  4.17D-01  6.45D-01  5.29D-01  7.46D-01
                    CP:  5.65D-01
 E= -3650.98284937264     Delta-E=       -0.000289252082 Rises=F Damp=F
 DIIS: error= 1.52D-04 at cycle   7 NSaved=   7.
 NSaved= 7 IEnMin= 7 EnMin= -3650.98284937264     IErMin= 7 ErrMin= 1.52D-04
 ErrMax= 1.52D-04  0.00D+00 EMaxC= 1.00D-01 BMatC= 1.50D-05 BMatP= 2.98D-04
 IDIUse=3 WtCom= 9.98D-01 WtEn= 1.52D-03
 Coeff-Com: -0.104D-02 0.162D-02 0.258D-01 0.413D-01 0.169D+00 0.260D+00
 Coeff-Com:  0.503D+00
 Coeff-En:   0.000D+00 0.000D+00 0.000D+00 0.000D+00 0.000D+00 0.000D+00
 Coeff-En:   0.100D+01
 Coeff:     -0.104D-02 0.162D-02 0.258D-01 0.413D-01 0.169D+00 0.260D+00
 Coeff:      0.504D+00
 Gap=     0.109 Goal=   None    Shift=    0.000
 RMSDP=1.85D-05 MaxDP=7.63D-04 DE=-2.89D-04 OVMax= 1.43D-03

 Cycle   8  Pass 1  IDiag  1:
 RMSU=  7.95D-06    CP:  1.00D+00  4.18D-01  6.42D-01  5.34D-01  7.43D-01
                    CP:  6.01D-01  5.96D-01
 E= -3650.98286309968     Delta-E=       -0.000013727033 Rises=F Damp=F
 DIIS: error= 6.04D-05 at cycle   8 NSaved=   8.
 NSaved= 8 IEnMin= 8 EnMin= -3650.98286309968     IErMin= 8 ErrMin= 6.04D-05
 ErrMax= 6.04D-05  0.00D+00 EMaxC= 1.00D-01 BMatC= 2.49D-06 BMatP= 1.50D-05
 IDIUse=1 WtCom= 1.00D+00 WtEn= 0.00D+00
 Coeff-Com: -0.177D-03-0.304D-04 0.441D-02 0.729D-02 0.388D-01 0.847D-01
 Coeff-Com:  0.316D+00 0.549D+00
 Coeff:     -0.177D-03-0.304D-04 0.441D-02 0.729D-02 0.388D-01 0.847D-01
 Coeff:      0.316D+00 0.549D+00
 Gap=     0.109 Goal=   None    Shift=    0.000
 RMSDP=5.20D-06 MaxDP=2.12D-04 DE=-1.37D-05 OVMax= 5.99D-04

 Cycle   9  Pass 1  IDiag  1:
 RMSU=  3.14D-06    CP:  1.00D+00  4.18D-01  6.43D-01  5.34D-01  7.44D-01
                    CP:  5.93D-01  6.49D-01  6.38D-01
 E= -3650.98286529283     Delta-E=       -0.000002193152 Rises=F Damp=F
 DIIS: error= 2.54D-05 at cycle   9 NSaved=   9.
 NSaved= 9 IEnMin= 9 EnMin= -3650.98286529283     IErMin= 9 ErrMin= 2.54D-05
 ErrMax= 2.54D-05  0.00D+00 EMaxC= 1.00D-01 BMatC= 4.67D-07 BMatP= 2.49D-06
 IDIUse=1 WtCom= 1.00D+00 WtEn= 0.00D+00
 Coeff-Com: -0.109D-04-0.105D-03 0.698D-03 0.110D-02 0.111D-01 0.339D-01
 Coeff-Com:  0.166D+00 0.372D+00 0.416D+00
 Coeff:     -0.109D-04-0.105D-03 0.698D-03 0.110D-02 0.111D-01 0.339D-01
 Coeff:      0.166D+00 0.372D+00 0.416D+00
 Gap=     0.109 Goal=   None    Shift=    0.000
 RMSDP=2.28D-06 MaxDP=1.13D-04 DE=-2.19D-06 OVMax= 2.04D-04

 Cycle  10  Pass 1  IDiag  1:
 RMSU=  8.93D-07    CP:  1.00D+00  4.18D-01  6.43D-01  5.33D-01  7.44D-01
                    CP:  6.00D-01  6.54D-01  6.88D-01  6.10D-01
 E= -3650.98286589901     Delta-E=       -0.000000606179 Rises=F Damp=F
 DIIS: error= 3.37D-06 at cycle  10 NSaved=  10.
 NSaved=10 IEnMin=10 EnMin= -3650.98286589901     IErMin=10 ErrMin= 3.37D-06
 ErrMax= 3.37D-06  0.00D+00 EMaxC= 1.00D-01 BMatC= 8.35D-09 BMatP= 4.67D-07
 IDIUse=1 WtCom= 1.00D+00 WtEn= 0.00D+00
 Coeff-Com: -0.191D-05-0.577D-04 0.170D-03 0.234D-03 0.421D-02 0.142D-01
 Coeff-Com:  0.737D-01 0.172D+00 0.217D+00 0.519D+00
 Coeff:     -0.191D-05-0.577D-04 0.170D-03 0.234D-03 0.421D-02 0.142D-01
 Coeff:      0.737D-01 0.172D+00 0.217D+00 0.519D+00
 Gap=     0.109 Goal=   None    Shift=    0.000
 RMSDP=4.57D-07 MaxDP=1.42D-05 DE=-6.06D-07 OVMax= 2.52D-05

 Cycle  11  Pass 1  IDiag  1:
 RMSU=  3.31D-07    CP:  1.00D+00  4.18D-01  6.43D-01  5.33D-01  7.44D-01
                    CP:  6.00D-01  6.59D-01  6.81D-01  6.01D-01  8.72D-01
 E= -3650.98286588611     Delta-E=        0.000000012898 Rises=F Damp=F
 DIIS: error= 1.59D-06 at cycle  11 NSaved=  11.
 NSaved=11 IEnMin=10 EnMin= -3650.98286589901     IErMin=11 ErrMin= 1.59D-06
 ErrMax= 1.59D-06  0.00D+00 EMaxC= 1.00D-01 BMatC= 1.24D-09 BMatP= 8.35D-09
 IDIUse=1 WtCom= 1.00D+00 WtEn= 0.00D+00
 Coeff-Com: -0.197D-05-0.815D-05 0.140D-04-0.712D-05 0.865D-03 0.331D-02
 Coeff-Com:  0.178D-01 0.432D-01 0.626D-01 0.303D+00 0.569D+00
 Coeff:     -0.197D-05-0.815D-05 0.140D-04-0.712D-05 0.865D-03 0.331D-02
 Coeff:      0.178D-01 0.432D-01 0.626D-01 0.303D+00 0.569D+00
 Gap=     0.109 Goal=   None    Shift=    0.000
 RMSDP=1.05D-07 MaxDP=6.95D-06 DE= 1.29D-08 OVMax= 8.35D-06

 Cycle  12  Pass 1  IDiag  1:
 RMSU=  6.93D-08    CP:  1.00D+00  4.18D-01  6.43D-01  5.33D-01  7.44D-01
                    CP:  6.00D-01  6.59D-01  6.83D-01  6.02D-01  8.89D-01
                    CP:  8.19D-01
 E= -3650.98286590682     Delta-E=       -0.000000020711 Rises=F Damp=F
 DIIS: error= 2.36D-07 at cycle  12 NSaved=  12.
 NSaved=12 IEnMin=12 EnMin= -3650.98286590682     IErMin=12 ErrMin= 2.36D-07
 ErrMax= 2.36D-07  0.00D+00 EMaxC= 1.00D-01 BMatC= 4.78D-11 BMatP= 1.24D-09
 IDIUse=1 WtCom= 1.00D+00 WtEn= 0.00D+00
 Coeff-Com: -0.853D-06-0.420D-06 0.301D-06-0.111D-04 0.261D-03 0.104D-02
 Coeff-Com:  0.552D-02 0.137D-01 0.212D-01 0.128D+00 0.283D+00 0.548D+00
 Coeff:     -0.853D-06-0.420D-06 0.301D-06-0.111D-04 0.261D-03 0.104D-02
 Coeff:      0.552D-02 0.137D-01 0.212D-01 0.128D+00 0.283D+00 0.548D+00
 Gap=     0.109 Goal=   None    Shift=    0.000
 RMSDP=3.66D-08 MaxDP=1.07D-06 DE=-2.07D-08 OVMax= 1.76D-06

 Cycle  13  Pass 1  IDiag  1:
 RMSU=  2.42D-08    CP:  1.00D+00  4.18D-01  6.43D-01  5.33D-01  7.44D-01
                    CP:  6.00D-01  6.59D-01  6.84D-01  6.04D-01  8.96D-01
                    CP:  7.88D-01  8.58D-01
 E= -3650.98286590684     Delta-E=       -0.000000000024 Rises=F Damp=F
 DIIS: error= 9.97D-08 at cycle  13 NSaved=  13.
 NSaved=13 IEnMin=13 EnMin= -3650.98286590684     IErMin=13 ErrMin= 9.97D-08
 ErrMax= 9.97D-08  0.00D+00 EMaxC= 1.00D-01 BMatC= 6.84D-12 BMatP= 4.78D-11
 IDIUse=1 WtCom= 1.00D+00 WtEn= 0.00D+00
 Coeff-Com: -0.374D-06 0.415D-06-0.187D-05-0.676D-05 0.669D-04 0.290D-03
 Coeff-Com:  0.152D-02 0.393D-02 0.662D-02 0.477D-01 0.115D+00 0.326D+00
 Coeff-Com:  0.500D+00
 Coeff:     -0.374D-06 0.415D-06-0.187D-05-0.676D-05 0.669D-04 0.290D-03
 Coeff:      0.152D-02 0.393D-02 0.662D-02 0.477D-01 0.115D+00 0.326D+00
 Coeff:      0.500D+00
 Gap=     0.109 Goal=   None    Shift=    0.000
 RMSDP=7.37D-09 MaxDP=2.18D-07 DE=-2.41D-11 OVMax= 6.91D-07

 Error on total polarization charges =  0.02274
 SCF Done:  E(RB-P86) =  -3650.98286591     A.U. after   13 cycles
            NFock= 13  Conv=0.74D-08     -V/T= 2.0025
 KE= 3.641814526853D+03 PE=-1.293161634925D+04 EE= 3.507890767395D+03
 Leave Link  502 at Sat Aug 21 11:53:46 2021, MaxMem=   104857600 cpu:            2232.7 elap:              94.3
 (Enter /sw/arch/RedHatEnterpriseServer7/EB_production/2020/software/Gaussian/g16.c01/l601.exe)
 Copying SCF densities to generalized density rwf, IOpCl= 0 IROHF=0.

 **********************************************************************

            Population analysis using the SCF Density.

 **********************************************************************

 Orbital symmetries:
       Occupied  (A) (A) (A) (A) (A) (A) (A) (A) (A) (A) (A) (A)
                 (A) (A) (A) (A) (A) (A) (A) (A) (A) (A) (A) (A)
                 (A) (A) (A) (A) (A) (A) (A) (A) (A) (A) (A) (A)
                 (A) (A) (A) (A) (A) (A) (A) (A) (A) (A) (A) (A)
                 (A) (A) (A) (A) (A) (A) (A) (A) (A) (A) (A) (A)
                 (A) (A) (A) (A) (A) (A) (A) (A) (A) (A) (A) (A)
                 (A) (A) (A) (A) (A) (A) (A) (A) (A) (A) (A) (A)
                 (A) (A) (A) (A) (A) (A) (A)
       Virtual   (A) (A) (A) (A) (A) (A) (A) (A) (A) (A) (A) (A)
                 (A) (A) (A) (A) (A) (A) (A) (A) (A) (A) (A) (A)
                 (A) (A) (A) (A) (A) (A) (A) (A) (A) (A) (A) (A)
                 (A) (A) (A) (A) (A) (A) (A) (A) (A) (A) (A) (A)
                 (A) (A) (A) (A) (A) (A) (A) (A) (A) (A) (A) (A)
                 (A) (A) (A) (A) (A) (A) (A) (A) (A) (A) (A) (A)
                 (A) (A) (A) (A) (A) (A) (A) (A) (A) (A) (A) (A)
                 (A) (A) (A) (A) (A) (A) (A) (A) (A) (A) (A) (A)
                 (A) (A) (A) (A) (A) (A) (A) (A) (A) (A) (A) (A)
                 (A) (A) (A) (A) (A) (A) (A) (A) (A) (A) (A) (A)
                 (A) (A) (A) (A) (A) (A) (A) (A) (A) (A) (A) (A)
                 (A) (A) (A) (A) (A) (A) (A) (A) (A) (A) (A) (A)
                 (A) (A) (A) (A) (A) (A) (A) (A) (A) (A) (A) (A)
                 (A) (A) (A) (A) (A) (A) (A) (A) (A) (A) (A) (A)
                 (A) (A) (A) (A) (A) (A) (A) (A) (A) (A) (A) (A)
                 (A) (A) (A) (A) (A) (A) (A) (A) (A) (A) (A) (A)
                 (A) (A) (A) (A) (A) (A) (A) (A) (A) (A) (A) (A)
                 (A) (A) (A) (A) (A) (A) (A) (A) (A) (A) (A) (A)
                 (A) (A) (A) (A) (A) (A) (A) (A) (A) (A) (A) (A)
                 (A) (A) (A) (A) (A) (A) (A) (A) (A) (A) (A) (A)
                 (A) (A) (A) (A) (A) (A) (A) (A) (A) (A) (A) (A)
                 (A) (A) (A) (A) (A) (A) (A) (A) (A) (A) (A) (A)
                 (A) (A) (A) (A) (A) (A) (A) (A) (A) (A) (A) (A)
                 (A) (A) (A) (A) (A) (A) (A) (A) (A) (A) (A) (A)
                 (A) (A) (A) (A) (A) (A) (A) (A) (A) (A) (A) (A)
                 (A) (A) (A) (A) (A) (A) (A) (A) (A) (A) (A) (A)
                 (A) (A) (A) (A) (A) (A) (A) (A) (A) (A) (A) (A)
                 (A) (A) (A) (A) (A) (A) (A) (A) (A) (A) (A) (A)
                 (A) (A) (A) (A) (A) (A) (A) (A) (A) (A) (A) (A)
                 (A) (A) (A) (A) (A) (A) (A) (A) (A) (A) (A) (A)
                 (A) (A) (A) (A) (A) (A) (A) (A) (A) (A) (A) (A)
                 (A) (A) (A) (A) (A) (A) (A) (A) (A) (A) (A) (A)
                 (A) (A) (A) (A) (A) (A) (A) (A) (A) (A) (A) (A)
                 (A) (A) (A) (A) (A) (A) (A) (A) (A) (A) (A) (A)
                 (A) (A) (A) (A) (A) (A) (A) (A) (A) (A) (A) (A)
                 (A) (A) (A) (A) (A) (A) (A) (A) (A) (A) (A) (A)
                 (A) (A) (A) (A)
 The electronic state is 1-A.
 Alpha  occ. eigenvalues -- -481.05186 -76.48441 -61.74391 -55.65516 -55.65516
 Alpha  occ. eigenvalues --  -55.65512  -9.94674  -9.94652  -9.94616  -9.94012
 Alpha  occ. eigenvalues --   -9.93183  -9.93143  -9.93102  -9.92724  -9.92684
 Alpha  occ. eigenvalues --   -9.92644  -9.92288  -9.92241  -9.92204  -9.92183
 Alpha  occ. eigenvalues --   -9.92134  -9.92095  -9.92037  -9.91988  -9.91951
 Alpha  occ. eigenvalues --   -8.31751  -6.41506  -6.18784  -6.18783  -6.18774
 Alpha  occ. eigenvalues --   -4.63218  -4.63186  -4.63185  -2.39257  -2.39257
 Alpha  occ. eigenvalues --   -2.39250  -2.39250  -2.39249  -0.82106  -0.80759
 Alpha  occ. eigenvalues --   -0.80673  -0.75444  -0.70623  -0.70506  -0.70469
 Alpha  occ. eigenvalues --   -0.70118  -0.70091  -0.68639  -0.61733  -0.60478
 Alpha  occ. eigenvalues --   -0.57286  -0.57278  -0.57259  -0.56487  -0.56483
 Alpha  occ. eigenvalues --   -0.53157  -0.49552  -0.49517  -0.47263  -0.43919
 Alpha  occ. eigenvalues --   -0.43731  -0.43704  -0.42402  -0.42352  -0.41662
 Alpha  occ. eigenvalues --   -0.41654  -0.41611  -0.40096  -0.39699  -0.39691
 Alpha  occ. eigenvalues --   -0.38195  -0.38180  -0.38057  -0.35971  -0.35923
 Alpha  occ. eigenvalues --   -0.35316  -0.33689  -0.32721  -0.32702  -0.32357
 Alpha  occ. eigenvalues --   -0.31754  -0.31732  -0.26519  -0.26492  -0.25719
 Alpha  occ. eigenvalues --   -0.25520  -0.25489  -0.25315  -0.20018  -0.20012
 Alpha  occ. eigenvalues --   -0.19817
 Alpha virt. eigenvalues --   -0.08951  -0.08930  -0.07868  -0.06749  -0.06245
 Alpha virt. eigenvalues --   -0.06232   0.00170   0.00828   0.00860   0.01057
 Alpha virt. eigenvalues --    0.04018   0.04217   0.04224   0.05454   0.06073
 Alpha virt. eigenvalues --    0.06112   0.06793   0.06910   0.06944   0.07720
 Alpha virt. eigenvalues --    0.07976   0.07997   0.08765   0.08818   0.08986
 Alpha virt. eigenvalues --    0.09731   0.10118   0.10180   0.11223   0.11260
 Alpha virt. eigenvalues --    0.13157   0.14021   0.14394   0.14438   0.16359
 Alpha virt. eigenvalues --    0.16626   0.16640   0.17115   0.17315   0.17357
 Alpha virt. eigenvalues --    0.18152   0.18200   0.18608   0.19241   0.19457
 Alpha virt. eigenvalues --    0.19510   0.20704   0.20763   0.20864   0.21154
 Alpha virt. eigenvalues --    0.21643   0.21693   0.22681   0.22954   0.22997
 Alpha virt. eigenvalues --    0.23463   0.23596   0.23604   0.24655   0.24760
 Alpha virt. eigenvalues --    0.24872   0.25582   0.27185   0.27242   0.28077
 Alpha virt. eigenvalues --    0.29029   0.29062   0.29607   0.29704   0.30291
 Alpha virt. eigenvalues --    0.30480   0.30536   0.31081   0.32581   0.32738
 Alpha virt. eigenvalues --    0.32756   0.33064   0.33706   0.33731   0.35032
 Alpha virt. eigenvalues --    0.35476   0.35484   0.35826   0.36773   0.36920
 Alpha virt. eigenvalues --    0.36975   0.38651   0.38688   0.38699   0.39432
 Alpha virt. eigenvalues --    0.39511   0.39736   0.39768   0.40663   0.40766
 Alpha virt. eigenvalues --    0.40810   0.41019   0.41910   0.41987   0.42128
 Alpha virt. eigenvalues --    0.43110   0.43771   0.43831   0.44425   0.44808
 Alpha virt. eigenvalues --    0.44862   0.45659   0.45699   0.45746   0.47074
 Alpha virt. eigenvalues --    0.47169   0.47280   0.47546   0.47656   0.48776
 Alpha virt. eigenvalues --    0.49299   0.49357   0.51029   0.51603   0.53723
 Alpha virt. eigenvalues --    0.53843   0.55539   0.55670   0.57047   0.57159
 Alpha virt. eigenvalues --    0.57294   0.58238   0.59411   0.60089   0.60182
 Alpha virt. eigenvalues --    0.61888   0.61958   0.62007   0.63061   0.63523
 Alpha virt. eigenvalues --    0.63610   0.64022   0.65699   0.65788   0.66831
 Alpha virt. eigenvalues --    0.67765   0.67904   0.69766   0.70707   0.70859
 Alpha virt. eigenvalues --    0.73174   0.73999   0.74146   0.75293   0.77929
 Alpha virt. eigenvalues --    0.78018   0.79117   0.79618   0.79643   0.82628
 Alpha virt. eigenvalues --    0.82719   0.83689   0.85551   0.87181   0.87198
 Alpha virt. eigenvalues --    0.89488   1.07699   1.07883   1.11277   1.11335
 Alpha virt. eigenvalues --    1.11478   1.13864   1.15760   1.15787   1.16483
 Alpha virt. eigenvalues --    1.16507   1.17109   1.17710   1.18074   1.18093
 Alpha virt. eigenvalues --    1.18840   1.18869   1.19299   1.20701   1.20796
 Alpha virt. eigenvalues --    1.20811   1.22380   1.22403   1.22718   1.23703
 Alpha virt. eigenvalues --    1.24124   1.24137   1.24148   1.26980   1.27006
 Alpha virt. eigenvalues --    1.28088   1.28191   1.28590   1.28781   1.28803
 Alpha virt. eigenvalues --    1.29572   1.32281   1.32353   1.33409   1.34571
 Alpha virt. eigenvalues --    1.35855   1.35891   1.36463   1.36499   1.36511
 Alpha virt. eigenvalues --    1.36876   1.37200   1.37379   1.37402   1.38798
 Alpha virt. eigenvalues --    1.38829   1.39943   1.39996   1.40563   1.41024
 Alpha virt. eigenvalues --    1.41969   1.42029   1.42086   1.43341   1.43367
 Alpha virt. eigenvalues --    1.44117   1.45138   1.45238   1.45629   1.45847
 Alpha virt. eigenvalues --    1.45899   1.46109   1.46914   1.48457   1.48611
 Alpha virt. eigenvalues --    1.49325   1.50293   1.50372   1.50655   1.52259
 Alpha virt. eigenvalues --    1.52395   1.54716   1.55812   1.55882   1.56233
 Alpha virt. eigenvalues --    1.58398   1.58684   1.58731   1.61365   1.61534
 Alpha virt. eigenvalues --    1.63307   1.65114   1.65194   1.65620   1.68128
 Alpha virt. eigenvalues --    1.68155   1.68783   1.68927   1.68960   1.69083
 Alpha virt. eigenvalues --    1.70282   1.70299   1.70478   1.71866   1.71964
 Alpha virt. eigenvalues --    1.72660   1.72698   1.73096   1.76179   1.76331
 Alpha virt. eigenvalues --    1.77413   1.79049   1.79131   1.79148   1.79558
 Alpha virt. eigenvalues --    1.79582   1.79830   1.79903   1.80015   1.80514
 Alpha virt. eigenvalues --    1.82019   1.82441   1.82530   1.82974   1.83182
 Alpha virt. eigenvalues --    1.83203   1.84871   1.84960   1.85975   1.86098
 Alpha virt. eigenvalues --    1.86183   1.88922   1.89148   1.89165   1.91934
 Alpha virt. eigenvalues --    1.92508   1.92669   1.92913   1.93916   1.94012
 Alpha virt. eigenvalues --    1.95159   1.97105   1.97231   1.98668   2.01070
 Alpha virt. eigenvalues --    2.01168   2.01446   2.06101   2.06195   2.07895
 Alpha virt. eigenvalues --    2.14404   2.17067   2.17269   2.18393   2.18971
 Alpha virt. eigenvalues --    2.20699   2.20732   2.21801   2.22394   2.22611
 Alpha virt. eigenvalues --    2.23137   2.23206   2.23711   2.24062   2.24265
 Alpha virt. eigenvalues --    2.24327   2.24517   2.24606   2.25284   2.25425
 Alpha virt. eigenvalues --    2.25540   2.27826   2.27956   2.28187   2.34670
 Alpha virt. eigenvalues --    2.35451   2.35507   2.39166   2.39769   2.39899
 Alpha virt. eigenvalues --    2.41536   2.41676   2.41818   2.43114   2.43905
 Alpha virt. eigenvalues --    2.44005   2.44115   2.46733   2.46819   2.50214
 Alpha virt. eigenvalues --    2.50545   2.50726   2.53678   2.54022   2.54221
 Alpha virt. eigenvalues --    2.54336   2.54505   2.56344   2.57556   2.57637
 Alpha virt. eigenvalues --    2.58041   2.59132   2.59290   2.59581   2.61645
 Alpha virt. eigenvalues --    2.61787   2.64863   2.65107   2.65359   2.67036
 Alpha virt. eigenvalues --    2.71299   2.71405   2.73184   2.74585   2.74779
 Alpha virt. eigenvalues --    2.77518   2.81345   2.81418   2.84122   2.86675
 Alpha virt. eigenvalues --    2.86700   2.89905   2.89991   2.92114   2.92183
 Alpha virt. eigenvalues --    2.92318   2.92384   2.95599   2.95691   2.97356
 Alpha virt. eigenvalues --    3.00325   3.00477   3.00534   3.01478   3.03673
 Alpha virt. eigenvalues --    3.03755   3.04969   3.06816   3.06871   3.09699
 Alpha virt. eigenvalues --    3.09866   3.10806   3.12101   3.12228   3.12724
 Alpha virt. eigenvalues --    3.14363   3.20414   3.20476   3.22494   3.22668
 Alpha virt. eigenvalues --    3.22993   3.30419   3.31287   3.31370   3.42378
 Alpha virt. eigenvalues --    3.42559   3.46884   3.63271   3.64082   3.64496
 Alpha virt. eigenvalues --    7.03991  14.23961  21.03889  21.04073  21.09295
 Alpha virt. eigenvalues --   21.57618  21.57717  21.59005  21.61935  21.62283
 Alpha virt. eigenvalues --   21.63525  21.80556  21.81156  21.81319  21.82826
 Alpha virt. eigenvalues --   21.86359  21.86640  21.92164  21.97399  21.98906
 Alpha virt. eigenvalues --   21.99259
          Condensed to atoms (all electrons):
               1          2          3          4          5          6
     1  C    5.229986   0.292634  -0.067110   0.016004  -0.001457   0.000829
     2  P    0.292634  14.031585   0.233825  -0.079636   0.021351  -0.003517
     3  C   -0.067110   0.233825   6.172004  -0.070023   0.209020  -0.234085
     4  C    0.016004  -0.079636  -0.070023   5.676594   0.097761   0.160759
     5  C   -0.001457   0.021351   0.209020   0.097761   5.334472   0.238820
     6  C    0.000829  -0.003517  -0.234085   0.160759   0.238820   5.216171
     7  C   -0.000443   0.012252   0.171916  -0.231794   0.135542   0.274706
     8  C    0.004745  -0.041406   0.052910   0.102853  -0.231040   0.103059
     9  C   -0.065025   0.233961  -0.030724   0.021436  -0.000625   0.000146
    10  C    0.016321  -0.083301  -0.044460  -0.011019  -0.003621   0.001420
    11  C   -0.001435   0.023033  -0.003989   0.006036  -0.000912   0.000211
    12  C    0.000791  -0.003982   0.000478  -0.000934   0.000070  -0.000015
    13  C   -0.000235   0.012592  -0.002703   0.000592  -0.000080   0.000025
    14  C    0.003090  -0.041486   0.016203  -0.004359   0.000798  -0.000277
    15  C   -0.064828   0.236124  -0.031652  -0.044224  -0.004208   0.000459
    16  C    0.015081  -0.081068   0.020060  -0.009931   0.005901  -0.000908
    17  C   -0.001301   0.022642  -0.000769  -0.003393  -0.000907   0.000070
    18  C    0.000718  -0.003777   0.000158   0.001418   0.000224  -0.000016
    19  C   -0.000084   0.011919  -0.000221  -0.001505  -0.000292   0.000035
    20  C    0.002971  -0.041127  -0.016974   0.011245  -0.001261   0.000211
    21  Br   0.000002   0.006025  -0.006938  -0.033214   0.013297  -0.001250
[...]
    37  H    0.000000  -0.000000  -0.000002  -0.000001   0.000000  -0.000000
    38  H   -0.000000   0.000001  -0.000003   0.000002  -0.000000   0.000000
    39  H    0.000044  -0.000709   0.000967  -0.000126   0.000011  -0.000004
              13         14         15         16         17         18
     1  C   -0.000757   0.001997  -0.062231   0.014930  -0.001375   0.000754
     2  P    0.013986  -0.045268   0.262437  -0.081617   0.022605  -0.004192
     3  C   -0.002823   0.016447  -0.028720   0.017052  -0.000394  -0.000031
     4  C    0.000542  -0.003923  -0.038479  -0.008791  -0.002988   0.001286
     5  C   -0.000071   0.000721  -0.004282   0.004970  -0.000849   0.000206
     6  C    0.000022  -0.000252   0.000699  -0.000809   0.000063  -0.000014
     7  C   -0.000040   0.000549  -0.002806   0.000543  -0.000071   0.000023
     8  C    0.000080  -0.000683   0.016329  -0.004062   0.000709  -0.000254
     9  C    0.177883   0.052634  -0.030230  -0.036391  -0.004639   0.000823
    10  C   -0.236296   0.111726   0.018700  -0.010050   0.005130  -0.000856
    11  C    0.137469  -0.227742  -0.000506  -0.002969  -0.000880   0.000066
    12  C    0.250538   0.109014   0.000024   0.001228   0.000204  -0.000015
    13  C    5.318792   0.155357   0.000181  -0.001179  -0.000319   0.000036
    14  C    0.155357   5.474342  -0.015508   0.010214  -0.001332   0.000220
    15  C    0.000181  -0.015508   6.127830  -0.077553   0.211291  -0.232939
    16  C   -0.001179   0.010214  -0.077553   5.687925   0.083330   0.165109
    17  C   -0.000319  -0.001332   0.211291   0.083330   5.375579   0.220142
    18  C    0.000036   0.000220  -0.232939   0.165109   0.220142   5.257645
    19  C   -0.000042   0.000075   0.179841  -0.238706   0.139630   0.248322
    20  C    0.000552  -0.000513   0.050634   0.118907  -0.230974   0.110403
    21  Br   0.000324  -0.000581  -0.004748  -0.030276   0.010465  -0.001257
    22  H    0.000026   0.000676  -0.007740  -0.000871   0.000077  -0.000085
    23  H   -0.000876  -0.002586   0.006323  -0.000238   0.000006   0.000001
    24  H    0.000519  -0.000953  -0.004609   0.002039  -0.000165   0.000115
    25  H    0.000054  -0.000848   0.013907  -0.017042   0.003837  -0.001697
    26  H   -0.000001   0.000004  -0.000103   0.000314  -0.000014   0.000003
    27  H    0.000000  -0.000000  -0.000002  -0.000001   0.000000  -0.000000
    28  H   -0.000000   0.000001  -0.000002   0.000002  -0.000000   0.000000
    29  H    0.000040  -0.000692   0.000957  -0.000119   0.000011  -0.000005
    30  H   -0.007389   0.021125  -0.005674   0.004546   0.000081  -0.000009
    31  H    0.015867  -0.003163  -0.000039  -0.000117  -0.000026   0.000001
    32  H   -0.065532   0.018953   0.000011  -0.000003   0.000001  -0.000000
    33  H    0.436511  -0.062312  -0.000014  -0.000000   0.000001   0.000000
    34  H   -0.059514   0.440429  -0.002556   0.000649  -0.000015  -0.000010
    35  H    0.001258   0.000656  -0.114582   0.450753  -0.063089   0.021709
    36  H   -0.000002  -0.000022   0.028029  -0.075102   0.439561  -0.066458
    37  H    0.000000  -0.000000  -0.005024   0.020086  -0.063041   0.437684
    38  H    0.000000  -0.000000   0.019368  -0.002509   0.014861  -0.062069
    39  H    0.000022  -0.000005  -0.074148   0.018967  -0.005790   0.016123
              19         20         21         22         23         24
     1  C   -0.000608   0.001934  -0.000002   0.379934   0.380413   0.380569
     2  P    0.013495  -0.045397   0.004818  -0.009106  -0.009645  -0.009960
     3  C    0.000187  -0.015603  -0.004771  -0.004834  -0.007485   0.006330
     4  C   -0.001227   0.010144  -0.029321   0.001967  -0.000865  -0.000245
     5  C   -0.000310  -0.001233   0.010153  -0.000169   0.000076   0.000007
     6  C    0.000036   0.000215  -0.001132   0.000118  -0.000086   0.000001
     7  C   -0.000042   0.000098   0.000319  -0.000876   0.000516   0.000028
     8  C    0.000564  -0.000682  -0.000619  -0.002467  -0.000919   0.000644
     9  C   -0.002908   0.016529  -0.004809   0.006337  -0.004735  -0.007472
    10  C    0.000560  -0.004106  -0.029809  -0.000246   0.001962  -0.000856
    11  C   -0.000071   0.000713   0.010372   0.000007  -0.000167   0.000075
    12  C    0.000022  -0.000249  -0.001136   0.000001   0.000116  -0.000085
    13  C   -0.000042   0.000552   0.000324   0.000026  -0.000876   0.000519
    14  C    0.000075  -0.000513  -0.000581   0.000676  -0.002586  -0.000953
    15  C    0.179841   0.050634  -0.004748  -0.007740   0.006323  -0.004609
    16  C   -0.238706   0.118907  -0.030276  -0.000871  -0.000238   0.002039
    17  C    0.139630  -0.230974   0.010465   0.000077   0.000006  -0.000165
    18  C    0.248322   0.110403  -0.001257  -0.000085   0.000001   0.000115
    19  C    5.319985   0.155199   0.000341   0.000505   0.000027  -0.000856
    20  C    0.155199   5.471156  -0.000606  -0.000784   0.000658  -0.002670
    21  Br   0.000341  -0.000606  35.948259   0.000001   0.000001   0.000001
    22  H    0.000505  -0.000784   0.000001   0.436656  -0.013298  -0.013154
    23  H    0.000027   0.000658   0.000001  -0.013298   0.436862  -0.013169
    24  H   -0.000856  -0.002670   0.000001  -0.013154  -0.013169   0.436823
    25  H    0.001261   0.000607   0.014092   0.000047  -0.000022  -0.000010
    26  H   -0.000002  -0.000020   0.006184  -0.000001   0.000000  -0.000000
    27  H    0.000000  -0.000001  -0.000039   0.000000  -0.000000  -0.000000
    28  H    0.000000  -0.000000   0.000001  -0.000008   0.000004  -0.000000
    29  H    0.000023  -0.000012   0.000002  -0.000566  -0.001591   0.000246
    30  H    0.000058  -0.000858   0.014419  -0.000009   0.000046  -0.000022
    31  H   -0.000001   0.000004   0.006050  -0.000000  -0.000001   0.000000
    32  H    0.000000  -0.000000  -0.000040  -0.000000   0.000000  -0.000000
    33  H   -0.000000   0.000001   0.000001  -0.000000  -0.000008   0.000004
    34  H    0.000040  -0.000663   0.000001   0.000247  -0.000551  -0.001583
    35  H   -0.007285   0.020857   0.014196  -0.000021  -0.000009   0.000049
    36  H    0.015953  -0.003242   0.006354   0.000000  -0.000000  -0.000001
    37  H   -0.065750   0.019020  -0.000044  -0.000000   0.000000   0.000000
    38  H    0.436773  -0.062435   0.000001   0.000004  -0.000000  -0.000007
    39  H   -0.059514   0.440733   0.000001  -0.001497   0.000230  -0.000500
              25         26         27         28         29         30
     1  C    0.000490   0.000002  -0.000001   0.000004   0.005955   0.000448
     2  P   -0.004325  -0.000625   0.000008  -0.000731  -0.012307  -0.005171
     3  C   -0.115583   0.028025  -0.005010   0.019313  -0.072371   0.013061
     4  C    0.450498  -0.075006   0.019983  -0.002422   0.018588  -0.016983
     5  C   -0.063936   0.439535  -0.063161   0.014772  -0.005614   0.003654
     6  C    0.021985  -0.066509   0.437630  -0.061842   0.015854  -0.001527
     7  C   -0.007461   0.015945  -0.065478   0.436389  -0.059189   0.001116
     8  C    0.021312  -0.003246   0.018999  -0.062203   0.439521   0.000863
     9  C   -0.006098  -0.000032   0.000010  -0.000014  -0.002576  -0.115722
    10  C    0.004735  -0.000117  -0.000003  -0.000002   0.000647   0.450426
    11  C    0.000042  -0.000026   0.000001   0.000001  -0.000011  -0.062580
    12  C   -0.000001   0.000001  -0.000000   0.000000  -0.000010   0.021926
    13  C    0.000054  -0.000001   0.000000  -0.000000   0.000040  -0.007389
    14  C   -0.000848   0.000004  -0.000000   0.000001  -0.000692   0.021125
    15  C    0.013907  -0.000103  -0.000002  -0.000002   0.000957  -0.005674
    16  C   -0.017042   0.000314  -0.000001   0.000002  -0.000119   0.004546
    17  C    0.003837  -0.000014   0.000000  -0.000000   0.000011   0.000081
    18  C   -0.001697   0.000003  -0.000000   0.000000  -0.000005  -0.000009
    19  C    0.001261  -0.000002   0.000000   0.000000   0.000023   0.000058
    20  C    0.000607  -0.000020  -0.000001  -0.000000  -0.000012  -0.000858
    21  Br   0.014092   0.006184  -0.000039   0.000001   0.000002   0.014419
    22  H    0.000047  -0.000001   0.000000  -0.000008  -0.000566  -0.000009
    23  H   -0.000022   0.000000  -0.000000   0.000004  -0.001591   0.000046
    24  H   -0.000010  -0.000000  -0.000000  -0.000000   0.000246  -0.000022
    25  H    0.527762  -0.008745  -0.000156  -0.000006   0.000223  -0.001454
    26  H   -0.008745   0.520419  -0.006903  -0.000115  -0.000006   0.000200
    27  H   -0.000156  -0.006903   0.511725  -0.006835  -0.000116  -0.000004
    28  H   -0.000006  -0.000115  -0.006835   0.511345  -0.005983  -0.000000
    29  H    0.000223  -0.000006  -0.000116  -0.005983   0.497841  -0.000140
    30  H   -0.001454   0.000200  -0.000004  -0.000000  -0.000140   0.526796
    31  H   -0.000022  -0.000003   0.000000   0.000000  -0.000001  -0.008702
    32  H   -0.000000   0.000000  -0.000000  -0.000000  -0.000000  -0.000161
    33  H   -0.000000  -0.000000   0.000000  -0.000000  -0.000000  -0.000005
    34  H   -0.000009   0.000000   0.000000   0.000000  -0.000050   0.000230
    35  H   -0.001507  -0.000019  -0.000000  -0.000000  -0.000009  -0.001572
    36  H    0.000207  -0.000003   0.000000  -0.000000   0.000000  -0.000019
    37  H   -0.000005   0.000000  -0.000000   0.000000   0.000000  -0.000000
    38  H    0.000001   0.000000  -0.000000  -0.000000   0.000000  -0.000000
    39  H   -0.000144  -0.000001  -0.000000  -0.000000  -0.000050  -0.000009
              31         32         33         34         35         36
     1  C    0.000002  -0.000001   0.000008   0.005613   0.000424   0.000003
     2  P   -0.000610   0.000006  -0.000735  -0.012119  -0.005190  -0.000614
     3  C   -0.000105  -0.000002  -0.000003   0.000967  -0.005630  -0.000034
     4  C    0.000329  -0.000001   0.000002  -0.000121   0.004621  -0.000115
     5  C   -0.000012   0.000000  -0.000000   0.000011   0.000054  -0.000025
     6  C    0.000002  -0.000000   0.000000  -0.000005  -0.000005   0.000001
     7  C   -0.000002   0.000000   0.000000   0.000022   0.000054  -0.000001
     8  C   -0.000021  -0.000001  -0.000000  -0.000009  -0.000819   0.000004
     9  C    0.028029  -0.004971   0.019340  -0.073211   0.013985  -0.000111
    10  C   -0.074758   0.019987  -0.002383   0.018633  -0.017148   0.000331
    11  C    0.439467  -0.063007   0.014707  -0.005653   0.003927  -0.000014
    12  C   -0.066581   0.437528  -0.061834   0.015944  -0.001702   0.000003
    13  C    0.015867  -0.065532   0.436511  -0.059514   0.001258  -0.000002
    14  C   -0.003163   0.018953  -0.062312   0.440429   0.000656  -0.000022
    15  C   -0.000039   0.000011  -0.000014  -0.002556  -0.114582   0.028029
    16  C   -0.000117  -0.000003  -0.000000   0.000649   0.450753  -0.075102
    17  C   -0.000026   0.000001   0.000001  -0.000015  -0.063089   0.439561
    18  C    0.000001  -0.000000   0.000000  -0.000010   0.021709  -0.066458
    19  C   -0.000001   0.000000  -0.000000   0.000040  -0.007285   0.015953
    20  C    0.000004  -0.000000   0.000001  -0.000663   0.020857  -0.003242
    21  Br   0.006050  -0.000040   0.000001   0.000001   0.014196   0.006354
    22  H   -0.000000  -0.000000  -0.000000   0.000247  -0.000021   0.000000
    23  H   -0.000001   0.000000  -0.000008  -0.000551  -0.000009  -0.000000
    24  H    0.000000  -0.000000   0.000004  -0.001583   0.000049  -0.000001
    25  H   -0.000022  -0.000000  -0.000000  -0.000009  -0.001507   0.000207
    26  H   -0.000003   0.000000  -0.000000   0.000000  -0.000019  -0.000003
    27  H    0.000000  -0.000000   0.000000   0.000000  -0.000000   0.000000
    28  H    0.000000  -0.000000  -0.000000   0.000000  -0.000000  -0.000000
    29  H   -0.000001  -0.000000  -0.000000  -0.000050  -0.000009   0.000000
    30  H   -0.008702  -0.000161  -0.000005   0.000230  -0.001572  -0.000019
    31  H    0.520289  -0.006884  -0.000116  -0.000006   0.000214  -0.000003
    32  H   -0.006884   0.511641  -0.006824  -0.000116  -0.000005   0.000000
    33  H   -0.000116  -0.006824   0.511256  -0.006011   0.000001   0.000000
    34  H   -0.000006  -0.000116  -0.006011   0.497862  -0.000142  -0.000001
    35  H    0.000214  -0.000005   0.000001  -0.000142   0.524762  -0.008608
    36  H   -0.000003   0.000000   0.000000  -0.000001  -0.008608   0.520132
    37  H    0.000000  -0.000000  -0.000000  -0.000000  -0.000159  -0.006912
    38  H   -0.000000   0.000000  -0.000000  -0.000000  -0.000005  -0.000114
    39  H    0.000000   0.000000   0.000000  -0.000047   0.000231  -0.000007
              37         38         39
     1  C   -0.000001   0.000004   0.005363
     2  P    0.000006  -0.000731  -0.011461
     3  C    0.000010  -0.000015  -0.002592
     4  C   -0.000003  -0.000001   0.000660
     5  C    0.000001   0.000001  -0.000010
     6  C   -0.000000   0.000000  -0.000011
     7  C    0.000000  -0.000000   0.000044
     8  C   -0.000000   0.000001  -0.000709
     9  C   -0.000002  -0.000003   0.000967
    10  C   -0.000001   0.000002  -0.000126
    11  C    0.000000  -0.000000   0.000011
    12  C   -0.000000   0.000000  -0.000004
    13  C    0.000000   0.000000   0.000022
    14  C   -0.000000  -0.000000  -0.000005
    15  C   -0.005024   0.019368  -0.074148
    16  C    0.020086  -0.002509   0.018967
    17  C   -0.063041   0.014861  -0.005790
    18  C    0.437684  -0.062069   0.016123
    19  C   -0.065750   0.436773  -0.059514
    20  C    0.019020  -0.062435   0.440733
    21  Br  -0.000044   0.000001   0.000001
    22  H   -0.000000   0.000004  -0.001497
    23  H    0.000000  -0.000000   0.000230
    24  H    0.000000  -0.000007  -0.000500
    25  H   -0.000005   0.000001  -0.000144
    26  H    0.000000   0.000000  -0.000001
    27  H   -0.000000  -0.000000  -0.000000
    28  H    0.000000  -0.000000  -0.000000
    29  H    0.000000   0.000000  -0.000050
    30  H   -0.000000  -0.000000  -0.000009
    31  H    0.000000  -0.000000   0.000000
    32  H   -0.000000   0.000000   0.000000
    33  H   -0.000000  -0.000000   0.000000
    34  H   -0.000000  -0.000000  -0.000047
    35  H   -0.000159  -0.000005   0.000231
    36  H   -0.006912  -0.000114  -0.000007
    37  H    0.511618  -0.006838  -0.000114
    38  H   -0.006838   0.511454  -0.006031
    39  H   -0.000114  -0.006031   0.498514
 Mulliken charges:
               1
     1  C   -0.544719
     2  P    0.391125
     3  C   -0.222842
     4  C   -0.015072
     5  C   -0.150190
     6  C   -0.110772
     7  C   -0.135189
     8  C   -0.050145
     9  C   -0.227324
    10  C   -0.011829
    11  C   -0.151521
    12  C   -0.110687
    13  C   -0.135220
    14  C   -0.048757
    15  C   -0.224060
    16  C   -0.013156
    17  C   -0.151623
    18  C   -0.110780
    19  C   -0.135576
    20  C   -0.048320
    21  Br  -0.937165
    22  H    0.229131
    23  H    0.229009
    24  H    0.228867
    25  H    0.168010
    26  H    0.150862
    27  H    0.159352
    28  H    0.158332
    29  H    0.181507
    30  H    0.169012
    31  H    0.150916
    32  H    0.159421
    33  H    0.158415
    34  H    0.181739
    35  H    0.169757
    36  H    0.150830
    37  H    0.159469
    38  H    0.158289
    39  H    0.180903
 Sum of Mulliken charges =  -0.00000
 Mulliken charges with hydrogens summed into heavy atoms:
               1
     1  C    0.142288
     2  P    0.391125
     3  C   -0.222842
     4  C    0.152937
     5  C    0.000672
     6  C    0.048580
     7  C    0.023143
     8  C    0.131362
     9  C   -0.227324
    10  C    0.157183
    11  C   -0.000605
    12  C    0.048734
    13  C    0.023194
    14  C    0.132982
    15  C   -0.224060
    16  C    0.156601
    17  C   -0.000793
    18  C    0.048689
    19  C    0.022713
    20  C    0.132583
    21  Br  -0.937165
 Electronic spatial extent (au):  <R**2>=           7625.9130
 Charge=              0.0000 electrons
 Dipole moment (field-independent basis, Debye):
    X=             21.8272    Y=             -0.3348    Z=              2.4360  Tot=             21.9653
 Quadrupole moment (field-independent basis, Debye-Ang):
   XX=           -164.1817   YY=           -122.2588   ZZ=           -122.9572
   XY=              0.5654   XZ=             -4.6825   YZ=              0.1266
 Traceless Quadrupole moment (field-independent basis, Debye-Ang):
   XX=            -27.7158   YY=             14.2071   ZZ=             13.5086
   XY=              0.5654   XZ=             -4.6825   YZ=              0.1266
 Octapole moment (field-independent basis, Debye-Ang**2):
  XXX=            202.6652  YYY=             69.5473  ZZZ=            -37.8761  XYY=            -12.5706
  XXY=             -4.4609  XXZ=             24.4162  XZZ=             -4.7967  YZZ=            -68.0047
  YYZ=             33.6168  XYZ=              8.4735
 Hexadecapole moment (field-independent basis, Debye-Ang**3):
 XXXX=          -3475.6399 YYYY=          -3028.4596 ZZZZ=          -3077.3948 XXXY=              4.2321
 XXXZ=            -42.9906 YYYX=            -10.2595 YYYZ=             -9.2412 ZZZX=            -99.4011
 ZZZY=              8.5963 XXYY=          -1042.1522 XXZZ=           -994.2408 YYZZ=           -985.0200
 XXYZ=              3.3195 YYXZ=            110.3975 ZZXY=              9.6463
 N-N= 2.126763819606D+03 E-N=-1.292316372662D+04  KE= 3.641561015487D+03
 Unable to Open any file for archive entry.
 1\1\GINC-TCN811\SP\RBP86\TZVP\C19H18Br1P1\ELENAA\21-Aug-2021\0\\# BP86
 /TZVP SCRF=COSMORS geom=CHECKPOINT guess=CHECKPOINT\\COSMO-file for #L
 SEFCHWGJNHZNT-UHFFFAOYSA-M\\0,1\C,0,-0.459682781,-1.7221762904,-2.8110
 964402\P,0,-0.806680843,-0.6135806574,-1.4054464195\C,0,-2.140707558,0
 .5429787889,-1.8532407713\C,0,-2.956116044,1.0761264324,-0.8407717415\
 C,0,-3.9466914509,2.0038757135,-1.1768108392\C,0,-4.1314631795,2.38658
 0054,-2.5103853634\C,0,-3.314645378,1.8530492842,-3.5162849886\C,0,-2.
 3130540484,0.9335386104,-3.1935108327\C,0,0.6931203133,0.3319970452,-0
 .9867926949\C,0,0.564262498,1.5939458133,-0.382616862\C,0,1.7147720738
 ,2.2982901911,-0.0151295853\C,0,2.9816975688,1.755503138,-0.2579860666
 \C,0,3.1051225471,0.4957430732,-0.859090206\C,0,1.9636686462,-0.223991
 5531,-1.2221146183\C,0,-1.3220391362,-1.5970108256,0.0388501507\C,0,-1
 .0747321205,-1.1044114565,1.3309942697\C,0,-1.5168153756,-1.8343461868
 ,2.4385224415\C,0,-2.187852898,-3.049272564,2.2601108553\C,0,-2.433576
 3262,-3.535793098,0.9691261738\C,0,-2.0071286098,-2.8115245074,-0.1471
 035914\Br,0,-1.750434682,2.389785828,2.4530244169\H,0,-1.4055370725,-2
 .1183223467,-3.2001703416\H,0,0.0560040326,-1.1577096492,-3.5976202567
 \H,0,0.1755607938,-2.5489594698,-2.4703968829\H,0,-2.8057494733,0.8055
 665331,0.2071024261\H,0,-4.5735295476,2.4264401963,-0.3894660615\H,0,-
 4.9113579403,3.105786615,-2.7684548377\H,0,-3.4564309776,2.1527371909,
 -4.5561643148\H,0,-1.6794380263,0.5302315628,-3.9851535797\H,0,-0.4185
 637997,2.0179643998,-0.1644042325\H,0,1.6149133562,3.274258255,0.46322
 89473\H,0,3.8770692004,2.3127207804,0.0245861008\H,0,4.092638744,0.070
 6837994,-1.0470305234\H,0,2.0735446017,-1.2060534224,-1.6845870137\H,0
 ,-0.5745681121,-0.1454616566,1.4835088736\H,0,-1.3345030735,-1.4465685
 637,3.4423278165\H,0,-2.5247103943,-3.6187397592,3.1285445447\H,0,-2.9
 588264161,-4.4821523654,0.8290156549\H,0,-2.2094601114,-3.1983939328,-
 1.1471056066\\Version=ES64L-G16RevC.01\State=1-A\HF=-3650.9459478\RMSD
 =4.924e-09\Dipole=1.6393059,-5.2077524,-6.6987173\Quadrupole=9.425489,
 -0.9807642,-8.4447248,3.6453109,4.6831602,-14.6645841\PG=C01 [X(C19H18
 Br1P1)]\\@
 The archive entry for this job was punched.


 TIME IS NATURE'S WAY OF MAKING SURE EVERYTHING
 DOESN'T HAPPEN AT ONCE.
                     - WOODY ALLEN
 Job cpu time:       0 days  0 hours 30 minutes 49.0 seconds.
 Elapsed time:       0 days  0 hours  1 minutes 18.4 seconds.
 File lengths (MBytes):  RWF=    215 Int=      0 D2E=      0 Chk=     25 Scr=      1
 Normal termination of Gaussian 16 at Sat Aug 21 12:06:16 2021.
