 Entering Gaussian System, Link 0=g16
 Input=LYCAIKOWRPUZTN-UHFFFAOYSA-N.gjf
 Output=LYCAIKOWRPUZTN-UHFFFAOYSA-N.log
 Initial command:
 /sw/arch/RedHatEnterpriseServer7/EB_production/2019/software/Gaussian/g16.c01/l1.exe "/scratch-local/elenaa.9715235/Gau-9541.inp" -scrdir="/scratch-local/elenaa.9715235/"
 Entering Link 1 = /sw/arch/RedHatEnterpriseServer7/EB_production/2019/software/Gaussian/g16.c01/l1.exe PID=      9543.
  
 Copyright (c) 1988-2019, Gaussian, Inc.  All Rights Reserved.
  
 This is part of the Gaussian(R) 16 program.  It is based on
 the Gaussian(R) 09 system (copyright 2009, Gaussian, Inc.),
 the Gaussian(R) 03 system (copyright 2003, Gaussian, Inc.),
 the Gaussian(R) 98 system (copyright 1998, Gaussian, Inc.),
 the Gaussian(R) 94 system (copyright 1995, Gaussian, Inc.),
 the Gaussian 92(TM) system (copyright 1992, Gaussian, Inc.),
 the Gaussian 90(TM) system (copyright 1990, Gaussian, Inc.),
 the Gaussian 88(TM) system (copyright 1988, Gaussian, Inc.),
 the Gaussian 86(TM) system (copyright 1986, Carnegie Mellon
 University), and the Gaussian 82(TM) system (copyright 1983,
 Carnegie Mellon University). Gaussian is a federally registered
 trademark of Gaussian, Inc.
  
 This software contains proprietary and confidential information,
 including trade secrets, belonging to Gaussian, Inc.
  
 This software is provided under written license and may be
 used, copied, transmitted, or stored only in accord with that
 written license.
  
 The following legend is applicable only to US Government
 contracts under FAR:
  
                    RESTRICTED RIGHTS LEGEND
  
 Use, reproduction and disclosure by the US Government is
 subject to restrictions as set forth in subparagraphs (a)
 and (c) of the Commercial Computer Software - Restricted
 Rights clause in FAR 52.227-19.
  
 Gaussian, Inc.
 340 Quinnipiac St., Bldg. 40, Wallingford CT 06492
  
  
 ---------------------------------------------------------------
 Warning -- This program may not be used in any manner that
 competes with the business of Gaussian, Inc. or will provide
 assistance to any competitor of Gaussian, Inc.  The licensee
 of this program is prohibited from giving any competitor of
 Gaussian, Inc. access to this program.  By using this program,
 the user acknowledges that Gaussian, Inc. is engaged in the
 business of creating and licensing software in the field of
 computational chemistry and represents and warrants to the
 licensee that it is not a competitor of Gaussian, Inc. and that
 it will not use this program in any manner prohibited above.
 ---------------------------------------------------------------
  

 Cite this work as:
 Gaussian 16, Revision C.01,
 M. J. Frisch, G. W. Trucks, H. B. Schlegel, G. E. Scuseria, 
 M. A. Robb, J. R. Cheeseman, G. Scalmani, V. Barone, 
 G. A. Petersson, H. Nakatsuji, X. Li, M. Caricato, A. V. Marenich, 
 J. Bloino, B. G. Janesko, R. Gomperts, B. Mennucci, H. P. Hratchian, 
 J. V. Ortiz, A. F. Izmaylov, J. L. Sonnenberg, D. Williams-Young, 
 F. Ding, F. Lipparini, F. Egidi, J. Goings, B. Peng, A. Petrone, 
 T. Henderson, D. Ranasinghe, V. G. Zakrzewski, J. Gao, N. Rega, 
 G. Zheng, W. Liang, M. Hada, M. Ehara, K. Toyota, R. Fukuda, 
 J. Hasegawa, M. Ishida, T. Nakajima, Y. Honda, O. Kitao, H. Nakai, 
 T. Vreven, K. Throssell, J. A. Montgomery, Jr., J. E. Peralta, 
 F. Ogliaro, M. J. Bearpark, J. J. Heyd, E. N. Brothers, K. N. Kudin, 
 V. N. Staroverov, T. A. Keith, R. Kobayashi, J. Normand, 
 K. Raghavachari, A. P. Rendell, J. C. Burant, S. S. Iyengar, 
 J. Tomasi, M. Cossi, J. M. Millam, M. Klene, C. Adamo, R. Cammi, 
 J. W. Ochterski, R. L. Martin, K. Morokuma, O. Farkas, 
 J. B. Foresman, and D. J. Fox, Gaussian, Inc., Wallingford CT, 2019.
 
 ******************************************
 Gaussian 16:  ES64L-G16RevC.01  3-Jul-2019
                22-Feb-2021 
 ******************************************
 %chk=LYCAIKOWRPUZTN-UHFFFAOYSA-N.chk
 %NProcShared=32
 Will use up to   32 processors via shared memory.
 -------------------------------------------------------------
 #P BP86/TZVP EmpiricalDispersion=GD3 SCRF=(Solvent=Water) Opt
 -------------------------------------------------------------
 1/18=20,19=15,26=3,38=1/1,3;
 2/9=110,12=2,17=6,18=5,40=1/2;
 3/5=19,7=101,11=2,25=1,30=1,70=2201,71=1,72=1,74=404,124=31/1,2,3;
 4//1;
 5/5=2,38=5,53=1/2;
 6/7=2,8=2,9=2,10=2,28=1/1;
 7//1,2,3,16;
 1/18=20,19=15,26=3/3(2);
 2/9=110/2;
 99//99;
 2/9=110/2;
 3/5=19,7=101,11=2,25=1,30=1,70=2205,71=1,72=1,74=404,124=31/1,2,3;
 4/5=5,16=3,69=1/1;
 5/5=2,38=5,53=1/2;
 7//1,2,3,16;
 1/18=20,19=15,26=3/3(-5);
 2/9=110/2;
 6/7=2,8=2,9=2,10=2,19=2,28=1/1;
 99/9=1/99;
 Leave Link    1 at Mon Feb 22 21:12:46 2021, MaxMem=           0 cpu:               1.3 elap:               0.1
 (Enter /sw/arch/RedHatEnterpriseServer7/EB_production/2019/software/Gaussian/g16.c01/l101.exe)
 -------------------------------------
 Particle #LYCAIKOWRPUZTN-UHFFFAOYSA-N
 -------------------------------------
 Symbolic Z-matrix:
 Charge =  0 Multiplicity = 1
 O                    -0.56043   1.79805   0.62196 
 C                     0.0996    0.7178   -0.0269 
 C                    -0.79048   0.1564   -1.15021 
 O                    -0.13045  -0.92384  -1.79906 
 H                     0.06629   2.09397   1.31451 
 H                     1.04339   1.07717  -0.44298 
 H                     0.30966  -0.06248   0.70798 
 H                    -1.73427  -0.20296  -0.73412 
 H                    -1.00054   0.93668  -1.88508 
 H                    -0.75717  -1.21977  -2.49161 
 
 ITRead=  0  0  0  0  0  0  0  0  0  0
 MicOpt= -1 -1 -1 -1 -1 -1 -1 -1 -1 -1
 NAtoms=     10 NQM=       10 NQMF=       0 NMMI=      0 NMMIF=      0
                NMic=       0 NMicF=      0.
                    Isotopes and Nuclear Properties:
 (Nuclear quadrupole moments (NQMom) in fm**2, nuclear magnetic moments (NMagM)
  in nuclear magnetons)

  Atom         1           2           3           4           5           6           7           8           9          10
 IAtWgt=          16          12          12          16           1           1           1           1           1           1
 AtmWgt=  15.9949146  12.0000000  12.0000000  15.9949146   1.0078250   1.0078250   1.0078250   1.0078250   1.0078250   1.0078250
 NucSpn=           0           0           0           0           1           1           1           1           1           1
 AtZEff=  -0.0000000  -0.0000000  -0.0000000  -0.0000000  -0.0000000  -0.0000000  -0.0000000  -0.0000000  -0.0000000  -0.0000000
 NQMom=    0.0000000   0.0000000   0.0000000   0.0000000   0.0000000   0.0000000   0.0000000   0.0000000   0.0000000   0.0000000
 NMagM=    0.0000000   0.0000000   0.0000000   0.0000000   2.7928460   2.7928460   2.7928460   2.7928460   2.7928460   2.7928460
 AtZNuc=   8.0000000   6.0000000   6.0000000   8.0000000   1.0000000   1.0000000   1.0000000   1.0000000   1.0000000   1.0000000
 Leave Link  101 at Mon Feb 22 21:12:46 2021, MaxMem=   104857600 cpu:               2.6 elap:               0.1
 (Enter /sw/arch/RedHatEnterpriseServer7/EB_production/2019/software/Gaussian/g16.c01/l103.exe)

 GradGradGradGradGradGradGradGradGradGradGradGradGradGradGradGradGradGrad
 Berny optimization.
 Initialization pass.
                           ----------------------------
                           !    Initial Parameters    !
                           ! (Angstroms and Degrees)  !
 --------------------------                            --------------------------
 ! Name  Definition              Value          Derivative Info.                !
 --------------------------------------------------------------------------------
 ! R1    R(1,2)                  1.4225         estimate D2E/DX2                !
 ! R2    R(1,5)                  0.9798         estimate D2E/DX2                !
 ! R3    R(2,3)                  1.5392         estimate D2E/DX2                !
 ! R4    R(2,6)                  1.0922         estimate D2E/DX2                !
 ! R5    R(2,7)                  1.0923         estimate D2E/DX2                !
 ! R6    R(3,4)                  1.4225         estimate D2E/DX2                !
 ! R7    R(3,8)                  1.0922         estimate D2E/DX2                !
 ! R8    R(3,9)                  1.0922         estimate D2E/DX2                !
 ! R9    R(4,10)                 0.9798         estimate D2E/DX2                !
 ! A1    A(2,1,5)              104.7723         estimate D2E/DX2                !
 ! A2    A(1,2,3)              109.9709         estimate D2E/DX2                !
 ! A3    A(1,2,6)              108.9549         estimate D2E/DX2                !
 ! A4    A(1,2,7)              108.9553         estimate D2E/DX2                !
 ! A5    A(3,2,6)              109.9782         estimate D2E/DX2                !
 ! A6    A(3,2,7)              109.9784         estimate D2E/DX2                !
 ! A7    A(6,2,7)              108.9756         estimate D2E/DX2                !
 ! A8    A(2,3,4)              109.9706         estimate D2E/DX2                !
 ! A9    A(2,3,8)              109.9776         estimate D2E/DX2                !
 ! A10   A(2,3,9)              109.9782         estimate D2E/DX2                !
 ! A11   A(4,3,8)              108.9557         estimate D2E/DX2                !
 ! A12   A(4,3,9)              108.9558         estimate D2E/DX2                !
 ! A13   A(8,3,9)              108.9755         estimate D2E/DX2                !
 ! A14   A(3,4,10)             104.7724         estimate D2E/DX2                !
 ! D1    D(5,1,2,3)            179.9999         estimate D2E/DX2                !
 ! D2    D(5,1,2,6)            -59.3915         estimate D2E/DX2                !
 ! D3    D(5,1,2,7)             59.3907         estimate D2E/DX2                !
 ! D4    D(1,2,3,4)           -180.0            estimate D2E/DX2                !
 ! D5    D(1,2,3,8)            -60.0099         estimate D2E/DX2                !
 ! D6    D(1,2,3,9)             60.0094         estimate D2E/DX2                !
 ! D7    D(6,2,3,4)             60.0104         estimate D2E/DX2                !
 ! D8    D(6,2,3,8)           -179.9996         estimate D2E/DX2                !
 ! D9    D(6,2,3,9)            -59.9803         estimate D2E/DX2                !
 ! D10   D(7,2,3,4)            -60.0097         estimate D2E/DX2                !
 ! D11   D(7,2,3,8)             59.9804         estimate D2E/DX2                !
 ! D12   D(7,2,3,9)            179.9997         estimate D2E/DX2                !
 ! D13   D(2,3,4,10)           179.9997         estimate D2E/DX2                !
 ! D14   D(8,3,4,10)            59.3915         estimate D2E/DX2                !
 ! D15   D(9,3,4,10)           -59.3912         estimate D2E/DX2                !
 --------------------------------------------------------------------------------
 Trust Radius=3.00D-01 FncErr=1.00D-07 GrdErr=1.00D-06 EigMax=2.50D+02 EigMin=1.00D-04
 Number of steps in this run=     48 maximum allowed number of steps=    100.
 GradGradGradGradGradGradGradGradGradGradGradGradGradGradGradGradGradGrad

 Leave Link  103 at Mon Feb 22 21:12:47 2021, MaxMem=   104857600 cpu:               1.1 elap:               0.1
 (Enter /sw/arch/RedHatEnterpriseServer7/EB_production/2019/software/Gaussian/g16.c01/l202.exe)
                          Input orientation:                          
 ---------------------------------------------------------------------
 Center     Atomic      Atomic             Coordinates (Angstroms)
 Number     Number       Type             X           Y           Z
 ---------------------------------------------------------------------
      1          8           0       -0.560430    1.798050    0.621960
      2          6           0        0.099600    0.717800   -0.026900
      3          6           0       -0.790480    0.156400   -1.150210
      4          8           0       -0.130450   -0.923840   -1.799060
      5          1           0        0.066290    2.093970    1.314510
      6          1           0        1.043390    1.077170   -0.442980
      7          1           0        0.309660   -0.062480    0.707980
      8          1           0       -1.734270   -0.202960   -0.734120
      9          1           0       -1.000540    0.936680   -1.885080
     10          1           0       -0.757170   -1.219770   -2.491610
 ---------------------------------------------------------------------
                    Distance matrix (angstroms):
                    1          2          3          4          5
     1  O    0.000000
     2  C    1.422533   0.000000
     3  C    2.426628   1.539233   0.000000
     4  O    3.668093   2.426614   1.422520   0.000000
     5  H    0.979782   1.922065   3.250089   4.340530   0.000000
     6  H    2.055725   1.092249   2.170500   2.687172   2.253304
     7  H    2.055731   1.092250   2.170504   2.687171   2.253305
     8  H    2.687172   2.170493   1.092250   2.055725   3.565780
     9  H    2.687174   2.170495   1.092244   2.055721   3.565785
    10  H    4.340537   3.250081   1.922058   0.979785   5.113268
                    6          7          8          9         10
     6  H    0.000000
     7  H    1.778165   0.000000
     8  H    3.072278   2.505402   0.000000
     9  H    2.505402   3.072280   1.778159   0.000000
    10  H    3.565787   3.565785   2.253308   2.253305   0.000000
 Stoichiometry    C2H6O2
 Framework group  C1[X(C2H6O2)]
 Deg. of freedom    24
 Full point group                 C1      NOp   1
 Largest Abelian subgroup         C1      NOp   1
 Largest concise Abelian subgroup C1      NOp   1
                         Standard orientation:                         
 ---------------------------------------------------------------------
 Center     Atomic      Atomic             Coordinates (Angstroms)
 Number     Number       Type             X           Y           Z
 ---------------------------------------------------------------------
      1          8           0       -1.813027   -0.276891   -0.000000
      2          6           0       -0.605487    0.475069    0.000000
      3          6           0        0.605495   -0.475069   -0.000001
      4          8           0        1.813022    0.276891   -0.000000
      5          1           0       -2.525894    0.395264    0.000003
      6          1           0       -0.582358    1.109105   -0.889085
      7          1           0       -0.582355    1.109113    0.889080
      8          1           0        0.582352   -1.109105    0.889084
      9          1           0        0.582356   -1.109111   -0.889074
     10          1           0        2.525895   -0.395262    0.000003
 ---------------------------------------------------------------------
 Rotational constants (GHZ):          31.2911933           3.8419000           3.5760901
 Leave Link  202 at Mon Feb 22 21:12:47 2021, MaxMem=   104857600 cpu:               1.2 elap:               0.1
 (Enter /sw/arch/RedHatEnterpriseServer7/EB_production/2019/software/Gaussian/g16.c01/l301.exe)
 Standard basis: TZVP (5D, 7F)
 Ernie: Thresh=  0.10000D-02 Tol=  0.10000D-05 Strict=F.
 There are   116 symmetry adapted cartesian basis functions of A   symmetry.
 There are   112 symmetry adapted basis functions of A   symmetry.
   112 basis functions,   188 primitive gaussians,   116 cartesian basis functions
    17 alpha electrons       17 beta electrons
       nuclear repulsion energy       129.1225433797 Hartrees.
 IExCor=  404 DFT=T Ex=B Corr=P86 ExCW=0 ScaHFX=  0.000000
 ScaDFX=  1.000000  1.000000  1.000000  1.000000 ScalE2=  1.000000  1.000000
 IRadAn=      5 IRanWt=     -1 IRanGd=            0 ICorTp=0 IEmpDi=131
 NAtoms=   10 NActive=   10 NUniq=   10 SFac= 1.00D+00 NAtFMM=   60 NAOKFM=F Big=F
 Integral buffers will be    131072 words long.
 Raffenetti 2 integral format.
 Two-electron integral symmetry is turned on.
 R6Disp:  Grimme-D3 Dispersion energy=       -0.0050479128 Hartrees.
 Nuclear repulsion after empirical dispersion term =      129.1174954669 Hartrees.
 ------------------------------------------------------------------------------
 Polarizable Continuum Model (PCM)
 =================================
 Model                : PCM.
 Atomic radii         : UFF (Universal Force Field).
 Polarization charges : Total charges.
 Charge compensation  : None.
 Solution method      : On-the-fly selection.
 Cavity type          : Scaled VdW (van der Waals Surface) (Alpha=1.100).
 Cavity algorithm     : GePol (No added spheres)
                        Default sphere list used, NSphG=   10.
                        Lebedev-Laikov grids with approx.  5.0 points / Ang**2.
                        Smoothing algorithm: York/Karplus (Gamma=1.0000).
                        Polarization charges: spherical gaussians, with
                                              point-specific exponents (IZeta= 3).
                        Self-potential: point-specific (ISelfS= 7).
                        Self-field    : sphere-specific E.n sum rule (ISelfD= 2).
 1st derivatives      : Analytical E(r).r(x)/FMM algorithm (CHGder, D1EAlg=3).
                        Cavity 1st derivative terms included.
 Solvent              : Water, Eps=  78.355300 Eps(inf)=   1.777849
 ------------------------------------------------------------------------------
 Spheres list:
 ISph  on   Nord     Re0    Alpha      Xe            Ye            Ze
    1   O      1    1.7500  1.100     -1.813027     -0.276891     -0.000000
    2   C      2    1.9255  1.100     -0.605487      0.475069      0.000000
    3   C      3    1.9255  1.100      0.605495     -0.475069     -0.000001
    4   O      4    1.7500  1.100      1.813022      0.276891     -0.000000
    5   H      5    1.4430  1.100     -2.525894      0.395264      0.000003
    6   H      6    1.4430  1.100     -0.582358      1.109105     -0.889085
    7   H      7    1.4430  1.100     -0.582355      1.109113      0.889080
    8   H      8    1.4430  1.100      0.582352     -1.109105      0.889084
    9   H      9    1.4430  1.100      0.582356     -1.109111     -0.889074
   10   H     10    1.4430  1.100      2.525895     -0.395262      0.000003
 ------------------------------------------------------------------------------
 GePol: Number of generator spheres                  =      10
 GePol: Total number of spheres                      =      10
 GePol: Number of exposed spheres                    =      10 (100.00%)
 GePol: Number of points                             =     918
 GePol: Average weight of points                     =       0.13
 GePol: Minimum weight of points                     =   0.26D-07
 GePol: Maximum weight of points                     =    0.20299
 GePol: Number of points with low weight             =      36
 GePol: Fraction of low-weight points (<1% of avg)   =       3.92%
 GePol: Cavity surface area                          =    122.190 Ang**2
 GePol: Cavity volume                                =    104.282 Ang**3
 Leave Link  301 at Mon Feb 22 21:12:47 2021, MaxMem=   104857600 cpu:               1.8 elap:               0.1
 (Enter /sw/arch/RedHatEnterpriseServer7/EB_production/2019/software/Gaussian/g16.c01/l302.exe)
 NPDir=0 NMtPBC=     1 NCelOv=     1 NCel=       1 NClECP=     1 NCelD=      1
         NCelK=      1 NCelE2=     1 NClLst=     1 CellRange=     0.0.
 One-electron integrals computed using PRISM.
 One-electron integral symmetry used in STVInt
 PrsmSu:  requested number of processors reduced to:  30 ShMem   1 Linda.
 NBasis=   112 RedAO= T EigKep=  6.34D-04  NBF=   112
 NBsUse=   112 1.00D-06 EigRej= -1.00D+00 NBFU=   112
 Precomputing XC quadrature grid using
 IXCGrd= 4 IRadAn=           5 IRanWt=          -1 IRanGd=           0 AccXCQ= 0.00D+00.
 Generated NRdTot=       0 NPtTot=           0 NUsed=           0 NTot=          32
 NSgBfM=   115   115   115   115   115 MxSgAt=    10 MxSgA2=    10.
 Leave Link  302 at Mon Feb 22 21:12:47 2021, MaxMem=   104857600 cpu:               6.4 elap:               0.3
 (Enter /sw/arch/RedHatEnterpriseServer7/EB_production/2019/software/Gaussian/g16.c01/l303.exe)
 DipDrv:  MaxL=1.
 Leave Link  303 at Mon Feb 22 21:12:47 2021, MaxMem=   104857600 cpu:               2.4 elap:               0.1
 (Enter /sw/arch/RedHatEnterpriseServer7/EB_production/2019/software/Gaussian/g16.c01/l401.exe)
 ExpMin= 9.52D-02 ExpMax= 2.70D+04 ExpMxC= 9.22D+02 IAcc=3 IRadAn=         5 AccDes= 0.00D+00
 Harris functional with IExCor=  404 and IRadAn=       5 diagonalized for initial guess.
 HarFok:  IExCor=  404 AccDes= 0.00D+00 IRadAn=         5 IDoV= 1 UseB2=F ITyADJ=14
 ICtDFT=  3500011 ScaDFX=  1.000000  1.000000  1.000000  1.000000
 FoFCou: FMM=F IPFlag=           0 FMFlag=      100000 FMFlg1=           0
         NFxFlg=           0 DoJE=T BraDBF=F KetDBF=T FulRan=T
         wScrn=  0.000000 ICntrl=       500 IOpCl=  0 I1Cent=   200000004 NGrid=           0
         NMat0=    1 NMatS0=      1 NMatT0=    0 NMatD0=    1 NMtDS0=    0 NMtDT0=    0
 Petite list used in FoFCou.
 Harris En= -230.432371189858    
 JPrj=0 DoOrth=F DoCkMO=F.
 Leave Link  401 at Mon Feb 22 21:12:48 2021, MaxMem=   104857600 cpu:               8.6 elap:               0.3
 (Enter /sw/arch/RedHatEnterpriseServer7/EB_production/2019/software/Gaussian/g16.c01/l502.exe)
 Keep J ints in memory in canonical form, NReq=50213232.
 FoFCou: FMM=F IPFlag=           0 FMFlag=           0 FMFlg1=           0
         NFxFlg=           0 DoJE=F BraDBF=F KetDBF=F FulRan=T
         wScrn=  0.000000 ICntrl=       600 IOpCl=  0 I1Cent=           0 NGrid=           0
         NMat0=    1 NMatS0=   6328 NMatT0=    0 NMatD0=    1 NMtDS0=    0 NMtDT0=    0
 Symmetry not used in FoFCou.
 Two-electron integral symmetry not used.
 Closed shell SCF:
 Using DIIS extrapolation, IDIIS=  1040.
 NGot=   104857600 LenX=    84800446 LenY=    84786549
 Requested convergence on RMS density matrix=1.00D-08 within 128 cycles.
 Requested convergence on MAX density matrix=1.00D-06.
 Requested convergence on             energy=1.00D-06.
 No special actions if energy rises.

 Cycle   1  Pass 1  IDiag  1:
 Inv3:  Mode=1 IEnd=     2528172.
 Iteration    1 A*A^-1 deviation from unit magnitude is 2.78D-15 for    230.
 Iteration    1 A*A^-1 deviation from orthogonality  is 3.00D-15 for    818     42.
 Iteration    1 A^-1*A deviation from unit magnitude is 3.00D-15 for    230.
 Iteration    1 A^-1*A deviation from orthogonality  is 1.78D-15 for    874    345.
 E= -230.233184440078    
 DIIS: error= 3.49D-02 at cycle   1 NSaved=   1.
 NSaved= 1 IEnMin= 1 EnMin= -230.233184440078     IErMin= 1 ErrMin= 3.49D-02
 ErrMax= 3.49D-02  0.00D+00 EMaxC= 1.00D-01 BMatC= 1.41D-01 BMatP= 1.41D-01
 IDIUse=3 WtCom= 6.51D-01 WtEn= 3.49D-01
 Coeff-Com:  0.100D+01
 Coeff-En:   0.100D+01
 Coeff:      0.100D+01
 Gap=     0.190 Goal=   None    Shift=    0.000
 GapD=    0.190 DampG=1.000 DampE=0.500 DampFc=0.5000 IDamp=-1.
 Damping current iteration by 5.00D-01
 RMSDP=1.00D-02 MaxDP=1.98D-01              OVMax= 1.97D-01

 Cycle   2  Pass 1  IDiag  1:
 E= -230.252839806813     Delta-E=       -0.019655366735 Rises=F Damp=T
 DIIS: error= 1.64D-02 at cycle   2 NSaved=   2.
 NSaved= 2 IEnMin= 2 EnMin= -230.252839806813     IErMin= 2 ErrMin= 1.64D-02
 ErrMax= 1.64D-02  0.00D+00 EMaxC= 1.00D-01 BMatC= 2.91D-02 BMatP= 1.41D-01
 IDIUse=3 WtCom= 8.36D-01 WtEn= 1.64D-01
 Coeff-Com:  0.290D+00 0.710D+00
 Coeff-En:   0.425D+00 0.575D+00
 Coeff:      0.312D+00 0.688D+00
 Gap=     0.238 Goal=   None    Shift=    0.000
 RMSDP=2.37D-03 MaxDP=6.00D-02 DE=-1.97D-02 OVMax= 1.20D-01

 Cycle   3  Pass 1  IDiag  1:
 E= -230.347687918648     Delta-E=       -0.094848111835 Rises=F Damp=F
 DIIS: error= 7.48D-03 at cycle   3 NSaved=   3.
 NSaved= 3 IEnMin= 3 EnMin= -230.347687918648     IErMin= 3 ErrMin= 7.48D-03
 ErrMax= 7.48D-03  0.00D+00 EMaxC= 1.00D-01 BMatC= 3.45D-03 BMatP= 2.91D-02
 IDIUse=3 WtCom= 9.25D-01 WtEn= 7.48D-02
 Coeff-Com:  0.115D+00 0.285D+00 0.600D+00
 Coeff-En:   0.000D+00 0.000D+00 0.100D+01
 Coeff:      0.106D+00 0.264D+00 0.630D+00
 Gap=     0.239 Goal=   None    Shift=    0.000
 RMSDP=5.36D-04 MaxDP=8.32D-03 DE=-9.48D-02 OVMax= 1.77D-02

 Cycle   4  Pass 1  IDiag  1:
 E= -230.349638161650     Delta-E=       -0.001950243002 Rises=F Damp=F
 DIIS: error= 4.75D-03 at cycle   4 NSaved=   4.
 NSaved= 4 IEnMin= 4 EnMin= -230.349638161650     IErMin= 4 ErrMin= 4.75D-03
 ErrMax= 4.75D-03  0.00D+00 EMaxC= 1.00D-01 BMatC= 1.53D-03 BMatP= 3.45D-03
 IDIUse=3 WtCom= 9.53D-01 WtEn= 4.75D-02
 Coeff-Com:  0.360D-01 0.704D-01 0.395D+00 0.498D+00
 Coeff-En:   0.000D+00 0.000D+00 0.307D+00 0.693D+00
 Coeff:      0.342D-01 0.671D-01 0.391D+00 0.508D+00
 Gap=     0.239 Goal=   None    Shift=    0.000
 RMSDP=2.34D-04 MaxDP=3.44D-03 DE=-1.95D-03 OVMax= 7.61D-03

 Cycle   5  Pass 1  IDiag  1:
 E= -230.350934670573     Delta-E=       -0.001296508923 Rises=F Damp=F
 DIIS: error= 3.33D-04 at cycle   5 NSaved=   5.
 NSaved= 5 IEnMin= 5 EnMin= -230.350934670573     IErMin= 5 ErrMin= 3.33D-04
 ErrMax= 3.33D-04  0.00D+00 EMaxC= 1.00D-01 BMatC= 9.66D-06 BMatP= 1.53D-03
 IDIUse=3 WtCom= 9.97D-01 WtEn= 3.33D-03
 Coeff-Com:  0.561D-02 0.302D-02 0.836D-01 0.142D+00 0.765D+00
 Coeff-En:   0.000D+00 0.000D+00 0.000D+00 0.000D+00 0.100D+01
 Coeff:      0.559D-02 0.301D-02 0.833D-01 0.142D+00 0.766D+00
 Gap=     0.239 Goal=   None    Shift=    0.000
 RMSDP=2.11D-05 MaxDP=2.26D-04 DE=-1.30D-03 OVMax= 5.74D-04

 Cycle   6  Pass 1  IDiag  1:
 E= -230.350942220844     Delta-E=       -0.000007550272 Rises=F Damp=F
 DIIS: error= 3.63D-05 at cycle   6 NSaved=   6.
 NSaved= 6 IEnMin= 6 EnMin= -230.350942220844     IErMin= 6 ErrMin= 3.63D-05
 ErrMax= 3.63D-05  0.00D+00 EMaxC= 1.00D-01 BMatC= 1.13D-07 BMatP= 9.66D-06
 IDIUse=1 WtCom= 1.00D+00 WtEn= 0.00D+00
 Coeff-Com:  0.106D-02-0.474D-03 0.118D-01 0.187D-01 0.128D+00 0.841D+00
 Coeff:      0.106D-02-0.474D-03 0.118D-01 0.187D-01 0.128D+00 0.841D+00
 Gap=     0.239 Goal=   None    Shift=    0.000
 RMSDP=3.73D-06 MaxDP=5.09D-05 DE=-7.55D-06 OVMax= 7.17D-05

 Cycle   7  Pass 1  IDiag  1:
 E= -230.350942308338     Delta-E=       -0.000000087494 Rises=F Damp=F
 DIIS: error= 4.83D-06 at cycle   7 NSaved=   7.
 NSaved= 7 IEnMin= 7 EnMin= -230.350942308338     IErMin= 7 ErrMin= 4.83D-06
 ErrMax= 4.83D-06  0.00D+00 EMaxC= 1.00D-01 BMatC= 1.94D-09 BMatP= 1.13D-07
 IDIUse=1 WtCom= 1.00D+00 WtEn= 0.00D+00
 Coeff-Com:  0.900D-04-0.188D-03-0.119D-03-0.689D-03 0.892D-05 0.178D+00
 Coeff-Com:  0.823D+00
 Coeff:      0.900D-04-0.188D-03-0.119D-03-0.689D-03 0.892D-05 0.178D+00
 Coeff:      0.823D+00
 Gap=     0.239 Goal=   None    Shift=    0.000
 RMSDP=4.31D-07 MaxDP=6.62D-06 DE=-8.75D-08 OVMax= 1.13D-05

 Cycle   8  Pass 1  IDiag  1:
 E= -230.350942309956     Delta-E=       -0.000000001618 Rises=F Damp=F
 DIIS: error= 4.19D-07 at cycle   8 NSaved=   8.
 NSaved= 8 IEnMin= 8 EnMin= -230.350942309956     IErMin= 8 ErrMin= 4.19D-07
 ErrMax= 4.19D-07  0.00D+00 EMaxC= 1.00D-01 BMatC= 1.74D-11 BMatP= 1.94D-09
 IDIUse=1 WtCom= 1.00D+00 WtEn= 0.00D+00
 Coeff-Com:  0.635D-05-0.298D-04-0.124D-03-0.253D-03-0.120D-02 0.244D-01
 Coeff-Com:  0.156D+00 0.821D+00
 Coeff:      0.635D-05-0.298D-04-0.124D-03-0.253D-03-0.120D-02 0.244D-01
 Coeff:      0.156D+00 0.821D+00
 Gap=     0.239 Goal=   None    Shift=    0.000
 RMSDP=4.95D-08 MaxDP=5.78D-07 DE=-1.62D-09 OVMax= 9.54D-07

 Cycle   9  Pass 1  IDiag  1:
 E= -230.350942309967     Delta-E=       -0.000000000011 Rises=F Damp=F
 DIIS: error= 2.30D-07 at cycle   9 NSaved=   9.
 NSaved= 9 IEnMin= 9 EnMin= -230.350942309967     IErMin= 9 ErrMin= 2.30D-07
 ErrMax= 2.30D-07  0.00D+00 EMaxC= 1.00D-01 BMatC= 4.77D-12 BMatP= 1.74D-11
 IDIUse=1 WtCom= 1.00D+00 WtEn= 0.00D+00
 Coeff-Com:  0.233D-05-0.137D-04-0.639D-04-0.125D-03-0.644D-03 0.107D-01
 Coeff-Com:  0.739D-01 0.458D+00 0.458D+00
 Coeff:      0.233D-05-0.137D-04-0.639D-04-0.125D-03-0.644D-03 0.107D-01
 Coeff:      0.739D-01 0.458D+00 0.458D+00
 Gap=     0.239 Goal=   None    Shift=    0.000
 RMSDP=2.04D-08 MaxDP=2.58D-07 DE=-1.10D-11 OVMax= 4.75D-07

 Cycle  10  Pass 1  IDiag  1:
 E= -230.350942309970     Delta-E=       -0.000000000002 Rises=F Damp=F
 DIIS: error= 8.95D-08 at cycle  10 NSaved=  10.
 NSaved=10 IEnMin=10 EnMin= -230.350942309970     IErMin=10 ErrMin= 8.95D-08
 ErrMax= 8.95D-08  0.00D+00 EMaxC= 1.00D-01 BMatC= 7.20D-13 BMatP= 4.77D-12
 IDIUse=1 WtCom= 1.00D+00 WtEn= 0.00D+00
 Coeff-Com:  0.290D-07-0.156D-05-0.894D-05-0.170D-04-0.106D-03 0.907D-03
 Coeff-Com:  0.912D-02 0.920D-01 0.287D+00 0.611D+00
 Coeff:      0.290D-07-0.156D-05-0.894D-05-0.170D-04-0.106D-03 0.907D-03
 Coeff:      0.912D-02 0.920D-01 0.287D+00 0.611D+00
 Gap=     0.239 Goal=   None    Shift=    0.000
 RMSDP=6.42D-09 MaxDP=8.80D-08 DE=-2.47D-12 OVMax= 1.44D-07

 Error on total polarization charges =  0.00838
 SCF Done:  E(RB-P86) =  -230.350942310     A.U. after   10 cycles
            NFock= 10  Conv=0.64D-08     -V/T= 2.0040
 KE= 2.294320766504D+02 PE=-7.993080343748D+02 EE= 2.104075199474D+02
 Leave Link  502 at Mon Feb 22 21:12:51 2021, MaxMem=   104857600 cpu:              70.0 elap:               2.7
 (Enter /sw/arch/RedHatEnterpriseServer7/EB_production/2019/software/Gaussian/g16.c01/l601.exe)
 Copying SCF densities to generalized density rwf, IOpCl= 0 IROHF=0.

 **********************************************************************

            Population analysis using the SCF Density.

 **********************************************************************

 Orbital symmetries:
       Occupied  (A) (A) (A) (A) (A) (A) (A) (A) (A) (A) (A) (A)
                 (A) (A) (A) (A) (A)
       Virtual   (A) (A) (A) (A) (A) (A) (A) (A) (A) (A) (A) (A)
                 (A) (A) (A) (A) (A) (A) (A) (A) (A) (A) (A) (A)
                 (A) (A) (A) (A) (A) (A) (A) (A) (A) (A) (A) (A)
                 (A) (A) (A) (A) (A) (A) (A) (A) (A) (A) (A) (A)
                 (A) (A) (A) (A) (A) (A) (A) (A) (A) (A) (A) (A)
                 (A) (A) (A) (A) (A) (A) (A) (A) (A) (A) (A) (A)
                 (A) (A) (A) (A) (A) (A) (A) (A) (A) (A) (A) (A)
                 (A) (A) (A) (A) (A) (A) (A) (A) (A) (A) (A)
 The electronic state is 1-A.
 Alpha  occ. eigenvalues --  -18.77582 -18.77582  -9.94287  -9.94278  -0.94938
 Alpha  occ. eigenvalues --   -0.94027  -0.67216  -0.55327  -0.48826  -0.44119
 Alpha  occ. eigenvalues --   -0.43833  -0.38145  -0.36170  -0.32561  -0.29063
 Alpha  occ. eigenvalues --   -0.23554  -0.23537
 Alpha virt. eigenvalues --    0.00381   0.02397   0.07243   0.08101   0.08283
 Alpha virt. eigenvalues --    0.12565   0.12950   0.13201   0.16129   0.22063
 Alpha virt. eigenvalues --    0.25835   0.26067   0.26929   0.29732   0.31090
 Alpha virt. eigenvalues --    0.34479   0.38646   0.38875   0.40122   0.40808
 Alpha virt. eigenvalues --    0.43546   0.44416   0.45271   0.47735   0.48923
 Alpha virt. eigenvalues --    0.52728   0.57588   0.61764   0.66602   0.76085
 Alpha virt. eigenvalues --    0.82935   1.11873   1.14263   1.20112   1.20646
 Alpha virt. eigenvalues --    1.22467   1.25555   1.25922   1.32030   1.33103
 Alpha virt. eigenvalues --    1.38338   1.38558   1.40464   1.42576   1.53910
 Alpha virt. eigenvalues --    1.58478   1.64242   1.66955   1.71225   1.72680
 Alpha virt. eigenvalues --    1.74008   1.83472   1.84293   1.87101   1.94798
 Alpha virt. eigenvalues --    1.96513   2.03732   2.05035   2.14897   2.19237
 Alpha virt. eigenvalues --    2.22441   2.30431   2.40522   2.44634   2.45376
 Alpha virt. eigenvalues --    2.45757   2.50782   2.51182   2.54614   2.55420
 Alpha virt. eigenvalues --    2.61955   2.62039   2.80388   2.81920   2.83696
 Alpha virt. eigenvalues --    2.83850   2.85455   2.91251   2.93649   2.98131
 Alpha virt. eigenvalues --    3.02963   3.10409   3.11859   3.16723   3.29354
 Alpha virt. eigenvalues --    3.29510   3.30536   3.84702   3.85566   4.14512
 Alpha virt. eigenvalues --    4.17200  21.59619  21.69254  43.03751  43.07148
          Condensed to atoms (all electrons):
               1          2          3          4          5          6
     1  O    8.006511   0.261846  -0.083068   0.003603   0.301806  -0.051734
     2  C    0.261846   5.106412   0.167370  -0.083071  -0.035764   0.387292
     3  C   -0.083068   0.167370   5.106400   0.261852   0.013521  -0.034475
     4  O    0.003603  -0.083071   0.261852   8.006504  -0.000300   0.012240
     5  H    0.301806  -0.035764   0.013521  -0.000300   0.432690  -0.005266
     6  H   -0.051734   0.387292  -0.034475   0.012240  -0.005266   0.651130
     7  H   -0.051733   0.387290  -0.034474   0.012240  -0.005266  -0.074107
     8  H    0.012240  -0.034475   0.387291  -0.051735  -0.000608   0.017237
     9  H    0.012240  -0.034475   0.387292  -0.051735  -0.000608  -0.025499
    10  H   -0.000300   0.013521  -0.035765   0.301805   0.000024  -0.000608
               7          8          9         10
     1  O   -0.051733   0.012240   0.012240  -0.000300
     2  C    0.387290  -0.034475  -0.034475   0.013521
     3  C   -0.034474   0.387291   0.387292  -0.035765
     4  O    0.012240  -0.051735  -0.051735   0.301805
     5  H   -0.005266  -0.000608  -0.000608   0.000024
     6  H   -0.074107   0.017237  -0.025499  -0.000608
     7  H    0.651129  -0.025499   0.017237  -0.000608
     8  H   -0.025499   0.651137  -0.074109  -0.005266
     9  H    0.017237  -0.074109   0.651133  -0.005266
    10  H   -0.000608  -0.005266  -0.005266   0.432690
 Mulliken charges:
               1
     1  O   -0.411410
     2  C   -0.135946
     3  C   -0.135944
     4  O   -0.411403
     5  H    0.299771
     6  H    0.123790
     7  H    0.123791
     8  H    0.123788
     9  H    0.123791
    10  H    0.299772
 Sum of Mulliken charges =  -0.00000
 Mulliken charges with hydrogens summed into heavy atoms:
               1
     1  O   -0.111639
     2  C    0.111635
     3  C    0.111635
     4  O   -0.111631
 Electronic spatial extent (au):  <R**2>=            351.1656
 Charge=              0.0000 electrons
 Dipole moment (field-independent basis, Debye):
    X=              0.0001    Y=              0.0000    Z=              0.0000  Tot=              0.0001
 Quadrupole moment (field-independent basis, Debye-Ang):
   XX=            -20.3633   YY=            -25.4515   ZZ=            -25.7404
   XY=             -8.7991   XZ=             -0.0000   YZ=              0.0000
 Traceless Quadrupole moment (field-independent basis, Debye-Ang):
   XX=              3.4885   YY=             -1.5998   ZZ=             -1.8886
   XY=             -8.7991   XZ=             -0.0000   YZ=              0.0000
 Octapole moment (field-independent basis, Debye-Ang**2):
  XXX=              0.0004  YYY=              0.0000  ZZZ=             -0.0000  XYY=              0.0000
  XXY=              0.0001  XXZ=              0.0001  XZZ=              0.0000  YZZ=              0.0000
  YYZ=             -0.0000  XYZ=             -0.0000
 Hexadecapole moment (field-independent basis, Debye-Ang**3):
 XXXX=           -219.2507 YYYY=            -69.3375 ZZZZ=            -38.8748 XXXY=            -41.6314
 XXXZ=              0.0000 YYYX=             -3.1673 YYYZ=              0.0001 ZZZX=             -0.0000
 ZZZY=              0.0000 XXYY=            -62.8266 XXZZ=            -62.5133 YYZZ=            -16.6269
 XXYZ=              0.0000 YYXZ=             -0.0000 ZZXY=             -2.1596
 N-N= 1.291174954669D+02 E-N=-7.993080341404D+02  KE= 2.294320766504D+02
 No NMR shielding tensors so no spin-rotation constants.
 Leave Link  601 at Mon Feb 22 21:12:51 2021, MaxMem=   104857600 cpu:               4.0 elap:               0.2
 (Enter /sw/arch/RedHatEnterpriseServer7/EB_production/2019/software/Gaussian/g16.c01/l701.exe)
 ... and contract with generalized density number  0.
 Compute integral first derivatives.
 R6Disp: Adding Grimme-D3 dispersion energy 1st derivatives to the gradient.
 PrsmSu:  requested number of processors reduced to:  30 ShMem   1 Linda.
 D1PCM: PCM CHGder 1st derivatives, ID1Alg=3 FixD1E=F DoIter=F DoCFld=F I1PDM=0.
 GePol: Maximum number of non-zero 1st derivatives   =     203
 CoulSu:  requested number of processors reduced to:  29 ShMem   1 Linda.
 CoulSu:  requested number of processors reduced to:  30 ShMem   1 Linda.
 Leave Link  701 at Mon Feb 22 21:12:51 2021, MaxMem=   104857600 cpu:              14.9 elap:               0.5
 (Enter /sw/arch/RedHatEnterpriseServer7/EB_production/2019/software/Gaussian/g16.c01/l702.exe)
 L702 exits ... SP integral derivatives will be done elsewhere.
 Leave Link  702 at Mon Feb 22 21:12:52 2021, MaxMem=   104857600 cpu:               1.5 elap:               0.1
 (Enter /sw/arch/RedHatEnterpriseServer7/EB_production/2019/software/Gaussian/g16.c01/l703.exe)
 Integral derivatives from FoFJK, PRISM(SPDF).
 Compute integral first derivatives, UseDBF=F ICtDFT=           0.
 Calling FoFJK, ICntrl=      2527 FMM=F ISym2X=0 I1Cent= 0 IOpClX= 0 NMat=1 NMatS=1 NMatT=0.
 FoFJK:  IHMeth= 1 ICntrl=    2527 DoSepK=F KAlg= 0 I1Cent=           0 FoldK=F
 IRaf=         0 NMat=       1 IRICut=       1 DoRegI=T DoRafI=F ISym2E= 0 IDoP0=0 IntGTp=1.
 FoFCou: FMM=F IPFlag=           0 FMFlag=      100000 FMFlg1=         800
         NFxFlg=           0 DoJE=F BraDBF=F KetDBF=F FulRan=T
         wScrn=  0.000000 ICntrl=      2527 IOpCl=  0 I1Cent=           0 NGrid=           0
         NMat0=    1 NMatS0=      1 NMatT0=    0 NMatD0=    1 NMtDS0=    0 NMtDT0=    0
 Symmetry not used in FoFCou.
 Leave Link  703 at Mon Feb 22 21:12:52 2021, MaxMem=   104857600 cpu:              13.0 elap:               0.5
 (Enter /sw/arch/RedHatEnterpriseServer7/EB_production/2019/software/Gaussian/g16.c01/l716.exe)
 Dipole        = 2.53026011D-05 6.67609967D-06 2.53464380D-06
 ***** Axes restored to original set *****
 -------------------------------------------------------------------
 Center     Atomic                   Forces (Hartrees/Bohr)
 Number     Number              X              Y              Z
 -------------------------------------------------------------------
      1        8          -0.004301022    0.009868864    0.007030815
      2        6          -0.001939250   -0.007517071   -0.008681038
      3        6           0.001938235    0.007520232    0.008688525
      4        8           0.004300953   -0.009874695   -0.007036008
      5        1          -0.006933084    0.001296170   -0.003136475
      6        1           0.008124907   -0.002017976   -0.006277815
      7        1           0.003071249   -0.009865669    0.001648121
      8        1          -0.008124929    0.002017174    0.006277197
      9        1          -0.003072127    0.009868592   -0.001651496
     10        1           0.006935068   -0.001295620    0.003138173
 -------------------------------------------------------------------
 Cartesian Forces:  Max     0.009874695 RMS     0.006216894
 Leave Link  716 at Mon Feb 22 21:12:52 2021, MaxMem=   104857600 cpu:               0.9 elap:               0.1
 (Enter /sw/arch/RedHatEnterpriseServer7/EB_production/2019/software/Gaussian/g16.c01/l103.exe)

 GradGradGradGradGradGradGradGradGradGradGradGradGradGradGradGradGradGrad
 Berny optimization.
 FormGI is forming the generalized inverse of G from B-inverse, IUseBI=4.
 Internal  Forces:  Max     0.015468500 RMS     0.006754952
 Search for a local minimum.
 Step number   1 out of a maximum of   48
 All quantities printed in internal units (Hartrees-Bohrs-Radians)
 RMS Force = .67550D-02 SwitMx=.10000D-02 MixMth= 1
 Mixed Optimization -- RFO/linear search
 Second derivative matrix not updated -- first step.
 ITU=  0
     Eigenvalues ---    0.00247   0.01394   0.01394   0.05071   0.05071
     Eigenvalues ---    0.05738   0.05738   0.11395   0.11395   0.13768
     Eigenvalues ---    0.13768   0.16000   0.16000   0.22053   0.22053
     Eigenvalues ---    0.28587   0.34554   0.34554   0.34554   0.34555
     Eigenvalues ---    0.42081   0.42083   0.51427   0.51427
 RFO step:  Lambda=-6.95866610D-03 EMin= 2.46972324D-03
 Linear search not attempted -- first point.
 Iteration  1 RMS(Cart)=  0.06013037 RMS(Int)=  0.00154913
 Iteration  2 RMS(Cart)=  0.00169129 RMS(Int)=  0.00075784
 Iteration  3 RMS(Cart)=  0.00000155 RMS(Int)=  0.00075784
 Iteration  4 RMS(Cart)=  0.00000000 RMS(Int)=  0.00075784
 ITry= 1 IFail=0 DXMaxC= 1.24D-01 DCOld= 1.00D+10 DXMaxT= 3.00D-01 DXLimC= 3.00D+00 Rises=F
 Variable       Old X    -DE/DX   Delta X   Delta X   Delta X     New X
                                 (Linear)    (Quad)   (Total)
    R1        2.68820   0.01546   0.00000   0.03615   0.03615   2.72434
    R2        1.85152  -0.00626   0.00000  -0.01200  -0.01200   1.83951
    R3        2.90873  -0.01102   0.00000  -0.03762  -0.03762   2.87111
    R4        2.06405   0.00875   0.00000   0.02482   0.02482   2.08887
    R5        2.06405   0.00875   0.00000   0.02482   0.02482   2.08887
    R6        2.68817   0.01547   0.00000   0.03616   0.03616   2.72433
    R7        2.06405   0.00875   0.00000   0.02482   0.02482   2.08887
    R8        2.06404   0.00875   0.00000   0.02483   0.02483   2.08887
    R9        1.85152  -0.00626   0.00000  -0.01201  -0.01201   1.83952
    A1        1.82862   0.00835   0.00000   0.05003   0.05003   1.87865
    A2        1.91935  -0.01219   0.00000  -0.05093  -0.05070   1.86865
    A3        1.90162   0.00761   0.00000   0.05200   0.05102   1.95264
    A4        1.90163   0.00761   0.00000   0.05200   0.05101   1.95264
    A5        1.91948  -0.00095   0.00000  -0.02190  -0.02159   1.89789
    A6        1.91949  -0.00095   0.00000  -0.02191  -0.02159   1.89789
    A7        1.90198  -0.00087   0.00000  -0.00750  -0.00925   1.89273
    A8        1.91935  -0.01219   0.00000  -0.05092  -0.05070   1.86865
    A9        1.91947  -0.00095   0.00000  -0.02190  -0.02158   1.89789
   A10        1.91948  -0.00095   0.00000  -0.02191  -0.02159   1.89789
   A11        1.90164   0.00761   0.00000   0.05199   0.05101   1.95265
   A12        1.90164   0.00761   0.00000   0.05199   0.05101   1.95265
   A13        1.90198  -0.00087   0.00000  -0.00750  -0.00925   1.89273
   A14        1.82862   0.00835   0.00000   0.05003   0.05003   1.87866
    D1        3.14159  -0.00000   0.00000  -0.00000  -0.00000   3.14159
    D2       -1.03658  -0.00390   0.00000  -0.02566  -0.02734  -1.06392
    D3        1.03656   0.00390   0.00000   0.02567   0.02735   1.06391
    D4       -3.14159   0.00000   0.00000   0.00000   0.00000  -3.14159
    D5       -1.04737   0.00113   0.00000   0.01844   0.01850  -1.02887
    D6        1.04736  -0.00113   0.00000  -0.01843  -0.01848   1.02888
    D7        1.04738  -0.00113   0.00000  -0.01844  -0.01850   1.02888
    D8       -3.14159  -0.00000   0.00000  -0.00000  -0.00000  -3.14159
    D9       -1.04685  -0.00227   0.00000  -0.03687  -0.03699  -1.08384
   D10       -1.04737   0.00113   0.00000   0.01843   0.01849  -1.02888
   D11        1.04686   0.00227   0.00000   0.03687   0.03699   1.08384
   D12        3.14159   0.00000   0.00000   0.00000   0.00000   3.14159
   D13        3.14159   0.00000   0.00000   0.00000   0.00000   3.14159
   D14        1.03658   0.00389   0.00000   0.02566   0.02734   1.06392
   D15       -1.03657  -0.00389   0.00000  -0.02566  -0.02734  -1.06392
         Item               Value     Threshold  Converged?
 Maximum Force            0.015468     0.000450     NO 
 RMS     Force            0.006755     0.000300     NO 
 Maximum Displacement     0.124318     0.001800     NO 
 RMS     Displacement     0.060472     0.001200     NO 
 Predicted change in Energy=-3.635172D-03
 Lowest energy point so far.  Saving SCF results.
 GradGradGradGradGradGradGradGradGradGradGradGradGradGradGradGradGradGrad

 Leave Link  103 at Mon Feb 22 21:12:52 2021, MaxMem=   104857600 cpu:               1.2 elap:               0.1
 (Enter /sw/arch/RedHatEnterpriseServer7/EB_production/2019/software/Gaussian/g16.c01/l202.exe)
                          Input orientation:                          
 ---------------------------------------------------------------------
 Center     Atomic      Atomic             Coordinates (Angstroms)
 Number     Number       Type             X           Y           Z
 ---------------------------------------------------------------------
      1          8           0       -0.575539    1.788412    0.602787
      2          6           0        0.111888    0.696450   -0.040211
      3          6           0       -0.802766    0.177754   -1.136895
      4          8           0       -0.115343   -0.914206   -1.779889
      5          1           0        0.003792    2.127411    1.307783
      6          1           0        1.064825    1.021271   -0.496581
      7          1           0        0.324728   -0.128261    0.664362
      8          1           0       -1.755704   -0.147062   -0.680519
      9          1           0       -1.015607    1.002466   -1.841465
     10          1           0       -0.694673   -1.253214   -2.484883
 ---------------------------------------------------------------------
                    Distance matrix (angstroms):
                    1          2          3          4          5
     1  O    0.000000
     2  C    1.441660   0.000000
     3  C    2.381668   1.519326   0.000000
     4  O    3.632227   2.381665   1.441655   0.000000
     5  H    0.973429   1.968863   3.229264   4.335821   0.000000
     6  H    2.118469   1.105383   2.146956   2.604947   2.367502
     7  H    2.118468   1.105383   2.146955   2.604945   2.367497
     8  H    2.604942   2.146952   1.105384   2.118468   3.496055
     9  H    2.604945   2.146953   1.105383   2.118467   3.496060
    10  H    4.335826   3.229264   1.968864   0.973430   5.128429
                    6          7          8          9         10
     6  H    0.000000
     7  H    1.793588   0.000000
     8  H    3.058467   2.477349   0.000000
     9  H    2.477351   3.058466   1.793587   0.000000
    10  H    3.496063   3.496061   2.367507   2.367505   0.000000
 Stoichiometry    C2H6O2
 Framework group  C1[X(C2H6O2)]
 Deg. of freedom    24
 Full point group                 C1      NOp   1
 RotChk:  IX=2 Diff= 2.47D-02
 Largest Abelian subgroup         C1      NOp   1
 Largest concise Abelian subgroup C1      NOp   1
                         Standard orientation:                         
 ---------------------------------------------------------------------
 Center     Atomic      Atomic             Coordinates (Angstroms)
 Number     Number       Type             X           Y           Z
 ---------------------------------------------------------------------
      1          8           0       -1.797165   -0.261668    0.000000
      2          6           0       -0.572628    0.499183   -0.000001
      3          6           0        0.572631   -0.499182   -0.000001
      4          8           0        1.797163    0.261666    0.000001
      5          1           0       -2.537289    0.370614    0.000005
      6          1           0       -0.485565    1.139538   -0.896795
      7          1           0       -0.485564    1.139537    0.896793
      8          1           0        0.485560   -1.139537    0.896793
      9          1           0        0.485563   -1.139536   -0.896794
     10          1           0        2.537292   -0.370611    0.000001
 ---------------------------------------------------------------------
 Rotational constants (GHZ):          30.1232950           3.9326973           3.6410662
 Leave Link  202 at Mon Feb 22 21:12:52 2021, MaxMem=   104857600 cpu:               0.2 elap:               0.0
 (Enter /sw/arch/RedHatEnterpriseServer7/EB_production/2019/software/Gaussian/g16.c01/l301.exe)
 Standard basis: TZVP (5D, 7F)
 Ernie: Thresh=  0.10000D-02 Tol=  0.10000D-05 Strict=F.
 There are   116 symmetry adapted cartesian basis functions of A   symmetry.
 There are   112 symmetry adapted basis functions of A   symmetry.
   112 basis functions,   188 primitive gaussians,   116 cartesian basis functions
    17 alpha electrons       17 beta electrons
       nuclear repulsion energy       129.1381017324 Hartrees.
 IExCor=  404 DFT=T Ex=B Corr=P86 ExCW=0 ScaHFX=  0.000000
 ScaDFX=  1.000000  1.000000  1.000000  1.000000 ScalE2=  1.000000  1.000000
 IRadAn=      5 IRanWt=     -1 IRanGd=            0 ICorTp=0 IEmpDi=131
 NAtoms=   10 NActive=   10 NUniq=   10 SFac= 1.00D+00 NAtFMM=   60 NAOKFM=F Big=F
 Integral buffers will be    131072 words long.
 Raffenetti 2 integral format.
 Two-electron integral symmetry is turned on.
 R6Disp:  Grimme-D3 Dispersion energy=       -0.0054557638 Hartrees.
 Nuclear repulsion after empirical dispersion term =      129.1326459686 Hartrees.
 ------------------------------------------------------------------------------
 Polarizable Continuum Model (PCM)
 =================================
 Model                : PCM.
 Atomic radii         : UFF (Universal Force Field).
 Polarization charges : Total charges.
 Charge compensation  : None.
 Solution method      : On-the-fly selection.
 Cavity type          : Scaled VdW (van der Waals Surface) (Alpha=1.100).
 Cavity algorithm     : GePol (No added spheres)
                        Default sphere list used, NSphG=   10.
                        Lebedev-Laikov grids with approx.  5.0 points / Ang**2.
                        Smoothing algorithm: York/Karplus (Gamma=1.0000).
                        Polarization charges: spherical gaussians, with
                                              point-specific exponents (IZeta= 3).
                        Self-potential: point-specific (ISelfS= 7).
                        Self-field    : sphere-specific E.n sum rule (ISelfD= 2).
 1st derivatives      : Analytical E(r).r(x)/FMM algorithm (CHGder, D1EAlg=3).
                        Cavity 1st derivative terms included.
 Solvent              : Water, Eps=  78.355300 Eps(inf)=   1.777849
 ------------------------------------------------------------------------------
 Spheres list:
 ISph  on   Nord     Re0    Alpha      Xe            Ye            Ze
    1   O      1    1.7500  1.100     -1.797165     -0.261668      0.000000
    2   C      2    1.9255  1.100     -0.572628      0.499183     -0.000001
    3   C      3    1.9255  1.100      0.572631     -0.499182     -0.000001
    4   O      4    1.7500  1.100      1.797163      0.261666      0.000001
    5   H      5    1.4430  1.100     -2.537289      0.370614      0.000005
    6   H      6    1.4430  1.100     -0.485565      1.139538     -0.896795
    7   H      7    1.4430  1.100     -0.485564      1.139537      0.896793
    8   H      8    1.4430  1.100      0.485560     -1.139537      0.896793
    9   H      9    1.4430  1.100      0.485563     -1.139536     -0.896794
   10   H     10    1.4430  1.100      2.537292     -0.370611      0.000001
 ------------------------------------------------------------------------------
 GePol: Number of generator spheres                  =      10
 GePol: Total number of spheres                      =      10
 GePol: Number of exposed spheres                    =      10 (100.00%)
 GePol: Number of points                             =     930
 GePol: Average weight of points                     =       0.13
 GePol: Minimum weight of points                     =   0.13D-07
 GePol: Maximum weight of points                     =    0.20400
 GePol: Number of points with low weight             =      44
 GePol: Fraction of low-weight points (<1% of avg)   =       4.73%
 GePol: Cavity surface area                          =    122.356 Ang**2
 GePol: Cavity volume                                =    104.639 Ang**3
 Leave Link  301 at Mon Feb 22 21:12:52 2021, MaxMem=   104857600 cpu:               1.9 elap:               0.1
 (Enter /sw/arch/RedHatEnterpriseServer7/EB_production/2019/software/Gaussian/g16.c01/l302.exe)
 NPDir=0 NMtPBC=     1 NCelOv=     1 NCel=       1 NClECP=     1 NCelD=      1
         NCelK=      1 NCelE2=     1 NClLst=     1 CellRange=     0.0.
 One-electron integrals computed using PRISM.
 One-electron integral symmetry used in STVInt
 PrsmSu:  requested number of processors reduced to:  30 ShMem   1 Linda.
 NBasis=   112 RedAO= T EigKep=  5.90D-04  NBF=   112
 NBsUse=   112 1.00D-06 EigRej= -1.00D+00 NBFU=   112
 Precomputing XC quadrature grid using
 IXCGrd= 4 IRadAn=           5 IRanWt=          -1 IRanGd=           0 AccXCQ= 0.00D+00.
 Generated NRdTot=       0 NPtTot=           0 NUsed=           0 NTot=          32
 NSgBfM=   116   116   116   116   116 MxSgAt=    10 MxSgA2=    10.
 Leave Link  302 at Mon Feb 22 21:12:53 2021, MaxMem=   104857600 cpu:               4.5 elap:               0.2
 (Enter /sw/arch/RedHatEnterpriseServer7/EB_production/2019/software/Gaussian/g16.c01/l303.exe)
 DipDrv:  MaxL=1.
 Leave Link  303 at Mon Feb 22 21:12:53 2021, MaxMem=   104857600 cpu:               2.0 elap:               0.1
 (Enter /sw/arch/RedHatEnterpriseServer7/EB_production/2019/software/Gaussian/g16.c01/l401.exe)
 Initial guess from the checkpoint file:  "LYCAIKOWRPUZTN-UHFFFAOYSA-N.chk"
 B after Tr=     0.000000   -0.000000   -0.000000
         Rot=    0.999976   -0.000001    0.000000    0.006914 Ang=  -0.79 deg.
 Guess basis will be translated and rotated to current coordinates.
 JPrj=2 DoOrth=T DoCkMO=T.
 Generating alternative initial guess.
 ExpMin= 9.52D-02 ExpMax= 2.70D+04 ExpMxC= 9.22D+02 IAcc=3 IRadAn=         5 AccDes= 0.00D+00
 Harris functional with IExCor=  404 and IRadAn=       5 diagonalized for initial guess.
 HarFok:  IExCor=  404 AccDes= 0.00D+00 IRadAn=         5 IDoV= 1 UseB2=F ITyADJ=14
 ICtDFT=  3500011 ScaDFX=  1.000000  1.000000  1.000000  1.000000
 FoFCou: FMM=F IPFlag=           0 FMFlag=      100000 FMFlg1=           0
         NFxFlg=           0 DoJE=T BraDBF=F KetDBF=T FulRan=T
         wScrn=  0.000000 ICntrl=       500 IOpCl=  0 I1Cent=   200000004 NGrid=           0
         NMat0=    1 NMatS0=      1 NMatT0=    0 NMatD0=    1 NMtDS0=    0 NMtDT0=    0
 Petite list used in FoFCou.
 Harris En= -230.431856028081    
 Leave Link  401 at Mon Feb 22 21:12:53 2021, MaxMem=   104857600 cpu:              10.6 elap:               0.4
 (Enter /sw/arch/RedHatEnterpriseServer7/EB_production/2019/software/Gaussian/g16.c01/l502.exe)
 Keep J ints in memory in canonical form, NReq=50213232.
 FoFCou: FMM=F IPFlag=           0 FMFlag=           0 FMFlg1=           0
         NFxFlg=           0 DoJE=F BraDBF=F KetDBF=F FulRan=T
         wScrn=  0.000000 ICntrl=       600 IOpCl=  0 I1Cent=           0 NGrid=           0
         NMat0=    1 NMatS0=   6328 NMatT0=    0 NMatD0=    1 NMtDS0=    0 NMtDT0=    0
 Symmetry not used in FoFCou.
 Two-electron integral symmetry not used.
 Closed shell SCF:
 Using DIIS extrapolation, IDIIS=  1040.
 NGot=   104857600 LenX=    84800446 LenY=    84786549
 Requested convergence on RMS density matrix=1.00D-08 within 128 cycles.
 Requested convergence on MAX density matrix=1.00D-06.
 Requested convergence on             energy=1.00D-06.
 No special actions if energy rises.

 Cycle   1  Pass 1  IDiag  1:
 Inv3:  Mode=1 IEnd=     2594700.
 Iteration    1 A*A^-1 deviation from unit magnitude is 3.44D-15 for    383.
 Iteration    1 A*A^-1 deviation from orthogonality  is 1.78D-15 for    900    363.
 Iteration    1 A^-1*A deviation from unit magnitude is 3.33D-15 for    730.
 Iteration    1 A^-1*A deviation from orthogonality  is 1.55D-15 for    839    197.
 E= -230.352015713738    
 DIIS: error= 3.14D-03 at cycle   1 NSaved=   1.
 NSaved= 1 IEnMin= 1 EnMin= -230.352015713738     IErMin= 1 ErrMin= 3.14D-03
 ErrMax= 3.14D-03  0.00D+00 EMaxC= 1.00D-01 BMatC= 1.67D-03 BMatP= 1.67D-03
 IDIUse=3 WtCom= 9.69D-01 WtEn= 3.14D-02
 Coeff-Com:  0.100D+01
 Coeff-En:   0.100D+01
 Coeff:      0.100D+01
 Gap=     0.646 Goal=   None    Shift=    0.000
 GapD=    0.646 DampG=2.000 DampE=1.000 DampFc=2.0000 IDamp=-1.
 RMSDP=5.37D-04 MaxDP=5.40D-03              OVMax= 1.62D-02

 Cycle   2  Pass 1  IDiag  1:
 E= -230.353969117228     Delta-E=       -0.001953403490 Rises=F Damp=F
 DIIS: error= 7.50D-04 at cycle   2 NSaved=   2.
 NSaved= 2 IEnMin= 2 EnMin= -230.353969117228     IErMin= 2 ErrMin= 7.50D-04
 ErrMax= 7.50D-04  0.00D+00 EMaxC= 1.00D-01 BMatC= 4.92D-05 BMatP= 1.67D-03
 IDIUse=3 WtCom= 9.93D-01 WtEn= 7.50D-03
 Coeff-Com:  0.642D-01 0.936D+00
 Coeff-En:   0.000D+00 0.100D+01
 Coeff:      0.637D-01 0.936D+00
 Gap=     0.241 Goal=   None    Shift=    0.000
 RMSDP=9.63D-05 MaxDP=1.20D-03 DE=-1.95D-03 OVMax= 3.43D-03

 Cycle   3  Pass 1  IDiag  1:
 E= -230.353963496033     Delta-E=        0.000005621195 Rises=F Damp=F
 DIIS: error= 7.69D-04 at cycle   3 NSaved=   3.
 NSaved= 3 IEnMin= 2 EnMin= -230.353969117228     IErMin= 2 ErrMin= 7.50D-04
 ErrMax= 7.69D-04  0.00D+00 EMaxC= 1.00D-01 BMatC= 6.15D-05 BMatP= 4.92D-05
 IDIUse=3 WtCom= 2.65D-01 WtEn= 7.35D-01
 Coeff-Com:  0.133D-01 0.531D+00 0.455D+00
 Coeff-En:   0.000D+00 0.530D+00 0.470D+00
 Coeff:      0.353D-02 0.530D+00 0.466D+00
 Gap=     0.241 Goal=   None    Shift=    0.000
 RMSDP=5.84D-05 MaxDP=6.30D-04 DE= 5.62D-06 OVMax= 1.90D-03

 Cycle   4  Pass 1  IDiag  1:
 E= -230.354009251266     Delta-E=       -0.000045755233 Rises=F Damp=F
 DIIS: error= 3.47D-04 at cycle   4 NSaved=   4.
 NSaved= 4 IEnMin= 4 EnMin= -230.354009251266     IErMin= 4 ErrMin= 3.47D-04
 ErrMax= 3.47D-04  0.00D+00 EMaxC= 1.00D-01 BMatC= 7.02D-06 BMatP= 4.92D-05
 IDIUse=3 WtCom= 9.97D-01 WtEn= 3.47D-03
 Coeff-Com:  0.603D-04 0.214D+00 0.282D+00 0.505D+00
 Coeff-En:   0.000D+00 0.000D+00 0.392D-01 0.961D+00
 Coeff:      0.601D-04 0.213D+00 0.281D+00 0.506D+00
 Gap=     0.241 Goal=   None    Shift=    0.000
 RMSDP=1.74D-05 MaxDP=2.14D-04 DE=-4.58D-05 OVMax= 4.86D-04

 Cycle   5  Pass 1  IDiag  1:
 E= -230.354014101544     Delta-E=       -0.000004850278 Rises=F Damp=F
 DIIS: error= 5.11D-05 at cycle   5 NSaved=   5.
 NSaved= 5 IEnMin= 5 EnMin= -230.354014101544     IErMin= 5 ErrMin= 5.11D-05
 ErrMax= 5.11D-05  0.00D+00 EMaxC= 1.00D-01 BMatC= 2.81D-07 BMatP= 7.02D-06
 IDIUse=1 WtCom= 1.00D+00 WtEn= 0.00D+00
 Coeff-Com: -0.224D-03 0.101D+00 0.142D+00 0.290D+00 0.467D+00
 Coeff:     -0.224D-03 0.101D+00 0.142D+00 0.290D+00 0.467D+00
 Gap=     0.241 Goal=   None    Shift=    0.000
 RMSDP=4.56D-06 MaxDP=7.03D-05 DE=-4.85D-06 OVMax= 1.10D-04

 Cycle   6  Pass 1  IDiag  1:
 E= -230.354014321780     Delta-E=       -0.000000220236 Rises=F Damp=F
 DIIS: error= 1.10D-05 at cycle   6 NSaved=   6.
 NSaved= 6 IEnMin= 6 EnMin= -230.354014321780     IErMin= 6 ErrMin= 1.10D-05
 ErrMax= 1.10D-05  0.00D+00 EMaxC= 1.00D-01 BMatC= 7.50D-09 BMatP= 2.81D-07
 IDIUse=1 WtCom= 1.00D+00 WtEn= 0.00D+00
 Coeff-Com: -0.100D-03 0.159D-01 0.242D-01 0.615D-01 0.183D+00 0.715D+00
 Coeff:     -0.100D-03 0.159D-01 0.242D-01 0.615D-01 0.183D+00 0.715D+00
 Gap=     0.241 Goal=   None    Shift=    0.000
 RMSDP=7.65D-07 MaxDP=1.37D-05 DE=-2.20D-07 OVMax= 1.79D-05

 Cycle   7  Pass 1  IDiag  1:
 E= -230.354014328629     Delta-E=       -0.000000006849 Rises=F Damp=F
 DIIS: error= 7.12D-07 at cycle   7 NSaved=   7.
 NSaved= 7 IEnMin= 7 EnMin= -230.354014328629     IErMin= 7 ErrMin= 7.12D-07
 ErrMax= 7.12D-07  0.00D+00 EMaxC= 1.00D-01 BMatC= 4.83D-11 BMatP= 7.50D-09
 IDIUse=1 WtCom= 1.00D+00 WtEn= 0.00D+00
 Coeff-Com: -0.122D-04 0.146D-02 0.266D-02 0.800D-02 0.325D-01 0.161D+00
 Coeff-Com:  0.794D+00
 Coeff:     -0.122D-04 0.146D-02 0.266D-02 0.800D-02 0.325D-01 0.161D+00
 Coeff:      0.794D+00
 Gap=     0.241 Goal=   None    Shift=    0.000
 RMSDP=7.48D-08 MaxDP=1.06D-06 DE=-6.85D-09 OVMax= 1.85D-06

 Cycle   8  Pass 1  IDiag  1:
 E= -230.354014328670     Delta-E=       -0.000000000041 Rises=F Damp=F
 DIIS: error= 8.73D-08 at cycle   8 NSaved=   8.
 NSaved= 8 IEnMin= 8 EnMin= -230.354014328670     IErMin= 8 ErrMin= 8.73D-08
 ErrMax= 8.73D-08  0.00D+00 EMaxC= 1.00D-01 BMatC= 5.47D-13 BMatP= 4.83D-11
 IDIUse=1 WtCom= 1.00D+00 WtEn= 0.00D+00
 Coeff-Com: -0.281D-05 0.621D-04 0.175D-03 0.674D-03 0.371D-02 0.196D-01
 Coeff-Com:  0.148D+00 0.828D+00
 Coeff:     -0.281D-05 0.621D-04 0.175D-03 0.674D-03 0.371D-02 0.196D-01
 Coeff:      0.148D+00 0.828D+00
 Gap=     0.241 Goal=   None    Shift=    0.000
 RMSDP=7.43D-09 MaxDP=7.18D-08 DE=-4.12D-11 OVMax= 1.94D-07

 Error on total polarization charges =  0.00841
 SCF Done:  E(RB-P86) =  -230.354014329     A.U. after    8 cycles
            NFock=  8  Conv=0.74D-08     -V/T= 2.0045
 KE= 2.293331118440D+02 PE=-7.992968097497D+02 EE= 2.104770376085D+02
 Leave Link  502 at Mon Feb 22 21:12:55 2021, MaxMem=   104857600 cpu:              56.5 elap:               2.1
 (Enter /sw/arch/RedHatEnterpriseServer7/EB_production/2019/software/Gaussian/g16.c01/l701.exe)
 ... and contract with generalized density number  0.
 Compute integral first derivatives.
 R6Disp: Adding Grimme-D3 dispersion energy 1st derivatives to the gradient.
 PrsmSu:  requested number of processors reduced to:  30 ShMem   1 Linda.
 D1PCM: PCM CHGder 1st derivatives, ID1Alg=3 FixD1E=F DoIter=F DoCFld=F I1PDM=0.
 GePol: Maximum number of non-zero 1st derivatives   =     203
 CoulSu:  requested number of processors reduced to:  29 ShMem   1 Linda.
 CoulSu:  requested number of processors reduced to:  30 ShMem   1 Linda.
 Leave Link  701 at Mon Feb 22 21:12:56 2021, MaxMem=   104857600 cpu:              12.2 elap:               0.4
 (Enter /sw/arch/RedHatEnterpriseServer7/EB_production/2019/software/Gaussian/g16.c01/l702.exe)
 L702 exits ... SP integral derivatives will be done elsewhere.
 Leave Link  702 at Mon Feb 22 21:12:56 2021, MaxMem=   104857600 cpu:               0.8 elap:               0.1
 (Enter /sw/arch/RedHatEnterpriseServer7/EB_production/2019/software/Gaussian/g16.c01/l703.exe)
 Integral derivatives from FoFJK, PRISM(SPDF).
 Compute integral first derivatives, UseDBF=F ICtDFT=           0.
 Calling FoFJK, ICntrl=      2527 FMM=F ISym2X=0 I1Cent= 0 IOpClX= 0 NMat=1 NMatS=1 NMatT=0.
 FoFJK:  IHMeth= 1 ICntrl=    2527 DoSepK=F KAlg= 0 I1Cent=           0 FoldK=F
 IRaf=         0 NMat=       1 IRICut=       1 DoRegI=T DoRafI=F ISym2E= 0 IDoP0=0 IntGTp=1.
 FoFCou: FMM=F IPFlag=           0 FMFlag=      100000 FMFlg1=         800
         NFxFlg=           0 DoJE=F BraDBF=F KetDBF=F FulRan=T
         wScrn=  0.000000 ICntrl=      2527 IOpCl=  0 I1Cent=           0 NGrid=           0
         NMat0=    1 NMatS0=      1 NMatT0=    0 NMatD0=    1 NMtDS0=    0 NMtDT0=    0
 Symmetry not used in FoFCou.
 Leave Link  703 at Mon Feb 22 21:12:56 2021, MaxMem=   104857600 cpu:              10.7 elap:               0.4
 (Enter /sw/arch/RedHatEnterpriseServer7/EB_production/2019/software/Gaussian/g16.c01/l716.exe)
 Dipole        = 1.04085408D-05 6.17442993D-06 3.09046799D-06
 ***** Axes restored to original set *****
 -------------------------------------------------------------------
 Center     Atomic                   Forces (Hartrees/Bohr)
 Number     Number              X              Y              Z
 -------------------------------------------------------------------
      1        8           0.001348851   -0.001025367   -0.000155516
      2        6           0.000370924   -0.000732222   -0.000488462
      3        6          -0.000372060    0.000733804    0.000490099
      4        8          -0.001347814    0.001023550    0.000154317
      5        1          -0.000141369   -0.000284389   -0.000371745
      6        1           0.000575425    0.000964639    0.001159828
      7        1           0.000488933    0.000829980    0.001295750
      8        1          -0.000575270   -0.000964830   -0.001160209
      9        1          -0.000488915   -0.000829996   -0.001296159
     10        1           0.000141294    0.000284832    0.000372098
 -------------------------------------------------------------------
 Cartesian Forces:  Max     0.001348851 RMS     0.000785720
 Leave Link  716 at Mon Feb 22 21:12:56 2021, MaxMem=   104857600 cpu:               0.8 elap:               0.1
 (Enter /sw/arch/RedHatEnterpriseServer7/EB_production/2019/software/Gaussian/g16.c01/l103.exe)

 GradGradGradGradGradGradGradGradGradGradGradGradGradGradGradGradGradGrad
 Berny optimization.
 Using GEDIIS/GDIIS optimizer.
 FormGI is forming the generalized inverse of G from B-inverse, IUseBI=4.
 Internal  Forces:  Max     0.002541748 RMS     0.000926880
 Search for a local minimum.
 Step number   2 out of a maximum of   48
 All quantities printed in internal units (Hartrees-Bohrs-Radians)
 RMS Force = .92688D-03 SwitMx=.10000D-02 MixMth= 2
 Mixed Optimization -- En-DIIS/RFO-DIIS
 Update second derivatives using D2CorX and points    1    2
 DE= -3.07D-03 DEPred=-3.64D-03 R= 8.45D-01
 TightC=F SS=  1.41D+00  RLast= 1.91D-01 DXNew= 5.0454D-01 5.7291D-01
 Trust test= 8.45D-01 RLast= 1.91D-01 DXMaxT set to 5.05D-01
 ITU=  1  0
 Use linear search instead of GDIIS.
     Eigenvalues ---    0.00247   0.01394   0.01394   0.05400   0.05401
     Eigenvalues ---    0.06037   0.06140   0.10815   0.12246   0.13525
     Eigenvalues ---    0.13525   0.16000   0.16166   0.21596   0.21993
     Eigenvalues ---    0.29284   0.33898   0.34554   0.34554   0.34554
     Eigenvalues ---    0.42082   0.43033   0.51180   0.51427
 RFO step:  Lambda=-1.14976007D-04 EMin= 2.46972324D-03
 Quartic linear search produced a step of -0.09652.
 Iteration  1 RMS(Cart)=  0.00839675 RMS(Int)=  0.00006950
 Iteration  2 RMS(Cart)=  0.00003917 RMS(Int)=  0.00005885
 Iteration  3 RMS(Cart)=  0.00000000 RMS(Int)=  0.00005885
 ITry= 1 IFail=0 DXMaxC= 1.86D-02 DCOld= 1.00D+10 DXMaxT= 5.05D-01 DXLimC= 3.00D+00 Rises=F
 Variable       Old X    -DE/DX   Delta X   Delta X   Delta X     New X
                                 (Linear)    (Quad)   (Total)
    R1        2.72434  -0.00180  -0.00349   0.00033  -0.00316   2.72118
    R2        1.83951  -0.00046   0.00116  -0.00219  -0.00103   1.83848
    R3        2.87111   0.00254   0.00363   0.00367   0.00730   2.87841
    R4        2.08887   0.00030  -0.00240   0.00366   0.00126   2.09013
    R5        2.08887   0.00030  -0.00240   0.00366   0.00126   2.09013
    R6        2.72433  -0.00180  -0.00349   0.00034  -0.00315   2.72118
    R7        2.08887   0.00030  -0.00240   0.00366   0.00126   2.09013
    R8        2.08887   0.00030  -0.00240   0.00366   0.00126   2.09013
    R9        1.83952  -0.00046   0.00116  -0.00219  -0.00103   1.83848
    A1        1.87865  -0.00033  -0.00483   0.00393  -0.00090   1.87775
    A2        1.86865  -0.00014   0.00489  -0.00672  -0.00182   1.86683
    A3        1.95264  -0.00094  -0.00492  -0.00344  -0.00828   1.94437
    A4        1.95264  -0.00094  -0.00492  -0.00344  -0.00828   1.94437
    A5        1.89789   0.00139   0.00208   0.00883   0.01085   1.90875
    A6        1.89789   0.00139   0.00208   0.00883   0.01085   1.90875
    A7        1.89273  -0.00060   0.00089  -0.00322  -0.00230   1.89043
    A8        1.86865  -0.00014   0.00489  -0.00671  -0.00182   1.86683
    A9        1.89789   0.00139   0.00208   0.00884   0.01086   1.90874
   A10        1.89789   0.00139   0.00208   0.00884   0.01085   1.90875
   A11        1.95265  -0.00094  -0.00492  -0.00345  -0.00828   1.94437
   A12        1.95265  -0.00094  -0.00492  -0.00345  -0.00828   1.94437
   A13        1.89273  -0.00060   0.00089  -0.00322  -0.00230   1.89043
   A14        1.87866  -0.00033  -0.00483   0.00392  -0.00091   1.87775
    D1        3.14159   0.00000   0.00000   0.00000   0.00000   3.14159
    D2       -1.06392   0.00107   0.00264   0.00458   0.00735  -1.05657
    D3        1.06391  -0.00107  -0.00264  -0.00458  -0.00735   1.05656
    D4       -3.14159  -0.00000  -0.00000  -0.00000  -0.00000  -3.14159
    D5       -1.02887  -0.00043  -0.00179  -0.00305  -0.00488  -1.03375
    D6        1.02888   0.00042   0.00178   0.00305   0.00487   1.03375
    D7        1.02888   0.00042   0.00179   0.00305   0.00487   1.03375
    D8       -3.14159  -0.00000   0.00000  -0.00000  -0.00000  -3.14159
    D9       -1.08384   0.00085   0.00357   0.00610   0.00975  -1.07409
   D10       -1.02888  -0.00042  -0.00178  -0.00305  -0.00487  -1.03375
   D11        1.08384  -0.00085  -0.00357  -0.00610  -0.00975   1.07409
   D12        3.14159   0.00000  -0.00000   0.00000   0.00000   3.14159
   D13        3.14159   0.00000  -0.00000   0.00000   0.00000  -3.14159
   D14        1.06392  -0.00107  -0.00264  -0.00458  -0.00735   1.05657
   D15       -1.06392   0.00107   0.00264   0.00458   0.00735  -1.05657
         Item               Value     Threshold  Converged?
 Maximum Force            0.002542     0.000450     NO 
 RMS     Force            0.000927     0.000300     NO 
 Maximum Displacement     0.018599     0.001800     NO 
 RMS     Displacement     0.008397     0.001200     NO 
 Predicted change in Energy=-9.082498D-05
 Lowest energy point so far.  Saving SCF results.
 GradGradGradGradGradGradGradGradGradGradGradGradGradGradGradGradGradGrad

 Leave Link  103 at Mon Feb 22 21:12:56 2021, MaxMem=   104857600 cpu:               1.2 elap:               0.1
 (Enter /sw/arch/RedHatEnterpriseServer7/EB_production/2019/software/Gaussian/g16.c01/l202.exe)
                          Input orientation:                          
 ---------------------------------------------------------------------
 Center     Atomic      Atomic             Coordinates (Angstroms)
 Number     Number       Type             X           Y           Z
 ---------------------------------------------------------------------
      1          8           0       -0.571872    1.786692    0.603422
      2          6           0        0.114238    0.695912   -0.039243
      3          6           0       -0.805117    0.178291   -1.137860
      4          8           0       -0.119010   -0.912488   -1.780525
      5          1           0        0.008053    2.124591    1.307705
      6          1           0        1.069747    1.027723   -0.486740
      7          1           0        0.329818   -0.121548    0.673941
      8          1           0       -1.760626   -0.153517   -0.690362
      9          1           0       -1.020698    0.995753   -1.851043
     10          1           0       -0.698935   -1.250390   -2.484806
 ---------------------------------------------------------------------
                    Distance matrix (angstroms):
                    1          2          3          4          5
     1  O    0.000000
     2  C    1.439989   0.000000
     3  C    2.381894   1.523188   0.000000
     4  O    3.629581   2.381893   1.439986   0.000000
     5  H    0.972884   1.966385   3.229569   4.333262   0.000000
     6  H    2.111729   1.106051   2.158844   2.617526   2.355917
     7  H    2.111729   1.106051   2.158843   2.617525   2.355914
     8  H    2.617523   2.158842   1.106051   2.111729   3.508600
     9  H    2.617523   2.158843   1.106051   2.111728   3.508603
    10  H    4.333263   3.229569   1.966385   0.972884   5.125765
                    6          7          8          9         10
     6  H    0.000000
     7  H    1.793181   0.000000
     8  H    3.073728   2.496458   0.000000
     9  H    2.496459   3.073727   1.793181   0.000000
    10  H    3.508604   3.508603   2.355918   2.355917   0.000000
 Stoichiometry    C2H6O2
 Framework group  C1[X(C2H6O2)]
 Deg. of freedom    24
 Full point group                 C1      NOp   1
 RotChk:  IX=2 Diff= 5.30D-03
 Largest Abelian subgroup         C1      NOp   1
 Largest concise Abelian subgroup C1      NOp   1
                         Standard orientation:                         
 ---------------------------------------------------------------------
 Center     Atomic      Atomic             Coordinates (Angstroms)
 Number     Number       Type             X           Y           Z
 ---------------------------------------------------------------------
      1          8           0       -1.795431   -0.264371   -0.000000
      2          6           0       -0.574817    0.499611   -0.000000
      3          6           0        0.574818   -0.499609   -0.000000
      4          8           0        1.795431    0.264370    0.000000
      5          1           0       -2.536644    0.365793    0.000004
      6          1           0       -0.501391    1.143103   -0.896591
      7          1           0       -0.501391    1.143103    0.896590
      8          1           0        0.501389   -1.143102    0.896591
      9          1           0        0.501390   -1.143103   -0.896590
     10          1           0        2.536644   -0.365793    0.000000
 ---------------------------------------------------------------------
 Rotational constants (GHZ):          29.9878519           3.9351421           3.6410958
 Leave Link  202 at Mon Feb 22 21:12:56 2021, MaxMem=   104857600 cpu:               0.3 elap:               0.0
 (Enter /sw/arch/RedHatEnterpriseServer7/EB_production/2019/software/Gaussian/g16.c01/l301.exe)
 Standard basis: TZVP (5D, 7F)
 Ernie: Thresh=  0.10000D-02 Tol=  0.10000D-05 Strict=F.
 There are   116 symmetry adapted cartesian basis functions of A   symmetry.
 There are   112 symmetry adapted basis functions of A   symmetry.
   112 basis functions,   188 primitive gaussians,   116 cartesian basis functions
    17 alpha electrons       17 beta electrons
       nuclear repulsion energy       129.1140429584 Hartrees.
 IExCor=  404 DFT=T Ex=B Corr=P86 ExCW=0 ScaHFX=  0.000000
 ScaDFX=  1.000000  1.000000  1.000000  1.000000 ScalE2=  1.000000  1.000000
 IRadAn=      5 IRanWt=     -1 IRanGd=            0 ICorTp=0 IEmpDi=131
 NAtoms=   10 NActive=   10 NUniq=   10 SFac= 1.00D+00 NAtFMM=   60 NAOKFM=F Big=F
 Integral buffers will be    131072 words long.
 Raffenetti 2 integral format.
 Two-electron integral symmetry is turned on.
 R6Disp:  Grimme-D3 Dispersion energy=       -0.0054139996 Hartrees.
 Nuclear repulsion after empirical dispersion term =      129.1086289589 Hartrees.
 ------------------------------------------------------------------------------
 Polarizable Continuum Model (PCM)
 =================================
 Model                : PCM.
 Atomic radii         : UFF (Universal Force Field).
 Polarization charges : Total charges.
 Charge compensation  : None.
 Solution method      : On-the-fly selection.
 Cavity type          : Scaled VdW (van der Waals Surface) (Alpha=1.100).
 Cavity algorithm     : GePol (No added spheres)
                        Default sphere list used, NSphG=   10.
                        Lebedev-Laikov grids with approx.  5.0 points / Ang**2.
                        Smoothing algorithm: York/Karplus (Gamma=1.0000).
                        Polarization charges: spherical gaussians, with
                                              point-specific exponents (IZeta= 3).
                        Self-potential: point-specific (ISelfS= 7).
                        Self-field    : sphere-specific E.n sum rule (ISelfD= 2).
 1st derivatives      : Analytical E(r).r(x)/FMM algorithm (CHGder, D1EAlg=3).
                        Cavity 1st derivative terms included.
 Solvent              : Water, Eps=  78.355300 Eps(inf)=   1.777849
 ------------------------------------------------------------------------------
 Spheres list:
 ISph  on   Nord     Re0    Alpha      Xe            Ye            Ze
    1   O      1    1.7500  1.100     -1.795431     -0.264371     -0.000000
    2   C      2    1.9255  1.100     -0.574817      0.499611     -0.000000
    3   C      3    1.9255  1.100      0.574818     -0.499609     -0.000000
    4   O      4    1.7500  1.100      1.795431      0.264370      0.000000
    5   H      5    1.4430  1.100     -2.536644      0.365793      0.000004
    6   H      6    1.4430  1.100     -0.501391      1.143103     -0.896591
    7   H      7    1.4430  1.100     -0.501391      1.143103      0.896590
    8   H      8    1.4430  1.100      0.501389     -1.143102      0.896591
    9   H      9    1.4430  1.100      0.501390     -1.143103     -0.896590
   10   H     10    1.4430  1.100      2.536644     -0.365793      0.000000
 ------------------------------------------------------------------------------
 GePol: Number of generator spheres                  =      10
 GePol: Total number of spheres                      =      10
 GePol: Number of exposed spheres                    =      10 (100.00%)
 GePol: Number of points                             =     926
 GePol: Average weight of points                     =       0.13
 GePol: Minimum weight of points                     =   0.16D-06
 GePol: Maximum weight of points                     =    0.20462
 GePol: Number of points with low weight             =      44
 GePol: Fraction of low-weight points (<1% of avg)   =       4.75%
 GePol: Cavity surface area                          =    122.361 Ang**2
 GePol: Cavity volume                                =    104.635 Ang**3
 Leave Link  301 at Mon Feb 22 21:12:56 2021, MaxMem=   104857600 cpu:               1.8 elap:               0.1
 (Enter /sw/arch/RedHatEnterpriseServer7/EB_production/2019/software/Gaussian/g16.c01/l302.exe)
 NPDir=0 NMtPBC=     1 NCelOv=     1 NCel=       1 NClECP=     1 NCelD=      1
         NCelK=      1 NCelE2=     1 NClLst=     1 CellRange=     0.0.
 One-electron integrals computed using PRISM.
 One-electron integral symmetry used in STVInt
 PrsmSu:  requested number of processors reduced to:  30 ShMem   1 Linda.
 NBasis=   112 RedAO= T EigKep=  5.99D-04  NBF=   112
 NBsUse=   112 1.00D-06 EigRej= -1.00D+00 NBFU=   112
 Precomputing XC quadrature grid using
 IXCGrd= 4 IRadAn=           5 IRanWt=          -1 IRanGd=           0 AccXCQ= 0.00D+00.
 Generated NRdTot=       0 NPtTot=           0 NUsed=           0 NTot=          32
 NSgBfM=   116   116   116   116   116 MxSgAt=    10 MxSgA2=    10.
 Leave Link  302 at Mon Feb 22 21:12:57 2021, MaxMem=   104857600 cpu:               4.1 elap:               0.2
 (Enter /sw/arch/RedHatEnterpriseServer7/EB_production/2019/software/Gaussian/g16.c01/l303.exe)
 DipDrv:  MaxL=1.
 Leave Link  303 at Mon Feb 22 21:12:57 2021, MaxMem=   104857600 cpu:               0.7 elap:               0.0
 (Enter /sw/arch/RedHatEnterpriseServer7/EB_production/2019/software/Gaussian/g16.c01/l401.exe)
 Initial guess from the checkpoint file:  "LYCAIKOWRPUZTN-UHFFFAOYSA-N.chk"
 B after Tr=    -0.000000    0.000000    0.000000
         Rot=    0.999999    0.000000   -0.000000   -0.001167 Ang=   0.13 deg.
 Guess basis will be translated and rotated to current coordinates.
 JPrj=2 DoOrth=T DoCkMO=T.
 Leave Link  401 at Mon Feb 22 21:12:57 2021, MaxMem=   104857600 cpu:               8.6 elap:               0.3
 (Enter /sw/arch/RedHatEnterpriseServer7/EB_production/2019/software/Gaussian/g16.c01/l502.exe)
 Keep J ints in memory in canonical form, NReq=50213232.
 FoFCou: FMM=F IPFlag=           0 FMFlag=           0 FMFlg1=           0
         NFxFlg=           0 DoJE=F BraDBF=F KetDBF=F FulRan=T
         wScrn=  0.000000 ICntrl=       600 IOpCl=  0 I1Cent=           0 NGrid=           0
         NMat0=    1 NMatS0=   6328 NMatT0=    0 NMatD0=    1 NMtDS0=    0 NMtDT0=    0
 Symmetry not used in FoFCou.
 Two-electron integral symmetry not used.
 Closed shell SCF:
 Using DIIS extrapolation, IDIIS=  1040.
 NGot=   104857600 LenX=    84800446 LenY=    84786549
 Requested convergence on RMS density matrix=1.00D-08 within 128 cycles.
 Requested convergence on MAX density matrix=1.00D-06.
 Requested convergence on             energy=1.00D-06.
 No special actions if energy rises.

 Cycle   1  Pass 1  IDiag  1:
 Inv3:  Mode=1 IEnd=     2572428.
 Iteration    1 A*A^-1 deviation from unit magnitude is 2.44D-15 for    207.
 Iteration    1 A*A^-1 deviation from orthogonality  is 2.00D-15 for    896    363.
 Iteration    1 A^-1*A deviation from unit magnitude is 2.89D-15 for    400.
 Iteration    1 A^-1*A deviation from orthogonality  is 1.33D-15 for    787    107.
 E= -230.354074687172    
 DIIS: error= 4.73D-04 at cycle   1 NSaved=   1.
 NSaved= 1 IEnMin= 1 EnMin= -230.354074687172     IErMin= 1 ErrMin= 4.73D-04
 ErrMax= 4.73D-04  0.00D+00 EMaxC= 1.00D-01 BMatC= 2.30D-05 BMatP= 2.30D-05
 IDIUse=3 WtCom= 9.95D-01 WtEn= 4.73D-03
 Coeff-Com:  0.100D+01
 Coeff-En:   0.100D+01
 Coeff:      0.100D+01
[...]
 ! R4    R(2,6)                  1.1058                                         !
 ! R5    R(2,7)                  1.1058                                         !
 ! R6    R(3,4)                  1.4402                                         !
 ! R7    R(3,8)                  1.1058                                         !
 ! R8    R(3,9)                  1.1058                                         !
 ! R9    R(4,10)                 0.9729                                         !
 ! A1    A(2,1,5)              107.6028                                         !
 ! A2    A(1,2,3)              107.0581                                         !
 ! A3    A(1,2,6)              111.3954                                         !
 ! A4    A(1,2,7)              111.3954                                         !
 ! A5    A(3,2,6)              109.3382                                         !
 ! A6    A(3,2,7)              109.3382                                         !
 ! A7    A(6,2,7)              108.2841                                         !
 ! A8    A(2,3,4)              107.0582                                         !
 ! A9    A(2,3,8)              109.3381                                         !
 ! A10   A(2,3,9)              109.3381                                         !
 ! A11   A(4,3,8)              111.3955                                         !
 ! A12   A(4,3,9)              111.3955                                         !
 ! A13   A(8,3,9)              108.284                                          !
 ! A14   A(3,4,10)             107.6029                                         !
 ! D1    D(5,1,2,3)            179.9998                                         !
 ! D2    D(5,1,2,6)            -60.5123                                         !
 ! D3    D(5,1,2,7)             60.5119                                         !
 ! D4    D(1,2,3,4)            180.0                                            !
 ! D5    D(1,2,3,8)            -59.1969                                         !
 ! D6    D(1,2,3,9)             59.1968                                         !
 ! D7    D(6,2,3,4)             59.1969                                         !
 ! D8    D(6,2,3,8)           -179.9999                                         !
 ! D9    D(6,2,3,9)            -61.6062                                         !
 ! D10   D(7,2,3,4)            -59.1969                                         !
 ! D11   D(7,2,3,8)             61.6062                                         !
 ! D12   D(7,2,3,9)            179.9999                                         !
 ! D13   D(2,3,4,10)          -180.0                                            !
 ! D14   D(8,3,4,10)            60.5121                                         !
 ! D15   D(9,3,4,10)           -60.512                                          !
 --------------------------------------------------------------------------------
                          Input orientation:                          
 ---------------------------------------------------------------------
 Center     Atomic      Atomic             Coordinates (Angstroms)
 Number     Number       Type             X           Y           Z
 ---------------------------------------------------------------------
      1          8           0       -0.571859    1.787304    0.604035
      2          6           0        0.113470    0.696205   -0.039443
      3          6           0       -0.804349    0.177999   -1.137660
      4          8           0       -0.119021   -0.913099   -1.781138
      5          1           0        0.008431    2.124865    1.308216
      6          1           0        1.068920    1.027667   -0.486796
      7          1           0        0.329272   -0.121168    0.673445
      8          1           0       -1.759800   -0.153462   -0.690306
      9          1           0       -1.020152    0.995372   -1.850546
     10          1           0       -0.699312   -1.250663   -2.485317
 ---------------------------------------------------------------------
                    Distance matrix (angstroms):
                    1          2          3          4          5
     1  O    0.000000
     2  C    1.440221   0.000000
     3  C    2.382733   1.522173   0.000000
     4  O    3.631294   2.382733   1.440220   0.000000
     5  H    0.972910   1.966796   3.230048   4.334695   0.000000
     6  H    2.111663   1.105838   2.157475   2.617843   2.355960
     7  H    2.111663   1.105838   2.157475   2.617843   2.355958
     8  H    2.617841   2.157475   1.105838   2.111662   3.508775
     9  H    2.617841   2.157475   1.105838   2.111662   3.508777
    10  H    4.334695   3.230048   1.966796   0.972910   5.126985
                    6          7          8          9         10
     6  H    0.000000
     7  H    1.792500   0.000000
     8  H    3.072155   2.495011   0.000000
     9  H    2.495012   3.072155   1.792500   0.000000
    10  H    3.508777   3.508778   2.355960   2.355959   0.000000
 Stoichiometry    C2H6O2
 Framework group  C1[X(C2H6O2)]
 Deg. of freedom    24
 Full point group                 C1      NOp   1
 Largest Abelian subgroup         C1      NOp   1
 Largest concise Abelian subgroup C1      NOp   1
                         Standard orientation:                         
 ---------------------------------------------------------------------
 Center     Atomic      Atomic             Coordinates (Angstroms)
 Number     Number       Type             X           Y           Z
 ---------------------------------------------------------------------
      1          8           0       -1.796334   -0.264114   -0.000000
      2          6           0       -0.574808    0.498848   -0.000000
      3          6           0        0.574808   -0.498847    0.000000
      4          8           0        1.796334    0.264114    0.000000
      5          1           0       -2.537150    0.366557    0.000003
      6          1           0       -0.501145    1.142421   -0.896250
      7          1           0       -0.501146    1.142421    0.896250
      8          1           0        0.501144   -1.142420    0.896250
      9          1           0        0.501145   -1.142420   -0.896250
     10          1           0        2.537150   -0.366557   -0.000000
 ---------------------------------------------------------------------
 Rotational constants (GHZ):          30.0416612           3.9319221           3.6390007
 Standard basis: TZVP (5D, 7F)
 There are   116 symmetry adapted cartesian basis functions of A   symmetry.
 There are   112 symmetry adapted basis functions of A   symmetry.
   112 basis functions,   188 primitive gaussians,   116 cartesian basis functions
    17 alpha electrons       17 beta electrons
       nuclear repulsion energy       129.1088925989 Hartrees.
 NAtoms=   10 NActive=   10 NUniq=   10 SFac= 1.00D+00 NAtFMM=   60 NAOKFM=F Big=F
 Integral buffers will be    131072 words long.
 Raffenetti 2 integral format.
 Two-electron integral symmetry is turned on.
 Warning! Using old PCM defaults because the COSMOthermo output has been requested.
 These settings can be overridden by following keywords.
 ------------------------------------------------------------------------------
 Polarizable Continuum Model (PCM)
 =================================
 Model                : C-PCM.
 Atomic radii         : Klamt.
 XCosmo               : -1.000 (infinite dielectric limit)
 Polarization charges : Electronic and nuclear charges.
 Charge compensation  : Type 3 (Electronic density weighted correction).
 Solution method      : On-the-fly selection.
 Cavity type          : VdW (van der Waals Surface) (Alpha=1.000).
 Cavity algorithm     : GePol (No added spheres)
                        Default sphere list used, NSphG=   10.
                        Tesserae with average area of 0.200 Ang**2.
                        Smoothing algorithm: None.
                        Polarization charges: point-like.
                        Self-potential: constant (ISelfS= 1).
                        Self-field    : global E.n sum rule (ISelfD= 3).
 Solvent              : Water, Eps=  78.355300 Eps(inf)=   1.777849
 ------------------------------------------------------------------------------
 Spheres list:
 ISph  on   Nord     Re0    Alpha      Xe            Ye            Ze
    1   O      1    1.7200  1.000     -1.796334     -0.264114     -0.000000
    2   C      2    2.0000  1.000     -0.574808      0.498848     -0.000000
    3   C      3    2.0000  1.000      0.574808     -0.498847      0.000000
    4   O      4    1.7200  1.000      1.796334      0.264114      0.000000
    5   H      5    1.3000  1.000     -2.537150      0.366557      0.000003
    6   H      6    1.3000  1.000     -0.501145      1.142421     -0.896250
    7   H      7    1.3000  1.000     -0.501146      1.142421      0.896250
    8   H      8    1.3000  1.000      0.501144     -1.142420      0.896250
    9   H      9    1.3000  1.000      0.501145     -1.142420     -0.896250
   10   H     10    1.3000  1.000      2.537150     -0.366557     -0.000000
 ------------------------------------------------------------------------------
 One-electron integrals computed using PRISM.
 PrsmSu:  requested number of processors reduced to:  30 ShMem   1 Linda.
 NBasis=   112 RedAO= T EigKep=  5.98D-04  NBF=   112
 NBsUse=   112 1.00D-06 EigRej= -1.00D+00 NBFU=   112
 Initial guess from the checkpoint file:  "LYCAIKOWRPUZTN-UHFFFAOYSA-N.chk"
 B after Tr=     0.000000   -0.000000   -0.000000
         Rot=    1.000000    0.000000    0.000000   -0.000000 Ang=   0.00 deg.
 Keep J ints in memory in canonical form, NReq=50213232.
 Requested convergence on RMS density matrix=1.00D-08 within 128 cycles.
 Requested convergence on MAX density matrix=1.00D-06.
 Requested convergence on             energy=1.00D-06.
 No special actions if energy rises.
 Inv3:  Mode=1 IEnd=     1520832.
 Iteration    1 A*A^-1 deviation from unit magnitude is 3.66D-15 for    183.
 Iteration    1 A*A^-1 deviation from orthogonality  is 2.00D-15 for    487     41.
 Iteration    1 A^-1*A deviation from unit magnitude is 3.44D-15 for    183.
 Iteration    1 A^-1*A deviation from orthogonality  is 1.78D-15 for    487     41.
 Error on nuclear    polarization charges =  0.01135
 Error on electronic polarization charges = -0.03352
 SCF Done:  E(RB-P86) =  -230.355019655     A.U. after    8 cycles
            NFock=  8  Conv=0.49D-08     -V/T= 2.0045
 --------------------------------------------------------------------
 Variational C-PCM results
 =========================
 <psi(f)|   H    |psi(f)>                     (a.u.) =    -230.337598
 <psi(f)|H+V(f)/2|psi(f)>                     (a.u.) =    -230.355020
 Total free energy in solution:
 - with all non electrostatic terms           (a.u.) =    -230.348568
 --------------------------------------------------------------------
 (Polarized solute)-Solvent               (kcal/mol) =     -10.93
 --------------------------------------------------------------------
 Cavitation energy                        (kcal/mol) =      13.17
 Dispersion energy                        (kcal/mol) =     -10.10
 Repulsion energy                         (kcal/mol) =       0.97
 Total non electrostatic                  (kcal/mol) =       4.05
 --------------------------------------------------------------------
 Partition over spheres:
 Sphere  on Atom  Surface  Charge   GEl     GCav    GDR
    1      O1      16.18   0.195   -2.91    2.01   -1.41
    2      C2      12.81  -0.009   -0.25    1.50   -0.61
    3      C3      12.81  -0.010   -0.24    1.50   -0.61
    4      O4      16.18   0.195   -2.91    2.01   -1.41
    5      H5       8.56  -0.127   -2.09    1.21   -0.93
    6      H6       6.60  -0.029   -0.11    0.93   -0.81
    7      H7       6.60  -0.029   -0.11    0.93   -0.81
    8      H8       6.60  -0.029   -0.11    0.93   -0.81
    9      H9       6.60  -0.029   -0.11    0.93   -0.81
   10      H10      8.56  -0.128   -2.09    1.21   -0.93
 --------------------------------------------------------------------
 - cavitation energy not included in the total energy.
 - dispersion energy not included in the total energy.
 - repulsion  energy not included in the total energy.
 After PCM corrections, the energy is  -230.355019655     a.u.
 --------------------------------------------------------------------
 Writing COSMO formatted file "LYCAIKOWRPUZTN-UHFFFAOYSA-N.cosmo"
 Recomputed dielectric energy= -0.017529 old= -0.017422 diff=-1.07D-04

 **********************************************************************

            Population analysis using the SCF Density.

 **********************************************************************

 Orbital symmetries:
       Occupied  (A) (A) (A) (A) (A) (A) (A) (A) (A) (A) (A) (A)
                 (A) (A) (A) (A) (A)
       Virtual   (A) (A) (A) (A) (A) (A) (A) (A) (A) (A) (A) (A)
                 (A) (A) (A) (A) (A) (A) (A) (A) (A) (A) (A) (A)
                 (A) (A) (A) (A) (A) (A) (A) (A) (A) (A) (A) (A)
                 (A) (A) (A) (A) (A) (A) (A) (A) (A) (A) (A) (A)
                 (A) (A) (A) (A) (A) (A) (A) (A) (A) (A) (A) (A)
                 (A) (A) (A) (A) (A) (A) (A) (A) (A) (A) (A) (A)
                 (A) (A) (A) (A) (A) (A) (A) (A) (A) (A) (A) (A)
                 (A) (A) (A) (A) (A) (A) (A) (A) (A) (A) (A)
 The electronic state is 1-A.
 Alpha  occ. eigenvalues --  -18.77406 -18.77406  -9.94170  -9.94159  -0.94221
 Alpha  occ. eigenvalues --   -0.93229  -0.67385  -0.54757  -0.48762  -0.43340
 Alpha  occ. eigenvalues --   -0.43197  -0.37549  -0.34973  -0.32172  -0.29145
 Alpha  occ. eigenvalues --   -0.23768  -0.23551
 Alpha virt. eigenvalues --    0.01015   0.03141   0.07636   0.07979   0.08441
 Alpha virt. eigenvalues --    0.12869   0.12907   0.13372   0.16981   0.21423
 Alpha virt. eigenvalues --    0.25523   0.26698   0.26779   0.29271   0.32446
 Alpha virt. eigenvalues --    0.35777   0.39020   0.39021   0.39918   0.41323
 Alpha virt. eigenvalues --    0.43664   0.44173   0.44569   0.48033   0.49320
 Alpha virt. eigenvalues --    0.53189   0.57211   0.62049   0.67893   0.76207
 Alpha virt. eigenvalues --    0.82872   1.11270   1.16773   1.20032   1.20347
 Alpha virt. eigenvalues --    1.24181   1.26931   1.27703   1.32522   1.33872
 Alpha virt. eigenvalues --    1.39383   1.39550   1.41305   1.43191   1.54643
 Alpha virt. eigenvalues --    1.57330   1.64846   1.66085   1.70567   1.71920
 Alpha virt. eigenvalues --    1.73698   1.82438   1.84340   1.86472   1.95782
 Alpha virt. eigenvalues --    1.97490   2.03338   2.03977   2.13434   2.20676
 Alpha virt. eigenvalues --    2.22542   2.29818   2.41222   2.42653   2.45163
 Alpha virt. eigenvalues --    2.46922   2.49829   2.51772   2.54771   2.56124
 Alpha virt. eigenvalues --    2.61550   2.61859   2.79781   2.81516   2.83373
 Alpha virt. eigenvalues --    2.84744   2.85444   2.91361   2.91831   2.97350
 Alpha virt. eigenvalues --    3.01384   3.08861   3.09038   3.17046   3.22880
 Alpha virt. eigenvalues --    3.28519   3.30760   3.80685   3.86143   4.16347
 Alpha virt. eigenvalues --    4.18632  21.56242  21.68073  43.00468  43.06383
          Condensed to atoms (all electrons):
               1          2          3          4          5          6
     1  O    8.035633   0.262022  -0.091863   0.004377   0.305268  -0.045528
     2  C    0.262022   5.109881   0.169505  -0.091851  -0.032137   0.387605
     3  C   -0.091863   0.169505   5.109854   0.262005   0.012776  -0.038656
     4  O    0.004377  -0.091851   0.262005   8.035639  -0.000289   0.013410
     5  H    0.305268  -0.032137   0.012776  -0.000289   0.404245  -0.003955
     6  H   -0.045528   0.387605  -0.038656   0.013410  -0.003955   0.632691
     7  H   -0.045531   0.387571  -0.038618   0.013409  -0.003957  -0.067758
     8  H    0.013411  -0.038629   0.387580  -0.045528  -0.000615   0.016295
     9  H    0.013408  -0.038633   0.387587  -0.045529  -0.000616  -0.023385
    10  H   -0.000289   0.012774  -0.032135   0.305270   0.000018  -0.000616
               7          8          9         10
     1  O   -0.045531   0.013411   0.013408  -0.000289
     2  C    0.387571  -0.038629  -0.038633   0.012774
     3  C   -0.038618   0.387580   0.387587  -0.032135
     4  O    0.013409  -0.045528  -0.045529   0.305270
     5  H   -0.003957  -0.000615  -0.000616   0.000018
     6  H   -0.067758   0.016295  -0.023385  -0.000616
     7  H    0.632759  -0.023384   0.016295  -0.000615
     8  H   -0.023384   0.632752  -0.067756  -0.003958
     9  H    0.016295  -0.067756   0.632702  -0.003955
    10  H   -0.000615  -0.003958  -0.003955   0.404246
 Mulliken charges:
               1
     1  O   -0.450909
     2  C   -0.128108
     3  C   -0.128036
     4  O   -0.450912
     5  H    0.319264
     6  H    0.129898
     7  H    0.129830
     8  H    0.129831
     9  H    0.129882
    10  H    0.319259
 Sum of Mulliken charges =  -0.00000
 Mulliken charges with hydrogens summed into heavy atoms:
               1
     1  O   -0.131645
     2  C    0.131621
     3  C    0.131677
     4  O   -0.131653
 Electronic spatial extent (au):  <R**2>=            346.5128
 Charge=             -0.0000 electrons
 Dipole moment (field-independent basis, Debye):
    X=             -0.0000    Y=             -0.0000    Z=             -0.0005  Tot=              0.0005
 Quadrupole moment (field-independent basis, Debye-Ang):
   XX=            -19.6820   YY=            -25.3980   ZZ=            -25.7967
   XY=             -8.6315   XZ=              0.0004   YZ=              0.0001
 Traceless Quadrupole moment (field-independent basis, Debye-Ang):
   XX=              3.9435   YY=             -1.7724   ZZ=             -2.1711
   XY=             -8.6315   XZ=              0.0004   YZ=              0.0001
 Octapole moment (field-independent basis, Debye-Ang**2):
  XXX=             -0.0003  YYY=             -0.0001  ZZZ=             -0.0007  XYY=             -0.0000
  XXY=             -0.0001  XXZ=             -0.0008  XZZ=              0.0000  YZZ=             -0.0000
  YYZ=             -0.0007  XYZ=              0.0003
 Hexadecapole moment (field-independent basis, Debye-Ang**3):
 XXXX=           -201.2815 YYYY=            -71.5286 ZZZZ=            -39.3365 XXXY=            -40.6091
 XXXZ=              0.0026 YYYX=             -3.3089 YYYZ=              0.0002 ZZZX=              0.0006
 ZZZY=              0.0002 XXYY=            -62.5722 XXZZ=            -61.6453 YYZZ=            -16.8251
 XXYZ=              0.0006 YYXZ=              0.0003 ZZXY=             -2.0417
 N-N= 1.291088925989D+02 E-N=-7.992950734866D+02  KE= 2.293280973116D+02
 Unable to Open any file for archive entry.
 1\1\GINC-TCN1682\SP\RBP86\TZVP\C2H6O2\ELENAA\22-Feb-2021\0\\# BP86/TZV
 P SCRF=COSMORS geom=CHECKPOINT guess=CHECKPOINT\\COSMO-file for #LYCAI
 KOWRPUZTN-UHFFFAOYSA-N\\0,1\O,0,-0.5718593189,1.7873039373,0.604035275
 9\C,0,0.1134703122,0.6962048477,-0.0394426741\C,0,-0.8043493588,0.1779
 987767,-1.1376600385\O,0,-0.1190211748,-0.9130992784,-1.7811383134\H,0
 ,0.0084306022,2.124865187,1.3082157438\H,0,1.0689204951,1.0276667654,-
 0.4867955698\H,0,0.3292724198,-0.1211675167,0.6734447521\H,0,-1.759799
 6486,-0.1534619509,-0.6903060082\H,0,-1.0201522039,0.9953721067,-1.850
 5464333\H,0,-0.6993121243,-1.2506628748,-2.4853167344\\Version=ES64L-G
 16RevC.01\State=1-A\HF=-230.3550197\RMSD=4.853e-09\Dipole=0.0000587,0.
 0001269,-0.000112\Quadrupole=-1.2759193,-2.0028195,3.2787388,4.0691227
 ,4.244909,2.2088216\PG=C01 [X(C2H6O2)]\\@
 The archive entry for this job was punched.


 You never know when you're making a memory.
                        -- Rickie Lee Jones
 Job cpu time:       0 days  0 hours  1 minutes  4.4 seconds.
 Elapsed time:       0 days  0 hours  0 minutes  2.6 seconds.
 File lengths (MBytes):  RWF=     16 Int=      0 D2E=      0 Chk=      4 Scr=      1
 Normal termination of Gaussian 16 at Mon Feb 22 21:13:07 2021.
