 Entering Gaussian System, Link 0=g16
 Input=MGSRCZKZVOBKFT-UHFFFAOYSA-N.gjf
 Output=MGSRCZKZVOBKFT-UHFFFAOYSA-N.log
 Initial command:
 /sw/arch/RedHatEnterpriseServer7/EB_production/2019/software/Gaussian/g16.c01/l1.exe "/scratch-local/elenaa.9715237/Gau-12059.inp" -scrdir="/scratch-local/elenaa.9715237/"
 Entering Link 1 = /sw/arch/RedHatEnterpriseServer7/EB_production/2019/software/Gaussian/g16.c01/l1.exe PID=     12060.
  
 Copyright (c) 1988-2019, Gaussian, Inc.  All Rights Reserved.
  
 This is part of the Gaussian(R) 16 program.  It is based on
 the Gaussian(R) 09 system (copyright 2009, Gaussian, Inc.),
 the Gaussian(R) 03 system (copyright 2003, Gaussian, Inc.),
 the Gaussian(R) 98 system (copyright 1998, Gaussian, Inc.),
 the Gaussian(R) 94 system (copyright 1995, Gaussian, Inc.),
 the Gaussian 92(TM) system (copyright 1992, Gaussian, Inc.),
 the Gaussian 90(TM) system (copyright 1990, Gaussian, Inc.),
 the Gaussian 88(TM) system (copyright 1988, Gaussian, Inc.),
 the Gaussian 86(TM) system (copyright 1986, Carnegie Mellon
 University), and the Gaussian 82(TM) system (copyright 1983,
 Carnegie Mellon University). Gaussian is a federally registered
 trademark of Gaussian, Inc.
  
 This software contains proprietary and confidential information,
 including trade secrets, belonging to Gaussian, Inc.
  
 This software is provided under written license and may be
 used, copied, transmitted, or stored only in accord with that
 written license.
  
 The following legend is applicable only to US Government
 contracts under FAR:
  
                    RESTRICTED RIGHTS LEGEND
  
 Use, reproduction and disclosure by the US Government is
 subject to restrictions as set forth in subparagraphs (a)
 and (c) of the Commercial Computer Software - Restricted
 Rights clause in FAR 52.227-19.
  
 Gaussian, Inc.
 340 Quinnipiac St., Bldg. 40, Wallingford CT 06492
  
  
 ---------------------------------------------------------------
 Warning -- This program may not be used in any manner that
 competes with the business of Gaussian, Inc. or will provide
 assistance to any competitor of Gaussian, Inc.  The licensee
 of this program is prohibited from giving any competitor of
 Gaussian, Inc. access to this program.  By using this program,
 the user acknowledges that Gaussian, Inc. is engaged in the
 business of creating and licensing software in the field of
 computational chemistry and represents and warrants to the
 licensee that it is not a competitor of Gaussian, Inc. and that
 it will not use this program in any manner prohibited above.
 ---------------------------------------------------------------
  

 Cite this work as:
 Gaussian 16, Revision C.01,
 M. J. Frisch, G. W. Trucks, H. B. Schlegel, G. E. Scuseria, 
 M. A. Robb, J. R. Cheeseman, G. Scalmani, V. Barone, 
 G. A. Petersson, H. Nakatsuji, X. Li, M. Caricato, A. V. Marenich, 
 J. Bloino, B. G. Janesko, R. Gomperts, B. Mennucci, H. P. Hratchian, 
 J. V. Ortiz, A. F. Izmaylov, J. L. Sonnenberg, D. Williams-Young, 
 F. Ding, F. Lipparini, F. Egidi, J. Goings, B. Peng, A. Petrone, 
 T. Henderson, D. Ranasinghe, V. G. Zakrzewski, J. Gao, N. Rega, 
 G. Zheng, W. Liang, M. Hada, M. Ehara, K. Toyota, R. Fukuda, 
 J. Hasegawa, M. Ishida, T. Nakajima, Y. Honda, O. Kitao, H. Nakai, 
 T. Vreven, K. Throssell, J. A. Montgomery, Jr., J. E. Peralta, 
 F. Ogliaro, M. J. Bearpark, J. J. Heyd, E. N. Brothers, K. N. Kudin, 
 V. N. Staroverov, T. A. Keith, R. Kobayashi, J. Normand, 
 K. Raghavachari, A. P. Rendell, J. C. Burant, S. S. Iyengar, 
 J. Tomasi, M. Cossi, J. M. Millam, M. Klene, C. Adamo, R. Cammi, 
 J. W. Ochterski, R. L. Martin, K. Morokuma, O. Farkas, 
 J. B. Foresman, and D. J. Fox, Gaussian, Inc., Wallingford CT, 2019.
 
 ******************************************
 Gaussian 16:  ES64L-G16RevC.01  3-Jul-2019
                22-Feb-2021 
 ******************************************
 %chk=MGSRCZKZVOBKFT-UHFFFAOYSA-N.chk
 %NProcShared=32
 Will use up to   32 processors via shared memory.
 -------------------------------------------------------------
 #P BP86/TZVP EmpiricalDispersion=GD3 SCRF=(Solvent=Water) Opt
 -------------------------------------------------------------
 1/18=20,19=15,26=3,38=1/1,3;
 2/9=110,12=2,17=6,18=5,40=1/2;
 3/5=19,7=101,11=2,25=1,30=1,70=2201,71=1,72=1,74=404,124=31/1,2,3;
 4//1;
 5/5=2,38=5,53=1/2;
 6/7=2,8=2,9=2,10=2,28=1/1;
 7//1,2,3,16;
 1/18=20,19=15,26=3/3(2);
 2/9=110/2;
 99//99;
 2/9=110/2;
 3/5=19,7=101,11=2,25=1,30=1,70=2205,71=1,72=1,74=404,124=31/1,2,3;
 4/5=5,16=3,69=1/1;
 5/5=2,38=5,53=1/2;
 7//1,2,3,16;
 1/18=20,19=15,26=3/3(-5);
 2/9=110/2;
 6/7=2,8=2,9=2,10=2,19=2,28=1/1;
 99/9=1/99;
 Leave Link    1 at Mon Feb 22 21:13:15 2021, MaxMem=           0 cpu:               2.2 elap:               0.1
 (Enter /sw/arch/RedHatEnterpriseServer7/EB_production/2019/software/Gaussian/g16.c01/l101.exe)
 -------------------------------------
 Particle #MGSRCZKZVOBKFT-UHFFFAOYSA-N
 -------------------------------------
 Symbolic Z-matrix:
 Charge =  0 Multiplicity = 1
 C                     5.31649   1.17118   0.82229 
 C                     3.98398   0.78029   0.29928 
 C                     2.94126   1.72881   0.22154 
 C                     1.67846   1.37018  -0.27881 
 C                     1.4085    0.052    -0.72173 
 C                     0.04664  -0.30452  -1.24898 
 C                    -1.0504   -0.15886  -0.15959 
 C                    -0.30277   0.49364  -2.5346 
 C                     2.45894  -0.8989   -0.64705 
 O                     2.28747  -2.18448  -1.0485 
 C                     3.72635  -0.535    -0.14602 
 H                     5.22525   1.96533   1.56795 
 H                     5.81852   0.32516   1.29824 
 H                     5.93884   1.5332    0.00054 
 H                     3.09252   2.69149   0.5305 
 H                     0.95053   2.08799  -0.31593 
 H                     0.02662  -1.35816  -1.54569 
 H                    -2.01404  -0.4996   -0.5465 
 H                    -1.15655   0.87975   0.1615 
 H                    -0.79668  -0.77101   0.7091 
 H                    -1.26054   0.15773  -2.93936 
 H                    -0.37321   1.56444  -2.33224 
 H                     0.46355   0.3307   -3.29604 
 H                     3.15254  -2.61256  -0.88908 
 H                     4.46599  -1.24201  -0.10726 
 
 ITRead=  0  0  0  0  0  0  0  0  0  0  0  0  0  0  0  0  0  0  0  0
 ITRead=  0  0  0  0  0
 MicOpt= -1 -1 -1 -1 -1 -1 -1 -1 -1 -1 -1 -1 -1 -1 -1 -1 -1 -1 -1 -1
 MicOpt= -1 -1 -1 -1 -1
 NAtoms=     25 NQM=       25 NQMF=       0 NMMI=      0 NMMIF=      0
                NMic=       0 NMicF=      0.
                    Isotopes and Nuclear Properties:
 (Nuclear quadrupole moments (NQMom) in fm**2, nuclear magnetic moments (NMagM)
  in nuclear magnetons)

  Atom         1           2           3           4           5           6           7           8           9          10
 IAtWgt=          12          12          12          12          12          12          12          12          12          16
 AtmWgt=  12.0000000  12.0000000  12.0000000  12.0000000  12.0000000  12.0000000  12.0000000  12.0000000  12.0000000  15.9949146
 NucSpn=           0           0           0           0           0           0           0           0           0           0
 AtZEff=  -0.0000000  -0.0000000  -0.0000000  -0.0000000  -0.0000000  -0.0000000  -0.0000000  -0.0000000  -0.0000000  -0.0000000
 NQMom=    0.0000000   0.0000000   0.0000000   0.0000000   0.0000000   0.0000000   0.0000000   0.0000000   0.0000000   0.0000000
 NMagM=    0.0000000   0.0000000   0.0000000   0.0000000   0.0000000   0.0000000   0.0000000   0.0000000   0.0000000   0.0000000
 AtZNuc=   6.0000000   6.0000000   6.0000000   6.0000000   6.0000000   6.0000000   6.0000000   6.0000000   6.0000000   8.0000000

  Atom        11          12          13          14          15          16          17          18          19          20
 IAtWgt=          12           1           1           1           1           1           1           1           1           1
 AtmWgt=  12.0000000   1.0078250   1.0078250   1.0078250   1.0078250   1.0078250   1.0078250   1.0078250   1.0078250   1.0078250
 NucSpn=           0           1           1           1           1           1           1           1           1           1
 AtZEff=  -0.0000000  -0.0000000  -0.0000000  -0.0000000  -0.0000000  -0.0000000  -0.0000000  -0.0000000  -0.0000000  -0.0000000
 NQMom=    0.0000000   0.0000000   0.0000000   0.0000000   0.0000000   0.0000000   0.0000000   0.0000000   0.0000000   0.0000000
 NMagM=    0.0000000   2.7928460   2.7928460   2.7928460   2.7928460   2.7928460   2.7928460   2.7928460   2.7928460   2.7928460
 AtZNuc=   6.0000000   1.0000000   1.0000000   1.0000000   1.0000000   1.0000000   1.0000000   1.0000000   1.0000000   1.0000000

  Atom        21          22          23          24          25
 IAtWgt=           1           1           1           1           1
 AtmWgt=   1.0078250   1.0078250   1.0078250   1.0078250   1.0078250
 NucSpn=           1           1           1           1           1
 AtZEff=  -0.0000000  -0.0000000  -0.0000000  -0.0000000  -0.0000000
 NQMom=    0.0000000   0.0000000   0.0000000   0.0000000   0.0000000
 NMagM=    2.7928460   2.7928460   2.7928460   2.7928460   2.7928460
 AtZNuc=   1.0000000   1.0000000   1.0000000   1.0000000   1.0000000
 Leave Link  101 at Mon Feb 22 21:13:15 2021, MaxMem=   104857600 cpu:               3.1 elap:               0.1
 (Enter /sw/arch/RedHatEnterpriseServer7/EB_production/2019/software/Gaussian/g16.c01/l103.exe)

 GradGradGradGradGradGradGradGradGradGradGradGradGradGradGradGradGradGrad
 Berny optimization.
 Initialization pass.
                           ----------------------------
                           !    Initial Parameters    !
                           ! (Angstroms and Degrees)  !
 --------------------------                            --------------------------
 ! Name  Definition              Value          Derivative Info.                !
 --------------------------------------------------------------------------------
 ! R1    R(1,2)                  1.4839         estimate D2E/DX2                !
 ! R2    R(1,12)                 1.0932         estimate D2E/DX2                !
 ! R3    R(1,13)                 1.0928         estimate D2E/DX2                !
 ! R4    R(1,14)                 1.0925         estimate D2E/DX2                !
 ! R5    R(2,3)                  1.4117         estimate D2E/DX2                !
 ! R6    R(2,11)                 1.4123         estimate D2E/DX2                !
 ! R7    R(3,4)                  1.4049         estimate D2E/DX2                !
 ! R8    R(3,15)                 1.0223         estimate D2E/DX2                !
 ! R9    R(4,5)                  1.4166         estimate D2E/DX2                !
 ! R10   R(4,16)                 1.023          estimate D2E/DX2                !
 ! R11   R(5,6)                  1.5033         estimate D2E/DX2                !
 ! R12   R(5,9)                  1.4189         estimate D2E/DX2                !
 ! R13   R(6,7)                  1.5529         estimate D2E/DX2                !
 ! R14   R(6,8)                  1.5531         estimate D2E/DX2                !
 ! R15   R(6,17)                 1.0948         estimate D2E/DX2                !
 ! R16   R(7,18)                 1.0929         estimate D2E/DX2                !
 ! R17   R(7,19)                 1.0923         estimate D2E/DX2                !
 ! R18   R(7,20)                 1.0926         estimate D2E/DX2                !
 ! R19   R(8,21)                 1.0927         estimate D2E/DX2                !
 ! R20   R(8,22)                 1.092          estimate D2E/DX2                !
 ! R21   R(8,23)                 1.0925         estimate D2E/DX2                !
 ! R22   R(9,10)                 1.3577         estimate D2E/DX2                !
 ! R23   R(9,11)                 1.4106         estimate D2E/DX2                !
 ! R24   R(10,24)                0.9783         estimate D2E/DX2                !
 ! R25   R(11,25)                1.0239         estimate D2E/DX2                !
 ! A1    A(2,1,12)             110.906          estimate D2E/DX2                !
 ! A2    A(2,1,13)             111.2286         estimate D2E/DX2                !
 ! A3    A(2,1,14)             109.4941         estimate D2E/DX2                !
 ! A4    A(12,1,13)            107.6778         estimate D2E/DX2                !
 ! A5    A(12,1,14)            108.6551         estimate D2E/DX2                !
 ! A6    A(13,1,14)            108.8086         estimate D2E/DX2                !
 ! A7    A(1,2,3)              120.3765         estimate D2E/DX2                !
 ! A8    A(1,2,11)             121.3498         estimate D2E/DX2                !
 ! A9    A(3,2,11)             118.2698         estimate D2E/DX2                !
 ! A10   A(2,3,4)              120.7982         estimate D2E/DX2                !
 ! A11   A(2,3,15)             120.4491         estimate D2E/DX2                !
 ! A12   A(4,3,15)             118.7526         estimate D2E/DX2                !
 ! A13   A(3,4,5)              121.3464         estimate D2E/DX2                !
 ! A14   A(3,4,16)             118.2563         estimate D2E/DX2                !
 ! A15   A(5,4,16)             120.3972         estimate D2E/DX2                !
 ! A16   A(4,5,6)              120.1993         estimate D2E/DX2                !
 ! A17   A(4,5,9)              117.7806         estimate D2E/DX2                !
 ! A18   A(6,5,9)              122.0201         estimate D2E/DX2                !
 ! A19   A(5,6,7)              111.8208         estimate D2E/DX2                !
 ! A20   A(5,6,8)              111.8562         estimate D2E/DX2                !
 ! A21   A(5,6,17)             109.8691         estimate D2E/DX2                !
 ! A22   A(7,6,8)              111.9364         estimate D2E/DX2                !
 ! A23   A(7,6,17)             105.5142         estimate D2E/DX2                !
 ! A24   A(8,6,17)             105.435          estimate D2E/DX2                !
 ! A25   A(6,7,18)             110.2001         estimate D2E/DX2                !
 ! A26   A(6,7,19)             111.3501         estimate D2E/DX2                !
 ! A27   A(6,7,20)             109.9477         estimate D2E/DX2                !
 ! A28   A(18,7,19)            108.3512         estimate D2E/DX2                !
 ! A29   A(18,7,20)            108.1529         estimate D2E/DX2                !
 ! A30   A(19,7,20)            108.7593         estimate D2E/DX2                !
 ! A31   A(6,8,21)             110.2337         estimate D2E/DX2                !
 ! A32   A(6,8,22)             111.411          estimate D2E/DX2                !
 ! A33   A(6,8,23)             110.0286         estimate D2E/DX2                !
 ! A34   A(21,8,22)            108.2727         estimate D2E/DX2                !
 ! A35   A(21,8,23)            108.1072         estimate D2E/DX2                !
 ! A36   A(22,8,23)            108.7016         estimate D2E/DX2                !
 ! A37   A(5,9,10)             121.7036         estimate D2E/DX2                !
 ! A38   A(5,9,11)             120.7296         estimate D2E/DX2                !
 ! A39   A(10,9,11)            117.5666         estimate D2E/DX2                !
 ! A40   A(9,10,24)            104.7429         estimate D2E/DX2                !
 ! A41   A(2,11,9)             121.0738         estimate D2E/DX2                !
 ! A42   A(2,11,25)            119.9566         estimate D2E/DX2                !
 ! A43   A(9,11,25)            118.9696         estimate D2E/DX2                !
 ! D1    D(12,1,2,3)            30.748          estimate D2E/DX2                !
 ! D2    D(12,1,2,11)         -149.9784         estimate D2E/DX2                !
 ! D3    D(13,1,2,3)           150.5569         estimate D2E/DX2                !
 ! D4    D(13,1,2,11)          -30.1696         estimate D2E/DX2                !
 ! D5    D(14,1,2,3)           -89.15           estimate D2E/DX2                !
 ! D6    D(14,1,2,11)           90.1235         estimate D2E/DX2                !
 ! D7    D(1,2,3,4)            179.6565         estimate D2E/DX2                !
 ! D8    D(1,2,3,15)            -0.4143         estimate D2E/DX2                !
 ! D9    D(11,2,3,4)             0.3609         estimate D2E/DX2                !
 ! D10   D(11,2,3,15)         -179.7098         estimate D2E/DX2                !
 ! D11   D(1,2,11,9)          -179.7477         estimate D2E/DX2                !
 ! D12   D(1,2,11,25)            0.2966         estimate D2E/DX2                !
 ! D13   D(3,2,11,9)            -0.4593         estimate D2E/DX2                !
 ! D14   D(3,2,11,25)          179.585          estimate D2E/DX2                !
 ! D15   D(2,3,4,5)             -0.0608         estimate D2E/DX2                !
 ! D16   D(2,3,4,16)           179.8735         estimate D2E/DX2                !
 ! D17   D(15,3,4,5)          -179.9912         estimate D2E/DX2                !
 ! D18   D(15,3,4,16)           -0.0569         estimate D2E/DX2                !
 ! D19   D(3,4,5,6)            179.8305         estimate D2E/DX2                !
 ! D20   D(3,4,5,9)             -0.1468         estimate D2E/DX2                !
 ! D21   D(16,4,5,6)            -0.1024         estimate D2E/DX2                !
 ! D22   D(16,4,5,9)           179.9203         estimate D2E/DX2                !
 ! D23   D(4,5,6,7)            -63.4232         estimate D2E/DX2                !
 ! D24   D(4,5,6,8)             63.0306         estimate D2E/DX2                !
 ! D25   D(4,5,6,17)           179.7654         estimate D2E/DX2                !
 ! D26   D(9,5,6,7)            116.5531         estimate D2E/DX2                !
 ! D27   D(9,5,6,8)           -116.9931         estimate D2E/DX2                !
 ! D28   D(9,5,6,17)            -0.2582         estimate D2E/DX2                !
 ! D29   D(4,5,9,10)           179.9336         estimate D2E/DX2                !
 ! D30   D(4,5,9,11)             0.0489         estimate D2E/DX2                !
 ! D31   D(6,5,9,10)            -0.0433         estimate D2E/DX2                !
 ! D32   D(6,5,9,11)          -179.928          estimate D2E/DX2                !
 ! D33   D(5,6,7,18)          -175.5032         estimate D2E/DX2                !
 ! D34   D(5,6,7,19)            64.2308         estimate D2E/DX2                !
 ! D35   D(5,6,7,20)           -56.3795         estimate D2E/DX2                !
 ! D36   D(8,6,7,18)            58.0866         estimate D2E/DX2                !
 ! D37   D(8,6,7,19)           -62.1794         estimate D2E/DX2                !
 ! D38   D(8,6,7,20)           177.2103         estimate D2E/DX2                !
 ! D39   D(17,6,7,18)          -56.0908         estimate D2E/DX2                !
 ! D40   D(17,6,7,19)         -176.3568         estimate D2E/DX2                !
 ! D41   D(17,6,7,20)           63.0329         estimate D2E/DX2                !
 ! D42   D(5,6,8,21)           175.4929         estimate D2E/DX2                !
 ! D43   D(5,6,8,22)           -64.2775         estimate D2E/DX2                !
 ! D44   D(5,6,8,23)            56.3542         estimate D2E/DX2                !
 ! D45   D(7,6,8,21)           -58.1162         estimate D2E/DX2                !
 ! D46   D(7,6,8,22)            62.1134         estimate D2E/DX2                !
 ! D47   D(7,6,8,23)          -177.2548         estimate D2E/DX2                !
 ! D48   D(17,6,8,21)           56.1101         estimate D2E/DX2                !
 ! D49   D(17,6,8,22)          176.3396         estimate D2E/DX2                !
 ! D50   D(17,6,8,23)          -63.0286         estimate D2E/DX2                !
 ! D51   D(5,9,10,24)         -179.8882         estimate D2E/DX2                !
 ! D52   D(11,9,10,24)           0.0            estimate D2E/DX2                !
 ! D53   D(5,9,11,2)             0.2586         estimate D2E/DX2                !
 ! D54   D(5,9,11,25)         -179.7853         estimate D2E/DX2                !
 ! D55   D(10,9,11,2)         -179.6307         estimate D2E/DX2                !
 ! D56   D(10,9,11,25)           0.3254         estimate D2E/DX2                !
 --------------------------------------------------------------------------------
 Trust Radius=3.00D-01 FncErr=1.00D-07 GrdErr=1.00D-06 EigMax=2.50D+02 EigMin=1.00D-04
 Number of steps in this run=    134 maximum allowed number of steps=    150.
 GradGradGradGradGradGradGradGradGradGradGradGradGradGradGradGradGradGrad

 Leave Link  103 at Mon Feb 22 21:13:15 2021, MaxMem=   104857600 cpu:               0.5 elap:               0.0
 (Enter /sw/arch/RedHatEnterpriseServer7/EB_production/2019/software/Gaussian/g16.c01/l202.exe)
                          Input orientation:                          
 ---------------------------------------------------------------------
 Center     Atomic      Atomic             Coordinates (Angstroms)
 Number     Number       Type             X           Y           Z
 ---------------------------------------------------------------------
      1          6           0        5.316490    1.171180    0.822290
      2          6           0        3.983980    0.780290    0.299280
      3          6           0        2.941260    1.728810    0.221540
      4          6           0        1.678460    1.370180   -0.278810
      5          6           0        1.408500    0.052000   -0.721730
      6          6           0        0.046640   -0.304520   -1.248980
      7          6           0       -1.050400   -0.158860   -0.159590
      8          6           0       -0.302770    0.493640   -2.534600
      9          6           0        2.458940   -0.898900   -0.647050
     10          8           0        2.287470   -2.184480   -1.048500
     11          6           0        3.726350   -0.535000   -0.146020
     12          1           0        5.225250    1.965330    1.567950
     13          1           0        5.818520    0.325160    1.298240
     14          1           0        5.938840    1.533200    0.000540
     15          1           0        3.092520    2.691490    0.530500
     16          1           0        0.950530    2.087990   -0.315930
     17          1           0        0.026620   -1.358160   -1.545690
     18          1           0       -2.014040   -0.499600   -0.546500
     19          1           0       -1.156550    0.879750    0.161500
     20          1           0       -0.796680   -0.771010    0.709100
     21          1           0       -1.260540    0.157730   -2.939360
     22          1           0       -0.373210    1.564440   -2.332240
     23          1           0        0.463550    0.330700   -3.296040
     24          1           0        3.152539   -2.612557   -0.889084
     25          1           0        4.465990   -1.242010   -0.107260
 ---------------------------------------------------------------------
                    Distance matrix (angstroms):
                    1          2          3          4          5
     1  C    0.000000
     2  C    1.483886   0.000000
     3  C    2.512682   1.411736   0.000000
     4  C    3.806217   2.448996   1.404859   0.000000
     5  C    4.348442   2.864606   2.459838   1.416565   0.000000
     6  C    5.851425   4.367673   3.830886   2.531538   1.503250
     7  C    6.578023   5.141745   4.431919   3.130312   2.531137
     8  C    6.580566   5.146773   4.432345   3.127648   2.531796
     9  C    3.822275   2.457838   2.809260   2.427648   1.418877
    10  O    4.892369   3.672127   4.165847   3.687672   2.425121
    11  C    2.525316   1.412322   2.424109   2.800214   2.459358
    12  H    1.093164   2.134150   2.661836   4.042826   4.844693
    13  H    1.092846   2.137896   3.377594   4.551840   4.858310
    14  H    1.092543   2.116033   3.012074   4.272640   4.820748
    15  H    2.709710   2.121520   1.022296   2.097715   3.372078
    16  H    4.604095   3.360116   2.093058   1.022991   2.125950
    17  H    6.323576   4.861850   4.598653   3.431822   2.139405
    18  H    7.642105   6.191099   5.487321   4.147565   3.471131
    19  H    6.513204   5.143338   4.185278   2.910614   2.836326
    20  H    6.415276   5.042737   4.523164   3.418622   2.754531
    21  H    7.644241   6.195269   5.487687   4.145634   3.471719
    22  H    6.517545   5.150232   4.187424   2.909237   2.838258
    23  H    6.420130   5.051919   4.524061   3.414704   2.756388
    24  H    4.682750   3.689839   4.486155   4.290400   3.188972
    25  H    2.722297   2.118326   3.355396   3.824041   3.376430
                    6          7          8          9         10
     6  C    0.000000
     7  C    1.552895   0.000000
     8  C    1.553050   2.573981   0.000000
     9  C    2.556325   3.619495   3.623404   0.000000
    10  O    2.931853   4.004332   4.011255   1.357674   0.000000
    11  C    3.848364   4.791556   4.795542   1.410596   2.367621
    12  H    6.317065   6.846923   7.039588   4.556590   5.718154
    13  H    6.340302   7.038580   7.224212   4.070535   4.926844
    14  H    6.297344   7.192926   6.816547   4.294670   5.315462
    15  H    4.628176   5.075875   5.074778   3.831312   5.188105
    16  H    2.722444   3.012723   3.005863   3.362507   4.536305
    17  H    1.094804   2.125927   2.124995   2.633373   2.457935
    18  H    2.185849   1.092888   2.804909   4.491893   4.646914
    19  H    2.199913   1.092281   2.854291   4.109637   4.766013
    20  H    2.182402   1.092577   3.516373   3.529102   3.820869
    21  H    2.186271   2.805621   1.092698   4.495073   4.652921
    22  H    2.200622   2.854603   1.092027   4.114485   4.773008
    23  H    2.183523   3.516963   1.092514   3.537039   3.834612
    24  H    3.886279   4.921126   4.929030   1.864478   0.978267
    25  H    4.659728   5.621967   5.625436   2.106501   2.553455
                   11         12         13         14         15
    11  C    0.000000
    12  H    3.381722   0.000000
    13  H    2.683829   1.764900   0.000000
    14  H    3.032168   1.775590   1.777038   0.000000
    15  H    3.357031   2.480352   3.690531   3.118338   0.000000
    16  H    3.822842   4.673038   5.423139   5.029034   2.380919
    17  H    4.040380   6.911302   6.668404   6.760557   5.487255
    18  H    5.754452   7.934362   8.089023   8.226775   6.117184
    19  H    5.093015   6.624497   7.088819   7.127234   4.633914
    20  H    4.609201   6.669994   6.731237   7.153927   5.210248
    21  H    5.757751   8.102391   8.252174   7.897215   6.116290
    22  H    5.098392   6.834834   7.283798   6.729399   4.634308
    23  H    4.617134   7.000300   7.055717   6.503249   5.208380
    24  H    2.279835   5.593764   4.530124   5.073678   5.491060
    25  H    1.023930   3.697274   2.502157   3.143676   4.214923
                   16         17         18         19         20
    16  H    0.000000
    17  H    3.773840   0.000000
    18  H    3.941758   2.428950   0.000000
    19  H    2.475393   3.053298   1.771767   0.000000
    20  H    3.503899   2.471163   1.769791   1.776058   0.000000
    21  H    3.936638   2.428378   2.593381   3.185508   3.793281
    22  H    2.468177   3.052886   3.184565   2.702066   3.857901
    23  H    3.493748   2.471210   3.793128   3.857559   4.340863
    24  H    5.222307   3.431619   5.592449   5.645191   4.641316
    25  H    4.846741   4.668038   6.537193   6.015568   5.346399
                   21         22         23         24         25
    21  H    0.000000
    22  H    1.770532   0.000000
    23  H    1.769075   1.775160   0.000000
    24  H    5.599409   5.653398   4.656915   0.000000
    25  H    6.540123   6.020345   5.353621   2.052998   0.000000
 Stoichiometry    C10H14O
 Framework group  C1[X(C10H14O)]
 Deg. of freedom    69
 Full point group                 C1      NOp   1
 Largest Abelian subgroup         C1      NOp   1
 Largest concise Abelian subgroup C1      NOp   1
                         Standard orientation:                         
 ---------------------------------------------------------------------
 Center     Atomic      Atomic             Coordinates (Angstroms)
 Number     Number       Type             X           Y           Z
 ---------------------------------------------------------------------
      1          6           0        3.709401   -0.465433   -0.000336
      2          6           0        2.233629   -0.310538   -0.005147
      3          6           0        1.396495   -1.447284   -0.001849
      4          6           0       -0.001726   -1.310902    0.000880
      5          6           0       -0.617712   -0.035278    0.001705
      6          6           0       -2.116484    0.080676    0.000796
      7          6           0       -2.740853   -0.516601   -1.289518
      8          6           0       -2.744228   -0.527737    1.284437
      9          6           0        0.225152    1.106120    0.002896
     10          8           0       -0.280196    2.366241    0.002406
     11          6           0        1.628739    0.965670    0.002205
     12          1           0        4.007155   -1.381558   -0.517120
     13          1           0        4.196934    0.373058   -0.503880
     14          1           0        4.067580   -0.513617    1.030700
     15          1           0        1.798918   -2.387041   -0.002491
     16          1           0       -0.571217   -2.160720    0.001239
     17          1           0       -2.408051    1.135928    0.005842
     18          1           0       -3.820547   -0.347583   -1.299473
     19          1           0       -2.560427   -1.591714   -1.357748
     20          1           0       -2.312292   -0.031831   -2.169891
     21          1           0       -3.823727   -0.358673    1.293882
     22          1           0       -2.565584   -1.603389    1.344288
     23          1           0       -2.318270   -0.052033    2.170921
     24          1           0        0.505222    2.949443    0.001615
     25          1           0        2.211406    1.807640    0.006455
 ---------------------------------------------------------------------
 Rotational constants (GHZ):           1.9373179           0.7245208           0.5998012
 Leave Link  202 at Mon Feb 22 21:13:15 2021, MaxMem=   104857600 cpu:               0.5 elap:               0.0
 (Enter /sw/arch/RedHatEnterpriseServer7/EB_production/2019/software/Gaussian/g16.c01/l301.exe)
 Standard basis: TZVP (5D, 7F)
 Ernie: Thresh=  0.10000D-02 Tol=  0.10000D-05 Strict=F.
 There are   304 symmetry adapted cartesian basis functions of A   symmetry.
 There are   293 symmetry adapted basis functions of A   symmetry.
   293 basis functions,   497 primitive gaussians,   304 cartesian basis functions
    41 alpha electrons       41 beta electrons
       nuclear repulsion energy       602.8165185640 Hartrees.
 IExCor=  404 DFT=T Ex=B Corr=P86 ExCW=0 ScaHFX=  0.000000
 ScaDFX=  1.000000  1.000000  1.000000  1.000000 ScalE2=  1.000000  1.000000
 IRadAn=      5 IRanWt=     -1 IRanGd=            0 ICorTp=0 IEmpDi=131
 NAtoms=   25 NActive=   25 NUniq=   25 SFac= 1.00D+00 NAtFMM=   60 NAOKFM=F Big=F
 Integral buffers will be    131072 words long.
 Raffenetti 2 integral format.
 Two-electron integral symmetry is turned on.
 R6Disp:  Grimme-D3 Dispersion energy=       -0.0228131417 Hartrees.
 Nuclear repulsion after empirical dispersion term =      602.7937054223 Hartrees.
 ------------------------------------------------------------------------------
 Polarizable Continuum Model (PCM)
 =================================
 Model                : PCM.
 Atomic radii         : UFF (Universal Force Field).
 Polarization charges : Total charges.
 Charge compensation  : None.
 Solution method      : On-the-fly selection.
 Cavity type          : Scaled VdW (van der Waals Surface) (Alpha=1.100).
 Cavity algorithm     : GePol (No added spheres)
                        Default sphere list used, NSphG=   25.
                        Lebedev-Laikov grids with approx.  5.0 points / Ang**2.
                        Smoothing algorithm: York/Karplus (Gamma=1.0000).
                        Polarization charges: spherical gaussians, with
                                              point-specific exponents (IZeta= 3).
                        Self-potential: point-specific (ISelfS= 7).
                        Self-field    : sphere-specific E.n sum rule (ISelfD= 2).
 1st derivatives      : Analytical E(r).r(x)/FMM algorithm (CHGder, D1EAlg=3).
                        Cavity 1st derivative terms included.
 Solvent              : Water, Eps=  78.355300 Eps(inf)=   1.777849
 ------------------------------------------------------------------------------
 GePol: Number of generator spheres                  =      25
 GePol: Total number of spheres                      =      25
 GePol: Number of exposed spheres                    =      25 (100.00%)
 GePol: Number of points                             =    1829
 GePol: Average weight of points                     =       0.13
 GePol: Minimum weight of points                     =   0.84D-11
 GePol: Maximum weight of points                     =    0.20577
 GePol: Number of points with low weight             =     123
 GePol: Fraction of low-weight points (<1% of avg)   =       6.72%
 GePol: Cavity surface area                          =    242.784 Ang**2
 GePol: Cavity volume                                =    247.174 Ang**3
 Leave Link  301 at Mon Feb 22 21:13:16 2021, MaxMem=   104857600 cpu:               1.8 elap:               0.1
 (Enter /sw/arch/RedHatEnterpriseServer7/EB_production/2019/software/Gaussian/g16.c01/l302.exe)
 NPDir=0 NMtPBC=     1 NCelOv=     1 NCel=       1 NClECP=     1 NCelD=      1
         NCelK=      1 NCelE2=     1 NClLst=     1 CellRange=     0.0.
 One-electron integrals computed using PRISM.
 One-electron integral symmetry used in STVInt
 PrsmSu:  requested number of processors reduced to:  28 ShMem   1 Linda.
 NBasis=   293 RedAO= T EigKep=  8.39D-06  NBF=   293
 NBsUse=   293 1.00D-06 EigRej= -1.00D+00 NBFU=   293
 Precomputing XC quadrature grid using
 IXCGrd= 4 IRadAn=           5 IRanWt=          -1 IRanGd=           0 AccXCQ= 0.00D+00.
 Generated NRdTot=       0 NPtTot=           0 NUsed=           0 NTot=          32
 NSgBfM=   301   301   301   301   301 MxSgAt=    25 MxSgA2=    25.
 Leave Link  302 at Mon Feb 22 21:13:16 2021, MaxMem=   104857600 cpu:               7.9 elap:               0.3
 (Enter /sw/arch/RedHatEnterpriseServer7/EB_production/2019/software/Gaussian/g16.c01/l303.exe)
 DipDrv:  MaxL=1.
 Leave Link  303 at Mon Feb 22 21:13:16 2021, MaxMem=   104857600 cpu:               2.2 elap:               0.1
 (Enter /sw/arch/RedHatEnterpriseServer7/EB_production/2019/software/Gaussian/g16.c01/l401.exe)
 ExpMin= 9.52D-02 ExpMax= 2.70D+04 ExpMxC= 9.22D+02 IAcc=3 IRadAn=         5 AccDes= 0.00D+00
 Harris functional with IExCor=  404 and IRadAn=       5 diagonalized for initial guess.
 HarFok:  IExCor=  404 AccDes= 0.00D+00 IRadAn=         5 IDoV= 1 UseB2=F ITyADJ=14
 ICtDFT=  3500011 ScaDFX=  1.000000  1.000000  1.000000  1.000000
 FoFCou: FMM=F IPFlag=           0 FMFlag=      100000 FMFlg1=           0
         NFxFlg=           0 DoJE=T BraDBF=F KetDBF=T FulRan=T
         wScrn=  0.000000 ICntrl=       500 IOpCl=  0 I1Cent=   200000004 NGrid=           0
         NMat0=    1 NMatS0=      1 NMatT0=    0 NMatD0=    1 NMtDS0=    0 NMtDT0=    0
 Petite list used in FoFCou.
 Harris En= -465.162075784108    
 JPrj=0 DoOrth=F DoCkMO=F.
 Leave Link  401 at Mon Feb 22 21:13:17 2021, MaxMem=   104857600 cpu:              15.7 elap:               0.5
 (Enter /sw/arch/RedHatEnterpriseServer7/EB_production/2019/software/Gaussian/g16.c01/l502.exe)
 Integral symmetry usage will be decided dynamically.
 Closed shell SCF:
 Using DIIS extrapolation, IDIIS=  1040.
 NGot=   104857600 LenX=   104659252 LenY=   104566395
 Requested convergence on RMS density matrix=1.00D-08 within 128 cycles.
 Requested convergence on MAX density matrix=1.00D-06.
 Requested convergence on             energy=1.00D-06.
 No special actions if energy rises.
 Fock matrices will be formed incrementally for  20 cycles.

 Cycle   1  Pass 1  IDiag  1:
 FoFJK:  IHMeth= 1 ICntrl=     500 DoSepK=F KAlg= 0 I1Cent=           0 FoldK=F
 IRaf= 900000000 NMat=       1 IRICut=       1 DoRegI=T DoRafI=F ISym2E= 0 IDoP0=0 IntGTp=1.
 FoFCou: FMM=F IPFlag=           0 FMFlag=      100000 FMFlg1=           0
         NFxFlg=           0 DoJE=T BraDBF=F KetDBF=F FulRan=T
         wScrn=  0.000000 ICntrl=       500 IOpCl=  0 I1Cent=           0 NGrid=           0
         NMat0=    1 NMatS0=      1 NMatT0=    0 NMatD0=    1 NMtDS0=    0 NMtDT0=    0
 Symmetry not used in FoFCou.
 Inv3:  Mode=1 IEnd=    10035723.
 Iteration    1 A*A^-1 deviation from unit magnitude is 4.00D-15 for   1638.
 Iteration    1 A*A^-1 deviation from orthogonality  is 2.00D-15 for   1660   1273.
 Iteration    1 A^-1*A deviation from unit magnitude is 4.33D-15 for   1638.
 Iteration    1 A^-1*A deviation from orthogonality  is 2.08D-15 for   1331    444.
 E= -464.559656852246    
 DIIS: error= 3.63D-02 at cycle   1 NSaved=   1.
 NSaved= 1 IEnMin= 1 EnMin= -464.559656852246     IErMin= 1 ErrMin= 3.63D-02
 ErrMax= 3.63D-02  0.00D+00 EMaxC= 1.00D-01 BMatC= 3.20D-01 BMatP= 3.20D-01
 IDIUse=3 WtCom= 6.37D-01 WtEn= 3.63D-01
 Coeff-Com:  0.100D+01
 Coeff-En:   0.100D+01
 Coeff:      0.100D+01
 Gap=     0.159 Goal=   None    Shift=    0.000
 GapD=    0.159 DampG=1.000 DampE=0.500 DampFc=0.5000 IDamp=-1.
 Damping current iteration by 5.00D-01
 RMSDP=6.06D-03 MaxDP=3.94D-01              OVMax= 2.32D-01

 Cycle   2  Pass 1  IDiag  1:
 RMSU=  3.00D-03    CP:  9.65D-01
 E= -464.672112581851     Delta-E=       -0.112455729605 Rises=F Damp=T
 DIIS: error= 8.67D-03 at cycle   2 NSaved=   2.
 NSaved= 2 IEnMin= 2 EnMin= -464.672112581851     IErMin= 2 ErrMin= 8.67D-03
 ErrMax= 8.67D-03  0.00D+00 EMaxC= 1.00D-01 BMatC= 2.66D-02 BMatP= 3.20D-01
 IDIUse=3 WtCom= 9.13D-01 WtEn= 8.67D-02
 Coeff-Com:  0.171D+00 0.829D+00
 Coeff-En:   0.290D+00 0.710D+00
 Coeff:      0.181D+00 0.819D+00
 Gap=     0.162 Goal=   None    Shift=    0.000
 RMSDP=1.77D-03 MaxDP=6.06D-02 DE=-1.12D-01 OVMax= 2.02D-01

 Cycle   3  Pass 1  IDiag  1:
 RMSU=  1.48D-03    CP:  9.63D-01  6.76D-01
 E= -464.874141628950     Delta-E=       -0.202029047099 Rises=F Damp=F
 DIIS: error= 6.54D-03 at cycle   3 NSaved=   3.
 NSaved= 3 IEnMin= 3 EnMin= -464.874141628950     IErMin= 3 ErrMin= 6.54D-03
 ErrMax= 6.54D-03  0.00D+00 EMaxC= 1.00D-01 BMatC= 1.30D-02 BMatP= 2.66D-02
 IDIUse=3 WtCom= 9.35D-01 WtEn= 6.54D-02
 Coeff-Com:  0.615D-01 0.421D+00 0.517D+00
 Coeff-En:   0.000D+00 0.000D+00 0.100D+01
 Coeff:      0.575D-01 0.394D+00 0.549D+00
 Gap=     0.153 Goal=   None    Shift=    0.000
 RMSDP=8.03D-04 MaxDP=2.40D-02 DE=-2.02D-01 OVMax= 8.22D-02

 Cycle   4  Pass 1  IDiag  1:
 RMSU=  6.25D-04    CP:  9.64D-01  6.74D-01  6.60D-01
 E= -464.882165714368     Delta-E=       -0.008024085418 Rises=F Damp=F
 DIIS: error= 5.77D-03 at cycle   4 NSaved=   4.
 NSaved= 4 IEnMin= 4 EnMin= -464.882165714368     IErMin= 4 ErrMin= 5.77D-03
 ErrMax= 5.77D-03  0.00D+00 EMaxC= 1.00D-01 BMatC= 5.25D-03 BMatP= 1.30D-02
 IDIUse=3 WtCom= 9.42D-01 WtEn= 5.77D-02
 Coeff-Com:  0.107D-01 0.118D+00 0.385D+00 0.487D+00
 Coeff-En:   0.000D+00 0.000D+00 0.334D+00 0.666D+00
 Coeff:      0.101D-01 0.111D+00 0.382D+00 0.497D+00
 Gap=     0.150 Goal=   None    Shift=    0.000
 RMSDP=3.39D-04 MaxDP=9.44D-03 DE=-8.02D-03 OVMax= 4.03D-02

 Cycle   5  Pass 1  IDiag  1:
 RMSU=  2.12D-04    CP:  9.61D-01  6.90D-01  7.45D-01  6.38D-01
 E= -464.887552890746     Delta-E=       -0.005387176378 Rises=F Damp=F
 DIIS: error= 1.62D-03 at cycle   5 NSaved=   5.
 NSaved= 5 IEnMin= 5 EnMin= -464.887552890746     IErMin= 5 ErrMin= 1.62D-03
 ErrMax= 1.62D-03  0.00D+00 EMaxC= 1.00D-01 BMatC= 3.54D-04 BMatP= 5.25D-03
 IDIUse=3 WtCom= 9.84D-01 WtEn= 1.62D-02
 Coeff-Com:  0.280D-02 0.410D-01 0.202D+00 0.310D+00 0.445D+00
 Coeff-En:   0.000D+00 0.000D+00 0.000D+00 0.000D+00 0.100D+01
 Coeff:      0.275D-02 0.403D-01 0.199D+00 0.305D+00 0.454D+00
 Gap=     0.150 Goal=   None    Shift=    0.000
 RMSDP=1.09D-04 MaxDP=5.03D-03 DE=-5.39D-03 OVMax= 1.06D-02

 Cycle   6  Pass 1  IDiag  1:
 RMSU=  6.78D-05    CP:  9.61D-01  6.79D-01  7.42D-01  6.68D-01  6.44D-01
 E= -464.887903808320     Delta-E=       -0.000350917574 Rises=F Damp=F
 DIIS: error= 3.89D-04 at cycle   6 NSaved=   6.
 NSaved= 6 IEnMin= 6 EnMin= -464.887903808320     IErMin= 6 ErrMin= 3.89D-04
 ErrMax= 3.89D-04  0.00D+00 EMaxC= 1.00D-01 BMatC= 3.54D-05 BMatP= 3.54D-04
 IDIUse=3 WtCom= 9.96D-01 WtEn= 3.89D-03
 Coeff-Com:  0.432D-03 0.883D-02 0.664D-01 0.112D+00 0.278D+00 0.534D+00
 Coeff-En:   0.000D+00 0.000D+00 0.000D+00 0.000D+00 0.741D-01 0.926D+00
 Coeff:      0.431D-03 0.880D-02 0.661D-01 0.112D+00 0.277D+00 0.536D+00
 Gap=     0.150 Goal=   None    Shift=    0.000
 RMSDP=3.78D-05 MaxDP=2.74D-03 DE=-3.51D-04 OVMax= 2.21D-03

 Cycle   7  Pass 1  IDiag  1:
 RMSU=  1.97D-05    CP:  9.61D-01  6.83D-01  7.53D-01  6.56D-01  6.59D-01
                    CP:  6.45D-01
 E= -464.887935940158     Delta-E=       -0.000032131838 Rises=F Damp=F
 DIIS: error= 9.91D-05 at cycle   7 NSaved=   7.
 NSaved= 7 IEnMin= 7 EnMin= -464.887935940158     IErMin= 7 ErrMin= 9.91D-05
 ErrMax= 9.91D-05  0.00D+00 EMaxC= 1.00D-01 BMatC= 2.48D-06 BMatP= 3.54D-05
 IDIUse=1 WtCom= 1.00D+00 WtEn= 0.00D+00
 Coeff-Com:  0.178D-03 0.332D-02 0.305D-01 0.527D-01 0.148D+00 0.327D+00
 Coeff-Com:  0.438D+00
 Coeff:      0.178D-03 0.332D-02 0.305D-01 0.527D-01 0.148D+00 0.327D+00
 Coeff:      0.438D+00
 Gap=     0.150 Goal=   None    Shift=    0.000
 RMSDP=9.87D-06 MaxDP=6.04D-04 DE=-3.21D-05 OVMax= 7.58D-04

 Cycle   8  Pass 1  IDiag  1:
 RMSU=  6.55D-06    CP:  9.62D-01  6.81D-01  7.52D-01  6.60D-01  6.62D-01
                    CP:  6.55D-01  7.32D-01
 E= -464.887938106948     Delta-E=       -0.000002166790 Rises=F Damp=F
 DIIS: error= 3.58D-05 at cycle   8 NSaved=   8.
 NSaved= 8 IEnMin= 8 EnMin= -464.887938106948     IErMin= 8 ErrMin= 3.58D-05
 ErrMax= 3.58D-05  0.00D+00 EMaxC= 1.00D-01 BMatC= 2.29D-07 BMatP= 2.48D-06
 IDIUse=1 WtCom= 1.00D+00 WtEn= 0.00D+00
 Coeff-Com:  0.764D-04 0.669D-03 0.818D-02 0.142D-01 0.458D-01 0.112D+00
 Coeff-Com:  0.258D+00 0.560D+00
 Coeff:      0.764D-04 0.669D-03 0.818D-02 0.142D-01 0.458D-01 0.112D+00
 Coeff:      0.258D+00 0.560D+00
 Gap=     0.150 Goal=   None    Shift=    0.000
 RMSDP=3.14D-06 MaxDP=1.42D-04 DE=-2.17D-06 OVMax= 3.23D-04

 Cycle   9  Pass 1  IDiag  1:
 RMSU=  2.42D-06    CP:  9.62D-01  6.82D-01  7.51D-01  6.60D-01  6.66D-01
                    CP:  6.52D-01  7.53D-01  7.91D-01
 E= -464.887938307238     Delta-E=       -0.000000200290 Rises=F Damp=F
 DIIS: error= 2.05D-05 at cycle   9 NSaved=   9.
 NSaved= 9 IEnMin= 9 EnMin= -464.887938307238     IErMin= 9 ErrMin= 2.05D-05
 ErrMax= 2.05D-05  0.00D+00 EMaxC= 1.00D-01 BMatC= 6.67D-08 BMatP= 2.29D-07
 IDIUse=1 WtCom= 1.00D+00 WtEn= 0.00D+00
 Coeff-Com:  0.353D-04 0.493D-05 0.133D-02 0.221D-02 0.102D-01 0.304D-01
 Coeff-Com:  0.115D+00 0.393D+00 0.448D+00
 Coeff:      0.353D-04 0.493D-05 0.133D-02 0.221D-02 0.102D-01 0.304D-01
 Coeff:      0.115D+00 0.393D+00 0.448D+00
 Gap=     0.150 Goal=   None    Shift=    0.000
 RMSDP=1.07D-06 MaxDP=2.72D-05 DE=-2.00D-07 OVMax= 1.29D-04

 Cycle  10  Pass 1  IDiag  1:
 RMSU=  7.07D-07    CP:  9.62D-01  6.82D-01  7.51D-01  6.60D-01  6.66D-01
                    CP:  6.54D-01  7.56D-01  8.43D-01  7.38D-01
 E= -464.887938362632     Delta-E=       -0.000000055394 Rises=F Damp=F
 DIIS: error= 3.88D-06 at cycle  10 NSaved=  10.
 NSaved=10 IEnMin=10 EnMin= -464.887938362632     IErMin=10 ErrMin= 3.88D-06
 ErrMax= 3.88D-06  0.00D+00 EMaxC= 1.00D-01 BMatC= 2.71D-09 BMatP= 6.67D-08
 IDIUse=1 WtCom= 1.00D+00 WtEn= 0.00D+00
 Coeff-Com:  0.123D-04-0.438D-04 0.249D-04-0.218D-04 0.136D-02 0.608D-02
 Coeff-Com:  0.362D-01 0.150D+00 0.237D+00 0.569D+00
 Coeff:      0.123D-04-0.438D-04 0.249D-04-0.218D-04 0.136D-02 0.608D-02
 Coeff:      0.362D-01 0.150D+00 0.237D+00 0.569D+00
 Gap=     0.150 Goal=   None    Shift=    0.000
 RMSDP=3.50D-07 MaxDP=1.80D-05 DE=-5.54D-08 OVMax= 2.43D-05

 Cycle  11  Pass 1  IDiag  1:
 RMSU=  1.67D-07    CP:  9.62D-01  6.82D-01  7.51D-01  6.60D-01  6.66D-01
                    CP:  6.55D-01  7.64D-01  8.43D-01  7.21D-01  7.02D-01
 E= -464.887938365029     Delta-E=       -0.000000002397 Rises=F Damp=F
 DIIS: error= 1.20D-06 at cycle  11 NSaved=  11.
 NSaved=11 IEnMin=11 EnMin= -464.887938365029     IErMin=11 ErrMin= 1.20D-06
 ErrMax= 1.20D-06  0.00D+00 EMaxC= 1.00D-01 BMatC= 4.35D-10 BMatP= 2.71D-09
 IDIUse=1 WtCom= 1.00D+00 WtEn= 0.00D+00
 Coeff-Com:  0.530D-05-0.258D-04-0.789D-04-0.177D-03 0.134D-03 0.184D-02
 Coeff-Com:  0.156D-01 0.704D-01 0.123D+00 0.362D+00 0.427D+00
 Coeff:      0.530D-05-0.258D-04-0.789D-04-0.177D-03 0.134D-03 0.184D-02
 Coeff:      0.156D-01 0.704D-01 0.123D+00 0.362D+00 0.427D+00
 Gap=     0.150 Goal=   None    Shift=    0.000
 RMSDP=1.02D-07 MaxDP=6.57D-06 DE=-2.40D-09 OVMax= 7.82D-06

 Cycle  12  Pass 1  IDiag  1:
 RMSU=  6.07D-08    CP:  9.62D-01  6.82D-01  7.51D-01  6.60D-01  6.66D-01
                    CP:  6.54D-01  7.65D-01  8.47D-01  7.20D-01  7.39D-01
                    CP:  7.08D-01
 E= -464.887938365416     Delta-E=       -0.000000000387 Rises=F Damp=F
 DIIS: error= 3.94D-07 at cycle  12 NSaved=  12.
 NSaved=12 IEnMin=12 EnMin= -464.887938365416     IErMin=12 ErrMin= 3.94D-07
 ErrMax= 3.94D-07  0.00D+00 EMaxC= 1.00D-01 BMatC= 2.35D-11 BMatP= 4.35D-10
 IDIUse=1 WtCom= 1.00D+00 WtEn= 0.00D+00
 Coeff-Com:  0.768D-06-0.587D-05-0.297D-04-0.633D-04-0.619D-04 0.283D-03
 Coeff-Com:  0.301D-02 0.156D-01 0.301D-01 0.104D+00 0.226D+00 0.621D+00
 Coeff:      0.768D-06-0.587D-05-0.297D-04-0.633D-04-0.619D-04 0.283D-03
 Coeff:      0.301D-02 0.156D-01 0.301D-01 0.104D+00 0.226D+00 0.621D+00
 Gap=     0.150 Goal=   None    Shift=    0.000
 RMSDP=3.00D-08 MaxDP=1.71D-06 DE=-3.87D-10 OVMax= 2.17D-06

 Cycle  13  Pass 1  IDiag  1:
 RMSU=  1.43D-08    CP:  9.62D-01  6.82D-01  7.51D-01  6.60D-01  6.66D-01
                    CP:  6.54D-01  7.65D-01  8.47D-01  7.24D-01  7.40D-01
                    CP:  7.40D-01  7.65D-01
 E= -464.887938365433     Delta-E=       -0.000000000017 Rises=F Damp=F
 DIIS: error= 1.33D-07 at cycle  13 NSaved=  13.
 NSaved=13 IEnMin=13 EnMin= -464.887938365433     IErMin=13 ErrMin= 1.33D-07
 ErrMax= 1.33D-07  0.00D+00 EMaxC= 1.00D-01 BMatC= 4.81D-12 BMatP= 2.35D-11
 IDIUse=1 WtCom= 1.00D+00 WtEn= 0.00D+00
 Coeff-Com:  0.673D-07-0.211D-05-0.164D-04-0.332D-04-0.595D-04 0.395D-04
 Coeff-Com:  0.844D-03 0.531D-02 0.110D-01 0.413D-01 0.117D+00 0.403D+00
 Coeff-Com:  0.423D+00
 Coeff:      0.673D-07-0.211D-05-0.164D-04-0.332D-04-0.595D-04 0.395D-04
 Coeff:      0.844D-03 0.531D-02 0.110D-01 0.413D-01 0.117D+00 0.403D+00
 Coeff:      0.423D+00
 Gap=     0.150 Goal=   None    Shift=    0.000
 RMSDP=1.05D-08 MaxDP=7.36D-07 DE=-1.69D-11 OVMax= 7.61D-07

 Cycle  14  Pass 1  IDiag  1:
 RMSU=  5.20D-09    CP:  9.62D-01  6.82D-01  7.51D-01  6.60D-01  6.66D-01
                    CP:  6.54D-01  7.65D-01  8.48D-01  7.26D-01  7.45D-01
                    CP:  7.36D-01  7.89D-01  6.92D-01
 E= -464.887938365433     Delta-E=       -0.000000000001 Rises=F Damp=F
 DIIS: error= 1.84D-08 at cycle  14 NSaved=  14.
 NSaved=14 IEnMin=14 EnMin= -464.887938365433     IErMin=14 ErrMin= 1.84D-08
 ErrMax= 1.84D-08  0.00D+00 EMaxC= 1.00D-01 BMatC= 1.30D-13 BMatP= 4.81D-12
 IDIUse=1 WtCom= 1.00D+00 WtEn= 0.00D+00
 Coeff-Com: -0.118D-06-0.256D-06-0.382D-05-0.669D-05-0.183D-04-0.239D-04
 Coeff-Com: -0.367D-04 0.352D-03 0.958D-03 0.480D-02 0.228D-01 0.994D-01
 Coeff-Com:  0.180D+00 0.692D+00
 Coeff:     -0.118D-06-0.256D-06-0.382D-05-0.669D-05-0.183D-04-0.239D-04
 Coeff:     -0.367D-04 0.352D-03 0.958D-03 0.480D-02 0.228D-01 0.994D-01
 Coeff:      0.180D+00 0.692D+00
 Gap=     0.150 Goal=   None    Shift=    0.000
 RMSDP=2.67D-09 MaxDP=7.56D-08 DE=-6.82D-13 OVMax= 1.20D-07

 Error on total polarization charges =  0.01570
 SCF Done:  E(RB-P86) =  -464.887938365     A.U. after   14 cycles
            NFock= 14  Conv=0.27D-08     -V/T= 2.0042
 KE= 4.629485537139D+02 PE=-2.286843143159D+03 EE= 7.562129456572D+02
 Leave Link  502 at Mon Feb 22 21:13:37 2021, MaxMem=   104857600 cpu:             641.6 elap:              20.5
 (Enter /sw/arch/RedHatEnterpriseServer7/EB_production/2019/software/Gaussian/g16.c01/l601.exe)
 Copying SCF densities to generalized density rwf, IOpCl= 0 IROHF=0.

 **********************************************************************

            Population analysis using the SCF Density.

 **********************************************************************

 Orbital symmetries:
       Occupied  (A) (A) (A) (A) (A) (A) (A) (A) (A) (A) (A) (A)
                 (A) (A) (A) (A) (A) (A) (A) (A) (A) (A) (A) (A)
                 (A) (A) (A) (A) (A) (A) (A) (A) (A) (A) (A) (A)
                 (A) (A) (A) (A) (A)
       Virtual   (A) (A) (A) (A) (A) (A) (A) (A) (A) (A) (A) (A)
                 (A) (A) (A) (A) (A) (A) (A) (A) (A) (A) (A) (A)
                 (A) (A) (A) (A) (A) (A) (A) (A) (A) (A) (A) (A)
                 (A) (A) (A) (A) (A) (A) (A) (A) (A) (A) (A) (A)
                 (A) (A) (A) (A) (A) (A) (A) (A) (A) (A) (A) (A)
                 (A) (A) (A) (A) (A) (A) (A) (A) (A) (A) (A) (A)
                 (A) (A) (A) (A) (A) (A) (A) (A) (A) (A) (A) (A)
                 (A) (A) (A) (A) (A) (A) (A) (A) (A) (A) (A) (A)
                 (A) (A) (A) (A) (A) (A) (A) (A) (A) (A) (A) (A)
                 (A) (A) (A) (A) (A) (A) (A) (A) (A) (A) (A) (A)
                 (A) (A) (A) (A) (A) (A) (A) (A) (A) (A) (A) (A)
                 (A) (A) (A) (A) (A) (A) (A) (A) (A) (A) (A) (A)
                 (A) (A) (A) (A) (A) (A) (A) (A) (A) (A) (A) (A)
                 (A) (A) (A) (A) (A) (A) (A) (A) (A) (A) (A) (A)
                 (A) (A) (A) (A) (A) (A) (A) (A) (A) (A) (A) (A)
                 (A) (A) (A) (A) (A) (A) (A) (A) (A) (A) (A) (A)
                 (A) (A) (A) (A) (A) (A) (A) (A) (A) (A) (A) (A)
                 (A) (A) (A) (A) (A) (A) (A) (A) (A) (A) (A) (A)
                 (A) (A) (A) (A) (A) (A) (A) (A) (A) (A) (A) (A)
                 (A) (A) (A) (A) (A) (A) (A) (A) (A) (A) (A) (A)
                 (A) (A) (A) (A) (A) (A) (A) (A) (A) (A) (A) (A)
 The electronic state is 1-A.
 Alpha  occ. eigenvalues --  -18.80623  -9.96155  -9.91115  -9.90580  -9.90529
 Alpha  occ. eigenvalues --   -9.89531  -9.89293  -9.89014  -9.88619  -9.88440
 Alpha  occ. eigenvalues --   -9.88435  -0.98847  -0.78176  -0.73688  -0.68706
 Alpha  occ. eigenvalues --   -0.67319  -0.62485  -0.61944  -0.57251  -0.54577
 Alpha  occ. eigenvalues --   -0.51276  -0.48934  -0.44964  -0.43058  -0.39535
 Alpha  occ. eigenvalues --   -0.39097  -0.38852  -0.38531  -0.37502  -0.36637
 Alpha  occ. eigenvalues --   -0.35436  -0.34427  -0.34236  -0.32640  -0.31701
 Alpha  occ. eigenvalues --   -0.30568  -0.28866  -0.28746  -0.28423  -0.21971
 Alpha  occ. eigenvalues --   -0.19789
 Alpha virt. eigenvalues --   -0.04758  -0.03006   0.01740   0.03215   0.04177
 Alpha virt. eigenvalues --    0.05944   0.06890   0.07427   0.08010   0.08520
 Alpha virt. eigenvalues --    0.09483   0.09802   0.10188   0.11476   0.11800
 Alpha virt. eigenvalues --    0.12056   0.13095   0.13720   0.14004   0.15906
 Alpha virt. eigenvalues --    0.16150   0.17419   0.18126   0.18516   0.19472
 Alpha virt. eigenvalues --    0.20257   0.21140   0.21630   0.21724   0.22741
 Alpha virt. eigenvalues --    0.23702   0.24067   0.25632   0.26168   0.27120
 Alpha virt. eigenvalues --    0.28766   0.29271   0.29629   0.30579   0.32174
 Alpha virt. eigenvalues --    0.32564   0.33352   0.33579   0.34346   0.35980
 Alpha virt. eigenvalues --    0.36527   0.37178   0.39011   0.39540   0.40080
 Alpha virt. eigenvalues --    0.40432   0.40979   0.41366   0.41682   0.41917
 Alpha virt. eigenvalues --    0.42530   0.43630   0.44223   0.44960   0.45107
 Alpha virt. eigenvalues --    0.45488   0.46509   0.47202   0.48193   0.48487
 Alpha virt. eigenvalues --    0.49901   0.52553   0.52738   0.53862   0.54724
 Alpha virt. eigenvalues --    0.56090   0.56841   0.58580   0.60736   0.61310
 Alpha virt. eigenvalues --    0.62740   0.64240   0.65820   0.67099   0.69216
 Alpha virt. eigenvalues --    0.72306   0.73771   0.74596   0.79449   0.87250
 Alpha virt. eigenvalues --    0.89037   1.03538   1.09836   1.12878   1.17229
 Alpha virt. eigenvalues --    1.17472   1.18812   1.19292   1.19991   1.21324
 Alpha virt. eigenvalues --    1.22214   1.23353   1.23705   1.25001   1.25497
 Alpha virt. eigenvalues --    1.25975   1.26863   1.27745   1.28405   1.29394
 Alpha virt. eigenvalues --    1.30651   1.31275   1.32820   1.34731   1.34800
 Alpha virt. eigenvalues --    1.35621   1.37351   1.37992   1.38316   1.38720
 Alpha virt. eigenvalues --    1.39469   1.39829   1.41377   1.42988   1.43754
 Alpha virt. eigenvalues --    1.44530   1.46068   1.46810   1.47043   1.47866
 Alpha virt. eigenvalues --    1.48720   1.50180   1.51310   1.52647   1.53684
 Alpha virt. eigenvalues --    1.54311   1.56062   1.57551   1.59105   1.60038
 Alpha virt. eigenvalues --    1.62451   1.62802   1.65595   1.69526   1.70550
 Alpha virt. eigenvalues --    1.71309   1.73299   1.73966   1.74193   1.74522
 Alpha virt. eigenvalues --    1.75620   1.76961   1.78002   1.80079   1.81235
 Alpha virt. eigenvalues --    1.82525   1.83483   1.84355   1.85818   1.86980
 Alpha virt. eigenvalues --    1.89045   1.89187   1.91074   1.92435   1.94462
 Alpha virt. eigenvalues --    1.96627   1.98470   2.02062   2.02847   2.03728
 Alpha virt. eigenvalues --    2.08671   2.10311   2.11856   2.13927   2.15945
 Alpha virt. eigenvalues --    2.17762   2.18676   2.20962   2.21604   2.23662
 Alpha virt. eigenvalues --    2.24275   2.24353   2.24677   2.25365   2.26329
 Alpha virt. eigenvalues --    2.27152   2.27817   2.31965   2.33269   2.35756
 Alpha virt. eigenvalues --    2.37195   2.38383   2.39563   2.45887   2.47134
 Alpha virt. eigenvalues --    2.48681   2.49964   2.50762   2.53586   2.55008
 Alpha virt. eigenvalues --    2.55394   2.55868   2.57029   2.57322   2.58163
 Alpha virt. eigenvalues --    2.59384   2.60239   2.61144   2.62392   2.63911
 Alpha virt. eigenvalues --    2.67631   2.68359   2.70260   2.74264   2.76673
 Alpha virt. eigenvalues --    2.82153   2.85075   2.89512   2.91180   2.92769
 Alpha virt. eigenvalues --    2.94959   2.99989   3.00825   3.08186   3.09366
 Alpha virt. eigenvalues --    3.10356   3.11565   3.13989   3.15770   3.17657
 Alpha virt. eigenvalues --    3.22019   3.24599   3.24774   3.25766   3.27428
 Alpha virt. eigenvalues --    3.28014   3.28445   3.31586   3.32277   3.34550
 Alpha virt. eigenvalues --    3.36388   3.38492   3.48012   3.60236   3.96564
 Alpha virt. eigenvalues --    4.19931  21.13003  21.57284  21.69658  21.78883
 Alpha virt. eigenvalues --   21.81719  21.83389  21.87626  21.90093  21.93979
 Alpha virt. eigenvalues --   22.00703  43.21253
          Condensed to atoms (all electrons):
               1          2          3          4          5          6
     1  C    5.135645   0.260847  -0.085776   0.021320   0.000898   0.000044
     2  C    0.260847   5.382773   0.393864  -0.002141  -0.047595   0.004109
     3  C   -0.085776   0.393864   5.243932   0.364812   0.020576   0.014493
     4  C    0.021320  -0.002141   0.364812   5.114662   0.302086  -0.027252
     5  C    0.000898  -0.047595   0.020576   0.302086   6.011847   0.093639
     6  C    0.000044   0.004109   0.014493  -0.027252   0.093639   5.396803
     7  C   -0.000030  -0.001488   0.003213  -0.014674  -0.055110   0.266967
     8  C    0.000001  -0.000487   0.002975  -0.012175  -0.062420   0.260302
     9  C    0.015190   0.055485  -0.142225   0.067460   0.237021  -0.096279
    10  O   -0.000177   0.020426   0.000253   0.005713  -0.114261   0.001984
    11  C   -0.094090   0.108780   0.001009  -0.130663  -0.137852   0.003095
    12  H    0.420119  -0.053349  -0.008488   0.001816   0.000055   0.000002
    13  H    0.418135  -0.053874   0.010932  -0.001398   0.000256   0.000008
    14  H    0.400181  -0.032165  -0.007579  -0.000815   0.000097  -0.000008
    15  H   -0.012548  -0.073369   0.427588  -0.045047   0.013568  -0.000662
    16  H   -0.000771   0.014608  -0.051087   0.445642  -0.092627  -0.000805
    17  H    0.000002  -0.000399  -0.001019   0.010312  -0.115369   0.484724
    18  H    0.000000   0.000019  -0.000045   0.000695   0.018775  -0.048737
    19  H   -0.000003   0.000366  -0.001190   0.008984  -0.030912  -0.019763
    20  H   -0.000001  -0.000145   0.000011  -0.002324   0.008155  -0.048858
    21  H    0.000000  -0.000004   0.000011   0.000440   0.018952  -0.048042
    22  H   -0.000003   0.000329  -0.001197   0.008986  -0.030298  -0.019956
    23  H   -0.000005  -0.000210   0.000049  -0.002418   0.008448  -0.048415
    24  H   -0.000178   0.006436  -0.000136  -0.001142   0.021059   0.001007
    25  H   -0.006571  -0.029858   0.012510   0.000168   0.019969  -0.001081
               7          8          9         10         11         12
     1  C   -0.000030   0.000001   0.015190  -0.000177  -0.094090   0.420119
     2  C   -0.001488  -0.000487   0.055485   0.020426   0.108780  -0.053349
     3  C    0.003213   0.002975  -0.142225   0.000253   0.001009  -0.008488
     4  C   -0.014674  -0.012175   0.067460   0.005713  -0.130663   0.001816
     5  C   -0.055110  -0.062420   0.237021  -0.114261  -0.137852   0.000055
     6  C    0.266967   0.260302  -0.096279   0.001984   0.003095   0.000002
     7  C    5.173863  -0.097775  -0.005806   0.000574   0.000361  -0.000000
     8  C   -0.097775   5.180155   0.000924   0.000709  -0.001035   0.000000
     9  C   -0.005806   0.000924   5.115980   0.390161   0.312293  -0.000638
    10  O    0.000574   0.000709   0.390161   7.784292  -0.118762   0.000009
    11  C    0.000361  -0.001035   0.312293  -0.118762   5.876363   0.009390
    12  H   -0.000000   0.000000  -0.000638   0.000009   0.009390   0.532071
    13  H   -0.000003   0.000002   0.001408  -0.000025  -0.007970  -0.029495
    14  H    0.000003  -0.000005  -0.001147  -0.000001  -0.006733  -0.024516
    15  H    0.000036  -0.000008   0.001846   0.000005   0.019171   0.001072
    16  H   -0.003631  -0.002592   0.022195  -0.000103   0.001019  -0.000004
    17  H   -0.046947  -0.047366   0.010377   0.015107   0.001799  -0.000000
    18  H    0.395754   0.000396  -0.000202   0.000021   0.000042   0.000000
    19  H    0.401137  -0.011013   0.002837  -0.000010  -0.000514   0.000000
    20  H    0.397164   0.013782   0.000286   0.000260  -0.000308  -0.000000
    21  H    0.000281   0.395437  -0.000478   0.000025   0.000059  -0.000000
    22  H   -0.010739   0.400422   0.002689  -0.000015  -0.000481   0.000000
    23  H    0.013704   0.396998  -0.000093   0.000242  -0.000212  -0.000000
    24  H   -0.000047  -0.000054  -0.030177   0.301660  -0.028336   0.000004
    25  H    0.000063   0.000046  -0.061188  -0.008021   0.399397   0.000041
              13         14         15         16         17         18
     1  C    0.418135   0.400181  -0.012548  -0.000771   0.000002   0.000000
     2  C   -0.053874  -0.032165  -0.073369   0.014608  -0.000399   0.000019
     3  C    0.010932  -0.007579   0.427588  -0.051087  -0.001019  -0.000045
     4  C   -0.001398  -0.000815  -0.045047   0.445642   0.010312   0.000695
     5  C    0.000256   0.000097   0.013568  -0.092627  -0.115369   0.018775
     6  C    0.000008  -0.000008  -0.000662  -0.000805   0.484724  -0.048737
     7  C   -0.000003   0.000003   0.000036  -0.003631  -0.046947   0.395754
     8  C    0.000002  -0.000005  -0.000008  -0.002592  -0.047366   0.000396
     9  C    0.001408  -0.001147   0.001846   0.022195   0.010377  -0.000202
    10  O   -0.000025  -0.000001   0.000005  -0.000103   0.015107   0.000021
    11  C   -0.007970  -0.006733   0.019171   0.001019   0.001799   0.000042
    12  H   -0.029495  -0.024516   0.001072  -0.000004  -0.000000   0.000000
    13  H    0.535513  -0.025172   0.000125   0.000013   0.000000   0.000000
    14  H   -0.025172   0.536221   0.000194   0.000020  -0.000000  -0.000000
    15  H    0.000125   0.000194   0.531440  -0.004514   0.000006  -0.000002
    16  H    0.000013   0.000020  -0.004514   0.521089   0.000527   0.000030
    17  H    0.000000  -0.000000   0.000006   0.000527   0.524598  -0.004138
    18  H    0.000000  -0.000000  -0.000002   0.000030  -0.004138   0.540391
    19  H    0.000000  -0.000000  -0.000024   0.002601   0.007415  -0.024868
    20  H    0.000000  -0.000000   0.000009   0.000196  -0.003715  -0.022535
    21  H   -0.000000   0.000000  -0.000001  -0.000052  -0.004149   0.001643
    22  H    0.000000   0.000000  -0.000016   0.002627   0.007435  -0.000215
    23  H   -0.000000   0.000001   0.000011   0.000167  -0.003713  -0.000217
    24  H    0.000025   0.000005  -0.000002   0.000031  -0.000294  -0.000003
    25  H    0.000902  -0.000079  -0.000272  -0.000001  -0.000108  -0.000001
              19         20         21         22         23         24
     1  C   -0.000003  -0.000001   0.000000  -0.000003  -0.000005  -0.000178
     2  C    0.000366  -0.000145  -0.000004   0.000329  -0.000210   0.006436
     3  C   -0.001190   0.000011   0.000011  -0.001197   0.000049  -0.000136
     4  C    0.008984  -0.002324   0.000440   0.008986  -0.002418  -0.001142
     5  C   -0.030912   0.008155   0.018952  -0.030298   0.008448   0.021059
     6  C   -0.019763  -0.048858  -0.048042  -0.019956  -0.048415   0.001007
     7  C    0.401137   0.397164   0.000281  -0.010739   0.013704  -0.000047
     8  C   -0.011013   0.013782   0.395437   0.400422   0.396998  -0.000054
     9  C    0.002837   0.000286  -0.000478   0.002689  -0.000093  -0.030177
    10  O   -0.000010   0.000260   0.000025  -0.000015   0.000242   0.301660
    11  C   -0.000514  -0.000308   0.000059  -0.000481  -0.000212  -0.028336
    12  H    0.000000  -0.000000  -0.000000   0.000000  -0.000000   0.000004
    13  H    0.000000   0.000000  -0.000000   0.000000  -0.000000   0.000025
    14  H   -0.000000  -0.000000   0.000000   0.000000   0.000001   0.000005
    15  H   -0.000024   0.000009  -0.000001  -0.000016   0.000011  -0.000002
    16  H    0.002601   0.000196  -0.000052   0.002627   0.000167   0.000031
    17  H    0.007415  -0.003715  -0.004149   0.007435  -0.003713  -0.000294
    18  H   -0.024868  -0.022535   0.001643  -0.000215  -0.000217  -0.000003
    19  H    0.546076  -0.025164  -0.000197   0.005484  -0.000224   0.000008
    20  H   -0.025164   0.543628  -0.000214  -0.000230  -0.000508  -0.000020
    21  H   -0.000197  -0.000214   0.540312  -0.024934  -0.022519  -0.000002
    22  H    0.005484  -0.000230  -0.024934   0.546470  -0.025186   0.000008
    23  H   -0.000224  -0.000508  -0.022519  -0.025186   0.543563  -0.000019
    24  H    0.000008  -0.000020  -0.000002   0.000008  -0.000019   0.422323
    25  H   -0.000007   0.000008  -0.000001  -0.000007   0.000009   0.003264
              25
     1  C   -0.006571
     2  C   -0.029858
     3  C    0.012510
     4  C    0.000168
     5  C    0.019969
     6  C   -0.001081
     7  C    0.000063
     8  C    0.000046
     9  C   -0.061188
    10  O   -0.008021
    11  C    0.399397
    12  H    0.000041
    13  H    0.000902
    14  H   -0.000079
    15  H   -0.000272
    16  H   -0.000001
    17  H   -0.000108
    18  H   -0.000001
    19  H   -0.000007
    20  H    0.000008
    21  H   -0.000001
    22  H   -0.000007
    23  H    0.000009
    24  H    0.003264
    25  H    0.526763
 Mulliken charges:
               1
     1  C   -0.472229
     2  C    0.047044
     3  C   -0.197486
     4  C   -0.113049
     5  C   -0.088958
     6  C   -0.167318
     7  C   -0.416870
     8  C   -0.417219
     9  C    0.102082
    10  O   -0.280069
    11  C   -0.205821
    12  H    0.151911
    13  H    0.150616
    14  H    0.161499
    15  H    0.141393
    16  H    0.145423
    17  H    0.164914
    18  H    0.143195
    19  H    0.138979
    20  H    0.140522
    21  H    0.143433
    22  H    0.138827
    23  H    0.140547
    24  H    0.304578
    25  H    0.144054
 Sum of Mulliken charges =  -0.00000
 Mulliken charges with hydrogens summed into heavy atoms:
               1
     1  C   -0.008203
     2  C    0.047044
     3  C   -0.056092
     4  C    0.032374
     5  C   -0.088958
     6  C   -0.002404
     7  C    0.005826
     8  C    0.005588
     9  C    0.102082
    10  O    0.024510
    11  C   -0.061767
 Electronic spatial extent (au):  <R**2>=           2048.3129
 Charge=              0.0000 electrons
 Dipole moment (field-independent basis, Debye):
    X=              1.6650    Y=              0.7115    Z=              0.0515  Tot=              1.8113
 Quadrupole moment (field-independent basis, Debye-Ang):
   XX=            -61.2723   YY=            -60.7018   ZZ=            -71.7213
   XY=              4.6497   XZ=              0.1011   YZ=             -0.0086
 Traceless Quadrupole moment (field-independent basis, Debye-Ang):
   XX=              3.2928   YY=              3.8633   ZZ=             -7.1561
   XY=              4.6497   XZ=              0.1011   YZ=             -0.0086
 Octapole moment (field-independent basis, Debye-Ang**2):
  XXX=             11.1309  YYY=             23.4632  ZZZ=              0.8398  XYY=             17.9665
  XXY=              5.5367  XXZ=              0.1383  XZZ=             -0.5557  YZZ=              5.6967
  YYZ=             -0.5814  XYZ=             -0.0541
 Hexadecapole moment (field-independent basis, Debye-Ang**3):
 XXXX=          -1885.3893 YYYY=           -499.4182 ZZZZ=           -272.4398 XXXY=            -10.9298
 XXXZ=             -0.7910 YYYX=             39.6025 YYYZ=              1.0849 ZZZX=              3.0296
 ZZZY=             -0.4083 XXYY=           -411.7296 XXZZ=           -380.9235 YYZZ=           -152.8372
 XXYZ=             -0.4486 YYXZ=             -2.5079 ZZXY=             -3.2553
 N-N= 6.027937054223D+02 E-N=-2.286843140936D+03  KE= 4.629485537139D+02
 No NMR shielding tensors so no spin-rotation constants.
 Leave Link  601 at Mon Feb 22 21:13:38 2021, MaxMem=   104857600 cpu:               4.8 elap:               0.2
 (Enter /sw/arch/RedHatEnterpriseServer7/EB_production/2019/software/Gaussian/g16.c01/l701.exe)
 ... and contract with generalized density number  0.
 Compute integral first derivatives.
 R6Disp: Adding Grimme-D3 dispersion energy 1st derivatives to the gradient.
 PrsmSu:  requested number of processors reduced to:  28 ShMem   1 Linda.
 D1PCM: PCM CHGder 1st derivatives, ID1Alg=3 FixD1E=F DoIter=F DoCFld=F I1PDM=0.
 GePol: Maximum number of non-zero 1st derivatives   =     209
 CoulSu:  requested number of processors reduced to:  28 ShMem   1 Linda.
 CoulSu:  requested number of processors reduced to:  29 ShMem   1 Linda.
 Leave Link  701 at Mon Feb 22 21:13:39 2021, MaxMem=   104857600 cpu:              31.4 elap:               1.2
 (Enter /sw/arch/RedHatEnterpriseServer7/EB_production/2019/software/Gaussian/g16.c01/l702.exe)
 L702 exits ... SP integral derivatives will be done elsewhere.
 Leave Link  702 at Mon Feb 22 21:13:39 2021, MaxMem=   104857600 cpu:               0.8 elap:               0.1
 (Enter /sw/arch/RedHatEnterpriseServer7/EB_production/2019/software/Gaussian/g16.c01/l703.exe)
 Integral derivatives from FoFJK, PRISM(SPDF).
 Compute integral first derivatives, UseDBF=F ICtDFT=           0.
 Calling FoFJK, ICntrl=      2527 FMM=F ISym2X=0 I1Cent= 0 IOpClX= 0 NMat=1 NMatS=1 NMatT=0.
 FoFJK:  IHMeth= 1 ICntrl=    2527 DoSepK=F KAlg= 0 I1Cent=           0 FoldK=F
 IRaf=         0 NMat=       1 IRICut=       1 DoRegI=T DoRafI=F ISym2E= 0 IDoP0=0 IntGTp=1.
 FoFCou: FMM=F IPFlag=           0 FMFlag=      100000 FMFlg1=         800
         NFxFlg=           0 DoJE=F BraDBF=F KetDBF=F FulRan=T
         wScrn=  0.000000 ICntrl=      2527 IOpCl=  0 I1Cent=           0 NGrid=           0
         NMat0=    1 NMatS0=      1 NMatT0=    0 NMatD0=    1 NMtDS0=    0 NMtDT0=    0
 Symmetry not used in FoFCou.
 Leave Link  703 at Mon Feb 22 21:13:42 2021, MaxMem=   104857600 cpu:              92.1 elap:               2.9
 (Enter /sw/arch/RedHatEnterpriseServer7/EB_production/2019/software/Gaussian/g16.c01/l716.exe)
 Dipole        = 6.55046188D-01 2.79915419D-01 2.02443003D-02
 ***** Axes restored to original set *****
 -------------------------------------------------------------------
 Center     Atomic                   Forces (Hartrees/Bohr)
 Number     Number              X              Y              Z
 -------------------------------------------------------------------
      1        6           0.004713914   -0.000432045    0.003953174
      2        6          -0.019686315   -0.007292426   -0.006109786
      3        6          -0.011867252   -0.055413633   -0.018849178
      4        6           0.048539493   -0.047580609    0.002015972
      5        6           0.006966115    0.001538513    0.002385799
      6        6          -0.013756238   -0.000167995   -0.004433656
      7        6           0.006890854   -0.000621486   -0.007551957
      8        6           0.001847811   -0.004977213    0.008681704
      9        6           0.007586447    0.024529011    0.008655752
     10        8          -0.004513695   -0.012982521   -0.004969182
     11        6          -0.042299608    0.052247296    0.000887230
     12        1           0.001258742    0.004268297    0.001775624
     13        1           0.004281905   -0.003021625    0.000687811
     14        1           0.006665029    0.002633794   -0.002272673
     15        1           0.010038452    0.051845663    0.017745244
     16        1          -0.040833174    0.036215038   -0.003085028
     17        1           0.004604652   -0.004900413    0.000193601
     18        1          -0.004797648   -0.000913753   -0.001814572
     19        1          -0.000451342    0.005153624    0.002003251
     20        1           0.000781829   -0.001772953    0.004698483
     21        1          -0.004942687   -0.001083929   -0.001688015
     22        1          -0.000048538    0.005663108    0.000884236
     23        1           0.003534606    0.000437857   -0.003656830
     24        1          -0.005292702   -0.005672123   -0.003207143
     25        1           0.040779349   -0.037699478    0.003070137
 -------------------------------------------------------------------
 Cartesian Forces:  Max     0.055413633 RMS     0.017973472
 Leave Link  716 at Mon Feb 22 21:13:42 2021, MaxMem=   104857600 cpu:               0.8 elap:               0.1
 (Enter /sw/arch/RedHatEnterpriseServer7/EB_production/2019/software/Gaussian/g16.c01/l103.exe)

 GradGradGradGradGradGradGradGradGradGradGradGradGradGradGradGradGradGrad
 Berny optimization.
 FormGI is forming the generalized inverse of G from B-inverse, IUseBI=4.
 Internal  Forces:  Max     0.055669368 RMS     0.009674251
 Search for a local minimum.
 Step number   1 out of a maximum of  134
 All quantities printed in internal units (Hartrees-Bohrs-Radians)
 RMS Force = .96743D-02 SwitMx=.10000D-02 MixMth= 1
 Mixed Optimization -- RFO/linear search
 Second derivative matrix not updated -- first step.
 ITU=  0
     Eigenvalues ---    0.00230   0.00230   0.00723   0.00979   0.01386
     Eigenvalues ---    0.01551   0.01868   0.01926   0.01936   0.01942
     Eigenvalues ---    0.01950   0.01970   0.01984   0.02252   0.03556
     Eigenvalues ---    0.04981   0.05430   0.05441   0.05595   0.05606
     Eigenvalues ---    0.05647   0.07378   0.07516   0.16000   0.16000
     Eigenvalues ---    0.16000   0.16000   0.16000   0.16000   0.16000
     Eigenvalues ---    0.16000   0.16000   0.16000   0.16000   0.16000
     Eigenvalues ---    0.16000   0.17204   0.18573   0.22366   0.23481
     Eigenvalues ---    0.24605   0.24998   0.25000   0.25000   0.27393
     Eigenvalues ---    0.27406   0.32039   0.34128   0.34263   0.34450
     Eigenvalues ---    0.34481   0.34486   0.34503   0.34517   0.34520
     Eigenvalues ---    0.34524   0.34550   0.34579   0.39992   0.40080
     Eigenvalues ---    0.43060   0.43317   0.43717   0.43766   0.43864
     Eigenvalues ---    0.43974   0.44516   0.51723   0.53420
 RFO step:  Lambda=-2.74106615D-02 EMin= 2.30000000D-03
 Linear search not attempted -- first point.
 Iteration  1 RMS(Cart)=  0.04217791 RMS(Int)=  0.00156389
 Iteration  2 RMS(Cart)=  0.00190869 RMS(Int)=  0.00002419
 Iteration  3 RMS(Cart)=  0.00000165 RMS(Int)=  0.00002417
 Iteration  4 RMS(Cart)=  0.00000000 RMS(Int)=  0.00002417
 ITry= 1 IFail=0 DXMaxC= 2.49D-01 DCOld= 1.00D+10 DXMaxT= 3.00D-01 DXLimC= 3.00D+00 Rises=F
 Variable       Old X    -DE/DX   Delta X   Delta X   Delta X     New X
                                 (Linear)    (Quad)   (Total)
    R1        2.80414   0.01756   0.00000   0.04763   0.04763   2.85177
    R2        2.06578   0.00420   0.00000   0.01130   0.01130   2.07708
    R3        2.06518   0.00461   0.00000   0.01238   0.01238   2.07756
    R4        2.06461   0.00638   0.00000   0.01712   0.01712   2.08173
    R5        2.66779  -0.00496   0.00000  -0.01045  -0.01045   2.65734
    R6        2.66890  -0.00889   0.00000  -0.01882  -0.01882   2.65008
    R7        2.65480  -0.00372   0.00000  -0.00793  -0.00793   2.64687
    R8        1.93186   0.05567   0.00000   0.11917   0.11917   2.05103
    R9        2.67692  -0.00932   0.00000  -0.02073  -0.02073   2.65619
   R10        1.93317   0.05458   0.00000   0.11711   0.11711   2.05028
   R11        2.84073   0.00743   0.00000   0.02137   0.02137   2.86210
   R12        2.68129  -0.01082   0.00000  -0.02408  -0.02408   2.65721
   R13        2.93455  -0.00340   0.00000  -0.01129  -0.01129   2.92326
   R14        2.93484  -0.00356   0.00000  -0.01180  -0.01180   2.92304
   R15        2.06888   0.00458   0.00000   0.01237   0.01237   2.08125
   R16        2.06526   0.00516   0.00000   0.01385   0.01385   2.07911
   R17        2.06411   0.00554   0.00000   0.01485   0.01485   2.07896
   R18        2.06467   0.00491   0.00000   0.01318   0.01318   2.07785
   R19        2.06490   0.00529   0.00000   0.01420   0.01420   2.07910
   R20        2.06363   0.00572   0.00000   0.01534   0.01534   2.07897
   R21        2.06455   0.00496   0.00000   0.01331   0.01331   2.07787
   R22        2.56563   0.02132   0.00000   0.03797   0.03797   2.60360
   R23        2.66564   0.00038   0.00000   0.00092   0.00091   2.66655
   R24        1.84866  -0.00272   0.00000  -0.00500  -0.00500   1.84366
   R25        1.93495   0.05561   0.00000   0.11969   0.11969   2.05464
    A1        1.93568   0.00111   0.00000   0.00685   0.00678   1.94246
    A2        1.94131   0.00148   0.00000   0.00866   0.00859   1.94990
    A3        1.91103   0.00456   0.00000   0.02267   0.02260   1.93363
    A4        1.87933  -0.00048   0.00000   0.00058   0.00051   1.87984
    A5        1.89639  -0.00334   0.00000  -0.01929  -0.01935   1.87704
    A6        1.89907  -0.00364   0.00000  -0.02116  -0.02123   1.87784
    A7        2.10097   0.00341   0.00000   0.01189   0.01188   2.11285
    A8        2.11795  -0.00140   0.00000  -0.00545  -0.00545   2.11250
    A9        2.06420  -0.00201   0.00000  -0.00651  -0.00652   2.05768
   A10        2.10833  -0.00129   0.00000  -0.00525  -0.00525   2.10308
   A11        2.10223  -0.00134   0.00000  -0.00797  -0.00798   2.09426
   A12        2.07262   0.00263   0.00000   0.01323   0.01323   2.08585
   A13        2.11790   0.00363   0.00000   0.01354   0.01354   2.13144
   A14        2.06396   0.00117   0.00000   0.00914   0.00914   2.07310
   A15        2.10133  -0.00480   0.00000  -0.02268  -0.02268   2.07864
   A16        2.09787   0.00447   0.00000   0.01674   0.01674   2.11461
   A17        2.05566  -0.00207   0.00000  -0.00871  -0.00871   2.04695
   A18        2.12965  -0.00240   0.00000  -0.00803  -0.00803   2.12162
   A19        1.95164   0.00103   0.00000  -0.00100  -0.00109   1.95055
   A20        1.95226   0.00088   0.00000  -0.00164  -0.00173   1.95053
   A21        1.91758  -0.00250   0.00000  -0.02096  -0.02092   1.89666
   A22        1.95366  -0.00319   0.00000  -0.01503  -0.01505   1.93860
   A23        1.84157   0.00186   0.00000   0.01988   0.01994   1.86151
   A24        1.84019   0.00198   0.00000   0.02077   0.02082   1.86101
   A25        1.92336   0.00029   0.00000   0.00245   0.00243   1.92578
   A26        1.94343  -0.00024   0.00000  -0.00298  -0.00297   1.94045
   A27        1.91895   0.00138   0.00000   0.00813   0.00811   1.92706
   A28        1.89109  -0.00032   0.00000  -0.00321  -0.00321   1.88787
   A29        1.88762  -0.00020   0.00000   0.00238   0.00234   1.88996
   A30        1.89821  -0.00095   0.00000  -0.00689  -0.00688   1.89133
   A31        1.92394   0.00014   0.00000   0.00170   0.00168   1.92562
   A32        1.94449  -0.00030   0.00000  -0.00329  -0.00329   1.94120
   A33        1.92036   0.00120   0.00000   0.00712   0.00711   1.92747
   A34        1.88972  -0.00019   0.00000  -0.00242  -0.00242   1.88730
   A35        1.88683  -0.00006   0.00000   0.00301   0.00298   1.88980
   A36        1.89720  -0.00082   0.00000  -0.00618  -0.00617   1.89103
   A37        2.12413  -0.01724   0.00000  -0.06194  -0.06193   2.06220
   A38        2.10713   0.00050   0.00000   0.00137   0.00137   2.10850
   A39        2.05192   0.01674   0.00000   0.06056   0.06057   2.11249
   A40        1.82811   0.01469   0.00000   0.07837   0.07837   1.90648
   A41        2.11314   0.00124   0.00000   0.00560   0.00559   2.11873
   A42        2.09364  -0.00180   0.00000  -0.00911  -0.00911   2.08453
   A43        2.07641   0.00057   0.00000   0.00351   0.00352   2.07993
    D1        0.53665  -0.00039   0.00000  -0.00189  -0.00189   0.53477
    D2       -2.61762  -0.00068   0.00000  -0.00836  -0.00837  -2.62599
    D3        2.62771   0.00073   0.00000   0.00914   0.00915   2.63686
    D4       -0.52656   0.00044   0.00000   0.00268   0.00267  -0.52389
    D5       -1.55596   0.00012   0.00000   0.00314   0.00316  -1.55280
    D6        1.57295  -0.00017   0.00000  -0.00332  -0.00333   1.56963
    D7        3.13560  -0.00054   0.00000  -0.01168  -0.01169   3.12391
    D8       -0.00723  -0.00050   0.00000  -0.01082  -0.01083  -0.01806
    D9        0.00630  -0.00027   0.00000  -0.00541  -0.00540   0.00090
   D10       -3.13653  -0.00022   0.00000  -0.00455  -0.00455  -3.14108
   D11       -3.13719   0.00052   0.00000   0.01173   0.01170  -3.12549
   D12        0.00518   0.00049   0.00000   0.01115   0.01112   0.01630
   D13       -0.00802   0.00028   0.00000   0.00553   0.00555  -0.00247
   D14        3.13435   0.00025   0.00000   0.00495   0.00497   3.13932
   D15       -0.00106   0.00011   0.00000   0.00232   0.00233   0.00127
   D16        3.13938   0.00002   0.00000   0.00042   0.00040   3.13979
   D17       -3.14144   0.00007   0.00000   0.00150   0.00150  -3.13994
   D18       -0.00099  -0.00002   0.00000  -0.00041  -0.00043  -0.00142
   D19        3.13863  -0.00005   0.00000  -0.00140  -0.00141   3.13723
   D20       -0.00256   0.00004   0.00000   0.00073   0.00074  -0.00182
   D21       -0.00179   0.00003   0.00000   0.00052   0.00051  -0.00128
   D22        3.14020   0.00012   0.00000   0.00266   0.00265  -3.14033
   D23       -1.10694   0.00142   0.00000   0.01218   0.01219  -1.09475
   D24        1.10009  -0.00134   0.00000  -0.01003  -0.01004   1.09005
   D25        3.13750   0.00007   0.00000   0.00143   0.00143   3.13893
   D26        2.03424   0.00132   0.00000   0.00995   0.00996   2.04419
   D27       -2.04191  -0.00143   0.00000  -0.01227  -0.01228  -2.05420
   D28       -0.00451  -0.00003   0.00000  -0.00081  -0.00081  -0.00532
   D29        3.14043  -0.00005   0.00000  -0.00139  -0.00137   3.13906
   D30        0.00085  -0.00002   0.00000  -0.00060  -0.00061   0.00024
[...]
 - dispersion energy not included in the total energy.
 - repulsion  energy not included in the total energy.
 After PCM corrections, the energy is  -464.884839951     a.u.
 --------------------------------------------------------------------
 Writing COSMO formatted file "MGSRCZKZVOBKFT-UHFFFAOYSA-N.cosmo"
 Recomputed dielectric energy= -0.013501 old= -0.013421 diff=-8.00D-05

 **********************************************************************

            Population analysis using the SCF Density.

 **********************************************************************

 Orbital symmetries:
       Occupied  (A) (A) (A) (A) (A) (A) (A) (A) (A) (A) (A) (A)
                 (A) (A) (A) (A) (A) (A) (A) (A) (A) (A) (A) (A)
                 (A) (A) (A) (A) (A) (A) (A) (A) (A) (A) (A) (A)
                 (A) (A) (A) (A) (A)
       Virtual   (A) (A) (A) (A) (A) (A) (A) (A) (A) (A) (A) (A)
                 (A) (A) (A) (A) (A) (A) (A) (A) (A) (A) (A) (A)
                 (A) (A) (A) (A) (A) (A) (A) (A) (A) (A) (A) (A)
                 (A) (A) (A) (A) (A) (A) (A) (A) (A) (A) (A) (A)
                 (A) (A) (A) (A) (A) (A) (A) (A) (A) (A) (A) (A)
                 (A) (A) (A) (A) (A) (A) (A) (A) (A) (A) (A) (A)
                 (A) (A) (A) (A) (A) (A) (A) (A) (A) (A) (A) (A)
                 (A) (A) (A) (A) (A) (A) (A) (A) (A) (A) (A) (A)
                 (A) (A) (A) (A) (A) (A) (A) (A) (A) (A) (A) (A)
                 (A) (A) (A) (A) (A) (A) (A) (A) (A) (A) (A) (A)
                 (A) (A) (A) (A) (A) (A) (A) (A) (A) (A) (A) (A)
                 (A) (A) (A) (A) (A) (A) (A) (A) (A) (A) (A) (A)
                 (A) (A) (A) (A) (A) (A) (A) (A) (A) (A) (A) (A)
                 (A) (A) (A) (A) (A) (A) (A) (A) (A) (A) (A) (A)
                 (A) (A) (A) (A) (A) (A) (A) (A) (A) (A) (A) (A)
                 (A) (A) (A) (A) (A) (A) (A) (A) (A) (A) (A) (A)
                 (A) (A) (A) (A) (A) (A) (A) (A) (A) (A) (A) (A)
                 (A) (A) (A) (A) (A) (A) (A) (A) (A) (A) (A) (A)
                 (A) (A) (A) (A) (A) (A) (A) (A) (A) (A) (A) (A)
                 (A) (A) (A) (A) (A) (A) (A) (A) (A) (A) (A) (A)
                 (A) (A) (A) (A) (A) (A) (A) (A) (A) (A) (A) (A)
 The electronic state is 1-A.
 Alpha  occ. eigenvalues --  -18.79979  -9.95939  -9.91060  -9.90416  -9.90268
 Alpha  occ. eigenvalues --   -9.89827  -9.89677  -9.89178  -9.89035  -9.88297
 Alpha  occ. eigenvalues --   -9.88293  -0.97282  -0.78264  -0.73338  -0.68349
 Alpha  occ. eigenvalues --   -0.66878  -0.62014  -0.61410  -0.56479  -0.54196
 Alpha  occ. eigenvalues --   -0.50480  -0.48134  -0.44537  -0.41944  -0.38705
 Alpha  occ. eigenvalues --   -0.38334  -0.38294  -0.37953  -0.36731  -0.35910
 Alpha  occ. eigenvalues --   -0.34723  -0.33746  -0.33529  -0.32193  -0.31403
 Alpha  occ. eigenvalues --   -0.30212  -0.28854  -0.28443  -0.27992  -0.22005
 Alpha  occ. eigenvalues --   -0.19910
 Alpha virt. eigenvalues --   -0.04388  -0.02828   0.02460   0.03644   0.04283
 Alpha virt. eigenvalues --    0.05658   0.07157   0.07449   0.08315   0.08563
 Alpha virt. eigenvalues --    0.09292   0.10083   0.10272   0.11795   0.11962
 Alpha virt. eigenvalues --    0.12282   0.13331   0.13822   0.14144   0.15704
 Alpha virt. eigenvalues --    0.16298   0.16882   0.18077   0.18573   0.19550
 Alpha virt. eigenvalues --    0.20421   0.20914   0.21462   0.22020   0.22917
 Alpha virt. eigenvalues --    0.23694   0.24509   0.25383   0.26239   0.26983
 Alpha virt. eigenvalues --    0.28870   0.29268   0.30038   0.30885   0.31960
 Alpha virt. eigenvalues --    0.32559   0.33330   0.33748   0.34737   0.35732
 Alpha virt. eigenvalues --    0.36425   0.37356   0.38831   0.39530   0.40013
 Alpha virt. eigenvalues --    0.40487   0.40918   0.41459   0.41631   0.41968
 Alpha virt. eigenvalues --    0.42063   0.43741   0.44219   0.44970   0.45119
 Alpha virt. eigenvalues --    0.45563   0.46190   0.47041   0.47403   0.48228
 Alpha virt. eigenvalues --    0.49873   0.52464   0.52887   0.53914   0.54994
 Alpha virt. eigenvalues --    0.56373   0.56655   0.58845   0.60953   0.61314
 Alpha virt. eigenvalues --    0.63028   0.64024   0.64987   0.66859   0.69325
 Alpha virt. eigenvalues --    0.71159   0.73215   0.76012   0.78686   0.85782
 Alpha virt. eigenvalues --    0.89163   1.04282   1.10316   1.11898   1.18031
 Alpha virt. eigenvalues --    1.18249   1.19547   1.20365   1.20858   1.21789
 Alpha virt. eigenvalues --    1.22629   1.23973   1.24793   1.25314   1.25765
 Alpha virt. eigenvalues --    1.26366   1.27479   1.28500   1.29884   1.30084
 Alpha virt. eigenvalues --    1.30971   1.31794   1.33037   1.34621   1.34905
 Alpha virt. eigenvalues --    1.35446   1.37287   1.37738   1.38476   1.38564
 Alpha virt. eigenvalues --    1.39495   1.39878   1.40983   1.43394   1.44116
 Alpha virt. eigenvalues --    1.44475   1.45612   1.46738   1.47622   1.48638
 Alpha virt. eigenvalues --    1.48851   1.50199   1.51261   1.53180   1.53572
 Alpha virt. eigenvalues --    1.54165   1.55882   1.57840   1.59656   1.60287
 Alpha virt. eigenvalues --    1.61723   1.63036   1.66743   1.69295   1.69831
 Alpha virt. eigenvalues --    1.70881   1.72365   1.73488   1.73493   1.73967
 Alpha virt. eigenvalues --    1.75030   1.75772   1.76789   1.78517   1.80107
 Alpha virt. eigenvalues --    1.81092   1.82301   1.83590   1.84589   1.87279
 Alpha virt. eigenvalues --    1.88824   1.88969   1.90428   1.92306   1.93541
 Alpha virt. eigenvalues --    1.95528   1.99992   2.00347   2.02522   2.03559
 Alpha virt. eigenvalues --    2.07512   2.09743   2.11699   2.13864   2.16266
 Alpha virt. eigenvalues --    2.18282   2.18569   2.21274   2.22347   2.23152
 Alpha virt. eigenvalues --    2.23664   2.24558   2.25351   2.26463   2.26535
 Alpha virt. eigenvalues --    2.27124   2.28350   2.31586   2.32623   2.33870
 Alpha virt. eigenvalues --    2.36046   2.36692   2.38159   2.44906   2.46037
 Alpha virt. eigenvalues --    2.47050   2.48307   2.50393   2.53065   2.53861
 Alpha virt. eigenvalues --    2.54983   2.55083   2.56769   2.57125   2.58463
 Alpha virt. eigenvalues --    2.59119   2.59956   2.61547   2.62357   2.63329
 Alpha virt. eigenvalues --    2.65266   2.67024   2.67826   2.72594   2.77048
 Alpha virt. eigenvalues --    2.81978   2.84087   2.88410   2.91235   2.92524
 Alpha virt. eigenvalues --    2.96262   2.99766   3.00044   3.01270   3.06366
 Alpha virt. eigenvalues --    3.08720   3.11646   3.12509   3.14740   3.16604
 Alpha virt. eigenvalues --    3.20627   3.23418   3.24376   3.24869   3.25871
 Alpha virt. eigenvalues --    3.27616   3.27673   3.28591   3.30045   3.34381
 Alpha virt. eigenvalues --    3.34585   3.37644   3.49396   3.54613   3.93805
 Alpha virt. eigenvalues --    4.19945  21.08380  21.55981  21.63891  21.77154
 Alpha virt. eigenvalues --   21.80782  21.82245  21.84775  21.87886  21.93161
 Alpha virt. eigenvalues --   21.99575  43.21117
          Condensed to atoms (all electrons):
               1          2          3          4          5          6
     1  C    5.152455   0.274537  -0.091341   0.025388  -0.002318  -0.000025
     2  C    0.274537   5.361891   0.369495   0.003709  -0.069224   0.003903
     3  C   -0.091341   0.369495   5.298746   0.310034   0.049766   0.015673
     4  C    0.025388   0.003709   0.310034   5.231464   0.235144  -0.034847
     5  C   -0.002318  -0.069224   0.049766   0.235144   6.143163   0.078742
     6  C   -0.000025   0.003903   0.015673  -0.034847   0.078742   5.426313
     7  C   -0.000028  -0.001362   0.002564  -0.013823  -0.058977   0.261356
     8  C    0.000010  -0.000497   0.002179  -0.013429  -0.061660   0.253596
     9  C    0.016308   0.062621  -0.162460   0.098106   0.175036  -0.103590
    10  O   -0.000189   0.017063   0.001537   0.004249  -0.112686  -0.004443
    11  C   -0.091669   0.176956  -0.008487  -0.121040  -0.131005   0.001801
    12  H    0.415283  -0.052820  -0.004300   0.001601   0.000195   0.000006
    13  H    0.414024  -0.050223   0.008109  -0.001373   0.000330   0.000007
    14  H    0.395052  -0.026810  -0.005546  -0.001108   0.000197  -0.000007
    15  H   -0.013552  -0.077660   0.432049  -0.048897   0.016941  -0.000434
    16  H   -0.000680   0.016594  -0.053852   0.448406  -0.098835  -0.000785
    17  H    0.000004  -0.000243  -0.001254   0.011006  -0.117756   0.480396
    18  H    0.000000   0.000022  -0.000045   0.000803   0.019514  -0.051838
    19  H   -0.000003   0.000330  -0.001056   0.008182  -0.032042  -0.017444
    20  H   -0.000001  -0.000172   0.000057  -0.002613   0.007775  -0.047095
    21  H    0.000000  -0.000001   0.000018   0.000677   0.019488  -0.051331
    22  H   -0.000004   0.000299  -0.001041   0.008139  -0.031744  -0.017544
    23  H   -0.000004  -0.000204   0.000067  -0.002567   0.008142  -0.047375
    24  H   -0.000136   0.003578   0.000101  -0.001389   0.019349   0.001798
    25  H   -0.007772  -0.049638   0.012414  -0.000367   0.020386  -0.001000
               7          8          9         10         11         12
     1  C   -0.000028   0.000010   0.016308  -0.000189  -0.091669   0.415283
     2  C   -0.001362  -0.000497   0.062621   0.017063   0.176956  -0.052820
     3  C    0.002564   0.002179  -0.162460   0.001537  -0.008487  -0.004300
     4  C   -0.013823  -0.013429   0.098106   0.004249  -0.121040   0.001601
     5  C   -0.058977  -0.061660   0.175036  -0.112686  -0.131005   0.000195
     6  C    0.261356   0.253596  -0.103590  -0.004443   0.001801   0.000006
     7  C    5.199660  -0.103175  -0.001240   0.000874   0.000497  -0.000000
     8  C   -0.103175   5.205765   0.005195   0.000949  -0.000508  -0.000000
     9  C   -0.001240   0.005195   5.149446   0.378231   0.336698  -0.000545
    10  O    0.000874   0.000949   0.378231   7.823326  -0.099620   0.000006
    11  C    0.000497  -0.000508   0.336698  -0.099620   5.716737   0.009045
    12  H   -0.000000  -0.000000  -0.000545   0.000006   0.009045   0.521847
    13  H   -0.000003   0.000002   0.001100  -0.000015  -0.004358  -0.027120
    14  H    0.000003  -0.000004  -0.001440  -0.000005  -0.006249  -0.022935
    15  H    0.000031   0.000003  -0.000702   0.000014   0.018195   0.001870
    16  H   -0.003912  -0.003272   0.023214  -0.000135  -0.000275  -0.000006
    17  H   -0.041825  -0.042557   0.007980   0.019705   0.001450  -0.000000
    18  H    0.397153   0.000673  -0.000419   0.000033   0.000025   0.000000
    19  H    0.402587  -0.012156   0.002889  -0.000012  -0.000548   0.000000
    20  H    0.394168   0.014036   0.000709   0.000326  -0.000129  -0.000000
    21  H    0.000595   0.397069  -0.000686   0.000034   0.000039  -0.000000
    22  H   -0.011705   0.401641   0.002785  -0.000017  -0.000524   0.000000
    23  H    0.013925   0.394535   0.000329   0.000289  -0.000093  -0.000000
    24  H   -0.000098  -0.000095  -0.031526   0.303369  -0.018683   0.000002
    25  H    0.000048   0.000037  -0.051418  -0.005318   0.406632   0.000188
              13         14         15         16         17         18
     1  C    0.414024   0.395052  -0.013552  -0.000680   0.000004   0.000000
     2  C   -0.050223  -0.026810  -0.077660   0.016594  -0.000243   0.000022
     3  C    0.008109  -0.005546   0.432049  -0.053852  -0.001254  -0.000045
     4  C   -0.001373  -0.001108  -0.048897   0.448406   0.011006   0.000803
     5  C    0.000330   0.000197   0.016941  -0.098835  -0.117756   0.019514
     6  C    0.000007  -0.000007  -0.000434  -0.000785   0.480396  -0.051838
     7  C   -0.000003   0.000003   0.000031  -0.003912  -0.041825   0.397153
     8  C    0.000002  -0.000004   0.000003  -0.003272  -0.042557   0.000673
     9  C    0.001100  -0.001440  -0.000702   0.023214   0.007980  -0.000419
    10  O   -0.000015  -0.000005   0.000014  -0.000135   0.019705   0.000033
    11  C   -0.004358  -0.006249   0.018195  -0.000275   0.001450   0.000025
    12  H   -0.027120  -0.022935   0.001870  -0.000006  -0.000000   0.000000
    13  H    0.528972  -0.027319   0.000188   0.000011   0.000000   0.000000
    14  H   -0.027319   0.530895   0.000313   0.000014  -0.000000  -0.000000
    15  H    0.000188   0.000313   0.538527  -0.005975   0.000003  -0.000002
    16  H    0.000011   0.000014  -0.005975   0.527714   0.000542   0.000023
    17  H    0.000000  -0.000000   0.000003   0.000542   0.515663  -0.003558
    18  H    0.000000  -0.000000  -0.000002   0.000023  -0.003558   0.533985
    19  H    0.000000  -0.000000  -0.000008   0.002490   0.006708  -0.025317
    20  H    0.000000  -0.000000   0.000007   0.000232  -0.003735  -0.021295
    21  H   -0.000000   0.000000  -0.000001  -0.000036  -0.003559   0.001810
    22  H    0.000000   0.000000  -0.000001   0.002592   0.006725  -0.000268
    23  H   -0.000000   0.000001   0.000007   0.000220  -0.003700  -0.000200
    24  H    0.000014   0.000003  -0.000003   0.000027  -0.000350  -0.000001
    25  H    0.000741   0.000196  -0.000191   0.000011  -0.000080  -0.000001
              19         20         21         22         23         24
     1  C   -0.000003  -0.000001   0.000000  -0.000004  -0.000004  -0.000136
     2  C    0.000330  -0.000172  -0.000001   0.000299  -0.000204   0.003578
     3  C   -0.001056   0.000057   0.000018  -0.001041   0.000067   0.000101
     4  C    0.008182  -0.002613   0.000677   0.008139  -0.002567  -0.001389
     5  C   -0.032042   0.007775   0.019488  -0.031744   0.008142   0.019349
     6  C   -0.017444  -0.047095  -0.051331  -0.017544  -0.047375   0.001798
     7  C    0.402587   0.394168   0.000595  -0.011705   0.013925  -0.000098
     8  C   -0.012156   0.014036   0.397069   0.401641   0.394535  -0.000095
     9  C    0.002889   0.000709  -0.000686   0.002785   0.000329  -0.031526
    10  O   -0.000012   0.000326   0.000034  -0.000017   0.000289   0.303369
    11  C   -0.000548  -0.000129   0.000039  -0.000524  -0.000093  -0.018683
    12  H    0.000000  -0.000000  -0.000000   0.000000  -0.000000   0.000002
    13  H    0.000000   0.000000  -0.000000   0.000000  -0.000000   0.000014
    14  H   -0.000000  -0.000000   0.000000   0.000000   0.000001   0.000003
    15  H   -0.000008   0.000007  -0.000001  -0.000001   0.000007  -0.000003
    16  H    0.002490   0.000232  -0.000036   0.002592   0.000220   0.000027
    17  H    0.006708  -0.003735  -0.003559   0.006725  -0.003700  -0.000350
    18  H   -0.025317  -0.021295   0.001810  -0.000268  -0.000200  -0.000001
    19  H    0.540778  -0.025529  -0.000265   0.005864  -0.000191   0.000010
    20  H   -0.025529   0.540020  -0.000197  -0.000202  -0.000491  -0.000024
    21  H   -0.000265  -0.000197   0.533900  -0.025376  -0.021318  -0.000002
    22  H    0.005864  -0.000202  -0.025376   0.541198  -0.025522   0.000010
    23  H   -0.000191  -0.000491  -0.021318  -0.025522   0.539976  -0.000022
    24  H    0.000010  -0.000024  -0.000002   0.000010  -0.000022   0.393651
    25  H   -0.000005   0.000007  -0.000001  -0.000004   0.000007   0.003077
              25
     1  C   -0.007772
     2  C   -0.049638
     3  C    0.012414
     4  C   -0.000367
     5  C    0.020386
     6  C   -0.001000
     7  C    0.000048
     8  C    0.000037
     9  C   -0.051418
    10  O   -0.005318
    11  C    0.406632
    12  H    0.000188
    13  H    0.000741
    14  H    0.000196
    15  H   -0.000191
    16  H    0.000011
    17  H   -0.000080
    18  H   -0.000001
    19  H   -0.000005
    20  H    0.000007
    21  H   -0.000001
    22  H   -0.000004
    23  H    0.000007
    24  H    0.003077
    25  H    0.523103
 Mulliken charges:
               1
     1  C   -0.485337
     2  C    0.037855
     3  C   -0.173428
     4  C   -0.145453
     5  C   -0.077922
     6  C   -0.145831
     7  C   -0.437312
     8  C   -0.438337
     9  C    0.093380
    10  O   -0.327564
    11  C   -0.184888
    12  H    0.157683
    13  H    0.156914
    14  H    0.164751
    15  H    0.139279
    16  H    0.145673
    17  H    0.168434
    18  H    0.148900
    19  H    0.144738
    20  H    0.144149
    21  H    0.149140
    22  H    0.144697
    23  H    0.144190
    24  H    0.327342
    25  H    0.148947
 Sum of Mulliken charges =  -0.00000
 Mulliken charges with hydrogens summed into heavy atoms:
               1
     1  C   -0.005989
     2  C    0.037855
     3  C   -0.034149
     4  C    0.000220
     5  C   -0.077922
     6  C    0.022603
     7  C    0.000475
     8  C   -0.000309
     9  C    0.093380
    10  O   -0.000222
    11  C   -0.035941
 Electronic spatial extent (au):  <R**2>=           2056.7038
 Charge=              0.0000 electrons
 Dipole moment (field-independent basis, Debye):
    X=              1.7064    Y=              0.9710    Z=              0.0584  Tot=              1.9642
 Quadrupole moment (field-independent basis, Debye-Ang):
   XX=            -61.2053   YY=            -59.3318   ZZ=            -72.0886
   XY=              4.9245   XZ=              0.1801   YZ=              0.0289
 Traceless Quadrupole moment (field-independent basis, Debye-Ang):
   XX=              3.0033   YY=              4.8767   ZZ=             -7.8800
   XY=              4.9245   XZ=              0.1801   YZ=              0.0289
 Octapole moment (field-independent basis, Debye-Ang**2):
  XXX=             13.0734  YYY=             29.9470  ZZZ=              0.9911  XYY=             17.3955
  XXY=              4.1917  XXZ=              0.5668  XZZ=             -1.2154  YZZ=              6.0069
  YYZ=             -0.6822  XYZ=             -0.0724
 Hexadecapole moment (field-independent basis, Debye-Ang**3):
 XXXX=          -1890.7136 YYYY=           -472.1460 ZZZZ=           -269.0454 XXXY=             -9.0448
 XXXZ=              1.1519 YYYX=             34.5193 YYYZ=              1.7100 ZZZX=              3.2769
 ZZZY=             -0.3564 XXYY=           -416.3423 XXZZ=           -385.4453 YYZZ=           -153.5768
 XXYZ=             -0.4775 YYXZ=             -2.4801 ZZXY=             -1.8278
 N-N= 6.015642679327D+02 E-N=-2.284239255794D+03  KE= 4.625455643698D+02
 Unable to Open any file for archive entry.
 1\1\GINC-TCN1682\SP\RBP86\TZVP\C10H14O1\ELENAA\22-Feb-2021\0\\# BP86/T
 ZVP SCRF=COSMORS geom=CHECKPOINT guess=CHECKPOINT\\COSMO-file for #MGS
 RCZKZVOBKFT-UHFFFAOYSA-N\\0,1\C,0,5.3448601283,1.1841003495,0.82372870
 96\C,0,3.9768528377,0.7958194757,0.3132403692\C,0,2.9316691482,1.73082
 75127,0.2383304724\C,0,1.6834948263,1.3561878002,-0.2697510191\C,0,1.4
 154209426,0.0544941988,-0.7198903686\C,0,0.0454180034,-0.3284482502,-1
 .2635320509\C,0,-1.0460821225,-0.1852646194,-0.1841807222\C,0,-0.30919
 67458,0.4894580326,-2.5211838927\C,0,2.4700974702,-0.8784476257,-0.637
 2607153\O,0,2.2250735181,-2.168014464,-1.0700893828\C,0,3.7257938909,-
 0.5110463115,-0.1293484501\H,0,5.2934678724,2.0733415541,1.4683297303\
 H,0,5.8088013268,0.3680055444,1.3975757228\H,0,6.0235390749,1.42128928
 84,-0.0125289016\H,0,3.0949256259,2.7557692453,0.5806432358\H,0,0.8857
 135461,2.1023379932,-0.3154522773\H,0,0.0886756912,-1.3881557231,-1.55
 59030987\H,0,-2.0211299828,-0.5192394695,-0.5725388518\H,0,-1.15259089
 86,0.8640415652,0.1341251697\H,0,-0.8050247548,-0.7862314877,0.7057793
 723\H,0,-1.2755004433,0.1619263142,-2.9359299455\H,0,-0.3912691386,1.5
 626692896,-2.2864170718\H,0,0.4586441427,0.3711896303,-3.3007473849\H,
 0,3.0358003273,-2.6972779389,-0.95583333\H,0,4.5208045025,-1.262538713
 4,-0.0776097149\\Version=ES64L-G16RevC.01\State=1-A\HF=-464.88484\RMSD
 =3.971e-09\Dipole=0.7210044,-0.240941,0.1388847\Quadrupole=3.3626525,1
 .777456,-5.1401085,-3.9493651,1.7204022,0.8057375\PG=C01 [X(C10H14O1)]
 \\@
 The archive entry for this job was punched.


 A SCIENTIST IS SOMEONE WHOSE CURIOSITY SURVIVES
 EDUCATION'S ASSAULTS ON IT.
                          - SIR HERMANN BONDI
 Job cpu time:       0 days  0 hours  8 minutes 25.8 seconds.
 Elapsed time:       0 days  0 hours  0 minutes 16.4 seconds.
 File lengths (MBytes):  RWF=     71 Int=      0 D2E=      0 Chk=     10 Scr=      1
 Normal termination of Gaussian 16 at Mon Feb 22 21:19:29 2021.
