 Entering Gaussian System, Link 0=g16
 Input=MUBZPKHOEPUJKR-UHFFFAOYSA-N.gjf
 Output=MUBZPKHOEPUJKR-UHFFFAOYSA-N.log
 Initial command:
 /sw/arch/RedHatEnterpriseServer7/EB_production/2019/software/Gaussian/g16.c01/l1.exe "/scratch-local/elenaa.9715239/Gau-8249.inp" -scrdir="/scratch-local/elenaa.9715239/"
 Entering Link 1 = /sw/arch/RedHatEnterpriseServer7/EB_production/2019/software/Gaussian/g16.c01/l1.exe PID=      8253.
  
 Copyright (c) 1988-2019, Gaussian, Inc.  All Rights Reserved.
  
 This is part of the Gaussian(R) 16 program.  It is based on
 the Gaussian(R) 09 system (copyright 2009, Gaussian, Inc.),
 the Gaussian(R) 03 system (copyright 2003, Gaussian, Inc.),
 the Gaussian(R) 98 system (copyright 1998, Gaussian, Inc.),
 the Gaussian(R) 94 system (copyright 1995, Gaussian, Inc.),
 the Gaussian 92(TM) system (copyright 1992, Gaussian, Inc.),
 the Gaussian 90(TM) system (copyright 1990, Gaussian, Inc.),
 the Gaussian 88(TM) system (copyright 1988, Gaussian, Inc.),
 the Gaussian 86(TM) system (copyright 1986, Carnegie Mellon
 University), and the Gaussian 82(TM) system (copyright 1983,
 Carnegie Mellon University). Gaussian is a federally registered
 trademark of Gaussian, Inc.
  
 This software contains proprietary and confidential information,
 including trade secrets, belonging to Gaussian, Inc.
  
 This software is provided under written license and may be
 used, copied, transmitted, or stored only in accord with that
 written license.
  
 The following legend is applicable only to US Government
 contracts under FAR:
  
                    RESTRICTED RIGHTS LEGEND
  
 Use, reproduction and disclosure by the US Government is
 subject to restrictions as set forth in subparagraphs (a)
 and (c) of the Commercial Computer Software - Restricted
 Rights clause in FAR 52.227-19.
  
 Gaussian, Inc.
 340 Quinnipiac St., Bldg. 40, Wallingford CT 06492
  
  
 ---------------------------------------------------------------
 Warning -- This program may not be used in any manner that
 competes with the business of Gaussian, Inc. or will provide
 assistance to any competitor of Gaussian, Inc.  The licensee
 of this program is prohibited from giving any competitor of
 Gaussian, Inc. access to this program.  By using this program,
 the user acknowledges that Gaussian, Inc. is engaged in the
 business of creating and licensing software in the field of
 computational chemistry and represents and warrants to the
 licensee that it is not a competitor of Gaussian, Inc. and that
 it will not use this program in any manner prohibited above.
 ---------------------------------------------------------------
  

 Cite this work as:
 Gaussian 16, Revision C.01,
 M. J. Frisch, G. W. Trucks, H. B. Schlegel, G. E. Scuseria, 
 M. A. Robb, J. R. Cheeseman, G. Scalmani, V. Barone, 
 G. A. Petersson, H. Nakatsuji, X. Li, M. Caricato, A. V. Marenich, 
 J. Bloino, B. G. Janesko, R. Gomperts, B. Mennucci, H. P. Hratchian, 
 J. V. Ortiz, A. F. Izmaylov, J. L. Sonnenberg, D. Williams-Young, 
 F. Ding, F. Lipparini, F. Egidi, J. Goings, B. Peng, A. Petrone, 
 T. Henderson, D. Ranasinghe, V. G. Zakrzewski, J. Gao, N. Rega, 
 G. Zheng, W. Liang, M. Hada, M. Ehara, K. Toyota, R. Fukuda, 
 J. Hasegawa, M. Ishida, T. Nakajima, Y. Honda, O. Kitao, H. Nakai, 
 T. Vreven, K. Throssell, J. A. Montgomery, Jr., J. E. Peralta, 
 F. Ogliaro, M. J. Bearpark, J. J. Heyd, E. N. Brothers, K. N. Kudin, 
 V. N. Staroverov, T. A. Keith, R. Kobayashi, J. Normand, 
 K. Raghavachari, A. P. Rendell, J. C. Burant, S. S. Iyengar, 
 J. Tomasi, M. Cossi, J. M. Millam, M. Klene, C. Adamo, R. Cammi, 
 J. W. Ochterski, R. L. Martin, K. Morokuma, O. Farkas, 
 J. B. Foresman, and D. J. Fox, Gaussian, Inc., Wallingford CT, 2019.
 
 ******************************************
 Gaussian 16:  ES64L-G16RevC.01  3-Jul-2019
                22-Feb-2021 
 ******************************************
 %chk=MUBZPKHOEPUJKR-UHFFFAOYSA-N.chk
 %NProcShared=32
 Will use up to   32 processors via shared memory.
 -------------------------------------------------------------
 #P BP86/TZVP EmpiricalDispersion=GD3 SCRF=(Solvent=Water) Opt
 -------------------------------------------------------------
 1/18=20,19=15,26=3,38=1/1,3;
 2/9=110,12=2,17=6,18=5,40=1/2;
 3/5=19,7=101,11=2,25=1,30=1,70=2201,71=1,72=1,74=404,124=31/1,2,3;
 4//1;
 5/5=2,38=5,53=1/2;
 6/7=2,8=2,9=2,10=2,28=1/1;
 7//1,2,3,16;
 1/18=20,19=15,26=3/3(2);
 2/9=110/2;
 99//99;
 2/9=110/2;
 3/5=19,7=101,11=2,25=1,30=1,70=2205,71=1,72=1,74=404,124=31/1,2,3;
 4/5=5,16=3,69=1/1;
 5/5=2,38=5,53=1/2;
 7//1,2,3,16;
 1/18=20,19=15,26=3/3(-5);
 2/9=110/2;
 6/7=2,8=2,9=2,10=2,19=2,28=1/1;
 99/9=1/99;
 Leave Link    1 at Mon Feb 22 21:13:41 2021, MaxMem=           0 cpu:               2.1 elap:               0.1
 (Enter /sw/arch/RedHatEnterpriseServer7/EB_production/2019/software/Gaussian/g16.c01/l101.exe)
 -------------------------------------
 Particle #MUBZPKHOEPUJKR-UHFFFAOYSA-N
 -------------------------------------
 Symbolic Z-matrix:
 Charge =  0 Multiplicity = 1
 O                    -0.96245   0.90089  -0.49709 
 C                     0.00774   0.21003  -0.11236 
 O                     1.25428   0.7149   -0.26062 
 C                    -0.1925   -1.05421   0.45742 
 O                     0.77793  -1.74392   0.84163 
 O                    -1.43981  -1.55771   0.60499 
 H                     1.38148   1.60059  -0.66067 
 H                    -1.57208  -2.44262   1.00435 
 
 ITRead=  0  0  0  0  0  0  0  0
 MicOpt= -1 -1 -1 -1 -1 -1 -1 -1
 NAtoms=      8 NQM=        8 NQMF=       0 NMMI=      0 NMMIF=      0
                NMic=       0 NMicF=      0.
                    Isotopes and Nuclear Properties:
 (Nuclear quadrupole moments (NQMom) in fm**2, nuclear magnetic moments (NMagM)
  in nuclear magnetons)

  Atom         1           2           3           4           5           6           7           8
 IAtWgt=          16          12          16          12          16          16           1           1
 AtmWgt=  15.9949146  12.0000000  15.9949146  12.0000000  15.9949146  15.9949146   1.0078250   1.0078250
 NucSpn=           0           0           0           0           0           0           1           1
 AtZEff=  -0.0000000  -0.0000000  -0.0000000  -0.0000000  -0.0000000  -0.0000000  -0.0000000  -0.0000000
 NQMom=    0.0000000   0.0000000   0.0000000   0.0000000   0.0000000   0.0000000   0.0000000   0.0000000
 NMagM=    0.0000000   0.0000000   0.0000000   0.0000000   0.0000000   0.0000000   2.7928460   2.7928460
 AtZNuc=   8.0000000   6.0000000   8.0000000   6.0000000   8.0000000   8.0000000   1.0000000   1.0000000
 Leave Link  101 at Mon Feb 22 21:13:41 2021, MaxMem=   104857600 cpu:               2.3 elap:               0.1
 (Enter /sw/arch/RedHatEnterpriseServer7/EB_production/2019/software/Gaussian/g16.c01/l103.exe)

 GradGradGradGradGradGradGradGradGradGradGradGradGradGradGradGradGradGrad
 Berny optimization.
 Initialization pass.
                           ----------------------------
                           !    Initial Parameters    !
                           ! (Angstroms and Degrees)  !
 --------------------------                            --------------------------
 ! Name  Definition              Value          Derivative Info.                !
 --------------------------------------------------------------------------------
 ! R1    R(1,2)                  1.2516         estimate D2E/DX2                !
 ! R2    R(2,3)                  1.353          estimate D2E/DX2                !
 ! R3    R(2,4)                  1.4011         estimate D2E/DX2                !
 ! R4    R(3,7)                  0.9801         estimate D2E/DX2                !
 ! R5    R(4,5)                  1.251          estimate D2E/DX2                !
 ! R6    R(4,6)                  1.3532         estimate D2E/DX2                !
 ! R7    R(6,8)                  0.9798         estimate D2E/DX2                !
 ! A1    A(1,2,3)              118.3258         estimate D2E/DX2                !
 ! A2    A(1,2,4)              120.8157         estimate D2E/DX2                !
 ! A3    A(3,2,4)              120.8584         estimate D2E/DX2                !
 ! A4    A(2,3,7)              120.0971         estimate D2E/DX2                !
 ! A5    A(2,4,5)              120.7639         estimate D2E/DX2                !
 ! A6    A(2,4,6)              120.7859         estimate D2E/DX2                !
 ! A7    A(5,4,6)              118.4501         estimate D2E/DX2                !
 ! A8    A(4,6,8)              120.3266         estimate D2E/DX2                !
 ! D1    D(1,2,3,7)              0.0005         estimate D2E/DX2                !
 ! D2    D(4,2,3,7)           -179.9994         estimate D2E/DX2                !
 ! D3    D(1,2,4,5)            179.9997         estimate D2E/DX2                !
 ! D4    D(1,2,4,6)              0.0004         estimate D2E/DX2                !
 ! D5    D(3,2,4,5)             -0.0004         estimate D2E/DX2                !
 ! D6    D(3,2,4,6)           -179.9998         estimate D2E/DX2                !
 ! D7    D(2,4,6,8)           -179.9998         estimate D2E/DX2                !
 ! D8    D(5,4,6,8)              0.0009         estimate D2E/DX2                !
 --------------------------------------------------------------------------------
 Trust Radius=3.00D-01 FncErr=1.00D-07 GrdErr=1.00D-06 EigMax=2.50D+02 EigMin=1.00D-04
 Number of steps in this run=     33 maximum allowed number of steps=    100.
 GradGradGradGradGradGradGradGradGradGradGradGradGradGradGradGradGradGrad

 Leave Link  103 at Mon Feb 22 21:13:41 2021, MaxMem=   104857600 cpu:               0.5 elap:               0.0
 (Enter /sw/arch/RedHatEnterpriseServer7/EB_production/2019/software/Gaussian/g16.c01/l202.exe)
                          Input orientation:                          
 ---------------------------------------------------------------------
 Center     Atomic      Atomic             Coordinates (Angstroms)
 Number     Number       Type             X           Y           Z
 ---------------------------------------------------------------------
      1          8           0       -0.962450    0.900890   -0.497090
      2          6           0        0.007740    0.210030   -0.112360
      3          8           0        1.254280    0.714900   -0.260620
      4          6           0       -0.192500   -1.054210    0.457420
      5          8           0        0.777930   -1.743920    0.841630
      6          8           0       -1.439810   -1.557710    0.604990
      7          1           0        1.381480    1.600590   -0.660670
      8          1           0       -1.572080   -2.442620    1.004350
 ---------------------------------------------------------------------
                    Distance matrix (angstroms):
                    1          2          3          4          5
     1  O    0.000000
     2  C    1.251628   0.000000
     3  O    2.237052   1.353047   0.000000
     4  C    2.307884   1.401088   2.395517   0.000000
     5  O    3.437457   2.306775   2.736359   1.251020   0.000000
     6  O    2.736269   2.394764   3.629347   1.353171   2.238089
     7  H    2.451601   2.030139   0.980136   3.282606   3.715767
     8  H    3.715512   3.283203   4.422487   2.032254   2.457073
                    6          7          8
     6  O    0.000000
     7  H    4.420004   0.000000
     8  H    0.979821   5.276680   0.000000
 Stoichiometry    C2H2O4
 Framework group  C1[X(C2H2O4)]
 Deg. of freedom    18
 Full point group                 C1      NOp   1
 Largest Abelian subgroup         C1      NOp   1
 Largest concise Abelian subgroup C1      NOp   1
                         Standard orientation:                         
 ---------------------------------------------------------------------
 Center     Atomic      Atomic             Coordinates (Angstroms)
 Number     Number       Type             X           Y           Z
 ---------------------------------------------------------------------
      1          8           0       -1.066472   -1.347717   -0.000001
      2          6           0       -0.682323   -0.156498   -0.000000
      3          8           0       -1.618834    0.820070   -0.000001
      4          6           0        0.683173    0.157298    0.000004
      5          8           0        1.066059    1.348285   -0.000001
      6          8           0        1.618534   -0.820542   -0.000001
      7          1           0       -2.571070    0.587879    0.000006
      8          1           0        2.571675   -0.593448    0.000005
 ---------------------------------------------------------------------
 Rotational constants (GHZ):           6.2541514           3.4891118           2.2396432
 Leave Link  202 at Mon Feb 22 21:13:42 2021, MaxMem=   104857600 cpu:               0.9 elap:               0.1
 (Enter /sw/arch/RedHatEnterpriseServer7/EB_production/2019/software/Gaussian/g16.c01/l301.exe)
 Standard basis: TZVP (5D, 7F)
 Ernie: Thresh=  0.10000D-02 Tol=  0.10000D-05 Strict=F.
 There are   132 symmetry adapted cartesian basis functions of A   symmetry.
 There are   126 symmetry adapted basis functions of A   symmetry.
   126 basis functions,   226 primitive gaussians,   132 cartesian basis functions
    23 alpha electrons       23 beta electrons
       nuclear repulsion energy       230.6195040117 Hartrees.
 IExCor=  404 DFT=T Ex=B Corr=P86 ExCW=0 ScaHFX=  0.000000
 ScaDFX=  1.000000  1.000000  1.000000  1.000000 ScalE2=  1.000000  1.000000
 IRadAn=      5 IRanWt=     -1 IRanGd=            0 ICorTp=0 IEmpDi=131
 NAtoms=    8 NActive=    8 NUniq=    8 SFac= 1.00D+00 NAtFMM=   60 NAOKFM=F Big=F
 Integral buffers will be    131072 words long.
 Raffenetti 2 integral format.
 Two-electron integral symmetry is turned on.
 R6Disp:  Grimme-D3 Dispersion energy=       -0.0039266052 Hartrees.
 Nuclear repulsion after empirical dispersion term =      230.6155774065 Hartrees.
 ------------------------------------------------------------------------------
 Polarizable Continuum Model (PCM)
 =================================
 Model                : PCM.
 Atomic radii         : UFF (Universal Force Field).
 Polarization charges : Total charges.
 Charge compensation  : None.
 Solution method      : On-the-fly selection.
 Cavity type          : Scaled VdW (van der Waals Surface) (Alpha=1.100).
 Cavity algorithm     : GePol (No added spheres)
                        Default sphere list used, NSphG=    8.
                        Lebedev-Laikov grids with approx.  5.0 points / Ang**2.
                        Smoothing algorithm: York/Karplus (Gamma=1.0000).
                        Polarization charges: spherical gaussians, with
                                              point-specific exponents (IZeta= 3).
                        Self-potential: point-specific (ISelfS= 7).
                        Self-field    : sphere-specific E.n sum rule (ISelfD= 2).
 1st derivatives      : Analytical E(r).r(x)/FMM algorithm (CHGder, D1EAlg=3).
                        Cavity 1st derivative terms included.
 Solvent              : Water, Eps=  78.355300 Eps(inf)=   1.777849
 ------------------------------------------------------------------------------
 Spheres list:
 ISph  on   Nord     Re0    Alpha      Xe            Ye            Ze
    1   O      1    1.7500  1.100     -1.066472     -1.347717     -0.000001
    2   C      2    1.9255  1.100     -0.682323     -0.156498     -0.000000
    3   O      3    1.7500  1.100     -1.618834      0.820070     -0.000001
    4   C      4    1.9255  1.100      0.683173      0.157298      0.000004
    5   O      5    1.7500  1.100      1.066059      1.348285     -0.000001
    6   O      6    1.7500  1.100      1.618534     -0.820542     -0.000001
    7   H      7    1.4430  1.100     -2.571070      0.587879      0.000006
    8   H      8    1.4430  1.100      2.571675     -0.593448      0.000005
 ------------------------------------------------------------------------------
 GePol: Number of generator spheres                  =       8
 GePol: Total number of spheres                      =       8
 GePol: Number of exposed spheres                    =       8 (100.00%)
 GePol: Number of points                             =     946
 GePol: Average weight of points                     =       0.14
 GePol: Minimum weight of points                     =   0.20D-06
 GePol: Maximum weight of points                     =    0.20212
 GePol: Number of points with low weight             =      30
 GePol: Fraction of low-weight points (<1% of avg)   =       3.17%
 GePol: Cavity surface area                          =    128.869 Ang**2
 GePol: Cavity volume                                =    112.375 Ang**3
 Leave Link  301 at Mon Feb 22 21:13:42 2021, MaxMem=   104857600 cpu:               1.8 elap:               0.1
 (Enter /sw/arch/RedHatEnterpriseServer7/EB_production/2019/software/Gaussian/g16.c01/l302.exe)
 NPDir=0 NMtPBC=     1 NCelOv=     1 NCel=       1 NClECP=     1 NCelD=      1
         NCelK=      1 NCelE2=     1 NClLst=     1 CellRange=     0.0.
 One-electron integrals computed using PRISM.
 One-electron integral symmetry used in STVInt
 PrsmSu:  requested number of processors reduced to:  30 ShMem   1 Linda.
 NBasis=   126 RedAO= T EigKep=  3.46D-04  NBF=   126
 NBsUse=   126 1.00D-06 EigRej= -1.00D+00 NBFU=   126
 Precomputing XC quadrature grid using
 IXCGrd= 4 IRadAn=           5 IRanWt=          -1 IRanGd=           0 AccXCQ= 0.00D+00.
 Generated NRdTot=       0 NPtTot=           0 NUsed=           0 NTot=          32
 NSgBfM=   131   131   131   131   131 MxSgAt=     8 MxSgA2=     8.
 Leave Link  302 at Mon Feb 22 21:13:42 2021, MaxMem=   104857600 cpu:               5.3 elap:               0.2
 (Enter /sw/arch/RedHatEnterpriseServer7/EB_production/2019/software/Gaussian/g16.c01/l303.exe)
 DipDrv:  MaxL=1.
 Leave Link  303 at Mon Feb 22 21:13:42 2021, MaxMem=   104857600 cpu:               3.7 elap:               0.2
 (Enter /sw/arch/RedHatEnterpriseServer7/EB_production/2019/software/Gaussian/g16.c01/l401.exe)
 ExpMin= 9.52D-02 ExpMax= 2.70D+04 ExpMxC= 9.22D+02 IAcc=3 IRadAn=         5 AccDes= 0.00D+00
 Harris functional with IExCor=  404 and IRadAn=       5 diagonalized for initial guess.
 HarFok:  IExCor=  404 AccDes= 0.00D+00 IRadAn=         5 IDoV= 1 UseB2=F ITyADJ=14
 ICtDFT=  3500011 ScaDFX=  1.000000  1.000000  1.000000  1.000000
 FoFCou: FMM=F IPFlag=           0 FMFlag=      100000 FMFlg1=           0
         NFxFlg=           0 DoJE=T BraDBF=F KetDBF=T FulRan=T
         wScrn=  0.000000 ICntrl=       500 IOpCl=  0 I1Cent=   200000004 NGrid=           0
         NMat0=    1 NMatS0=      1 NMatT0=    0 NMatD0=    1 NMtDS0=    0 NMtDT0=    0
 Petite list used in FoFCou.
 Harris En= -378.524661098021    
 JPrj=0 DoOrth=F DoCkMO=F.
 Leave Link  401 at Mon Feb 22 21:13:42 2021, MaxMem=   104857600 cpu:               5.4 elap:               0.2
 (Enter /sw/arch/RedHatEnterpriseServer7/EB_production/2019/software/Gaussian/g16.c01/l502.exe)
 Keep J ints in memory in canonical form, NReq=62729413.
 FoFCou: FMM=F IPFlag=           0 FMFlag=           0 FMFlg1=           0
         NFxFlg=           0 DoJE=F BraDBF=F KetDBF=F FulRan=T
         wScrn=  0.000000 ICntrl=       600 IOpCl=  0 I1Cent=           0 NGrid=           0
         NMat0=    1 NMatS0=   8001 NMatT0=    0 NMatD0=    1 NMtDS0=    0 NMtDT0=    0
 Symmetry not used in FoFCou.
 Two-electron integral symmetry not used.
 Closed shell SCF:
 Using DIIS extrapolation, IDIIS=  1040.
 NGot=   104857600 LenX=    72804965 LenY=    72787100
 Requested convergence on RMS density matrix=1.00D-08 within 128 cycles.
 Requested convergence on MAX density matrix=1.00D-06.
 Requested convergence on             energy=1.00D-06.
 No special actions if energy rises.

 Cycle   1  Pass 1  IDiag  1:
 Inv3:  Mode=1 IEnd=     2684748.
 Iteration    1 A*A^-1 deviation from unit magnitude is 3.00D-15 for    383.
 Iteration    1 A*A^-1 deviation from orthogonality  is 1.64D-15 for    420    105.
 Iteration    1 A^-1*A deviation from unit magnitude is 3.11D-15 for    181.
 Iteration    1 A^-1*A deviation from orthogonality  is 1.55D-15 for    853    333.
 E= -378.287115375775    
 DIIS: error= 5.41D-02 at cycle   1 NSaved=   1.
 NSaved= 1 IEnMin= 1 EnMin= -378.287115375775     IErMin= 1 ErrMin= 5.41D-02
 ErrMax= 5.41D-02  0.00D+00 EMaxC= 1.00D-01 BMatC= 2.58D-01 BMatP= 2.58D-01
 IDIUse=3 WtCom= 4.59D-01 WtEn= 5.41D-01
 Coeff-Com:  0.100D+01
 Coeff-En:   0.100D+01
 Coeff:      0.100D+01
 Gap=    -0.022 Goal=   None    Shift=    0.000
 GapD=   -0.022 DampG=0.250 DampE=0.500 DampFc=0.2500 IDamp=-1.
 Damping current iteration by 2.50D-01
 RMSDP=1.18D-02 MaxDP=3.23D-01              OVMax= 3.62D-01

 Cycle   2  Pass 1  IDiag  1:
 E= -378.342640618705     Delta-E=       -0.055525242930 Rises=F Damp=T
 DIIS: error= 1.10D-02 at cycle   2 NSaved=   2.
 NSaved= 2 IEnMin= 2 EnMin= -378.342640618705     IErMin= 2 ErrMin= 1.10D-02
 ErrMax= 1.10D-02  0.00D+00 EMaxC= 1.00D-01 BMatC= 2.02D-02 BMatP= 2.58D-01
 IDIUse=3 WtCom= 8.90D-01 WtEn= 1.10D-01
 Coeff-Com: -0.137D+00 0.114D+01
 Coeff-En:   0.219D+00 0.781D+00
 Coeff:     -0.980D-01 0.110D+01
 Gap=     0.068 Goal=   None    Shift=    0.000
 RMSDP=2.52D-03 MaxDP=5.46D-02 DE=-5.55D-02 OVMax= 3.82D-01

 Cycle   3  Pass 1  IDiag  1:
 E= -378.416861685023     Delta-E=       -0.074221066318 Rises=F Damp=F
 DIIS: error= 3.04D-02 at cycle   3 NSaved=   3.
 NSaved= 3 IEnMin= 3 EnMin= -378.416861685023     IErMin= 2 ErrMin= 1.10D-02
 ErrMax= 3.04D-02  0.00D+00 EMaxC= 1.00D-01 BMatC= 7.13D-02 BMatP= 2.02D-02
 IDIUse=2 WtCom= 0.00D+00 WtEn= 1.00D+00
 Coeff-En:   0.830D-01 0.000D+00 0.917D+00
 Coeff:      0.830D-01 0.000D+00 0.917D+00
 Gap=     0.061 Goal=   None    Shift=    0.000
 RMSDP=5.02D-03 MaxDP=7.53D-02 DE=-7.42D-02 OVMax= 3.97D-01

 Cycle   4  Pass 1  IDiag  1:
 E= -378.035847278692     Delta-E=        0.381014406332 Rises=F Damp=F
 DIIS: error= 8.37D-02 at cycle   4 NSaved=   4.
 NSaved= 4 IEnMin= 3 EnMin= -378.416861685023     IErMin= 2 ErrMin= 1.10D-02
 ErrMax= 8.37D-02  0.00D+00 EMaxC= 1.00D-01 BMatC= 5.77D-01 BMatP= 2.02D-02
 IDIUse=2 WtCom= 0.00D+00 WtEn= 1.00D+00
 EnCoef did     2 forward-backward iterations
 Coeff-En:   0.172D-01 0.000D+00 0.809D+00 0.173D+00
 Coeff:      0.172D-01 0.000D+00 0.809D+00 0.173D+00
 Gap=     0.087 Goal=   None    Shift=    0.000
 RMSDP=2.86D-03 MaxDP=4.55D-02 DE= 3.81D-01 OVMax= 2.00D-01

 Cycle   5  Pass 1  IDiag  1:
 E= -378.424770996717     Delta-E=       -0.388923718025 Rises=F Damp=F
 DIIS: error= 2.42D-02 at cycle   5 NSaved=   5.
 NSaved= 5 IEnMin= 5 EnMin= -378.424770996717     IErMin= 2 ErrMin= 1.10D-02
 ErrMax= 2.42D-02  0.00D+00 EMaxC= 1.00D-01 BMatC= 6.51D-02 BMatP= 2.02D-02
 IDIUse=2 WtCom= 0.00D+00 WtEn= 1.00D+00
 Coeff-En:   0.000D+00 0.000D+00 0.473D+00 0.000D+00 0.527D+00
 Coeff:      0.000D+00 0.000D+00 0.473D+00 0.000D+00 0.527D+00
 Gap=     0.093 Goal=   None    Shift=    0.000
 RMSDP=1.31D-03 MaxDP=2.64D-02 DE=-3.89D-01 OVMax= 9.12D-02

 Cycle   6  Pass 1  IDiag  1:
 E= -378.468491109954     Delta-E=       -0.043720113238 Rises=F Damp=F
 DIIS: error= 7.90D-03 at cycle   6 NSaved=   6.
 NSaved= 6 IEnMin= 6 EnMin= -378.468491109954     IErMin= 6 ErrMin= 7.90D-03
 ErrMax= 7.90D-03  0.00D+00 EMaxC= 1.00D-01 BMatC= 3.48D-03 BMatP= 2.02D-02
 IDIUse=3 WtCom= 9.21D-01 WtEn= 7.90D-02
 Coeff-Com: -0.357D-01 0.692D-01 0.234D+00-0.619D-01 0.408D+00 0.386D+00
 Coeff-En:   0.000D+00 0.000D+00 0.000D+00 0.000D+00 0.000D+00 0.100D+01
 Coeff:     -0.328D-01 0.637D-01 0.216D+00-0.570D-01 0.376D+00 0.435D+00
 Gap=     0.098 Goal=   None    Shift=    0.000
 RMSDP=2.94D-04 MaxDP=5.96D-03 DE=-4.37D-02 OVMax= 2.21D-02

 Cycle   7  Pass 1  IDiag  1:
 E= -378.471044016165     Delta-E=       -0.002552906210 Rises=F Damp=F
 DIIS: error= 1.62D-03 at cycle   7 NSaved=   7.
 NSaved= 7 IEnMin= 7 EnMin= -378.471044016165     IErMin= 7 ErrMin= 1.62D-03
 ErrMax= 1.62D-03  0.00D+00 EMaxC= 1.00D-01 BMatC= 1.51D-04 BMatP= 3.48D-03
 IDIUse=3 WtCom= 9.84D-01 WtEn= 1.62D-02
 Coeff-Com:  0.100D-02-0.257D-02 0.195D-01-0.427D-02 0.325D-01 0.205D+00
 Coeff-Com:  0.749D+00
 Coeff-En:   0.000D+00 0.000D+00 0.000D+00 0.000D+00 0.000D+00 0.320D-01
 Coeff-En:   0.968D+00
 Coeff:      0.985D-03-0.253D-02 0.192D-01-0.420D-02 0.320D-01 0.202D+00
 Coeff:      0.753D+00
 Gap=     0.097 Goal=   None    Shift=    0.000
 RMSDP=5.61D-05 MaxDP=1.06D-03 DE=-2.55D-03 OVMax= 4.01D-03

 Cycle   8  Pass 1  IDiag  1:
 E= -378.471161066037     Delta-E=       -0.000117049872 Rises=F Damp=F
 DIIS: error= 1.27D-04 at cycle   8 NSaved=   8.
 NSaved= 8 IEnMin= 8 EnMin= -378.471161066037     IErMin= 8 ErrMin= 1.27D-04
 ErrMax= 1.27D-04  0.00D+00 EMaxC= 1.00D-01 BMatC= 1.25D-06 BMatP= 1.51D-04
 IDIUse=3 WtCom= 9.99D-01 WtEn= 1.27D-03
 Coeff-Com:  0.418D-03-0.110D-02 0.928D-02-0.208D-02 0.159D-01 0.115D+00
 Coeff-Com:  0.456D+00 0.407D+00
 Coeff-En:   0.000D+00 0.000D+00 0.000D+00 0.000D+00 0.000D+00 0.000D+00
 Coeff-En:   0.000D+00 0.100D+01
 Coeff:      0.418D-03-0.109D-02 0.926D-02-0.207D-02 0.158D-01 0.115D+00
 Coeff:      0.455D+00 0.408D+00
 Gap=     0.097 Goal=   None    Shift=    0.000
 RMSDP=1.02D-05 MaxDP=1.85D-04 DE=-1.17D-04 OVMax= 8.17D-04

 Cycle   9  Pass 1  IDiag  1:
 E= -378.471161423738     Delta-E=       -0.000000357702 Rises=F Damp=F
 DIIS: error= 1.08D-04 at cycle   9 NSaved=   9.
 NSaved= 9 IEnMin= 9 EnMin= -378.471161423738     IErMin= 9 ErrMin= 1.08D-04
 ErrMax= 1.08D-04  0.00D+00 EMaxC= 1.00D-01 BMatC= 7.17D-07 BMatP= 1.25D-06
 IDIUse=3 WtCom= 9.99D-01 WtEn= 1.08D-03
 Coeff-Com: -0.168D-03 0.293D-03 0.836D-03-0.231D-03 0.208D-02 0.257D-01
 Coeff-Com:  0.132D+00 0.415D+00 0.425D+00
 Coeff-En:   0.000D+00 0.000D+00 0.000D+00 0.000D+00 0.000D+00 0.000D+00
 Coeff-En:   0.000D+00 0.409D+00 0.591D+00
 Coeff:     -0.168D-03 0.292D-03 0.835D-03-0.231D-03 0.208D-02 0.256D-01
 Coeff:      0.132D+00 0.415D+00 0.425D+00
 Gap=     0.097 Goal=   None    Shift=    0.000
 RMSDP=5.00D-06 MaxDP=1.03D-04 DE=-3.58D-07 OVMax= 3.80D-04

 Cycle  10  Pass 1  IDiag  1:
 E= -378.471162029542     Delta-E=       -0.000000605803 Rises=F Damp=F
 DIIS: error= 4.37D-06 at cycle  10 NSaved=  10.
 NSaved=10 IEnMin=10 EnMin= -378.471162029542     IErMin=10 ErrMin= 4.37D-06
 ErrMax= 4.37D-06  0.00D+00 EMaxC= 1.00D-01 BMatC= 4.37D-09 BMatP= 7.17D-07
 IDIUse=1 WtCom= 1.00D+00 WtEn= 0.00D+00
 Coeff-Com: -0.561D-04 0.828D-04 0.770D-04-0.478D-04 0.540D-03 0.694D-02
 Coeff-Com:  0.391D-01 0.148D+00 0.163D+00 0.643D+00
 Coeff:     -0.561D-04 0.828D-04 0.770D-04-0.478D-04 0.540D-03 0.694D-02
 Coeff:      0.391D-01 0.148D+00 0.163D+00 0.643D+00
 Gap=     0.097 Goal=   None    Shift=    0.000
 RMSDP=4.35D-07 MaxDP=9.70D-06 DE=-6.06D-07 OVMax= 2.63D-05

 Cycle  11  Pass 1  IDiag  1:
 E= -378.471162031616     Delta-E=       -0.000000002074 Rises=F Damp=F
 DIIS: error= 3.72D-06 at cycle  11 NSaved=  11.
 NSaved=11 IEnMin=11 EnMin= -378.471162031616     IErMin=11 ErrMin= 3.72D-06
 ErrMax= 3.72D-06  0.00D+00 EMaxC= 1.00D-01 BMatC= 1.65D-09 BMatP= 4.37D-09
 IDIUse=1 WtCom= 1.00D+00 WtEn= 0.00D+00
 Coeff-Com: -0.680D-05 0.788D-06-0.644D-04-0.169D-05 0.102D-03 0.124D-02
 Coeff-Com:  0.873D-02 0.454D-01 0.545D-01 0.464D+00 0.426D+00
 Coeff:     -0.680D-05 0.788D-06-0.644D-04-0.169D-05 0.102D-03 0.124D-02
 Coeff:      0.873D-02 0.454D-01 0.545D-01 0.464D+00 0.426D+00
 Gap=     0.097 Goal=   None    Shift=    0.000
 RMSDP=2.02D-07 MaxDP=4.22D-06 DE=-2.07D-09 OVMax= 1.31D-05

 Cycle  12  Pass 1  IDiag  1:
 E= -378.471162032741     Delta-E=       -0.000000001126 Rises=F Damp=F
 DIIS: error= 5.27D-07 at cycle  12 NSaved=  12.
 NSaved=12 IEnMin=12 EnMin= -378.471162032741     IErMin=12 ErrMin= 5.27D-07
 ErrMax= 5.27D-07  0.00D+00 EMaxC= 1.00D-01 BMatC= 1.97D-11 BMatP= 1.65D-09
 IDIUse=1 WtCom= 1.00D+00 WtEn= 0.00D+00
 Coeff-Com:  0.374D-05-0.238D-05-0.667D-05-0.846D-06 0.591D-05-0.350D-04
 Coeff-Com:  0.776D-04 0.312D-02 0.453D-02 0.714D-01 0.105D+00 0.816D+00
 Coeff:      0.374D-05-0.238D-05-0.667D-05-0.846D-06 0.591D-05-0.350D-04
 Coeff:      0.776D-04 0.312D-02 0.453D-02 0.714D-01 0.105D+00 0.816D+00
 Gap=     0.097 Goal=   None    Shift=    0.000
 RMSDP=5.40D-08 MaxDP=1.83D-06 DE=-1.13D-09 OVMax= 2.10D-06

 Cycle  13  Pass 1  IDiag  1:
 E= -378.471162032759     Delta-E=       -0.000000000017 Rises=F Damp=F
 DIIS: error= 3.01D-08 at cycle  13 NSaved=  13.
 NSaved=13 IEnMin=13 EnMin= -378.471162032759     IErMin=13 ErrMin= 3.01D-08
 ErrMax= 3.01D-08  0.00D+00 EMaxC= 1.00D-01 BMatC= 1.68D-13 BMatP= 1.97D-11
 IDIUse=1 WtCom= 1.00D+00 WtEn= 0.00D+00
 Coeff-Com:  0.127D-05-0.114D-05-0.565D-06 0.586D-07-0.717D-06-0.188D-04
 Coeff-Com: -0.691D-04 0.268D-03 0.500D-03 0.118D-01 0.202D-01 0.195D+00
 Coeff-Com:  0.773D+00
 Coeff:      0.127D-05-0.114D-05-0.565D-06 0.586D-07-0.717D-06-0.188D-04
 Coeff:     -0.691D-04 0.268D-03 0.500D-03 0.118D-01 0.202D-01 0.195D+00
 Coeff:      0.773D+00
 Gap=     0.097 Goal=   None    Shift=    0.000
 RMSDP=4.36D-09 MaxDP=1.17D-07 DE=-1.73D-11 OVMax= 1.10D-07

 Error on total polarization charges =  0.00645
 SCF Done:  E(RB-P86) =  -378.471162033     A.U. after   13 cycles
            NFock= 13  Conv=0.44D-08     -V/T= 2.0039
 KE= 3.770067276823D+02 PE=-1.352584321078D+03 EE= 3.664908539564D+02
 Leave Link  502 at Mon Feb 22 21:13:47 2021, MaxMem=   104857600 cpu:              83.8 elap:               3.3
 (Enter /sw/arch/RedHatEnterpriseServer7/EB_production/2019/software/Gaussian/g16.c01/l601.exe)
 Copying SCF densities to generalized density rwf, IOpCl= 0 IROHF=0.

 **********************************************************************

            Population analysis using the SCF Density.

 **********************************************************************

 Orbital symmetries:
       Occupied  (A) (A) (A) (A) (A) (A) (A) (A) (A) (A) (A) (A)
                 (A) (A) (A) (A) (A) (A) (A) (A) (A) (A) (A)
       Virtual   (A) (A) (A) (A) (A) (A) (A) (A) (A) (A) (A) (A)
                 (A) (A) (A) (A) (A) (A) (A) (A) (A) (A) (A) (A)
                 (A) (A) (A) (A) (A) (A) (A) (A) (A) (A) (A) (A)
                 (A) (A) (A) (A) (A) (A) (A) (A) (A) (A) (A) (A)
                 (A) (A) (A) (A) (A) (A) (A) (A) (A) (A) (A) (A)
                 (A) (A) (A) (A) (A) (A) (A) (A) (A) (A) (A) (A)
                 (A) (A) (A) (A) (A) (A) (A) (A) (A) (A) (A) (A)
                 (A) (A) (A) (A) (A) (A) (A) (A) (A) (A) (A) (A)
                 (A) (A) (A) (A) (A) (A) (A)
 The electronic state is 1-A.
 Alpha  occ. eigenvalues --  -18.84273 -18.84266 -18.79230 -18.79217 -10.06783
 Alpha  occ. eigenvalues --  -10.06748  -1.05515  -1.02937  -0.95720  -0.94463
 Alpha  occ. eigenvalues --   -0.70984  -0.61461  -0.53720  -0.46112  -0.45542
 Alpha  occ. eigenvalues --   -0.44802  -0.39341  -0.38226  -0.35708  -0.31146
 Alpha  occ. eigenvalues --   -0.30634  -0.28502  -0.24780
 Alpha virt. eigenvalues --   -0.15098  -0.00064   0.01288   0.01806   0.08622
 Alpha virt. eigenvalues --    0.10841   0.14445   0.18434   0.20951   0.22057
 Alpha virt. eigenvalues --    0.25200   0.25527   0.25963   0.31120   0.31921
 Alpha virt. eigenvalues --    0.35581   0.35736   0.38463   0.40638   0.40662
 Alpha virt. eigenvalues --    0.42925   0.45071   0.46173   0.46448   0.50748
 Alpha virt. eigenvalues --    0.50956   0.56092   0.57547   0.60073   0.62709
 Alpha virt. eigenvalues --    0.71913   0.72454   0.78155   0.82115   0.92938
 Alpha virt. eigenvalues --    1.17534   1.19821   1.23563   1.25445   1.26155
 Alpha virt. eigenvalues --    1.26644   1.34163   1.35752   1.36128   1.38224
 Alpha virt. eigenvalues --    1.47284   1.49988   1.56795   1.57650   1.74901
 Alpha virt. eigenvalues --    1.85449   1.89220   1.94001   2.02396   2.04914
 Alpha virt. eigenvalues --    2.06764   2.14031   2.18103   2.29529   2.38178
 Alpha virt. eigenvalues --    2.42382   2.46281   2.47534   2.47768   2.51525
 Alpha virt. eigenvalues --    2.52598   2.52680   2.53866   2.56841   2.57146
 Alpha virt. eigenvalues --    2.59476   2.60046   2.60983   2.62082   2.72539
 Alpha virt. eigenvalues --    2.73642   2.74054   2.77491   2.80008   2.82954
 Alpha virt. eigenvalues --    2.86651   2.94873   2.97242   3.00433   3.01710
 Alpha virt. eigenvalues --    3.06415   3.09902   3.10648   3.23518   3.33502
 Alpha virt. eigenvalues --    3.51551   3.73675   3.82973   3.97111   4.02407
 Alpha virt. eigenvalues --    4.13405   4.24112  21.50862  21.79096  42.95286
 Alpha virt. eigenvalues --   42.98031  43.06870  43.22093
          Condensed to atoms (all electrons):
               1          2          3          4          5          6
     1  O    7.950527   0.566237  -0.120736  -0.111955   0.005715   0.012347
     2  C    0.566237   5.233210   0.408359  -0.155206  -0.112235  -0.140650
     3  O   -0.120736   0.408359   7.800578  -0.140389   0.012289   0.002256
     4  C   -0.111955  -0.155206  -0.140389   5.231730   0.566536   0.408600
     5  O    0.005715  -0.112235   0.012289   0.566536   7.949606  -0.120396
     6  O    0.012347  -0.140650   0.002256   0.408600  -0.120396   7.800555
     7  H    0.001778  -0.026555   0.298976   0.017244  -0.000307  -0.000103
     8  H   -0.000302   0.017275  -0.000102  -0.026605   0.001730   0.299130
               7          8
     1  O    0.001778  -0.000302
     2  C   -0.026555   0.017275
     3  O    0.298976  -0.000102
     4  C    0.017244  -0.026605
     5  O   -0.000307   0.001730
     6  O   -0.000103   0.299130
     7  H    0.354088   0.000012
     8  H    0.000012   0.353817
 Mulliken charges:
               1
     1  O   -0.303611
     2  C    0.209566
     3  O   -0.261233
     4  C    0.210045
     5  O   -0.302939
     6  O   -0.261739
     7  H    0.354867
     8  H    0.355045
 Sum of Mulliken charges =  -0.00000
 Mulliken charges with hydrogens summed into heavy atoms:
               1
     1  O   -0.303611
     2  C    0.209566
     3  O    0.093634
     4  C    0.210045
     5  O   -0.302939
     6  O    0.093306
 Electronic spatial extent (au):  <R**2>=            497.9335
 Charge=             -0.0000 electrons
 Dipole moment (field-independent basis, Debye):
    X=              0.0089    Y=             -0.0050    Z=              0.0000  Tot=              0.0102
 Quadrupole moment (field-independent basis, Debye-Ang):
   XX=            -18.2199   YY=            -44.1310   ZZ=            -32.1362
   XY=             -6.1166   XZ=             -0.0000   YZ=              0.0000
 Traceless Quadrupole moment (field-independent basis, Debye-Ang):
   XX=             13.2758   YY=            -12.6353   ZZ=             -0.6405
   XY=             -6.1166   XZ=             -0.0000   YZ=              0.0000
 Octapole moment (field-independent basis, Debye-Ang**2):
  XXX=              0.0629  YYY=             -0.0071  ZZZ=              0.0000  XYY=              0.0413
  XXY=             -0.0890  XXZ=              0.0002  XZZ=              0.0030  YZZ=              0.0016
  YYZ=              0.0000  XYZ=             -0.0000
 Hexadecapole moment (field-independent basis, Debye-Ang**3):
 XXXX=           -169.6235 YYYY=           -225.4903 ZZZZ=            -26.8293 XXXY=            -46.0319
 XXXZ=             -0.0001 YYYX=            -11.8213 YYYZ=             -0.0000 ZZZX=             -0.0000
 ZZZY=             -0.0000 XXYY=            -99.7408 XXZZ=            -61.1838 YYZZ=            -38.6879
 XXYZ=              0.0000 YYXZ=             -0.0000 ZZXY=             -0.4951
 N-N= 2.306155774065D+02 E-N=-1.352584320471D+03  KE= 3.770067276823D+02
 No NMR shielding tensors so no spin-rotation constants.
 Leave Link  601 at Mon Feb 22 21:13:47 2021, MaxMem=   104857600 cpu:               8.5 elap:               0.4
 (Enter /sw/arch/RedHatEnterpriseServer7/EB_production/2019/software/Gaussian/g16.c01/l701.exe)
 ... and contract with generalized density number  0.
 Compute integral first derivatives.
 R6Disp: Adding Grimme-D3 dispersion energy 1st derivatives to the gradient.
 PrsmSu:  requested number of processors reduced to:  30 ShMem   1 Linda.
 D1PCM: PCM CHGder 1st derivatives, ID1Alg=3 FixD1E=F DoIter=F DoCFld=F I1PDM=0.
 GePol: Maximum number of non-zero 1st derivatives   =     210
 CoulSu:  requested number of processors reduced to:  29 ShMem   1 Linda.
 CoulSu:  requested number of processors reduced to:  30 ShMem   1 Linda.
 Leave Link  701 at Mon Feb 22 21:13:47 2021, MaxMem=   104857600 cpu:              12.6 elap:               0.4
 (Enter /sw/arch/RedHatEnterpriseServer7/EB_production/2019/software/Gaussian/g16.c01/l702.exe)
 L702 exits ... SP integral derivatives will be done elsewhere.
 Leave Link  702 at Mon Feb 22 21:13:48 2021, MaxMem=   104857600 cpu:               0.7 elap:               0.1
 (Enter /sw/arch/RedHatEnterpriseServer7/EB_production/2019/software/Gaussian/g16.c01/l703.exe)
 Integral derivatives from FoFJK, PRISM(SPDF).
 Compute integral first derivatives, UseDBF=F ICtDFT=           0.
 Calling FoFJK, ICntrl=      2527 FMM=F ISym2X=0 I1Cent= 0 IOpClX= 0 NMat=1 NMatS=1 NMatT=0.
 FoFJK:  IHMeth= 1 ICntrl=    2527 DoSepK=F KAlg= 0 I1Cent=           0 FoldK=F
 IRaf=         0 NMat=       1 IRICut=       1 DoRegI=T DoRafI=F ISym2E= 0 IDoP0=0 IntGTp=1.
 FoFCou: FMM=F IPFlag=           0 FMFlag=      100000 FMFlg1=         800
         NFxFlg=           0 DoJE=F BraDBF=F KetDBF=F FulRan=T
         wScrn=  0.000000 ICntrl=      2527 IOpCl=  0 I1Cent=           0 NGrid=           0
         NMat0=    1 NMatS0=      1 NMatT0=    0 NMatD0=    1 NMtDS0=    0 NMtDT0=    0
 Symmetry not used in FoFCou.
 Leave Link  703 at Mon Feb 22 21:13:48 2021, MaxMem=   104857600 cpu:              12.7 elap:               0.4
 (Enter /sw/arch/RedHatEnterpriseServer7/EB_production/2019/software/Gaussian/g16.c01/l716.exe)
 Dipole        = 3.49411410D-03-1.96663503D-03 1.45327556D-05
 ***** Axes restored to original set *****
 -------------------------------------------------------------------
 Center     Atomic                   Forces (Hartrees/Bohr)
 Number     Number              X              Y              Z
 -------------------------------------------------------------------
      1        8           0.011168123   -0.021481334    0.010671412
      2        6          -0.034205777    0.130937002   -0.062744852
      3        8           0.019039989   -0.040762030    0.020103542
      4        6           0.033648721   -0.130381924    0.062449901
      5        8          -0.010967748    0.020962781   -0.010417861
      6        8          -0.018847128    0.041047311   -0.020221627
      7        1          -0.020253509   -0.001966175   -0.000469231
      8        1           0.020417329    0.001644370    0.000628715
 -------------------------------------------------------------------
 Cartesian Forces:  Max     0.130937002 RMS     0.046261450
 Leave Link  716 at Mon Feb 22 21:13:48 2021, MaxMem=   104857600 cpu:               0.9 elap:               0.1
 (Enter /sw/arch/RedHatEnterpriseServer7/EB_production/2019/software/Gaussian/g16.c01/l103.exe)

 GradGradGradGradGradGradGradGradGradGradGradGradGradGradGradGradGradGrad
 Berny optimization.
 FormGI is forming the generalized inverse of G from B-inverse, IUseBI=4.
 Internal  Forces:  Max     0.069918445 RMS     0.025471557
 Search for a local minimum.
 Step number   1 out of a maximum of   33
 All quantities printed in internal units (Hartrees-Bohrs-Radians)
 RMS Force = .25472D-01 SwitMx=.10000D-02 MixMth= 1
 Mixed Optimization -- RFO/linear search
 Second derivative matrix not updated -- first step.
 ITU=  0
     Eigenvalues ---    0.02074   0.02151   0.02151   0.02311   0.02313
     Eigenvalues ---    0.16000   0.16000   0.25000   0.25000   0.25000
     Eigenvalues ---    0.25000   0.45441   0.51358   0.51420   0.54352
     Eigenvalues ---    0.54378   0.82638   0.82861
 RFO step:  Lambda=-4.41939137D-02 EMin= 2.07436130D-02
 Linear search not attempted -- first point.
 Maximum step size (   0.300) exceeded in Quadratic search.
    -- Step size scaled by   0.771
 Iteration  1 RMS(Cart)=  0.06286955 RMS(Int)=  0.00239290
 Iteration  2 RMS(Cart)=  0.00354913 RMS(Int)=  0.00000074
 Iteration  3 RMS(Cart)=  0.00000116 RMS(Int)=  0.00000003
 Iteration  4 RMS(Cart)=  0.00000000 RMS(Int)=  0.00000003
 ITry= 1 IFail=0 DXMaxC= 1.22D-01 DCOld= 1.00D+10 DXMaxT= 3.00D-01 DXLimC= 3.00D+00 Rises=F
 Variable       Old X    -DE/DX   Delta X   Delta X   Delta X     New X
                                 (Linear)    (Quad)   (Total)
    R1        2.36523  -0.02380   0.00000  -0.02107  -0.02107   2.34416
    R2        2.55689  -0.01918   0.00000  -0.02515  -0.02515   2.53174
    R3        2.64767   0.06992   0.00000   0.10807   0.10807   2.75575
    R4        1.85219  -0.00423   0.00000  -0.00585  -0.00585   1.84634
    R5        2.36409  -0.02327   0.00000  -0.02055  -0.02055   2.34354
    R6        2.55712  -0.01944   0.00000  -0.02549  -0.02549   2.53163
    R7        1.85159  -0.00400   0.00000  -0.00552  -0.00552   1.84607
    A1        2.06518   0.03347   0.00000   0.08769   0.08769   2.15287
    A2        2.10863   0.00616   0.00000   0.01613   0.01613   2.12477
    A3        2.10938  -0.03963   0.00000  -0.10383  -0.10383   2.00555
    A4        2.09609  -0.03682   0.00000  -0.13897  -0.13897   1.95711
    A5        2.10773   0.00640   0.00000   0.01676   0.01676   2.12449
    A6        2.10811  -0.03938   0.00000  -0.10317  -0.10317   2.00494
    A7        2.06734   0.03299   0.00000   0.08642   0.08642   2.15376
    A8        2.10010  -0.03716   0.00000  -0.14025  -0.14025   1.95985
    D1        0.00001  -0.00000   0.00000  -0.00000  -0.00000   0.00001
    D2       -3.14158  -0.00000   0.00000  -0.00000  -0.00000  -3.14158
    D3        3.14159   0.00000   0.00000   0.00000   0.00000   3.14159
    D4        0.00001  -0.00000   0.00000  -0.00001  -0.00001   0.00000
    D5       -0.00001   0.00000   0.00000   0.00000   0.00000  -0.00000
    D6       -3.14159  -0.00000   0.00000  -0.00000  -0.00000  -3.14159
    D7       -3.14159   0.00000   0.00000   0.00000   0.00000  -3.14159
    D8        0.00002  -0.00000   0.00000  -0.00000  -0.00000   0.00001
         Item               Value     Threshold  Converged?
 Maximum Force            0.069918     0.000450     NO 
 RMS     Force            0.025472     0.000300     NO 
 Maximum Displacement     0.121612     0.001800     NO 
 RMS     Displacement     0.065275     0.001200     NO 
 Predicted change in Energy=-2.292387D-02
 Lowest energy point so far.  Saving SCF results.
 GradGradGradGradGradGradGradGradGradGradGradGradGradGradGradGradGradGrad

 Leave Link  103 at Mon Feb 22 21:13:49 2021, MaxMem=   104857600 cpu:               0.9 elap:               0.1
 (Enter /sw/arch/RedHatEnterpriseServer7/EB_production/2019/software/Gaussian/g16.c01/l202.exe)
                          Input orientation:                          
 ---------------------------------------------------------------------
 Center     Atomic      Atomic             Coordinates (Angstroms)
 Number     Number       Type             X           Y           Z
 ---------------------------------------------------------------------
      1          8           0       -0.984842    0.908995   -0.502352
      2          6           0       -0.011332    0.238232   -0.126669
      3          8           0        1.256845    0.656791   -0.233631
      4          6           0       -0.174096   -1.081774    0.471387
      5          8           0        0.799370   -1.752104    0.846864
      6          8           0       -1.442476   -1.499614    0.578001
      7          1           0        1.318847    1.543747   -0.638696
      8          1           0       -1.507726   -2.386324    0.982746
 ---------------------------------------------------------------------
                    Distance matrix (angstroms):
                    1          2          3          4          5
     1  O    0.000000
     2  C    1.240477   0.000000
     3  O    2.271779   1.339741   0.000000
     4  C    2.359796   1.458279   2.359502   0.000000
     5  O    3.476384   2.359330   2.679464   1.240145   0.000000
     6  O    2.679177   2.358992   3.548967   1.339681   2.271984
     7  H    2.393425   1.932852   0.977043   3.217844   3.652311
     8  H    3.652129   3.218429   4.287537   1.934401   2.396537
                    6          7          8
     6  O    0.000000
     7  H    4.285709   0.000000
     8  H    0.976898   5.105295   0.000000
 Stoichiometry    C2H2O4
 Framework group  C1[X(C2H2O4)]
 Deg. of freedom    18
 Full point group                 C1      NOp   1
 RotChk:  IX=0 Diff= 4.84D-02
 Largest Abelian subgroup         C1      NOp   1
 Largest concise Abelian subgroup C1      NOp   1
                         Standard orientation:                         
 ---------------------------------------------------------------------
 Center     Atomic      Atomic             Coordinates (Angstroms)
 Number     Number       Type             X           Y           Z
 ---------------------------------------------------------------------
      1          8           0       -1.113642   -1.334511   -0.000001
      2          6           0       -0.710847   -0.161250   -0.000000
      3          8           0       -1.530170    0.898757   -0.000000
      4          6           0        0.711237    0.161637    0.000001
      5          8           0        1.113593    1.334697   -0.000001
      6          8           0        1.529872   -0.898826   -0.000001
      7          1           0       -2.471370    0.636544    0.000006
      8          1           0        2.471805   -0.639803    0.000006
 ---------------------------------------------------------------------
 Rotational constants (GHZ):           6.0100039           3.6310050           2.2634928
 Leave Link  202 at Mon Feb 22 21:13:49 2021, MaxMem=   104857600 cpu:               0.4 elap:               0.0
 (Enter /sw/arch/RedHatEnterpriseServer7/EB_production/2019/software/Gaussian/g16.c01/l301.exe)
 Standard basis: TZVP (5D, 7F)
 Ernie: Thresh=  0.10000D-02 Tol=  0.10000D-05 Strict=F.
 There are   132 symmetry adapted cartesian basis functions of A   symmetry.
 There are   126 symmetry adapted basis functions of A   symmetry.
   126 basis functions,   226 primitive gaussians,   132 cartesian basis functions
    23 alpha electrons       23 beta electrons
       nuclear repulsion energy       231.2397657950 Hartrees.
 IExCor=  404 DFT=T Ex=B Corr=P86 ExCW=0 ScaHFX=  0.000000
 ScaDFX=  1.000000  1.000000  1.000000  1.000000 ScalE2=  1.000000  1.000000
 IRadAn=      5 IRanWt=     -1 IRanGd=            0 ICorTp=0 IEmpDi=131
 NAtoms=    8 NActive=    8 NUniq=    8 SFac= 1.00D+00 NAtFMM=   60 NAOKFM=F Big=F
 Integral buffers will be    131072 words long.
 Raffenetti 2 integral format.
 Two-electron integral symmetry is turned on.
 R6Disp:  Grimme-D3 Dispersion energy=       -0.0039507389 Hartrees.
 Nuclear repulsion after empirical dispersion term =      231.2358150561 Hartrees.
 ------------------------------------------------------------------------------
 Polarizable Continuum Model (PCM)
 =================================
 Model                : PCM.
 Atomic radii         : UFF (Universal Force Field).
 Polarization charges : Total charges.
 Charge compensation  : None.
 Solution method      : On-the-fly selection.
 Cavity type          : Scaled VdW (van der Waals Surface) (Alpha=1.100).
 Cavity algorithm     : GePol (No added spheres)
                        Default sphere list used, NSphG=    8.
                        Lebedev-Laikov grids with approx.  5.0 points / Ang**2.
                        Smoothing algorithm: York/Karplus (Gamma=1.0000).
                        Polarization charges: spherical gaussians, with
                                              point-specific exponents (IZeta= 3).
                        Self-potential: point-specific (ISelfS= 7).
                        Self-field    : sphere-specific E.n sum rule (ISelfD= 2).
 1st derivatives      : Analytical E(r).r(x)/FMM algorithm (CHGder, D1EAlg=3).
                        Cavity 1st derivative terms included.
 Solvent              : Water, Eps=  78.355300 Eps(inf)=   1.777849
 ------------------------------------------------------------------------------
 Spheres list:
 ISph  on   Nord     Re0    Alpha      Xe            Ye            Ze
    1   O      1    1.7500  1.100     -1.113642     -1.334511     -0.000001
    2   C      2    1.9255  1.100     -0.710847     -0.161250     -0.000000
    3   O      3    1.7500  1.100     -1.530170      0.898757     -0.000000
    4   C      4    1.9255  1.100      0.711237      0.161637      0.000001
    5   O      5    1.7500  1.100      1.113593      1.334697     -0.000001
    6   O      6    1.7500  1.100      1.529872     -0.898826     -0.000001
    7   H      7    1.4430  1.100     -2.471370      0.636544      0.000006
    8   H      8    1.4430  1.100      2.471805     -0.639803      0.000006
 ------------------------------------------------------------------------------
 GePol: Number of generator spheres                  =       8
 GePol: Total number of spheres                      =       8
 GePol: Number of exposed spheres                    =       8 (100.00%)
 GePol: Number of points                             =     952
 GePol: Average weight of points                     =       0.13
 GePol: Minimum weight of points                     =   0.57D-08
 GePol: Maximum weight of points                     =    0.20552
 GePol: Number of points with low weight             =      38
 GePol: Fraction of low-weight points (<1% of avg)   =       3.99%
 GePol: Cavity surface area                          =    126.026 Ang**2
 GePol: Cavity volume                                =    110.863 Ang**3
 Leave Link  301 at Mon Feb 22 21:13:49 2021, MaxMem=   104857600 cpu:               1.8 elap:               0.1
 (Enter /sw/arch/RedHatEnterpriseServer7/EB_production/2019/software/Gaussian/g16.c01/l302.exe)
 NPDir=0 NMtPBC=     1 NCelOv=     1 NCel=       1 NClECP=     1 NCelD=      1
         NCelK=      1 NCelE2=     1 NClLst=     1 CellRange=     0.0.
 One-electron integrals computed using PRISM.
 One-electron integral symmetry used in STVInt
 PrsmSu:  requested number of processors reduced to:  30 ShMem   1 Linda.
 NBasis=   126 RedAO= T EigKep=  4.72D-04  NBF=   126
 NBsUse=   126 1.00D-06 EigRej= -1.00D+00 NBFU=   126
 Precomputing XC quadrature grid using
 IXCGrd= 4 IRadAn=           5 IRanWt=          -1 IRanGd=           0 AccXCQ= 0.00D+00.
 Generated NRdTot=       0 NPtTot=           0 NUsed=           0 NTot=          32
 NSgBfM=   131   131   131   131   131 MxSgAt=     8 MxSgA2=     8.
 Leave Link  302 at Mon Feb 22 21:13:49 2021, MaxMem=   104857600 cpu:               8.2 elap:               0.3
 (Enter /sw/arch/RedHatEnterpriseServer7/EB_production/2019/software/Gaussian/g16.c01/l303.exe)
 DipDrv:  MaxL=1.
 Leave Link  303 at Mon Feb 22 21:13:49 2021, MaxMem=   104857600 cpu:               0.8 elap:               0.1
 (Enter /sw/arch/RedHatEnterpriseServer7/EB_production/2019/software/Gaussian/g16.c01/l401.exe)
 Initial guess from the checkpoint file:  "MUBZPKHOEPUJKR-UHFFFAOYSA-N.chk"
 B after Tr=    -0.000000    0.000000   -0.000000
         Rot=    0.999794    0.000000   -0.000000    0.020292 Ang=   2.33 deg.
 Guess basis will be translated and rotated to current coordinates.
 JPrj=2 DoOrth=T DoCkMO=T.
 Generating alternative initial guess.
 ExpMin= 9.52D-02 ExpMax= 2.70D+04 ExpMxC= 9.22D+02 IAcc=3 IRadAn=         5 AccDes= 0.00D+00
 Harris functional with IExCor=  404 and IRadAn=       5 diagonalized for initial guess.
 HarFok:  IExCor=  404 AccDes= 0.00D+00 IRadAn=         5 IDoV= 1 UseB2=F ITyADJ=14
 ICtDFT=  3500011 ScaDFX=  1.000000  1.000000  1.000000  1.000000
 FoFCou: FMM=F IPFlag=           0 FMFlag=      100000 FMFlg1=           0
         NFxFlg=           0 DoJE=T BraDBF=F KetDBF=T FulRan=T
         wScrn=  0.000000 ICntrl=       500 IOpCl=  0 I1Cent=   200000004 NGrid=           0
         NMat0=    1 NMatS0=      1 NMatT0=    0 NMatD0=    1 NMtDS0=    0 NMtDT0=    0
 Petite list used in FoFCou.
 Harris En= -378.546036807399    
 Leave Link  401 at Mon Feb 22 21:13:49 2021, MaxMem=   104857600 cpu:               7.2 elap:               0.3
 (Enter /sw/arch/RedHatEnterpriseServer7/EB_production/2019/software/Gaussian/g16.c01/l502.exe)
 Keep J ints in memory in canonical form, NReq=62729413.
 FoFCou: FMM=F IPFlag=           0 FMFlag=           0 FMFlg1=           0
         NFxFlg=           0 DoJE=F BraDBF=F KetDBF=F FulRan=T
         wScrn=  0.000000 ICntrl=       600 IOpCl=  0 I1Cent=           0 NGrid=           0
         NMat0=    1 NMatS0=   8001 NMatT0=    0 NMatD0=    1 NMtDS0=    0 NMtDT0=    0
 Symmetry not used in FoFCou.
 Two-electron integral symmetry not used.
 Closed shell SCF:
 Using DIIS extrapolation, IDIIS=  1040.
 NGot=   104857600 LenX=    72804965 LenY=    72787100
 Requested convergence on RMS density matrix=1.00D-08 within 128 cycles.
 Requested convergence on MAX density matrix=1.00D-06.
 Requested convergence on             energy=1.00D-06.
 No special actions if energy rises.

 Cycle   1  Pass 1  IDiag  1:
 Inv3:  Mode=1 IEnd=     2718912.
 Iteration    1 A*A^-1 deviation from unit magnitude is 2.78D-15 for    364.
 Iteration    1 A*A^-1 deviation from orthogonality  is 1.00D-15 for    485    423.
 Iteration    1 A^-1*A deviation from unit magnitude is 2.66D-15 for    736.
 Iteration    1 A^-1*A deviation from orthogonality  is 1.04D-15 for    377    103.
 E= -378.489117996302    
 DIIS: error= 4.92D-03 at cycle   1 NSaved=   1.
 NSaved= 1 IEnMin= 1 EnMin= -378.489117996302     IErMin= 1 ErrMin= 4.92D-03
 ErrMax= 4.92D-03  0.00D+00 EMaxC= 1.00D-01 BMatC= 4.84D-03 BMatP= 4.84D-03
 IDIUse=3 WtCom= 9.51D-01 WtEn= 4.92D-02
 Coeff-Com:  0.100D+01
 Coeff-En:   0.100D+01
 Coeff:      0.100D+01
 Gap=     0.727 Goal=   None    Shift=    0.000
 GapD=    0.727 DampG=2.000 DampE=1.000 DampFc=2.0000 IDamp=-1.
 RMSDP=1.38D-03 MaxDP=3.70D-02              OVMax= 4.18D-02

 Cycle   2  Pass 1  IDiag  1:
 E= -378.492525408231     Delta-E=       -0.003407411929 Rises=F Damp=F
 DIIS: error= 6.36D-03 at cycle   2 NSaved=   2.
 NSaved= 2 IEnMin= 2 EnMin= -378.492525408231     IErMin= 1 ErrMin= 4.92D-03
 ErrMax= 6.36D-03  0.00D+00 EMaxC= 1.00D-01 BMatC= 3.85D-03 BMatP= 4.84D-03
 IDIUse=3 WtCom= 9.36D-01 WtEn= 6.36D-02
 Coeff-Com:  0.455D+00 0.545D+00
 Coeff-En:   0.612D-01 0.939D+00
 Coeff:      0.430D+00 0.570D+00
 Gap=     0.106 Goal=   None    Shift=    0.000
 RMSDP=7.20D-04 MaxDP=1.44D-02 DE=-3.41D-03 OVMax= 5.58D-02

 Cycle   3  Pass 1  IDiag  1:
 E= -378.489852444037     Delta-E=        0.002672964194 Rises=F Damp=F
 DIIS: error= 9.54D-03 at cycle   3 NSaved=   3.
 NSaved= 3 IEnMin= 2 EnMin= -378.492525408231     IErMin= 1 ErrMin= 4.92D-03
 ErrMax= 9.54D-03  0.00D+00 EMaxC= 1.00D-01 BMatC= 7.36D-03 BMatP= 3.85D-03
 IDIUse=3 WtCom= 9.29D-02 WtEn= 9.07D-01
 Coeff-Com:  0.355D-01 0.565D+00 0.400D+00
 Coeff-En:   0.000D+00 0.609D+00 0.391D+00
 Coeff:      0.329D-02 0.605D+00 0.392D+00
 Gap=     0.111 Goal=   None    Shift=    0.000
 RMSDP=3.81D-04 MaxDP=7.26D-03 DE= 2.67D-03 OVMax= 3.19D-02

 Cycle   4  Pass 1  IDiag  1:
 E= -378.495214696888     Delta-E=       -0.005362252851 Rises=F Damp=F
 DIIS: error= 1.60D-03 at cycle   4 NSaved=   4.
 NSaved= 4 IEnMin= 4 EnMin= -378.495214696888     IErMin= 4 ErrMin= 1.60D-03
 ErrMax= 1.60D-03  0.00D+00 EMaxC= 1.00D-01 BMatC= 2.22D-04 BMatP= 3.85D-03
 IDIUse=3 WtCom= 9.84D-01 WtEn= 1.60D-02
 Coeff-Com:  0.591D-02 0.370D+00 0.221D+00 0.403D+00
 Coeff-En:   0.000D+00 0.307D-01 0.000D+00 0.969D+00
 Coeff:      0.581D-02 0.364D+00 0.218D+00 0.412D+00
 Gap=     0.112 Goal=   None    Shift=    0.000
 RMSDP=7.87D-05 MaxDP=1.65D-03 DE=-5.36D-03 OVMax= 4.14D-03

 Cycle   5  Pass 1  IDiag  1:
 E= -378.495354793911     Delta-E=       -0.000140097023 Rises=F Damp=F
 DIIS: error= 2.76D-04 at cycle   5 NSaved=   5.
 NSaved= 5 IEnMin= 5 EnMin= -378.495354793911     IErMin= 5 ErrMin= 2.76D-04
 ErrMax= 2.76D-04  0.00D+00 EMaxC= 1.00D-01 BMatC= 1.13D-05 BMatP= 2.22D-04
 IDIUse=3 WtCom= 9.97D-01 WtEn= 2.76D-03
 Coeff-Com:  0.472D-04 0.141D+00 0.761D-01 0.253D+00 0.529D+00
 Coeff-En:   0.000D+00 0.000D+00 0.000D+00 0.000D+00 0.100D+01
 Coeff:      0.470D-04 0.141D+00 0.759D-01 0.253D+00 0.530D+00
 Gap=     0.112 Goal=   None    Shift=    0.000
 RMSDP=1.98D-05 MaxDP=2.68D-04 DE=-1.40D-04 OVMax= 9.48D-04

 Cycle   6  Pass 1  IDiag  1:
 E= -378.495362462375     Delta-E=       -0.000007668464 Rises=F Damp=F
 DIIS: error= 6.36D-05 at cycle   6 NSaved=   6.
 NSaved= 6 IEnMin= 6 EnMin= -378.495362462375     IErMin= 6 ErrMin= 6.36D-05
 ErrMax= 6.36D-05  0.00D+00 EMaxC= 1.00D-01 BMatC= 3.89D-07 BMatP= 1.13D-05
 IDIUse=1 WtCom= 1.00D+00 WtEn= 0.00D+00
 Coeff-Com: -0.113D-03 0.442D-01 0.214D-01 0.966D-01 0.265D+00 0.573D+00
 Coeff:     -0.113D-03 0.442D-01 0.214D-01 0.966D-01 0.265D+00 0.573D+00
 Gap=     0.112 Goal=   None    Shift=    0.000
 RMSDP=5.35D-06 MaxDP=1.05D-04 DE=-7.67D-06 OVMax= 2.08D-04

 Cycle   7  Pass 1  IDiag  1:
 E= -378.495362860266     Delta-E=       -0.000000397891 Rises=F Damp=F
 DIIS: error= 7.93D-06 at cycle   7 NSaved=   7.
 NSaved= 7 IEnMin= 7 EnMin= -378.495362860266     IErMin= 7 ErrMin= 7.93D-06
 ErrMax= 7.93D-06  0.00D+00 EMaxC= 1.00D-01 BMatC= 9.99D-09 BMatP= 3.89D-07
 IDIUse=1 WtCom= 1.00D+00 WtEn= 0.00D+00
 Coeff-Com: -0.253D-04 0.955D-02 0.396D-02 0.242D-01 0.675D-01 0.208D+00
 Coeff-Com:  0.687D+00
 Coeff:     -0.253D-04 0.955D-02 0.396D-02 0.242D-01 0.675D-01 0.208D+00
 Coeff:      0.687D+00
 Gap=     0.112 Goal=   None    Shift=    0.000
 RMSDP=1.19D-06 MaxDP=2.97D-05 DE=-3.98D-07 OVMax= 7.70D-05

 Cycle   8  Pass 1  IDiag  1:
 E= -378.495362857625     Delta-E=        0.000000002641 Rises=F Damp=F
 DIIS: error= 1.52D-05 at cycle   8 NSaved=   8.
 NSaved= 8 IEnMin= 7 EnMin= -378.495362860266     IErMin= 7 ErrMin= 7.93D-06
 ErrMax= 1.52D-05  0.00D+00 EMaxC= 1.00D-01 BMatC= 1.42D-08 BMatP= 9.99D-09
 IDIUse=1 WtCom= 1.00D+00 WtEn= 0.00D+00
 Coeff-Com: -0.135D-04 0.442D-02 0.156D-02 0.124D-01 0.347D-01 0.126D+00
 Coeff-Com:  0.559D+00 0.262D+00
 Coeff:     -0.135D-04 0.442D-02 0.156D-02 0.124D-01 0.347D-01 0.126D+00
 Coeff:      0.559D+00 0.262D+00
 Gap=     0.112 Goal=   None    Shift=    0.000
 RMSDP=6.71D-07 MaxDP=1.26D-05 DE= 2.64D-09 OVMax= 5.25D-05

 Cycle   9  Pass 1  IDiag  1:
 E= -378.495362868392     Delta-E=       -0.000000010768 Rises=F Damp=F
 DIIS: error= 7.96D-07 at cycle   9 NSaved=   9.
 NSaved= 9 IEnMin= 9 EnMin= -378.495362868392     IErMin= 9 ErrMin= 7.96D-07
 ErrMax= 7.96D-07  0.00D+00 EMaxC= 1.00D-01 BMatC= 7.17D-11 BMatP= 9.99D-09
 IDIUse=1 WtCom= 1.00D+00 WtEn= 0.00D+00
 Coeff-Com: -0.674D-05 0.450D-03 0.432D-04 0.157D-02 0.436D-02 0.198D-01
 Coeff-Com:  0.104D+00 0.778D-01 0.792D+00
 Coeff:     -0.674D-05 0.450D-03 0.432D-04 0.157D-02 0.436D-02 0.198D-01
 Coeff:      0.104D+00 0.778D-01 0.792D+00
 Gap=     0.112 Goal=   None    Shift=    0.000
 RMSDP=8.14D-08 MaxDP=2.32D-06 DE=-1.08D-08 OVMax= 3.39D-06

 Cycle  10  Pass 1  IDiag  1:
 E= -378.495362868449     Delta-E=       -0.000000000057 Rises=F Damp=F
 DIIS: error= 6.39D-08 at cycle  10 NSaved=  10.
 NSaved=10 IEnMin=10 EnMin= -378.495362868449     IErMin=10 ErrMin= 6.39D-08
 ErrMax= 6.39D-08  0.00D+00 EMaxC= 1.00D-01 BMatC= 5.44D-13 BMatP= 7.17D-11
 IDIUse=1 WtCom= 1.00D+00 WtEn= 0.00D+00
 Coeff-Com: -0.154D-06-0.173D-04-0.283D-04-0.194D-05 0.490D-04 0.784D-03
 Coeff-Com:  0.705D-02 0.930D-02 0.164D+00 0.819D+00
 Coeff:     -0.154D-06-0.173D-04-0.283D-04-0.194D-05 0.490D-04 0.784D-03
 Coeff:      0.705D-02 0.930D-02 0.164D+00 0.819D+00
 Gap=     0.112 Goal=   None    Shift=    0.000
 RMSDP=1.05D-08 MaxDP=2.86D-07 DE=-5.66D-11 OVMax= 2.05D-07

 Cycle  11  Pass 1  IDiag  1:
 E= -378.495362868449     Delta-E=       -0.000000000001 Rises=F Damp=F
 DIIS: error= 2.90D-08 at cycle  11 NSaved=  11.
 NSaved=11 IEnMin=11 EnMin= -378.495362868449     IErMin=11 ErrMin= 2.90D-08
 ErrMax= 2.90D-08  0.00D+00 EMaxC= 1.00D-01 BMatC= 1.71D-13 BMatP= 5.44D-13
 IDIUse=1 WtCom= 1.00D+00 WtEn= 0.00D+00
 Coeff-Com:  0.376D-07-0.183D-04-0.154D-04-0.318D-04-0.540D-04 0.309D-04
 Coeff-Com:  0.180D-02 0.346D-02 0.721D-01 0.451D+00 0.472D+00
 Coeff:      0.376D-07-0.183D-04-0.154D-04-0.318D-04-0.540D-04 0.309D-04
 Coeff:      0.180D-02 0.346D-02 0.721D-01 0.451D+00 0.472D+00
 Gap=     0.112 Goal=   None    Shift=    0.000
 RMSDP=2.46D-09 MaxDP=4.62D-08 DE=-5.68D-13 OVMax= 1.51D-07

 Error on total polarization charges =  0.00624
 SCF Done:  E(RB-P86) =  -378.495362868     A.U. after   11 cycles
            NFock= 11  Conv=0.25D-08     -V/T= 2.0038
 KE= 3.770667160631D+02 PE=-1.353808667557D+03 EE= 3.670107735691D+02
 Leave Link  502 at Mon Feb 22 21:13:52 2021, MaxMem=   104857600 cpu:              75.0 elap:               3.0
 (Enter /sw/arch/RedHatEnterpriseServer7/EB_production/2019/software/Gaussian/g16.c01/l701.exe)
 ... and contract with generalized density number  0.
 Compute integral first derivatives.
 R6Disp: Adding Grimme-D3 dispersion energy 1st derivatives to the gradient.
 PrsmSu:  requested number of processors reduced to:  30 ShMem   1 Linda.
 D1PCM: PCM CHGder 1st derivatives, ID1Alg=3 FixD1E=F DoIter=F DoCFld=F I1PDM=0.
 GePol: Maximum number of non-zero 1st derivatives   =     210
 CoulSu:  requested number of processors reduced to:  29 ShMem   1 Linda.
 CoulSu:  requested number of processors reduced to:  30 ShMem   1 Linda.
 Leave Link  701 at Mon Feb 22 21:13:53 2021, MaxMem=   104857600 cpu:              14.9 elap:               0.5
 (Enter /sw/arch/RedHatEnterpriseServer7/EB_production/2019/software/Gaussian/g16.c01/l702.exe)
 L702 exits ... SP integral derivatives will be done elsewhere.
 Leave Link  702 at Mon Feb 22 21:13:53 2021, MaxMem=   104857600 cpu:               0.6 elap:               0.0
 (Enter /sw/arch/RedHatEnterpriseServer7/EB_production/2019/software/Gaussian/g16.c01/l703.exe)
 Integral derivatives from FoFJK, PRISM(SPDF).
 Compute integral first derivatives, UseDBF=F ICtDFT=           0.
 Calling FoFJK, ICntrl=      2527 FMM=F ISym2X=0 I1Cent= 0 IOpClX= 0 NMat=1 NMatS=1 NMatT=0.
 FoFJK:  IHMeth= 1 ICntrl=    2527 DoSepK=F KAlg= 0 I1Cent=           0 FoldK=F
 IRaf=         0 NMat=       1 IRICut=       1 DoRegI=T DoRafI=F ISym2E= 0 IDoP0=0 IntGTp=1.
 FoFCou: FMM=F IPFlag=           0 FMFlag=      100000 FMFlg1=         800
         NFxFlg=           0 DoJE=F BraDBF=F KetDBF=F FulRan=T
         wScrn=  0.000000 ICntrl=      2527 IOpCl=  0 I1Cent=           0 NGrid=           0
         NMat0=    1 NMatS0=      1 NMatT0=    0 NMatD0=    1 NMtDS0=    0 NMtDT0=    0
 Symmetry not used in FoFCou.
 Leave Link  703 at Mon Feb 22 21:13:54 2021, MaxMem=   104857600 cpu:              13.1 elap:               0.5
 (Enter /sw/arch/RedHatEnterpriseServer7/EB_production/2019/software/Gaussian/g16.c01/l716.exe)
 Dipole        = 2.03582922D-03-1.45306110D-03 1.24363037D-05
 ***** Axes restored to original set *****
 -------------------------------------------------------------------
 Center     Atomic                   Forces (Hartrees/Bohr)
 Number     Number              X              Y              Z
 -------------------------------------------------------------------
      1        8           0.017220103   -0.012415566    0.006899458
      2        6          -0.029709039    0.063956806   -0.031531751
      3        8           0.008642349   -0.016081389    0.008008214
      4        6           0.029431324   -0.063754038    0.031418730
      5        8          -0.016979484    0.012162331   -0.006765871
      6        8          -0.008781128    0.016235178   -0.008088151
      7        1          -0.007438879    0.002417829   -0.001621377
      8        1           0.007614754   -0.002521151    0.001680748
 -------------------------------------------------------------------
 Cartesian Forces:  Max     0.063956806 RMS     0.023979217
 Leave Link  716 at Mon Feb 22 21:13:54 2021, MaxMem=   104857600 cpu:               0.7 elap:               0.1
 (Enter /sw/arch/RedHatEnterpriseServer7/EB_production/2019/software/Gaussian/g16.c01/l103.exe)

 GradGradGradGradGradGradGradGradGradGradGradGradGradGradGradGradGradGrad
 Berny optimization.
 Using GEDIIS/GDIIS optimizer.
 FormGI is forming the generalized inverse of G from B-inverse, IUseBI=4.
 Internal  Forces:  Max     0.040508798 RMS     0.012751799
 Search for a local minimum.
 Step number   2 out of a maximum of   33
 All quantities printed in internal units (Hartrees-Bohrs-Radians)
 RMS Force = .12752D-01 SwitMx=.10000D-02 MixMth= 1
 Mixed Optimization -- RFO/linear search
 Update second derivatives using D2CorX and points    1    2
 DE= -2.42D-02 DEPred=-2.29D-02 R= 1.06D+00
 TightC=F SS=  1.41D+00  RLast= 3.00D-01 DXNew= 5.0454D-01 9.0000D-01
 Trust test= 1.06D+00 RLast= 3.00D-01 DXMaxT set to 5.05D-01
 ITU=  1  0
 Use linear search instead of GDIIS.
     Eigenvalues ---    0.02074   0.02155   0.02156   0.02311   0.02313
     Eigenvalues ---    0.15982   0.16038   0.22987   0.25000   0.25000
     Eigenvalues ---    0.27599   0.39677   0.51386   0.51702   0.54365
     Eigenvalues ---    0.55336   0.81349   0.82761
 RFO step:  Lambda=-3.57035016D-03 EMin= 2.07436130D-02
 Quartic linear search produced a step of  0.68004.
 Iteration  1 RMS(Cart)=  0.04442660 RMS(Int)=  0.00117234
 Iteration  2 RMS(Cart)=  0.00199418 RMS(Int)=  0.00000031
 Iteration  3 RMS(Cart)=  0.00000039 RMS(Int)=  0.00000002
 ITry= 1 IFail=0 DXMaxC= 9.50D-02 DCOld= 1.00D+10 DXMaxT= 5.05D-01 DXLimC= 3.00D+00 Rises=F
 Variable       Old X    -DE/DX   Delta X   Delta X   Delta X     New X
                                 (Linear)    (Quad)   (Total)
    R1        2.34416  -0.02232  -0.01433  -0.02793  -0.04226   2.30190
    R2        2.53174  -0.00364  -0.01710   0.01006  -0.00704   2.52471
    R3        2.75575   0.04051   0.07349   0.05564   0.12913   2.88488
    R4        1.84634   0.00239  -0.00398   0.01274   0.00876   1.85511
    R5        2.34354  -0.02195  -0.01398  -0.02750  -0.04148   2.30206
    R6        2.53163  -0.00368  -0.01734   0.01022  -0.00712   2.52451
    R7        1.84607   0.00248  -0.00376   0.01272   0.00896   1.85503
    A1        2.15287   0.00808   0.05963  -0.02855   0.03108   2.18394
    A2        2.12477   0.00696   0.01097   0.03100   0.04197   2.16674
    A3        2.00555  -0.01504  -0.07060  -0.00245  -0.07305   1.93250
    A4        1.95711  -0.01407  -0.09451  -0.00139  -0.09590   1.86122
    A5        2.12449   0.00699   0.01140   0.03060   0.04199   2.16648
    A6        2.00494  -0.01493  -0.07016  -0.00233  -0.07249   1.93245
    A7        2.15376   0.00794   0.05877  -0.02827   0.03050   2.18426
    A8        1.95985  -0.01442  -0.09537  -0.00369  -0.09906   1.86078
    D1        0.00001  -0.00000  -0.00000  -0.00001  -0.00001   0.00000
    D2       -3.14158  -0.00000  -0.00000  -0.00000  -0.00001  -3.14159
    D3        3.14159   0.00000   0.00000   0.00000   0.00000   3.14159
    D4        0.00000  -0.00000  -0.00000   0.00000  -0.00000   0.00000
    D5       -0.00000   0.00000   0.00000  -0.00000   0.00000  -0.00000
    D6       -3.14159  -0.00000  -0.00000  -0.00000  -0.00000   3.14159
    D7       -3.14159  -0.00000   0.00000  -0.00001  -0.00000  -3.14159
    D8        0.00001  -0.00000  -0.00000  -0.00000  -0.00001   0.00000
         Item               Value     Threshold  Converged?
 Maximum Force            0.040509     0.000450     NO 
 RMS     Force            0.012752     0.000300     NO 
 Maximum Displacement     0.095003     0.001800     NO 
 RMS     Displacement     0.045403     0.001200     NO 
 Predicted change in Energy=-6.855157D-03
 Lowest energy point so far.  Saving SCF results.
 GradGradGradGradGradGradGradGradGradGradGradGradGradGradGradGradGradGrad

 Leave Link  103 at Mon Feb 22 21:13:54 2021, MaxMem=   104857600 cpu:              17.0 elap:               0.6
 (Enter /sw/arch/RedHatEnterpriseServer7/EB_production/2019/software/Gaussian/g16.c01/l202.exe)
                          Input orientation:                          
 ---------------------------------------------------------------------
 Center     Atomic      Atomic             Coordinates (Angstroms)
 Number     Number       Type             X           Y           Z
 ---------------------------------------------------------------------
      1          8           0       -0.970523    0.944041   -0.517550
      2          6           0       -0.027242    0.270617   -0.142695
      3          8           0        1.256164    0.633113   -0.222749
      4          6           0       -0.159312   -1.113730    0.487138
      5          8           0        0.784237   -1.786969    0.861925
      6          8           0       -1.442638   -1.476138    0.567159
      7          1           0        1.271355    1.524755   -0.633163
      8          1           0       -1.457452   -2.367739    0.977584
 ---------------------------------------------------------------------
                    Distance matrix (angstroms):
                    1          2          3          4          5
     1  O    0.000000
     2  C    1.218112   0.000000
     3  O    2.267537   1.336018   0.000000
     4  C    2.429379   1.526613   2.357747   0.000000
     5  O    3.527117   2.429283   2.693702   1.218196   0.000000
     6  O    2.693836   2.357624   3.515171   1.335915   2.267702
     7  H    2.318752   1.870768   0.981680   3.203667   3.666072
     8  H    3.666116   3.203349   4.220145   1.870359   2.318586
                    6          7          8
     6  O    0.000000
     7  H    4.220413   0.000000
     8  H    0.981641   5.019203   0.000000
 Stoichiometry    C2H2O4
 Framework group  C1[X(C2H2O4)]
 Deg. of freedom    18
 Full point group                 C1      NOp   1
 RotChk:  IX=0 Diff= 6.47D-02
 Largest Abelian subgroup         C1      NOp   1
 Largest concise Abelian subgroup C1      NOp   1
                         Standard orientation:                         
 ---------------------------------------------------------------------
 Center     Atomic      Atomic             Coordinates (Angstroms)
 Number     Number       Type             X           Y           Z
 ---------------------------------------------------------------------
      1          8           0       -1.214259   -1.278961   -0.000000
      2          6           0       -0.747594   -0.153785   -0.000001
      3          8           0       -1.462346    0.974963    0.000000
      4          6           0        0.747736    0.153680    0.000000
      5          8           0        1.214136    1.279057   -0.000000
      6          8           0        1.462376   -0.975018    0.000000
      7          1           0       -2.407387    0.709268    0.000003
      8          1           0        2.407277   -0.708971    0.000002
 ---------------------------------------------------------------------
 Rotational constants (GHZ):           6.0079231           3.5875028           2.2462204
 Leave Link  202 at Mon Feb 22 21:13:54 2021, MaxMem=   104857600 cpu:               0.3 elap:               0.0
 (Enter /sw/arch/RedHatEnterpriseServer7/EB_production/2019/software/Gaussian/g16.c01/l301.exe)
 Standard basis: TZVP (5D, 7F)
 Ernie: Thresh=  0.10000D-02 Tol=  0.10000D-05 Strict=F.
 There are   132 symmetry adapted cartesian basis functions of A   symmetry.
 There are   126 symmetry adapted basis functions of A   symmetry.
   126 basis functions,   226 primitive gaussians,   132 cartesian basis functions
    23 alpha electrons       23 beta electrons
       nuclear repulsion energy       230.9930220934 Hartrees.
 IExCor=  404 DFT=T Ex=B Corr=P86 ExCW=0 ScaHFX=  0.000000
 ScaDFX=  1.000000  1.000000  1.000000  1.000000 ScalE2=  1.000000  1.000000
 IRadAn=      5 IRanWt=     -1 IRanGd=            0 ICorTp=0 IEmpDi=131
 NAtoms=    8 NActive=    8 NUniq=    8 SFac= 1.00D+00 NAtFMM=   60 NAOKFM=F Big=F
 Integral buffers will be    131072 words long.
 Raffenetti 2 integral format.
 Two-electron integral symmetry is turned on.
 R6Disp:  Grimme-D3 Dispersion energy=       -0.0039613487 Hartrees.
 Nuclear repulsion after empirical dispersion term =      230.9890607447 Hartrees.
 ------------------------------------------------------------------------------
 Polarizable Continuum Model (PCM)
 =================================
 Model                : PCM.
 Atomic radii         : UFF (Universal Force Field).
 Polarization charges : Total charges.
 Charge compensation  : None.
 Solution method      : On-the-fly selection.
 Cavity type          : Scaled VdW (van der Waals Surface) (Alpha=1.100).
 Cavity algorithm     : GePol (No added spheres)
                        Default sphere list used, NSphG=    8.
                        Lebedev-Laikov grids with approx.  5.0 points / Ang**2.
                        Smoothing algorithm: York/Karplus (Gamma=1.0000).
                        Polarization charges: spherical gaussians, with
                                              point-specific exponents (IZeta= 3).
                        Self-potential: point-specific (ISelfS= 7).
                        Self-field    : sphere-specific E.n sum rule (ISelfD= 2).
 1st derivatives      : Analytical E(r).r(x)/FMM algorithm (CHGder, D1EAlg=3).
                        Cavity 1st derivative terms included.
 Solvent              : Water, Eps=  78.355300 Eps(inf)=   1.777849
 ------------------------------------------------------------------------------
 Spheres list:
 ISph  on   Nord     Re0    Alpha      Xe            Ye            Ze
    1   O      1    1.7500  1.100     -1.214259     -1.278961     -0.000000
    2   C      2    1.9255  1.100     -0.747594     -0.153785     -0.000001
    3   O      3    1.7500  1.100     -1.462346      0.974963      0.000000
    4   C      4    1.9255  1.100      0.747736      0.153680      0.000000
    5   O      5    1.7500  1.100      1.214136      1.279057     -0.000000
    6   O      6    1.7500  1.100      1.462376     -0.975018      0.000000
    7   H      7    1.4430  1.100     -2.407387      0.709268      0.000003
    8   H      8    1.4430  1.100      2.407277     -0.708971      0.000002
 ------------------------------------------------------------------------------
 GePol: Number of generator spheres                  =       8
 GePol: Total number of spheres                      =       8
 GePol: Number of exposed spheres                    =       8 (100.00%)
 GePol: Number of points                             =     942
 GePol: Average weight of points                     =       0.13
 GePol: Minimum weight of points                     =   0.56D-08
 GePol: Maximum weight of points                     =    0.20299
 GePol: Number of points with low weight             =      36
 GePol: Fraction of low-weight points (<1% of avg)   =       3.82%
 GePol: Cavity surface area                          =    125.665 Ang**2
 GePol: Cavity volume                                =    110.826 Ang**3
 Leave Link  301 at Mon Feb 22 21:13:55 2021, MaxMem=   104857600 cpu:               1.8 elap:               0.1
 (Enter /sw/arch/RedHatEnterpriseServer7/EB_production/2019/software/Gaussian/g16.c01/l302.exe)
 NPDir=0 NMtPBC=     1 NCelOv=     1 NCel=       1 NClECP=     1 NCelD=      1
         NCelK=      1 NCelE2=     1 NClLst=     1 CellRange=     0.0.
 One-electron integrals computed using PRISM.
 One-electron integral symmetry used in STVInt
 PrsmSu:  requested number of processors reduced to:  30 ShMem   1 Linda.
 NBasis=   126 RedAO= T EigKep=  5.89D-04  NBF=   126
 NBsUse=   126 1.00D-06 EigRej= -1.00D+00 NBFU=   126
 Precomputing XC quadrature grid using
 IXCGrd= 4 IRadAn=           5 IRanWt=          -1 IRanGd=           0 AccXCQ= 0.00D+00.
 Generated NRdTot=       0 NPtTot=           0 NUsed=           0 NTot=          32
 NSgBfM=   131   131   131   131   131 MxSgAt=     8 MxSgA2=     8.
 Leave Link  302 at Mon Feb 22 21:13:55 2021, MaxMem=   104857600 cpu:               4.5 elap:               0.2
 (Enter /sw/arch/RedHatEnterpriseServer7/EB_production/2019/software/Gaussian/g16.c01/l303.exe)
 DipDrv:  MaxL=1.
 Leave Link  303 at Mon Feb 22 21:13:55 2021, MaxMem=   104857600 cpu:               1.4 elap:               0.1
 (Enter /sw/arch/RedHatEnterpriseServer7/EB_production/2019/software/Gaussian/g16.c01/l401.exe)
 Initial guess from the checkpoint file:  "MUBZPKHOEPUJKR-UHFFFAOYSA-N.chk"
 B after Tr=    -0.000000   -0.000000    0.000000
         Rot=    0.999618    0.000000   -0.000000    0.027648 Ang=   3.17 deg.
 Guess basis will be translated and rotated to current coordinates.
 JPrj=2 DoOrth=T DoCkMO=T.
 Generating alternative initial guess.
 ExpMin= 9.52D-02 ExpMax= 2.70D+04 ExpMxC= 9.22D+02 IAcc=3 IRadAn=         5 AccDes= 0.00D+00
 Harris functional with IExCor=  404 and IRadAn=       5 diagonalized for initial guess.
 HarFok:  IExCor=  404 AccDes= 0.00D+00 IRadAn=         5 IDoV= 1 UseB2=F ITyADJ=14
 ICtDFT=  3500011 ScaDFX=  1.000000  1.000000  1.000000  1.000000
 FoFCou: FMM=F IPFlag=           0 FMFlag=      100000 FMFlg1=           0
         NFxFlg=           0 DoJE=T BraDBF=F KetDBF=T FulRan=T
         wScrn=  0.000000 ICntrl=       500 IOpCl=  0 I1Cent=   200000004 NGrid=           0
         NMat0=    1 NMatS0=      1 NMatT0=    0 NMatD0=    1 NMtDS0=    0 NMtDT0=    0
 Petite list used in FoFCou.
 Harris En= -378.552918195281    
 Leave Link  401 at Mon Feb 22 21:13:55 2021, MaxMem=   104857600 cpu:              13.2 elap:               0.5
 (Enter /sw/arch/RedHatEnterpriseServer7/EB_production/2019/software/Gaussian/g16.c01/l502.exe)
 Keep J ints in memory in canonical form, NReq=62729413.
 FoFCou: FMM=F IPFlag=           0 FMFlag=           0 FMFlg1=           0
         NFxFlg=           0 DoJE=F BraDBF=F KetDBF=F FulRan=T
         wScrn=  0.000000 ICntrl=       600 IOpCl=  0 I1Cent=           0 NGrid=           0
         NMat0=    1 NMatS0=   8001 NMatT0=    0 NMatD0=    1 NMtDS0=    0 NMtDT0=    0
 Symmetry not used in FoFCou.
 Two-electron integral symmetry not used.
 Closed shell SCF:
 Using DIIS extrapolation, IDIIS=  1040.
 NGot=   104857600 LenX=    72804965 LenY=    72787100
 Requested convergence on RMS density matrix=1.00D-08 within 128 cycles.
 Requested convergence on MAX density matrix=1.00D-06.
 Requested convergence on             energy=1.00D-06.
 No special actions if energy rises.

 Cycle   1  Pass 1  IDiag  1:
 Inv3:  Mode=1 IEnd=     2662092.
 Iteration    1 A*A^-1 deviation from unit magnitude is 2.66D-15 for    442.
 Iteration    1 A*A^-1 deviation from orthogonality  is 1.08D-15 for    230     44.
 Iteration    1 A^-1*A deviation from unit magnitude is 2.66D-15 for    751.
 Iteration    1 A^-1*A deviation from orthogonality  is 1.55D-15 for    855    462.
 E= -378.497750278506    
 DIIS: error= 5.30D-03 at cycle   1 NSaved=   1.
 NSaved= 1 IEnMin= 1 EnMin= -378.497750278506     IErMin= 1 ErrMin= 5.30D-03
 ErrMax= 5.30D-03  0.00D+00 EMaxC= 1.00D-01 BMatC= 3.84D-03 BMatP= 3.84D-03
 IDIUse=3 WtCom= 9.47D-01 WtEn= 5.30D-02
 Coeff-Com:  0.100D+01
 Coeff-En:   0.100D+01
 Coeff:      0.100D+01
 Gap=     0.728 Goal=   None    Shift=    0.000
 GapD=    0.728 DampG=2.000 DampE=1.000 DampFc=2.0000 IDamp=-1.
 RMSDP=1.11D-03 MaxDP=2.72D-02              OVMax= 3.91D-02

 Cycle   2  Pass 1  IDiag  1:
 E= -378.499275317584     Delta-E=       -0.001525039078 Rises=F Damp=F
 DIIS: error= 7.16D-03 at cycle   2 NSaved=   2.
 NSaved= 2 IEnMin= 2 EnMin= -378.499275317584     IErMin= 1 ErrMin= 5.30D-03
 ErrMax= 7.16D-03  0.00D+00 EMaxC= 1.00D-01 BMatC= 4.38D-03 BMatP= 3.84D-03
 IDIUse=3 WtCom= 1.06D-01 WtEn= 8.94D-01
 Coeff-Com:  0.524D+00 0.476D+00
 Coeff-En:   0.322D+00 0.678D+00
 Coeff:      0.343D+00 0.657D+00
 Gap=     0.119 Goal=   None    Shift=    0.000
 RMSDP=8.10D-04 MaxDP=1.68D-02 DE=-1.53D-03 OVMax= 6.57D-02

 Cycle   3  Pass 1  IDiag  1:
 E= -378.493033551692     Delta-E=        0.006241765892 Rises=F Damp=F
 DIIS: error= 1.27D-02 at cycle   3 NSaved=   3.
[...]
 K. Raghavachari, A. P. Rendell, J. C. Burant, S. S. Iyengar, 
 J. Tomasi, M. Cossi, J. M. Millam, M. Klene, C. Adamo, R. Cammi, 
 J. W. Ochterski, R. L. Martin, K. Morokuma, O. Farkas, 
 J. B. Foresman, and D. J. Fox, Gaussian, Inc., Wallingford CT, 2019.
 
 ******************************************
 Gaussian 16:  ES64L-G16RevC.01  3-Jul-2019
                22-Feb-2021 
 ******************************************
 %chk=MUBZPKHOEPUJKR-UHFFFAOYSA-N.chk
 %NProcShared=32
 Will use up to   32 processors via shared memory.
 ---------------------------------------------------------
 # BP86/TZVP SCRF=COSMORS geom=CHECKPOINT guess=CHECKPOINT
 ---------------------------------------------------------
 1/29=2,38=1,172=1/1;
 2/12=2,40=1/2;
 3/5=19,7=101,11=2,14=-4,25=1,30=1,70=12101,74=404,116=-2/1,2,3;
 4/5=1/1;
 5/5=2,38=6/2;
 6/7=2,8=2,9=2,10=2,28=1/1;
 99/5=1,9=1/99;
 -------------------------------------------
 COSMO-file for #MUBZPKHOEPUJKR-UHFFFAOYSA-N
 -------------------------------------------
 Structure from the checkpoint file:  "MUBZPKHOEPUJKR-UHFFFAOYSA-N.chk"
 Charge =  0 Multiplicity = 1
 Redundant internal coordinates found in file.  (old form).
 O,0,-0.9832912946,0.9455515605,-0.5191131956
 C,0,-0.0355483541,0.2837081283,-0.1493022763
 O,0,1.2578251655,0.6442788079,-0.2277884795
 C,0,-0.1508224818,-1.1267134497,0.4937090161
 O,0,0.7969191245,-1.7885826004,0.8635321515
 O,0,-1.4441898998,-1.4872838648,0.5721976272
 H,0,1.298077278,1.5365972586,-0.6368121548
 H,0,-1.4843795377,-2.3796058405,0.9812273114
 Recover connectivity data from disk.
                           ----------------------------
                           !    Current Parameters    !
                           ! (Angstroms and Degrees)  !
 --------------------------                            --------------------------
 ! Name  Definition              Value                                          !
 --------------------------------------------------------------------------------
 ! R1    R(1,2)                  1.2137                                         !
 ! R2    R(2,3)                  1.345                                          !
 ! R3    R(2,4)                  1.5544                                         !
 ! R4    R(3,7)                  0.9824                                         !
 ! R5    R(4,5)                  1.2137                                         !
 ! R6    R(4,6)                  1.345                                          !
 ! R7    R(6,8)                  0.9824                                         !
 ! A1    A(1,2,3)              125.9406                                         !
 ! A2    A(1,2,4)              124.2607                                         !
 ! A3    A(3,2,4)              109.7986                                         !
 ! A4    A(2,3,7)              107.8902                                         !
 ! A5    A(2,4,5)              124.2618                                         !
 ! A6    A(2,4,6)              109.7987                                         !
 ! A7    A(5,4,6)              125.9394                                         !
 ! A8    A(4,6,8)              107.8866                                         !
 ! D1    D(1,2,3,7)             -0.0003                                         !
 ! D2    D(4,2,3,7)           -179.9997                                         !
 ! D3    D(1,2,4,5)           -180.0                                            !
 ! D4    D(1,2,4,6)              0.0005                                         !
 ! D5    D(3,2,4,5)             -0.0005                                         !
 ! D6    D(3,2,4,6)            179.9999                                         !
 ! D7    D(2,4,6,8)            179.9997                                         !
 ! D8    D(5,4,6,8)              0.0002                                         !
 --------------------------------------------------------------------------------
                          Input orientation:                          
 ---------------------------------------------------------------------
 Center     Atomic      Atomic             Coordinates (Angstroms)
 Number     Number       Type             X           Y           Z
 ---------------------------------------------------------------------
      1          8           0       -0.983291    0.945552   -0.519113
      2          6           0       -0.035548    0.283708   -0.149302
      3          8           0        1.257825    0.644279   -0.227788
      4          6           0       -0.150822   -1.126713    0.493709
      5          8           0        0.796919   -1.788583    0.863532
      6          8           0       -1.444190   -1.487284    0.572198
      7          1           0        1.298077    1.536597   -0.636812
      8          1           0       -1.484380   -2.379606    0.981227
 ---------------------------------------------------------------------
                    Distance matrix (angstroms):
                    1          2          3          4          5
     1  O    0.000000
     2  C    1.213678   0.000000
     3  O    2.279965   1.344986   0.000000
     4  C    2.452161   1.554362   2.375134   0.000000
     5  O    3.543494   2.452188   2.705962   1.213694   0.000000
     6  O    2.705933   2.375131   3.533330   1.344980   2.279962
     7  H    2.359625   1.893662   0.982422   3.235833   3.682257
     8  H    3.682225   3.235808   4.257380   1.893618   2.359552
                    6          7          8
     6  O    0.000000
     7  H    4.257416   0.000000
     8  H    0.982425   5.069198   0.000000
 Stoichiometry    C2H2O4
 Framework group  C1[X(C2H2O4)]
 Deg. of freedom    18
 Full point group                 C1      NOp   1
 Largest Abelian subgroup         C1      NOp   1
 Largest concise Abelian subgroup C1      NOp   1
                         Standard orientation:                         
 ---------------------------------------------------------------------
 Center     Atomic      Atomic             Coordinates (Angstroms)
 Number     Number       Type             X           Y           Z
 ---------------------------------------------------------------------
      1          8           0       -1.215145   -1.289374    0.000000
      2          6           0       -0.759591   -0.164437   -0.000003
      3          8           0       -1.472591    0.976009    0.000001
      4          6           0        0.759582    0.164430    0.000002
      5          8           0        1.215164    1.289374   -0.000001
      6          8           0        1.472582   -0.976010    0.000000
      7          1           0       -2.425318    0.736289    0.000002
      8          1           0        2.425296   -0.736229   -0.000001
 ---------------------------------------------------------------------
 Rotational constants (GHZ):           5.9332173           3.5457792           2.2194204
 Standard basis: TZVP (5D, 7F)
 There are   132 symmetry adapted cartesian basis functions of A   symmetry.
 There are   126 symmetry adapted basis functions of A   symmetry.
   126 basis functions,   226 primitive gaussians,   132 cartesian basis functions
    23 alpha electrons       23 beta electrons
       nuclear repulsion energy       229.7871542368 Hartrees.
 NAtoms=    8 NActive=    8 NUniq=    8 SFac= 1.00D+00 NAtFMM=   60 NAOKFM=F Big=F
 Integral buffers will be    131072 words long.
 Raffenetti 2 integral format.
 Two-electron integral symmetry is turned on.
 Warning! Using old PCM defaults because the COSMOthermo output has been requested.
 These settings can be overridden by following keywords.
 ------------------------------------------------------------------------------
 Polarizable Continuum Model (PCM)
 =================================
 Model                : C-PCM.
 Atomic radii         : Klamt.
 XCosmo               : -1.000 (infinite dielectric limit)
 Polarization charges : Electronic and nuclear charges.
 Charge compensation  : Type 3 (Electronic density weighted correction).
 Solution method      : On-the-fly selection.
 Cavity type          : VdW (van der Waals Surface) (Alpha=1.000).
 Cavity algorithm     : GePol (No added spheres)
                        Default sphere list used, NSphG=    8.
                        Tesserae with average area of 0.200 Ang**2.
                        Smoothing algorithm: None.
                        Polarization charges: point-like.
                        Self-potential: constant (ISelfS= 1).
                        Self-field    : global E.n sum rule (ISelfD= 3).
 Solvent              : Water, Eps=  78.355300 Eps(inf)=   1.777849
 ------------------------------------------------------------------------------
 Spheres list:
 ISph  on   Nord     Re0    Alpha      Xe            Ye            Ze
    1   O      1    1.7200  1.000     -1.215145     -1.289374      0.000000
    2   C      2    2.0000  1.000     -0.759591     -0.164437     -0.000003
    3   O      3    1.7200  1.000     -1.472591      0.976009      0.000001
    4   C      4    2.0000  1.000      0.759582      0.164430      0.000002
    5   O      5    1.7200  1.000      1.215164      1.289374     -0.000001
    6   O      6    1.7200  1.000      1.472582     -0.976010      0.000000
    7   H      7    1.3000  1.000     -2.425318      0.736289      0.000002
    8   H      8    1.3000  1.000      2.425296     -0.736229     -0.000001
 ------------------------------------------------------------------------------
 One-electron integrals computed using PRISM.
 PrsmSu:  requested number of processors reduced to:  30 ShMem   1 Linda.
 NBasis=   126 RedAO= T EigKep=  6.80D-04  NBF=   126
 NBsUse=   126 1.00D-06 EigRej= -1.00D+00 NBFU=   126
 Initial guess from the checkpoint file:  "MUBZPKHOEPUJKR-UHFFFAOYSA-N.chk"
 B after Tr=    -0.000000   -0.000000   -0.000000
         Rot=    1.000000    0.000000   -0.000000    0.000000 Ang=   0.00 deg.
 Keep J ints in memory in canonical form, NReq=62729413.
 Requested convergence on RMS density matrix=1.00D-08 within 128 cycles.
 Requested convergence on MAX density matrix=1.00D-06.
 Requested convergence on             energy=1.00D-06.
 No special actions if energy rises.
 Inv3:  Mode=1 IEnd=     1486848.
 Iteration    1 A*A^-1 deviation from unit magnitude is 4.00D-15 for    384.
 Iteration    1 A*A^-1 deviation from orthogonality  is 1.98D-15 for    700    607.
 Iteration    1 A^-1*A deviation from unit magnitude is 3.66D-15 for    384.
 Iteration    1 A^-1*A deviation from orthogonality  is 1.10D-15 for    545    218.
 Error on nuclear    polarization charges =  0.01446
 Error on electronic polarization charges = -0.03100
 SCF Done:  E(RB-P86) =  -378.507566168     A.U. after   10 cycles
            NFock= 10  Conv=0.50D-08     -V/T= 2.0038
 --------------------------------------------------------------------
 Variational C-PCM results
 =========================
 <psi(f)|   H    |psi(f)>                     (a.u.) =    -378.482106
 <psi(f)|H+V(f)/2|psi(f)>                     (a.u.) =    -378.507566
 Total free energy in solution:
 - with all non electrostatic terms           (a.u.) =    -378.500233
 --------------------------------------------------------------------
 (Polarized solute)-Solvent               (kcal/mol) =     -15.98
 --------------------------------------------------------------------
 Cavitation energy                        (kcal/mol) =      13.78
 Dispersion energy                        (kcal/mol) =     -10.10
 Repulsion energy                         (kcal/mol) =       0.92
 Total non electrostatic                  (kcal/mol) =       4.60
 --------------------------------------------------------------------
 Partition over spheres:
 Sphere  on Atom  Surface  Charge   GEl     GCav    GDR
    1      O1      19.87   0.191   -2.36    2.47   -1.64
    2      C2      11.18  -0.076   -0.59    1.31   -0.77
    3      O3      15.32   0.055   -1.08    1.90   -1.30
    4      C4      11.18  -0.076   -0.59    1.31   -0.77
    5      O5      19.87   0.191   -2.37    2.47   -1.64
    6      O6      15.32   0.055   -1.08    1.90   -1.30
    7      H7       8.53  -0.170   -3.96    1.20   -0.89
    8      H8       8.53  -0.170   -3.96    1.20   -0.89
 --------------------------------------------------------------------
 - cavitation energy not included in the total energy.
 - dispersion energy not included in the total energy.
 - repulsion  energy not included in the total energy.
 After PCM corrections, the energy is  -378.507566168     a.u.
 --------------------------------------------------------------------
 Writing COSMO formatted file "MUBZPKHOEPUJKR-UHFFFAOYSA-N.cosmo"
 Recomputed dielectric energy= -0.025538 old= -0.025460 diff=-7.78D-05

 **********************************************************************

            Population analysis using the SCF Density.

 **********************************************************************

 Orbital symmetries:
       Occupied  (A) (A) (A) (A) (A) (A) (A) (A) (A) (A) (A) (A)
                 (A) (A) (A) (A) (A) (A) (A) (A) (A) (A) (A)
       Virtual   (A) (A) (A) (A) (A) (A) (A) (A) (A) (A) (A) (A)
                 (A) (A) (A) (A) (A) (A) (A) (A) (A) (A) (A) (A)
                 (A) (A) (A) (A) (A) (A) (A) (A) (A) (A) (A) (A)
                 (A) (A) (A) (A) (A) (A) (A) (A) (A) (A) (A) (A)
                 (A) (A) (A) (A) (A) (A) (A) (A) (A) (A) (A) (A)
                 (A) (A) (A) (A) (A) (A) (A) (A) (A) (A) (A) (A)
                 (A) (A) (A) (A) (A) (A) (A) (A) (A) (A) (A) (A)
                 (A) (A) (A) (A) (A) (A) (A) (A) (A) (A) (A) (A)
                 (A) (A) (A) (A) (A) (A) (A)
 The electronic state is 1-A.
 Alpha  occ. eigenvalues --  -18.84186 -18.84185 -18.79400 -18.79399 -10.05925
 Alpha  occ. eigenvalues --  -10.05917  -1.05676  -1.03452  -0.97326  -0.95881
 Alpha  occ. eigenvalues --   -0.67020  -0.58469  -0.48824  -0.46125  -0.45809
 Alpha  occ. eigenvalues --   -0.45194  -0.40029  -0.39958  -0.36885  -0.31718
 Alpha  occ. eigenvalues --   -0.30797  -0.30500  -0.25122
 Alpha virt. eigenvalues --   -0.11981   0.00856   0.02491   0.03029   0.09421
 Alpha virt. eigenvalues --    0.11927   0.15140   0.18773   0.20717   0.22366
 Alpha virt. eigenvalues --    0.24809   0.25243   0.25290   0.27857   0.33247
 Alpha virt. eigenvalues --    0.35591   0.35702   0.38274   0.39510   0.41449
 Alpha virt. eigenvalues --    0.42147   0.45278   0.46374   0.47070   0.50514
 Alpha virt. eigenvalues --    0.51580   0.55606   0.58067   0.60651   0.64676
 Alpha virt. eigenvalues --    0.69766   0.72213   0.80809   0.81862   0.92451
 Alpha virt. eigenvalues --    1.17759   1.19548   1.21611   1.24988   1.26785
 Alpha virt. eigenvalues --    1.29624   1.32321   1.36102   1.36167   1.37293
 Alpha virt. eigenvalues --    1.46888   1.53919   1.57022   1.63893   1.70934
 Alpha virt. eigenvalues --    1.74061   1.89603   1.91046   1.91311   2.00324
 Alpha virt. eigenvalues --    2.05353   2.13718   2.15724   2.30587   2.40008
 Alpha virt. eigenvalues --    2.42553   2.43077   2.46823   2.47575   2.50855
 Alpha virt. eigenvalues --    2.51958   2.52588   2.54243   2.54314   2.55720
 Alpha virt. eigenvalues --    2.58759   2.60194   2.61535   2.64218   2.75847
 Alpha virt. eigenvalues --    2.77591   2.77732   2.79149   2.81840   2.82257
 Alpha virt. eigenvalues --    2.83416   2.94986   2.96554   3.02536   3.07207
 Alpha virt. eigenvalues --    3.07725   3.11427   3.14473   3.24072   3.31712
 Alpha virt. eigenvalues --    3.42196   3.77168   3.78294   4.07483   4.09596
 Alpha virt. eigenvalues --    4.17711   4.19076  21.66936  21.71108  42.93851
 Alpha virt. eigenvalues --   43.00616  43.05051  43.21510
          Condensed to atoms (all electrons):
               1          2          3          4          5          6
     1  O    7.914384   0.568522  -0.093360  -0.098714   0.004299   0.015694
     2  C    0.568522   5.000929   0.340101   0.113071  -0.098710  -0.131226
     3  O   -0.093360   0.340101   7.822915  -0.131222   0.015693   0.004671
     4  C   -0.098714   0.113071  -0.131222   5.000980   0.568517   0.340082
     5  O    0.004299  -0.098710   0.015693   0.568517   7.914388  -0.093361
     6  O    0.015694  -0.131226   0.004671   0.340082  -0.093361   7.822934
     7  H    0.000505  -0.016936   0.292282   0.014504  -0.000851  -0.000348
     8  H   -0.000851   0.014505  -0.000348  -0.016934   0.000505   0.292281
               7          8
     1  O    0.000505  -0.000851
     2  C   -0.016936   0.014505
     3  O    0.292282  -0.000348
     4  C    0.014504  -0.016934
     5  O   -0.000851   0.000505
     6  O   -0.000348   0.292281
     7  H    0.359322   0.000033
     8  H    0.000033   0.359339
 Mulliken charges:
               1
     1  O   -0.310480
     2  C    0.209744
     3  O   -0.250731
     4  C    0.209717
     5  O   -0.310481
     6  O   -0.250727
     7  H    0.351489
     8  H    0.351470
 Sum of Mulliken charges =  -0.00000
 Mulliken charges with hydrogens summed into heavy atoms:
               1
     1  O   -0.310480
     2  C    0.209744
     3  O    0.100758
     4  C    0.209717
     5  O   -0.310481
     6  O    0.100742
 Electronic spatial extent (au):  <R**2>=            500.8263
 Charge=             -0.0000 electrons
 Dipole moment (field-independent basis, Debye):
    X=             -0.0004    Y=              0.0001    Z=              0.0008  Tot=              0.0009
 Quadrupole moment (field-independent basis, Debye-Ang):
   XX=            -20.3426   YY=            -43.5257   ZZ=            -32.1288
   XY=             -7.7521   XZ=              0.0003   YZ=              0.0001
 Traceless Quadrupole moment (field-independent basis, Debye-Ang):
   XX=             11.6564   YY=            -11.5267   ZZ=             -0.1297
   XY=             -7.7521   XZ=              0.0003   YZ=              0.0001
 Octapole moment (field-independent basis, Debye-Ang**2):
  XXX=             -0.0029  YYY=              0.0002  ZZZ=              0.0013  XYY=             -0.0006
  XXY=              0.0012  XXZ=              0.0014  XZZ=             -0.0002  YZZ=             -0.0000
  YYZ=              0.0006  XYZ=             -0.0001
 Hexadecapole moment (field-independent basis, Debye-Ang**3):
 XXXX=           -204.9342 YYYY=           -232.0814 ZZZZ=            -26.7851 XXXY=            -53.4886
 XXXZ=              0.0012 YYYX=            -14.2052 YYYZ=              0.0006 ZZZX=              0.0004
 ZZZY=              0.0001 XXYY=            -98.2843 XXZZ=            -60.0520 YYZZ=            -40.2630
 XXYZ=             -0.0001 YYXZ=              0.0006 ZZXY=             -0.8285
 N-N= 2.297871542368D+02 E-N=-1.350937638845D+03  KE= 3.770608209035D+02
 Unable to Open any file for archive entry.
 1\1\GINC-TCN1719\SP\RBP86\TZVP\C2H2O4\ELENAA\22-Feb-2021\0\\# BP86/TZV
 P SCRF=COSMORS geom=CHECKPOINT guess=CHECKPOINT\\COSMO-file for #MUBZP
 KHOEPUJKR-UHFFFAOYSA-N\\0,1\O,0,-0.9832912946,0.9455515605,-0.51911319
 56\C,0,-0.0355483541,0.2837081283,-0.1493022763\O,0,1.2578251655,0.644
 2788079,-0.2277884795\C,0,-0.1508224818,-1.1267134497,0.4937090161\O,0
 ,0.7969191245,-1.7885826004,0.8635321515\O,0,-1.4441898998,-1.48728386
 48,0.5721976272\H,0,1.298077278,1.5365972586,-0.6368121548\H,0,-1.4843
 795377,-2.3796058405,0.9812273114\\Version=ES64L-G16RevC.01\State=1-A\
 HF=-378.5075662\RMSD=5.021e-09\Dipole=0.0000627,0.0002652,0.0002446\Qu
 adrupole=-4.0334587,3.8438075,0.1896512,8.5294713,-4.203442,-1.238829\
 PG=C01 [X(C2H2O4)]\\@
 The archive entry for this job was punched.


 IN THE UNIVERSE THE DIFFICULT THINGS ARE DONE AS IF THEY WERE EASY.

                                                          -- LAO-TSU
 Job cpu time:       0 days  0 hours  1 minutes 24.3 seconds.
 Elapsed time:       0 days  0 hours  0 minutes  3.5 seconds.
 File lengths (MBytes):  RWF=     15 Int=      0 D2E=      0 Chk=      4 Scr=      1
 Normal termination of Gaussian 16 at Mon Feb 22 21:14:13 2021.
