 Entering Gaussian System, Link 0=g16
 Input=MVFGUOIZUNYYSO-UHFFFAOYSA-N.gjf
 Output=MVFGUOIZUNYYSO-UHFFFAOYSA-N.log
 Initial command:
 /sw/arch/RedHatEnterpriseServer7/EB_production/2019/software/Gaussian/g16.c01/l1.exe "/scratch-local/elenaa.9715241/Gau-11123.inp" -scrdir="/scratch-local/elenaa.9715241/"
 Entering Link 1 = /sw/arch/RedHatEnterpriseServer7/EB_production/2019/software/Gaussian/g16.c01/l1.exe PID=     11125.
  
 Copyright (c) 1988-2019, Gaussian, Inc.  All Rights Reserved.
  
 This is part of the Gaussian(R) 16 program.  It is based on
 the Gaussian(R) 09 system (copyright 2009, Gaussian, Inc.),
 the Gaussian(R) 03 system (copyright 2003, Gaussian, Inc.),
 the Gaussian(R) 98 system (copyright 1998, Gaussian, Inc.),
 the Gaussian(R) 94 system (copyright 1995, Gaussian, Inc.),
 the Gaussian 92(TM) system (copyright 1992, Gaussian, Inc.),
 the Gaussian 90(TM) system (copyright 1990, Gaussian, Inc.),
 the Gaussian 88(TM) system (copyright 1988, Gaussian, Inc.),
 the Gaussian 86(TM) system (copyright 1986, Carnegie Mellon
 University), and the Gaussian 82(TM) system (copyright 1983,
 Carnegie Mellon University). Gaussian is a federally registered
 trademark of Gaussian, Inc.
  
 This software contains proprietary and confidential information,
 including trade secrets, belonging to Gaussian, Inc.
  
 This software is provided under written license and may be
 used, copied, transmitted, or stored only in accord with that
 written license.
  
 The following legend is applicable only to US Government
 contracts under FAR:
  
                    RESTRICTED RIGHTS LEGEND
  
 Use, reproduction and disclosure by the US Government is
 subject to restrictions as set forth in subparagraphs (a)
 and (c) of the Commercial Computer Software - Restricted
 Rights clause in FAR 52.227-19.
  
 Gaussian, Inc.
 340 Quinnipiac St., Bldg. 40, Wallingford CT 06492
  
  
 ---------------------------------------------------------------
 Warning -- This program may not be used in any manner that
 competes with the business of Gaussian, Inc. or will provide
 assistance to any competitor of Gaussian, Inc.  The licensee
 of this program is prohibited from giving any competitor of
 Gaussian, Inc. access to this program.  By using this program,
 the user acknowledges that Gaussian, Inc. is engaged in the
 business of creating and licensing software in the field of
 computational chemistry and represents and warrants to the
 licensee that it is not a competitor of Gaussian, Inc. and that
 it will not use this program in any manner prohibited above.
 ---------------------------------------------------------------
  

 Cite this work as:
 Gaussian 16, Revision C.01,
 M. J. Frisch, G. W. Trucks, H. B. Schlegel, G. E. Scuseria, 
 M. A. Robb, J. R. Cheeseman, G. Scalmani, V. Barone, 
 G. A. Petersson, H. Nakatsuji, X. Li, M. Caricato, A. V. Marenich, 
 J. Bloino, B. G. Janesko, R. Gomperts, B. Mennucci, H. P. Hratchian, 
 J. V. Ortiz, A. F. Izmaylov, J. L. Sonnenberg, D. Williams-Young, 
 F. Ding, F. Lipparini, F. Egidi, J. Goings, B. Peng, A. Petrone, 
 T. Henderson, D. Ranasinghe, V. G. Zakrzewski, J. Gao, N. Rega, 
 G. Zheng, W. Liang, M. Hada, M. Ehara, K. Toyota, R. Fukuda, 
 J. Hasegawa, M. Ishida, T. Nakajima, Y. Honda, O. Kitao, H. Nakai, 
 T. Vreven, K. Throssell, J. A. Montgomery, Jr., J. E. Peralta, 
 F. Ogliaro, M. J. Bearpark, J. J. Heyd, E. N. Brothers, K. N. Kudin, 
 V. N. Staroverov, T. A. Keith, R. Kobayashi, J. Normand, 
 K. Raghavachari, A. P. Rendell, J. C. Burant, S. S. Iyengar, 
 J. Tomasi, M. Cossi, J. M. Millam, M. Klene, C. Adamo, R. Cammi, 
 J. W. Ochterski, R. L. Martin, K. Morokuma, O. Farkas, 
 J. B. Foresman, and D. J. Fox, Gaussian, Inc., Wallingford CT, 2019.
 
 ******************************************
 Gaussian 16:  ES64L-G16RevC.01  3-Jul-2019
                22-Feb-2021 
 ******************************************
 %chk=MVFGUOIZUNYYSO-UHFFFAOYSA-N.chk
 %NProcShared=32
 Will use up to   32 processors via shared memory.
 -------------------------------------------------------------
 #P BP86/TZVP EmpiricalDispersion=GD3 SCRF=(Solvent=Water) Opt
 -------------------------------------------------------------
 1/18=20,19=15,26=3,38=1/1,3;
 2/9=110,12=2,17=6,18=5,40=1/2;
 3/5=19,7=101,11=2,25=1,30=1,70=2201,71=1,72=1,74=404,124=31/1,2,3;
 4//1;
 5/5=2,38=5,53=1/2;
 6/7=2,8=2,9=2,10=2,28=1/1;
 7//1,2,3,16;
 1/18=20,19=15,26=3/3(2);
 2/9=110/2;
 99//99;
 2/9=110/2;
 3/5=19,7=101,11=2,25=1,30=1,70=2205,71=1,72=1,74=404,124=31/1,2,3;
 4/5=5,16=3,69=1/1;
 5/5=2,38=5,53=1/2;
 7//1,2,3,16;
 1/18=20,19=15,26=3/3(-5);
 2/9=110/2;
 6/7=2,8=2,9=2,10=2,19=2,28=1/1;
 99/9=1/99;
 Leave Link    1 at Mon Feb 22 21:14:21 2021, MaxMem=           0 cpu:               1.8 elap:               0.1
 (Enter /sw/arch/RedHatEnterpriseServer7/EB_production/2019/software/Gaussian/g16.c01/l101.exe)
 -------------------------------------
 Particle #MVFGUOIZUNYYSO-UHFFFAOYSA-N
 -------------------------------------
 Symbolic Z-matrix:
 Charge =  0 Multiplicity = 1
 C                    -0.85895   3.31229  -2.53278 
 C                     0.00688   2.5257   -1.52663 
 C                     0.94437   3.4276   -0.69089 
 N                     1.63595   2.5838    0.30534 
 C                     2.31933   3.25797   1.43562 
 C                     3.73869   3.74876   1.05154 
 C                     2.36255   2.27822   2.55038 
 O                     1.87952   2.61863   3.65555 
 N                     2.9248    1.05381   2.31047 
 C                     3.07315  -0.05889   3.10473 
 C                     2.4499   -0.21893   4.36929 
 C                     2.66708  -1.36752   5.1477 
 C                     3.50107  -2.38848   4.67383 
 C                     4.10113  -2.26936   3.41127 
 C                     3.89043  -1.11967   2.61069 
 C                     4.52403  -1.05729   1.26386 
 H                    -0.23028   3.77664  -3.29443 
 H                    -1.5567    2.63147  -3.02208 
 H                    -1.43228   4.08913  -2.02252 
 H                    -0.65509   1.98272  -0.84734 
 H                     0.60245   1.7918   -2.0762 
 H                     0.34375   4.19311  -0.19032 
 H                     1.6787    3.91303  -1.33887 
 H                     2.32911   2.02315  -0.19129 
 H                     1.73891   4.1337    1.74922 
 H                     4.1804    4.29978   1.88395 
 H                     4.39211   2.91003   0.80206 
 H                     3.69305   4.41519   0.18929 
 H                     3.2943    0.96724   1.41676 
 H                     1.8186    0.48541   4.74583 
 H                     2.2162   -1.46214   6.05982 
 H                     3.66482  -3.21872   5.24484 
 H                     4.69284  -3.03526   3.07934 
 H                     5.15492  -0.17221   1.18469 
 H                     5.14645  -1.92701   1.04763 
 H                     3.74842  -1.00852   0.49777 
 
 ITRead=  0  0  0  0  0  0  0  0  0  0  0  0  0  0  0  0  0  0  0  0
 ITRead=  0  0  0  0  0  0  0  0  0  0  0  0  0  0  0  0
 MicOpt= -1 -1 -1 -1 -1 -1 -1 -1 -1 -1 -1 -1 -1 -1 -1 -1 -1 -1 -1 -1
 MicOpt= -1 -1 -1 -1 -1 -1 -1 -1 -1 -1 -1 -1 -1 -1 -1 -1
 NAtoms=     36 NQM=       36 NQMF=       0 NMMI=      0 NMMIF=      0
                NMic=       0 NMicF=      0.
                    Isotopes and Nuclear Properties:
 (Nuclear quadrupole moments (NQMom) in fm**2, nuclear magnetic moments (NMagM)
  in nuclear magnetons)

  Atom         1           2           3           4           5           6           7           8           9          10
 IAtWgt=          12          12          12          14          12          12          12          16          14          12
 AtmWgt=  12.0000000  12.0000000  12.0000000  14.0030740  12.0000000  12.0000000  12.0000000  15.9949146  14.0030740  12.0000000
 NucSpn=           0           0           0           2           0           0           0           0           2           0
 AtZEff=  -0.0000000  -0.0000000  -0.0000000  -0.0000000  -0.0000000  -0.0000000  -0.0000000  -0.0000000  -0.0000000  -0.0000000
 NQMom=    0.0000000   0.0000000   0.0000000   2.0440000   0.0000000   0.0000000   0.0000000   0.0000000   2.0440000   0.0000000
 NMagM=    0.0000000   0.0000000   0.0000000   0.4037610   0.0000000   0.0000000   0.0000000   0.0000000   0.4037610   0.0000000
 AtZNuc=   6.0000000   6.0000000   6.0000000   7.0000000   6.0000000   6.0000000   6.0000000   8.0000000   7.0000000   6.0000000

  Atom        11          12          13          14          15          16          17          18          19          20
 IAtWgt=          12          12          12          12          12          12           1           1           1           1
 AtmWgt=  12.0000000  12.0000000  12.0000000  12.0000000  12.0000000  12.0000000   1.0078250   1.0078250   1.0078250   1.0078250
 NucSpn=           0           0           0           0           0           0           1           1           1           1
 AtZEff=  -0.0000000  -0.0000000  -0.0000000  -0.0000000  -0.0000000  -0.0000000  -0.0000000  -0.0000000  -0.0000000  -0.0000000
 NQMom=    0.0000000   0.0000000   0.0000000   0.0000000   0.0000000   0.0000000   0.0000000   0.0000000   0.0000000   0.0000000
 NMagM=    0.0000000   0.0000000   0.0000000   0.0000000   0.0000000   0.0000000   2.7928460   2.7928460   2.7928460   2.7928460
 AtZNuc=   6.0000000   6.0000000   6.0000000   6.0000000   6.0000000   6.0000000   1.0000000   1.0000000   1.0000000   1.0000000

  Atom        21          22          23          24          25          26          27          28          29          30
 IAtWgt=           1           1           1           1           1           1           1           1           1           1
 AtmWgt=   1.0078250   1.0078250   1.0078250   1.0078250   1.0078250   1.0078250   1.0078250   1.0078250   1.0078250   1.0078250
 NucSpn=           1           1           1           1           1           1           1           1           1           1
 AtZEff=  -0.0000000  -0.0000000  -0.0000000  -0.0000000  -0.0000000  -0.0000000  -0.0000000  -0.0000000  -0.0000000  -0.0000000
 NQMom=    0.0000000   0.0000000   0.0000000   0.0000000   0.0000000   0.0000000   0.0000000   0.0000000   0.0000000   0.0000000
 NMagM=    2.7928460   2.7928460   2.7928460   2.7928460   2.7928460   2.7928460   2.7928460   2.7928460   2.7928460   2.7928460
 AtZNuc=   1.0000000   1.0000000   1.0000000   1.0000000   1.0000000   1.0000000   1.0000000   1.0000000   1.0000000   1.0000000

  Atom        31          32          33          34          35          36
 IAtWgt=           1           1           1           1           1           1
 AtmWgt=   1.0078250   1.0078250   1.0078250   1.0078250   1.0078250   1.0078250
 NucSpn=           1           1           1           1           1           1
 AtZEff=  -0.0000000  -0.0000000  -0.0000000  -0.0000000  -0.0000000  -0.0000000
 NQMom=    0.0000000   0.0000000   0.0000000   0.0000000   0.0000000   0.0000000
 NMagM=    2.7928460   2.7928460   2.7928460   2.7928460   2.7928460   2.7928460
 AtZNuc=   1.0000000   1.0000000   1.0000000   1.0000000   1.0000000   1.0000000
 Leave Link  101 at Mon Feb 22 21:14:21 2021, MaxMem=   104857600 cpu:               2.6 elap:               0.1
 (Enter /sw/arch/RedHatEnterpriseServer7/EB_production/2019/software/Gaussian/g16.c01/l103.exe)

 GradGradGradGradGradGradGradGradGradGradGradGradGradGradGradGradGradGrad
 Berny optimization.
 Initialization pass.
                           ----------------------------
                           !    Initial Parameters    !
                           ! (Angstroms and Degrees)  !
 --------------------------                            --------------------------
 ! Name  Definition              Value          Derivative Info.                !
 --------------------------------------------------------------------------------
 ! R1    R(1,2)                  1.543          estimate D2E/DX2                !
 ! R2    R(1,17)                 1.0913         estimate D2E/DX2                !
 ! R3    R(1,18)                 1.0908         estimate D2E/DX2                !
 ! R4    R(1,19)                 1.092          estimate D2E/DX2                !
 ! R5    R(2,3)                  1.5462         estimate D2E/DX2                !
 ! R6    R(2,20)                 1.0929         estimate D2E/DX2                !
 ! R7    R(2,21)                 1.0933         estimate D2E/DX2                !
 ! R8    R(3,4)                  1.4774         estimate D2E/DX2                !
 ! R9    R(3,22)                 1.0942         estimate D2E/DX2                !
 ! R10   R(3,23)                 1.0931         estimate D2E/DX2                !
 ! R11   R(4,5)                  1.4829         estimate D2E/DX2                !
 ! R12   R(4,24)                 1.0205         estimate D2E/DX2                !
 ! R13   R(5,6)                  1.5502         estimate D2E/DX2                !
 ! R14   R(5,7)                  1.4847         estimate D2E/DX2                !
 ! R15   R(5,25)                 1.0964         estimate D2E/DX2                !
 ! R16   R(6,26)                 1.0916         estimate D2E/DX2                !
 ! R17   R(6,27)                 1.0921         estimate D2E/DX2                !
 ! R18   R(6,28)                 1.0907         estimate D2E/DX2                !
 ! R19   R(7,8)                  1.2532         estimate D2E/DX2                !
 ! R20   R(7,9)                  1.3685         estimate D2E/DX2                !
 ! R21   R(9,10)                 1.3751         estimate D2E/DX2                !
 ! R22   R(9,29)                 0.9709         estimate D2E/DX2                !
 ! R23   R(10,11)                1.4189         estimate D2E/DX2                !
 ! R24   R(10,15)                1.4273         estimate D2E/DX2                !
 ! R25   R(11,12)                1.4044         estimate D2E/DX2                !
 ! R26   R(11,30)                1.018          estimate D2E/DX2                !
 ! R27   R(12,13)                1.4009         estimate D2E/DX2                !
 ! R28   R(12,31)                1.0219         estimate D2E/DX2                !
 ! R29   R(13,14)                1.403          estimate D2E/DX2                !
 ! R30   R(13,32)                1.0209         estimate D2E/DX2                !
 ! R31   R(14,15)                1.4167         estimate D2E/DX2                !
 ! R32   R(14,33)                1.0232         estimate D2E/DX2                !
 ! R33   R(15,16)                1.4897         estimate D2E/DX2                !
 ! R34   R(16,34)                1.0898         estimate D2E/DX2                !
 ! R35   R(16,35)                1.0911         estimate D2E/DX2                !
 ! R36   R(16,36)                1.0913         estimate D2E/DX2                !
 ! A1    A(2,1,17)             110.4118         estimate D2E/DX2                !
 ! A2    A(2,1,18)             109.468          estimate D2E/DX2                !
 ! A3    A(2,1,19)             110.6443         estimate D2E/DX2                !
 ! A4    A(17,1,18)            108.7239         estimate D2E/DX2                !
 ! A5    A(17,1,19)            109.0179         estimate D2E/DX2                !
 ! A6    A(18,1,19)            108.5281         estimate D2E/DX2                !
 ! A7    A(1,2,3)              113.2867         estimate D2E/DX2                !
 ! A8    A(1,2,20)             108.5838         estimate D2E/DX2                !
 ! A9    A(1,2,21)             108.669          estimate D2E/DX2                !
 ! A10   A(3,2,20)             108.7285         estimate D2E/DX2                !
 ! A11   A(3,2,21)             109.4483         estimate D2E/DX2                !
 ! A12   A(20,2,21)            107.9914         estimate D2E/DX2                !
 ! A13   A(2,3,4)              108.3695         estimate D2E/DX2                !
 ! A14   A(2,3,22)             108.8159         estimate D2E/DX2                !
 ! A15   A(2,3,23)             110.2401         estimate D2E/DX2                !
 ! A16   A(4,3,22)             110.3668         estimate D2E/DX2                !
 ! A17   A(4,3,23)             109.8102         estimate D2E/DX2                !
 ! A18   A(22,3,23)            109.224          estimate D2E/DX2                !
 ! A19   A(3,4,5)              118.0358         estimate D2E/DX2                !
 ! A20   A(3,4,24)             107.672          estimate D2E/DX2                !
 ! A21   A(5,4,24)             107.9191         estimate D2E/DX2                !
 ! A22   A(4,5,6)              112.1504         estimate D2E/DX2                !
 ! A23   A(4,5,7)              106.5998         estimate D2E/DX2                !
 ! A24   A(4,5,25)             109.7043         estimate D2E/DX2                !
 ! A25   A(6,5,7)              111.6106         estimate D2E/DX2                !
 ! A26   A(6,5,25)             107.6198         estimate D2E/DX2                !
 ! A27   A(7,5,25)             109.1303         estimate D2E/DX2                !
 ! A28   A(5,6,26)             109.9607         estimate D2E/DX2                !
 ! A29   A(5,6,27)             111.179          estimate D2E/DX2                !
 ! A30   A(5,6,28)             110.5485         estimate D2E/DX2                !
 ! A31   A(26,6,27)            108.6485         estimate D2E/DX2                !
 ! A32   A(26,6,28)            108.1394         estimate D2E/DX2                !
 ! A33   A(27,6,28)            108.2819         estimate D2E/DX2                !
 ! A34   A(5,7,8)              118.1411         estimate D2E/DX2                !
 ! A35   A(5,7,9)              118.0815         estimate D2E/DX2                !
 ! A36   A(8,7,9)              123.7772         estimate D2E/DX2                !
 ! A37   A(7,9,10)             131.8376         estimate D2E/DX2                !
 ! A38   A(7,9,29)             113.4207         estimate D2E/DX2                !
 ! A39   A(10,9,29)            114.7365         estimate D2E/DX2                !
 ! A40   A(9,10,11)            123.9633         estimate D2E/DX2                !
 ! A41   A(9,10,15)            117.5948         estimate D2E/DX2                !
 ! A42   A(11,10,15)           118.436          estimate D2E/DX2                !
 ! A43   A(10,11,12)           121.2189         estimate D2E/DX2                !
 ! A44   A(10,11,30)           121.6006         estimate D2E/DX2                !
 ! A45   A(12,11,30)           117.176          estimate D2E/DX2                !
 ! A46   A(11,12,13)           120.0413         estimate D2E/DX2                !
 ! A47   A(11,12,31)           120.1479         estimate D2E/DX2                !
 ! A48   A(13,12,31)           119.8107         estimate D2E/DX2                !
 ! A49   A(12,13,14)           119.8125         estimate D2E/DX2                !
 ! A50   A(12,13,32)           119.9339         estimate D2E/DX2                !
 ! A51   A(14,13,32)           120.2522         estimate D2E/DX2                !
 ! A52   A(13,14,15)           120.9193         estimate D2E/DX2                !
 ! A53   A(13,14,33)           118.407          estimate D2E/DX2                !
 ! A54   A(15,14,33)           120.6733         estimate D2E/DX2                !
 ! A55   A(10,15,14)           119.5164         estimate D2E/DX2                !
 ! A56   A(10,15,16)           121.691          estimate D2E/DX2                !
 ! A57   A(14,15,16)           118.7909         estimate D2E/DX2                !
 ! A58   A(15,16,34)           110.2368         estimate D2E/DX2                !
 ! A59   A(15,16,35)           112.8548         estimate D2E/DX2                !
 ! A60   A(15,16,36)           109.5279         estimate D2E/DX2                !
 ! A61   A(34,16,35)           107.6213         estimate D2E/DX2                !
 ! A62   A(34,16,36)           108.9147         estimate D2E/DX2                !
 ! A63   A(35,16,36)           107.574          estimate D2E/DX2                !
 ! D1    D(17,1,2,3)            65.418          estimate D2E/DX2                !
 ! D2    D(17,1,2,20)         -173.685          estimate D2E/DX2                !
 ! D3    D(17,1,2,21)          -56.4549         estimate D2E/DX2                !
 ! D4    D(18,1,2,3)          -174.9236         estimate D2E/DX2                !
 ! D5    D(18,1,2,20)          -54.0266         estimate D2E/DX2                !
 ! D6    D(18,1,2,21)           63.2035         estimate D2E/DX2                !
 ! D7    D(19,1,2,3)           -55.3629         estimate D2E/DX2                !
 ! D8    D(19,1,2,20)           65.5341         estimate D2E/DX2                !
 ! D9    D(19,1,2,21)         -177.2358         estimate D2E/DX2                !
 ! D10   D(1,2,3,4)            175.4258         estimate D2E/DX2                !
 ! D11   D(1,2,3,22)            55.3883         estimate D2E/DX2                !
 ! D12   D(1,2,3,23)           -64.3727         estimate D2E/DX2                !
 ! D13   D(20,2,3,4)            54.6105         estimate D2E/DX2                !
 ! D14   D(20,2,3,22)          -65.427          estimate D2E/DX2                !
 ! D15   D(20,2,3,23)          174.8121         estimate D2E/DX2                !
 ! D16   D(21,2,3,4)           -63.138          estimate D2E/DX2                !
 ! D17   D(21,2,3,22)          176.8245         estimate D2E/DX2                !
 ! D18   D(21,2,3,23)           57.0635         estimate D2E/DX2                !
 ! D19   D(2,3,4,5)           -164.8178         estimate D2E/DX2                !
 ! D20   D(2,3,4,24)            72.8043         estimate D2E/DX2                !
 ! D21   D(22,3,4,5)           -45.754          estimate D2E/DX2                !
 ! D22   D(22,3,4,24)         -168.1319         estimate D2E/DX2                !
 ! D23   D(23,3,4,5)            74.7129         estimate D2E/DX2                !
 ! D24   D(23,3,4,24)          -47.665          estimate D2E/DX2                !
 ! D25   D(3,4,5,6)            -83.2203         estimate D2E/DX2                !
 ! D26   D(3,4,5,7)            154.3481         estimate D2E/DX2                !
 ! D27   D(3,4,5,25)            36.3136         estimate D2E/DX2                !
 ! D28   D(24,4,5,6)            39.0322         estimate D2E/DX2                !
 ! D29   D(24,4,5,7)           -83.3993         estimate D2E/DX2                !
 ! D30   D(24,4,5,25)          158.5661         estimate D2E/DX2                !
 ! D31   D(4,5,6,26)           176.0135         estimate D2E/DX2                !
 ! D32   D(4,5,6,27)           -63.6179         estimate D2E/DX2                !
 ! D33   D(4,5,6,28)            56.681          estimate D2E/DX2                !
 ! D34   D(7,5,6,26)           -64.4464         estimate D2E/DX2                !
 ! D35   D(7,5,6,27)            55.9222         estimate D2E/DX2                !
 ! D36   D(7,5,6,28)           176.2211         estimate D2E/DX2                !
 ! D37   D(25,5,6,26)           55.2669         estimate D2E/DX2                !
 ! D38   D(25,5,6,27)          175.6355         estimate D2E/DX2                !
 ! D39   D(25,5,6,28)          -64.0656         estimate D2E/DX2                !
 ! D40   D(4,5,7,8)           -124.8827         estimate D2E/DX2                !
 ! D41   D(4,5,7,9)             54.9544         estimate D2E/DX2                !
 ! D42   D(6,5,7,8)            112.3467         estimate D2E/DX2                !
 ! D43   D(6,5,7,9)            -67.8162         estimate D2E/DX2                !
 ! D44   D(25,5,7,8)            -6.4712         estimate D2E/DX2                !
 ! D45   D(25,5,7,9)           173.3659         estimate D2E/DX2                !
 ! D46   D(5,7,9,10)          -177.6255         estimate D2E/DX2                !
 ! D47   D(5,7,9,29)             3.2667         estimate D2E/DX2                !
 ! D48   D(8,7,9,10)             2.2017         estimate D2E/DX2                !
 ! D49   D(8,7,9,29)          -176.9061         estimate D2E/DX2                !
 ! D50   D(7,9,10,11)           10.0602         estimate D2E/DX2                !
 ! D51   D(7,9,10,15)         -170.8457         estimate D2E/DX2                !
 ! D52   D(29,9,10,11)        -170.8412         estimate D2E/DX2                !
 ! D53   D(29,9,10,15)           8.2529         estimate D2E/DX2                !
 ! D54   D(9,10,11,12)        -178.46           estimate D2E/DX2                !
 ! D55   D(9,10,11,30)           2.3354         estimate D2E/DX2                !
 ! D56   D(15,10,11,12)          2.453          estimate D2E/DX2                !
 ! D57   D(15,10,11,30)       -176.7516         estimate D2E/DX2                !
 ! D58   D(9,10,15,14)         178.2675         estimate D2E/DX2                !
 ! D59   D(9,10,15,16)          -2.2261         estimate D2E/DX2                !
 ! D60   D(11,10,15,14)         -2.587          estimate D2E/DX2                !
 ! D61   D(11,10,15,16)        176.9195         estimate D2E/DX2                !
 ! D62   D(10,11,12,13)         -0.6643         estimate D2E/DX2                !
 ! D63   D(10,11,12,31)        179.4656         estimate D2E/DX2                !
 ! D64   D(30,11,12,13)        178.5742         estimate D2E/DX2                !
 ! D65   D(30,11,12,31)         -1.2959         estimate D2E/DX2                !
 ! D66   D(11,12,13,14)         -1.0059         estimate D2E/DX2                !
 ! D67   D(11,12,13,32)        179.4218         estimate D2E/DX2                !
 ! D68   D(31,12,13,14)        178.8647         estimate D2E/DX2                !
 ! D69   D(31,12,13,32)         -0.7076         estimate D2E/DX2                !
 ! D70   D(12,13,14,15)          0.8342         estimate D2E/DX2                !
 ! D71   D(12,13,14,33)       -178.9218         estimate D2E/DX2                !
 ! D72   D(32,13,14,15)       -179.5949         estimate D2E/DX2                !
 ! D73   D(32,13,14,33)          0.6491         estimate D2E/DX2                !
 ! D74   D(13,14,15,10)          0.991          estimate D2E/DX2                !
 ! D75   D(13,14,15,16)       -178.5298         estimate D2E/DX2                !
 ! D76   D(33,14,15,10)       -179.2586         estimate D2E/DX2                !
 ! D77   D(33,14,15,16)          1.2206         estimate D2E/DX2                !
 ! D78   D(10,15,16,34)         57.5244         estimate D2E/DX2                !
 ! D79   D(10,15,16,35)        177.8899         estimate D2E/DX2                !
 ! D80   D(10,15,16,36)        -62.2987         estimate D2E/DX2                !
 ! D81   D(14,15,16,34)       -122.9657         estimate D2E/DX2                !
 ! D82   D(14,15,16,35)         -2.6002         estimate D2E/DX2                !
 ! D83   D(14,15,16,36)        117.2112         estimate D2E/DX2                !
 --------------------------------------------------------------------------------
 Trust Radius=3.00D-01 FncErr=1.00D-07 GrdErr=1.00D-06 EigMax=2.50D+02 EigMin=1.00D-04
 Number of steps in this run=    192 maximum allowed number of steps=    216.
 GradGradGradGradGradGradGradGradGradGradGradGradGradGradGradGradGradGrad

 Leave Link  103 at Mon Feb 22 21:14:22 2021, MaxMem=   104857600 cpu:               0.6 elap:               0.1
 (Enter /sw/arch/RedHatEnterpriseServer7/EB_production/2019/software/Gaussian/g16.c01/l202.exe)
                          Input orientation:                          
 ---------------------------------------------------------------------
 Center     Atomic      Atomic             Coordinates (Angstroms)
 Number     Number       Type             X           Y           Z
 ---------------------------------------------------------------------
      1          6           0       -0.858950    3.312290   -2.532780
      2          6           0        0.006880    2.525700   -1.526630
      3          6           0        0.944370    3.427600   -0.690890
      4          7           0        1.635950    2.583800    0.305340
      5          6           0        2.319330    3.257970    1.435620
      6          6           0        3.738690    3.748760    1.051540
      7          6           0        2.362550    2.278220    2.550380
      8          8           0        1.879520    2.618630    3.655550
      9          7           0        2.924800    1.053810    2.310470
     10          6           0        3.073150   -0.058890    3.104730
     11          6           0        2.449900   -0.218930    4.369290
     12          6           0        2.667080   -1.367520    5.147700
     13          6           0        3.501070   -2.388480    4.673830
     14          6           0        4.101130   -2.269360    3.411270
     15          6           0        3.890430   -1.119670    2.610690
     16          6           0        4.524030   -1.057290    1.263860
     17          1           0       -0.230280    3.776640   -3.294430
     18          1           0       -1.556700    2.631470   -3.022080
     19          1           0       -1.432280    4.089130   -2.022520
     20          1           0       -0.655090    1.982720   -0.847340
     21          1           0        0.602450    1.791800   -2.076200
     22          1           0        0.343750    4.193110   -0.190320
     23          1           0        1.678700    3.913030   -1.338870
     24          1           0        2.329110    2.023150   -0.191290
     25          1           0        1.738910    4.133700    1.749220
     26          1           0        4.180400    4.299780    1.883950
     27          1           0        4.392110    2.910030    0.802060
     28          1           0        3.693050    4.415190    0.189290
     29          1           0        3.294300    0.967240    1.416760
     30          1           0        1.818600    0.485410    4.745830
     31          1           0        2.216200   -1.462140    6.059820
     32          1           0        3.664820   -3.218720    5.244840
     33          1           0        4.692840   -3.035260    3.079340
     34          1           0        5.154920   -0.172210    1.184690
     35          1           0        5.146450   -1.927010    1.047630
     36          1           0        3.748420   -1.008520    0.497770
 ---------------------------------------------------------------------
                    Distance matrix (angstroms):
                    1          2          3          4          5
     1  C    0.000000
     2  C    1.542959   0.000000
     3  C    2.580275   1.546212   0.000000
     4  N    3.848396   2.452215   1.477415   0.000000
     5  C    5.084546   3.828651   2.537978   1.482918   0.000000
     6  C    5.846037   4.697791   3.308690   2.517034   1.550153
     7  C    6.106216   4.715129   3.719965   2.379397   1.484745
     8  O    6.802633   5.510935   4.518902   3.359233   2.351654
     9  N    6.547867   5.040243   4.308729   2.832411   2.447504
    10  C    7.655572   6.126305   5.576204   4.109250   3.788896
    11  C    8.429506   6.947173   6.416325   5.003349   4.551077
    12  C    9.660398   8.171934   7.749196   6.334399   5.941012
    13  C   10.170732   8.648944   8.315270   6.876478   6.615505
    14  C    9.544053   8.008642   7.697285   6.267143   6.134279
    15  C    8.285781   6.744487   6.344869   4.910500   4.797174
    16  C    7.904693   6.405411   6.062116   4.745240   4.848884
    17  H    1.091310   2.178580   2.877508   4.226586   5.398417
    18  H    1.090773   2.166181   3.510502   4.611617   5.940303
    19  H    1.092041   2.182064   2.803449   4.135092   5.169539
    20  H    2.156391   1.092916   2.161117   2.634166   3.960473
    21  H    2.157787   1.093316   2.170676   2.714244   4.174950
    22  H    2.776590   2.163206   1.094221   2.122578   2.724167
    23  H    2.868096   2.180578   1.093051   2.114736   2.921867
    24  H    4.160311   2.725517   2.034597   1.020510   2.042477
    25  H    5.075344   4.039404   2.661580   2.120750   1.096419
    26  H    6.773307   5.674300   4.226392   3.451206   2.179438
    27  H    6.233506   4.980035   3.792583   2.819499   2.195194
    28  H    5.417265   4.483570   3.050458   2.756650   2.186230
    29  H    6.192545   4.679687   4.002216   2.568783   2.489652
    30  H    8.254616   6.840239   6.243291   4.914728   4.346874
    31  H   10.299733   8.850886   8.432034   7.058354   6.608578
    32  H   11.118002   9.603733   9.317044   7.885697   7.633349
    33  H   10.129642   8.607988   8.368645   6.972337   6.923880
    34  H    7.882129   6.413446   5.848518   4.555436   4.457541
    35  H    8.736958   7.271081   7.025082   5.763854   5.918375
    36  H    7.005818   5.530644   5.380964   4.171849   4.596172
                    6          7          8          9         10
     6  C    0.000000
     7  C    2.510532   0.000000
     8  O    3.393313   1.253235   0.000000
     9  N    3.083841   1.368525   2.313117   0.000000
    10  C    4.376840   2.504863   2.982829   1.375121   0.000000
    11  C    5.330198   3.090602   2.981024   2.466604   1.418861
    12  C    6.641024   4.486672   4.328528   3.738868   2.459905
    13  C    7.130439   5.251986   5.360734   4.215082   2.841158
    14  C    6.474369   4.944115   5.374725   3.693098   2.457008
    15  C    5.114253   3.726085   4.371542   2.397204   1.427332
    16  C    4.874418   4.177650   5.121133   2.847749   2.547677
    17  H    5.885657   6.567331   7.354894   6.984500   8.159239
    18  H    6.773764   6.821848   7.509894   7.142055   8.137036
    19  H    6.025332   6.212209   6.735790   6.853621   7.987093
    20  H    5.101955   4.553896   5.206212   4.863152   5.804033
    21  H    4.842360   4.973912   5.930220   5.018049   6.030875
    22  H    3.642153   3.905611   4.430383   4.771894   6.032121
    23  H    3.159842   4.273935   5.163335   4.800582   6.120966
    24  H    2.551328   2.753713   3.918534   2.748321   3.968908
    25  H    2.152686   2.115086   2.439119   3.347695   4.603848
    26  H    1.091621   2.799181   3.355426   3.506390   4.659862
    27  H    1.092092   2.752257   3.813191   2.806038   3.982013
    28  H    1.090728   3.451321   4.304820   4.048270   5.376008
    29  H    2.840374   1.967720   3.121037   0.970949   1.987736
    30  H    5.289988   2.886183   2.396466   2.734545   2.136204
    31  H    7.386090   5.131070   4.748321   4.570530   3.381720
    32  H    8.132343   6.258784   6.307757   5.235711   3.861952
    33  H    7.144600   5.826072   6.341393   4.520799   3.388631
    34  H    4.171024   3.958162   4.962074   2.782794   2.834283
    35  H    5.847749   5.262349   6.175510   3.926294   3.467002
    36  H    4.789412   4.115398   5.159513   2.866607   2.855526
                   11         12         13         14         15
    11  C    0.000000
    12  C    1.404403   0.000000
    13  C    2.429949   1.400875   0.000000
    14  C    2.801540   2.425903   1.402968   0.000000
    15  C    2.445227   2.827443   2.453167   1.416725   0.000000
    16  C    3.827343   4.316100   3.800843   2.501865   1.489729
    17  H    9.048787  10.301778  10.743596  10.014072   8.707729
    18  H    8.877498  10.028836  10.488468   9.870014   8.687369
    19  H    8.630524   9.899083  10.542224  10.028714   8.770945
    20  H    6.457666   7.628986   8.177064   7.670565   6.499581
    21  H    7.000032   8.150382   8.452198   7.671122   6.422959
    22  H    6.685208   8.050648   8.771884   8.297763   6.974971
    23  H    7.088789   8.422392   8.898462   8.164187   6.768962
    24  H    5.083346   6.333694   6.671234   5.877426   4.490671
    25  H    5.129879   6.532579   7.361887   7.024363   5.741869
    26  H    5.439695   6.712711   7.278581   6.744820   5.475644
    27  H    5.127153   6.337014   6.622595   5.806783   4.445369
    28  H    6.363402   7.686233   8.150944   7.431749   6.044569
    29  H    3.292027   4.445720   4.681038   3.886467   2.477102
    30  H    1.018046   2.077202   3.330936   3.818344   3.380471
    31  H    2.111416   1.021865   2.104748   3.349535   3.849264
    32  H    3.352814   2.105199   1.020865   2.110362   3.375745
    33  H    3.824456   3.341134   2.093093   1.023182   2.129080
    34  H    4.178635   4.829447   4.452097   3.235146   2.128401
    35  H    4.606772   4.823990   4.008685   2.607047   2.161606
    36  H    4.159119   4.787486   4.405105   3.194152   2.120602
                   16         17         18         19         20
    16  C    0.000000
    17  H    8.169966   0.000000
    18  H    8.303705   1.773409   0.000000
    19  H    8.530156   1.777698   1.771828   0.000000
    20  H    6.365698   3.063799   2.441981   2.534174   0.000000
    21  H    5.886604   2.473280   2.502332   3.069321   1.768602
    22  H    6.867029   3.184094   3.750906   2.553831   2.513002
    23  H    6.290802   2.736242   3.865670   3.190076   3.068269
    24  H    4.052684   4.388016   4.845920   4.665804   3.055730
    25  H    5.910909   5.426196   5.990246   4.927926   4.135224
    26  H    5.403776   6.822272   7.730893   6.841568   6.017531
    27  H    3.996285   6.236885   7.077428   6.579669   5.390237
    28  H    5.638552   5.285506   6.407373   5.591728   5.088991
    29  H    2.373676   6.520023   6.782711   6.626870   4.664229
    30  H    4.671551   8.926135   8.737199   8.328600   6.296398
    31  H    5.337716  10.996912  10.652386  10.461942   8.235304
    32  H    4.610664  11.705810  11.394339  11.497809   9.101168
    33  H    2.690136  10.548177  10.411335  10.691258   8.318611
    34  H    1.089797   8.040915   8.402582   8.475637   6.521433
    35  H    1.091135   8.960711   9.070529   9.428650   7.248087
    36  H    1.091258   7.287564   7.333701   7.692695   5.490696
                   21         22         23         24         25
    21  H    0.000000
    22  H    3.064271   0.000000
    23  H    2.490298   1.783172   0.000000
    24  H    2.566664   2.941153   2.304695   0.000000
    25  H    4.627081   2.389941   3.096550   2.927172   0.000000
    26  H    5.896989   4.362781   4.098127   3.594014   2.450838
    27  H    4.888388   4.361230   3.598914   2.455457   3.071474
    28  H    4.643967   3.378052   2.577798   2.779753   2.516204
    29  H    4.486282   4.657756   4.345266   2.152292   3.543478
    30  H    7.051650   6.347267   6.985107   5.196193   4.721868
    31  H    8.909946   8.634360   9.160894   7.157959   7.079725
    32  H    9.385150   9.772701   9.907157   7.668952   8.365798
    33  H    8.161580   9.047353   8.768372   6.470839   7.866950
    34  H    5.934284   6.640333   5.928039   3.833814   5.525276
    35  H    6.651000   7.877456   7.199079   5.007603   6.988259
    36  H    4.936015   6.254774   5.646117   3.417641   5.660979
                   26         27         28         29         30
    26  H    0.000000
    27  H    1.773897   0.000000
    28  H    1.767117   1.769090   0.000000
    29  H    3.479837   2.314622   3.681582   0.000000
    30  H    5.321454   5.296703   6.302285   3.673222   0.000000
    31  H    7.382120   7.175966   8.437252   5.349971   2.382773
    32  H    8.251621   7.604526   9.156198   5.684518   4.168707
    33  H    7.449454   6.373611   8.053644   4.554129   4.840822
    34  H    4.630048   3.198201   4.916515   2.194108   4.923943
    35  H    6.356540   4.901662   6.562973   3.455922   5.529108
    36  H    5.503285   3.982708   5.432758   2.225847   4.899188
                   31         32         33         34         35
    31  H    0.000000
    32  H    2.418319   0.000000
    33  H    4.182310   2.404137   0.000000
    34  H    5.836685   5.290221   3.464141   0.000000
    35  H    5.824476   4.634686   2.358352   1.760165   0.000000
    36  H    5.787043   5.237046   3.415276   1.774688   1.760812
                   36
    36  H    0.000000
 Stoichiometry    C13H20N2O
 Framework group  C1[X(C13H20N2O)]
 Deg. of freedom   102
 Full point group                 C1      NOp   1
 Largest Abelian subgroup         C1      NOp   1
 Largest concise Abelian subgroup C1      NOp   1
                         Standard orientation:                         
 ---------------------------------------------------------------------
 Center     Atomic      Atomic             Coordinates (Angstroms)
 Number     Number       Type             X           Y           Z
 ---------------------------------------------------------------------
      1          6           0        5.514609   -1.422366   -1.159269
      2          6           0        4.005863   -1.291285   -0.863928
      3          6           0        3.653413   -0.040439   -0.026112
      4          7           0        2.183275    0.038043    0.097540
      5          6           0        1.589645    1.317425    0.555612
      6          6           0        1.600753    1.446967    2.100303
      7          6           0        0.208332    1.362424    0.013012
      8          8           0       -0.123186    2.353831   -0.678222
      9          7           0       -0.628542    0.316690    0.293983
     10          6           0       -1.921730    0.048351   -0.088924
     11          6           0       -2.621918    0.779386   -1.083153
     12          6           0       -3.954270    0.475587   -1.407022
     13          6           0       -4.612650   -0.574714   -0.754445
     14          6           0       -3.930659   -1.334832    0.207546
     15          6           0       -2.585371   -1.045198    0.544327
     16          6           0       -1.896333   -1.903492    1.548245
     17          1           0        6.070438   -1.587852   -0.234809
     18          1           0        5.682401   -2.269817   -1.825195
     19          1           0        5.891786   -0.519704   -1.644543
     20          1           0        3.468115   -1.240213   -1.814026
     21          1           0        3.673406   -2.188853   -0.335549
     22          1           0        4.040557    0.846705   -0.536423
     23          1           0        4.105442   -0.110562    0.966618
     24          1           0        1.887161   -0.694525    0.743374
     25          1           0        2.163398    2.158101    0.147926
     26          1           0        1.222267    2.427622    2.394755
     27          1           0        0.979121    0.678748    2.565147
     28          1           0        2.616005    1.345070    2.485748
     29          1           0       -0.232513   -0.347561    0.881072
     30          1           0       -2.178872    1.536522   -1.599750
     31          1           0       -4.445588    1.018064   -2.120137
     32          1           0       -5.583936   -0.788461   -0.984840
     33          1           0       -4.426967   -2.107459    0.658796
     34          1           0       -1.529474   -1.295937    2.375256
     35          1           0       -2.547635   -2.672404    1.966761
     36          1           0       -1.050854   -2.408148    1.077787
 ---------------------------------------------------------------------
 Rotational constants (GHZ):           0.8959462           0.2282647           0.2157701
 Leave Link  202 at Mon Feb 22 21:14:22 2021, MaxMem=   104857600 cpu:               0.8 elap:               0.1
 (Enter /sw/arch/RedHatEnterpriseServer7/EB_production/2019/software/Gaussian/g16.c01/l301.exe)
 Standard basis: TZVP (5D, 7F)
 Ernie: Thresh=  0.10000D-02 Tol=  0.10000D-05 Strict=F.
 There are   440 symmetry adapted cartesian basis functions of A   symmetry.
 There are   424 symmetry adapted basis functions of A   symmetry.
   424 basis functions,   720 primitive gaussians,   440 cartesian basis functions
    60 alpha electrons       60 beta electrons
       nuclear repulsion energy      1078.3154130942 Hartrees.
 IExCor=  404 DFT=T Ex=B Corr=P86 ExCW=0 ScaHFX=  0.000000
 ScaDFX=  1.000000  1.000000  1.000000  1.000000 ScalE2=  1.000000  1.000000
 IRadAn=      5 IRanWt=     -1 IRanGd=            0 ICorTp=0 IEmpDi=131
 NAtoms=   36 NActive=   36 NUniq=   36 SFac= 1.00D+00 NAtFMM=   60 NAOKFM=F Big=F
 Integral buffers will be    131072 words long.
 Raffenetti 2 integral format.
 Two-electron integral symmetry is turned on.
 R6Disp:  Grimme-D3 Dispersion energy=       -0.0362316549 Hartrees.
 Nuclear repulsion after empirical dispersion term =     1078.2791814393 Hartrees.
 ------------------------------------------------------------------------------
 Polarizable Continuum Model (PCM)
 =================================
 Model                : PCM.
 Atomic radii         : UFF (Universal Force Field).
 Polarization charges : Total charges.
 Charge compensation  : None.
 Solution method      : On-the-fly selection.
 Cavity type          : Scaled VdW (van der Waals Surface) (Alpha=1.100).
 Cavity algorithm     : GePol (No added spheres)
                        Default sphere list used, NSphG=   36.
                        Lebedev-Laikov grids with approx.  5.0 points / Ang**2.
                        Smoothing algorithm: York/Karplus (Gamma=1.0000).
                        Polarization charges: spherical gaussians, with
                                              point-specific exponents (IZeta= 3).
                        Self-potential: point-specific (ISelfS= 7).
                        Self-field    : sphere-specific E.n sum rule (ISelfD= 2).
 1st derivatives      : Analytical E(r).r(x)/FMM algorithm (CHGder, D1EAlg=3).
                        Cavity 1st derivative terms included.
 Solvent              : Water, Eps=  78.355300 Eps(inf)=   1.777849
 ------------------------------------------------------------------------------
 GePol: Number of generator spheres                  =      36
 GePol: Total number of spheres                      =      36
 GePol: Number of exposed spheres                    =      36 (100.00%)
 GePol: Number of points                             =    2563
 GePol: Average weight of points                     =       0.13
 GePol: Minimum weight of points                     =   0.11D-11
 GePol: Maximum weight of points                     =    0.20577
 GePol: Number of points with low weight             =     169
 GePol: Fraction of low-weight points (<1% of avg)   =       6.59%
 GePol: Cavity surface area                          =    334.532 Ang**2
 GePol: Cavity volume                                =    349.423 Ang**3
 Leave Link  301 at Mon Feb 22 21:14:22 2021, MaxMem=   104857600 cpu:               2.1 elap:               0.1
 (Enter /sw/arch/RedHatEnterpriseServer7/EB_production/2019/software/Gaussian/g16.c01/l302.exe)
 NPDir=0 NMtPBC=     1 NCelOv=     1 NCel=       1 NClECP=     1 NCelD=      1
         NCelK=      1 NCelE2=     1 NClLst=     1 CellRange=     0.0.
 One-electron integrals computed using PRISM.
 One-electron integral symmetry used in STVInt
 PrsmSu:  requested number of processors reduced to:  26 ShMem   1 Linda.
 NBasis=   424 RedAO= T EigKep=  7.56D-06  NBF=   424
 NBsUse=   424 1.00D-06 EigRej= -1.00D+00 NBFU=   424
 Precomputing XC quadrature grid using
 IXCGrd= 4 IRadAn=           5 IRanWt=          -1 IRanGd=           0 AccXCQ= 0.00D+00.
 Generated NRdTot=       0 NPtTot=           0 NUsed=           0 NTot=          32
 NSgBfM=   428   428   428   428   428 MxSgAt=    36 MxSgA2=    36.
 Leave Link  302 at Mon Feb 22 21:14:23 2021, MaxMem=   104857600 cpu:              18.3 elap:               0.7
 (Enter /sw/arch/RedHatEnterpriseServer7/EB_production/2019/software/Gaussian/g16.c01/l303.exe)
 DipDrv:  MaxL=1.
 Leave Link  303 at Mon Feb 22 21:14:23 2021, MaxMem=   104857600 cpu:               2.9 elap:               0.1
 (Enter /sw/arch/RedHatEnterpriseServer7/EB_production/2019/software/Gaussian/g16.c01/l401.exe)
 ExpMin= 9.52D-02 ExpMax= 2.70D+04 ExpMxC= 9.22D+02 IAcc=3 IRadAn=         5 AccDes= 0.00D+00
 Harris functional with IExCor=  404 and IRadAn=       5 diagonalized for initial guess.
 HarFok:  IExCor=  404 AccDes= 0.00D+00 IRadAn=         5 IDoV= 1 UseB2=F ITyADJ=14
 ICtDFT=  3500011 ScaDFX=  1.000000  1.000000  1.000000  1.000000
 FoFCou: FMM=F IPFlag=           0 FMFlag=      100000 FMFlg1=           0
         NFxFlg=           0 DoJE=T BraDBF=F KetDBF=T FulRan=T
         wScrn=  0.000000 ICntrl=       500 IOpCl=  0 I1Cent=   200000004 NGrid=           0
         NMat0=    1 NMatS0=      1 NMatT0=    0 NMatD0=    1 NMtDS0=    0 NMtDT0=    0
 Petite list used in FoFCou.
 Harris En= -692.764112295650    
 JPrj=0 DoOrth=F DoCkMO=F.
 Leave Link  401 at Mon Feb 22 21:14:24 2021, MaxMem=   104857600 cpu:              35.0 elap:               1.2
 (Enter /sw/arch/RedHatEnterpriseServer7/EB_production/2019/software/Gaussian/g16.c01/l502.exe)
 Integral symmetry usage will be decided dynamically.
 Closed shell SCF:
 Using DIIS extrapolation, IDIIS=  1040.
 NGot=   104857600 LenX=   104450922 LenY=   104256881
 Requested convergence on RMS density matrix=1.00D-08 within 128 cycles.
 Requested convergence on MAX density matrix=1.00D-06.
 Requested convergence on             energy=1.00D-06.
 No special actions if energy rises.
 Fock matrices will be formed incrementally for  20 cycles.

 Cycle   1  Pass 1  IDiag  1:
 FoFJK:  IHMeth= 1 ICntrl=     500 DoSepK=F KAlg= 0 I1Cent=           0 FoldK=F
 IRaf= 800000000 NMat=       1 IRICut=       1 DoRegI=T DoRafI=F ISym2E= 0 IDoP0=0 IntGTp=1.
 FoFCou: FMM=F IPFlag=           0 FMFlag=      100000 FMFlg1=           0
         NFxFlg=           0 DoJE=T BraDBF=F KetDBF=F FulRan=T
         wScrn=  0.000000 ICntrl=       500 IOpCl=  0 I1Cent=           0 NGrid=           0
         NMat0=    1 NMatS0=      1 NMatT0=    0 NMatD0=    1 NMtDS0=    0 NMtDT0=    0
 Symmetry not used in FoFCou.
 Inv3:  Mode=1 IEnd=    19706907.
 Iteration    1 A*A^-1 deviation from unit magnitude is 3.77D-15 for   1346.
 Iteration    1 A*A^-1 deviation from orthogonality  is 2.26D-15 for   2235   1525.
 Iteration    1 A^-1*A deviation from unit magnitude is 4.22D-15 for   1346.
 Iteration    1 A^-1*A deviation from orthogonality  is 8.77D-13 for   2511   2456.
 E= -691.947015650053    
 DIIS: error= 2.57D-02 at cycle   1 NSaved=   1.
 NSaved= 1 IEnMin= 1 EnMin= -691.947015650053     IErMin= 1 ErrMin= 2.57D-02
 ErrMax= 2.57D-02  0.00D+00 EMaxC= 1.00D-01 BMatC= 4.78D-01 BMatP= 4.78D-01
 IDIUse=3 WtCom= 7.43D-01 WtEn= 2.57D-01
 Coeff-Com:  0.100D+01
 Coeff-En:   0.100D+01
 Coeff:      0.100D+01
 Gap=     0.158 Goal=   None    Shift=    0.000
 GapD=    0.158 DampG=1.000 DampE=0.500 DampFc=0.5000 IDamp=-1.
 Damping current iteration by 5.00D-01
 RMSDP=8.80D-03 MaxDP=1.28D+00              OVMax= 2.77D-01

 Cycle   2  Pass 1  IDiag  1:
 RMSU=  4.39D-03    CP:  1.03D+00
 E= -692.033879752221     Delta-E=       -0.086864102168 Rises=F Damp=T
 DIIS: error= 2.11D-02 at cycle   2 NSaved=   2.
 NSaved= 2 IEnMin= 2 EnMin= -692.033879752221     IErMin= 2 ErrMin= 2.11D-02
 ErrMax= 2.11D-02  0.00D+00 EMaxC= 1.00D-01 BMatC= 1.06D-01 BMatP= 4.78D-01
 IDIUse=3 WtCom= 7.89D-01 WtEn= 2.11D-01
 Coeff-Com:  0.274D+00 0.726D+00
 Coeff-En:   0.412D+00 0.588D+00
 Coeff:      0.303D+00 0.697D+00
 Gap=     0.143 Goal=   None    Shift=    0.000
 RMSDP=3.25D-03 MaxDP=4.97D-01 DE=-8.69D-02 OVMax= 2.31D-01

 Cycle   3  Pass 1  IDiag  1:
 RMSU=  1.64D-03    CP:  9.67D-01  3.75D-01
 E= -692.308615772609     Delta-E=       -0.274736020388 Rises=F Damp=F
 DIIS: error= 2.55D-02 at cycle   3 NSaved=   3.
 NSaved= 3 IEnMin= 3 EnMin= -692.308615772609     IErMin= 2 ErrMin= 2.11D-02
 ErrMax= 2.55D-02  0.00D+00 EMaxC= 1.00D-01 BMatC= 1.23D-01 BMatP= 1.06D-01
 IDIUse=2 WtCom= 0.00D+00 WtEn= 1.00D+00
 Coeff-En:   0.000D+00 0.000D+00 0.100D+01
 Coeff:      0.000D+00 0.000D+00 0.100D+01
 Gap=     0.137 Goal=   None    Shift=    0.000
 RMSDP=6.18D-03 MaxDP=8.98D-01 DE=-2.75D-01 OVMax= 4.61D-01

 Cycle   4  Pass 1  IDiag  1:
 RMSU=  2.92D-03    CP:  1.06D+00  1.37D+00 -8.92D-01
 E= -691.440012447544     Delta-E=        0.868603325065 Rises=F Damp=F
 DIIS: error= 7.71D-02 at cycle   4 NSaved=   4.
 NSaved= 4 IEnMin= 3 EnMin= -692.308615772609     IErMin= 2 ErrMin= 2.11D-02
 ErrMax= 7.71D-02  0.00D+00 EMaxC= 1.00D-01 BMatC= 1.13D+00 BMatP= 1.06D-01
 IDIUse=2 WtCom= 0.00D+00 WtEn= 1.00D+00
 Coeff-En:   0.000D+00 0.000D+00 0.842D+00 0.158D+00
 Coeff:      0.000D+00 0.000D+00 0.842D+00 0.158D+00
 Gap=     0.121 Goal=   None    Shift=    0.000
 RMSDP=4.52D-03 MaxDP=7.15D-01 DE= 8.69D-01 OVMax= 2.41D-01

 Cycle   5  Pass 1  IDiag  1:
 RMSU=  6.98D-04    CP:  9.99D-01  5.97D-01  3.12D-01  3.09D-01
 E= -692.316640693102     Delta-E=       -0.876628245558 Rises=F Damp=F
 DIIS: error= 2.30D-02 at cycle   5 NSaved=   5.
 NSaved= 5 IEnMin= 5 EnMin= -692.316640693102     IErMin= 2 ErrMin= 2.11D-02
 ErrMax= 2.30D-02  0.00D+00 EMaxC= 1.00D-01 BMatC= 1.17D-01 BMatP= 1.06D-01
 IDIUse=2 WtCom= 0.00D+00 WtEn= 1.00D+00
 Coeff-En:   0.000D+00 0.000D+00 0.486D+00 0.000D+00 0.514D+00
 Coeff:      0.000D+00 0.000D+00 0.486D+00 0.000D+00 0.514D+00
 Gap=     0.141 Goal=   None    Shift=    0.000
 RMSDP=1.13D-03 MaxDP=1.19D-01 DE=-8.77D-01 OVMax= 1.09D-01

 Cycle   6  Pass 1  IDiag  1:
 RMSU=  1.75D-04    CP:  9.80D-01  4.39D-01  6.79D-01  1.29D-01  5.81D-01
 E= -692.412479924059     Delta-E=       -0.095839230957 Rises=F Damp=F
 DIIS: error= 1.51D-03 at cycle   6 NSaved=   6.
 NSaved= 6 IEnMin= 6 EnMin= -692.412479924059     IErMin= 6 ErrMin= 1.51D-03
 ErrMax= 1.51D-03  0.00D+00 EMaxC= 1.00D-01 BMatC= 1.24D-03 BMatP= 1.06D-01
 IDIUse=3 WtCom= 9.85D-01 WtEn= 1.51D-02
 Coeff-Com: -0.818D-02 0.242D-01 0.175D+00-0.405D-01 0.318D+00 0.531D+00
 Coeff-En:   0.000D+00 0.000D+00 0.000D+00 0.000D+00 0.000D+00 0.100D+01
 Coeff:     -0.806D-02 0.238D-01 0.173D+00-0.399D-01 0.313D+00 0.538D+00
 Gap=     0.127 Goal=   None    Shift=    0.000
 RMSDP=2.09D-04 MaxDP=1.99D-02 DE=-9.58D-02 OVMax= 1.64D-02

 Cycle   7  Pass 1  IDiag  1:
 RMSU=  8.30D-05    CP:  9.82D-01  4.73D-01  6.52D-01  1.53D-01  6.14D-01
                    CP:  5.62D-01
 E= -692.413423133221     Delta-E=       -0.000943209162 Rises=F Damp=F
 DIIS: error= 6.35D-04 at cycle   7 NSaved=   7.
 NSaved= 7 IEnMin= 7 EnMin= -692.413423133221     IErMin= 7 ErrMin= 6.35D-04
 ErrMax= 6.35D-04  0.00D+00 EMaxC= 1.00D-01 BMatC= 2.27D-04 BMatP= 1.24D-03
 IDIUse=3 WtCom= 9.94D-01 WtEn= 6.35D-03
 Coeff-Com: -0.336D-02 0.955D-02 0.559D-01-0.146D-01 0.969D-01 0.313D+00
 Coeff-Com:  0.543D+00
 Coeff-En:   0.000D+00 0.000D+00 0.000D+00 0.000D+00 0.000D+00 0.185D+00
 Coeff-En:   0.815D+00
 Coeff:     -0.334D-02 0.949D-02 0.555D-01-0.145D-01 0.963D-01 0.312D+00
 Coeff:      0.544D+00
 Gap=     0.126 Goal=   None    Shift=    0.000
 RMSDP=6.07D-05 MaxDP=3.73D-03 DE=-9.43D-04 OVMax= 4.55D-03

 Cycle   8  Pass 1  IDiag  1:
 RMSU=  2.09D-05    CP:  9.82D-01  4.68D-01  6.63D-01  1.45D-01  6.17D-01
                    CP:  6.50D-01  5.34D-01
 E= -692.413590016135     Delta-E=       -0.000166882913 Rises=F Damp=F
 DIIS: error= 2.41D-04 at cycle   8 NSaved=   8.
 NSaved= 8 IEnMin= 8 EnMin= -692.413590016135     IErMin= 8 ErrMin= 2.41D-04
 ErrMax= 2.41D-04  0.00D+00 EMaxC= 1.00D-01 BMatC= 2.98D-05 BMatP= 2.27D-04
 IDIUse=3 WtCom= 9.98D-01 WtEn= 2.41D-03
 Coeff-Com: -0.835D-03-0.642D-04 0.811D-02-0.116D-02 0.556D-02 0.140D+00
 Coeff-Com:  0.331D+00 0.517D+00
 Coeff-En:   0.000D+00 0.000D+00 0.000D+00 0.000D+00 0.000D+00 0.000D+00
 Coeff-En:   0.000D+00 0.100D+01
 Coeff:     -0.833D-03-0.640D-04 0.809D-02-0.116D-02 0.555D-02 0.140D+00
 Coeff:      0.330D+00 0.518D+00
 Gap=     0.126 Goal=   None    Shift=    0.000
 RMSDP=1.87D-05 MaxDP=1.21D-03 DE=-1.67D-04 OVMax= 1.83D-03

 Cycle   9  Pass 1  IDiag  1:
 RMSU=  7.46D-06    CP:  9.82D-01  4.65D-01  6.63D-01  1.45D-01  6.09D-01
                    CP:  6.56D-01  6.14D-01  5.31D-01
 E= -692.413616371450     Delta-E=       -0.000026355316 Rises=F Damp=F
 DIIS: error= 4.48D-05 at cycle   9 NSaved=   9.
 NSaved= 9 IEnMin= 9 EnMin= -692.413616371450     IErMin= 9 ErrMin= 4.48D-05
 ErrMax= 4.48D-05  0.00D+00 EMaxC= 1.00D-01 BMatC= 1.07D-06 BMatP= 2.98D-05
 IDIUse=1 WtCom= 1.00D+00 WtEn= 0.00D+00
 Coeff-Com: -0.157D-03-0.440D-03 0.240D-02-0.171D-04-0.141D-02 0.621D-01
 Coeff-Com:  0.155D+00 0.295D+00 0.487D+00
 Coeff:     -0.157D-03-0.440D-03 0.240D-02-0.171D-04-0.141D-02 0.621D-01
 Coeff:      0.155D+00 0.295D+00 0.487D+00
 Gap=     0.126 Goal=   None    Shift=    0.000
 RMSDP=4.15D-06 MaxDP=2.07D-04 DE=-2.64D-05 OVMax= 4.08D-04

 Cycle  10  Pass 1  IDiag  1:
 RMSU=  1.90D-06    CP:  9.82D-01  4.65D-01  6.64D-01  1.45D-01  6.08D-01
                    CP:  6.62D-01  6.17D-01  5.69D-01  6.43D-01
 E= -692.413617291786     Delta-E=       -0.000000920336 Rises=F Damp=F
 DIIS: error= 1.67D-05 at cycle  10 NSaved=  10.
 NSaved=10 IEnMin=10 EnMin= -692.413617291786     IErMin=10 ErrMin= 1.67D-05
 ErrMax= 1.67D-05  0.00D+00 EMaxC= 1.00D-01 BMatC= 1.04D-07 BMatP= 1.07D-06
 IDIUse=1 WtCom= 1.00D+00 WtEn= 0.00D+00
 Coeff-Com:  0.561D-04-0.191D-03 0.718D-03 0.542D-04-0.137D-02 0.213D-01
 Coeff-Com:  0.576D-01 0.126D+00 0.298D+00 0.498D+00
 Coeff:      0.561D-04-0.191D-03 0.718D-03 0.542D-04-0.137D-02 0.213D-01
 Coeff:      0.576D-01 0.126D+00 0.298D+00 0.498D+00
 Gap=     0.126 Goal=   None    Shift=    0.000
 RMSDP=1.07D-06 MaxDP=4.79D-05 DE=-9.20D-07 OVMax= 1.47D-04

 Cycle  11  Pass 1  IDiag  1:
 RMSU=  6.24D-07    CP:  9.82D-01  4.65D-01  6.64D-01  1.45D-01  6.08D-01
                    CP:  6.62D-01  6.18D-01  5.74D-01  6.59D-01  5.64D-01
 E= -692.413617386414     Delta-E=       -0.000000094627 Rises=F Damp=F
 DIIS: error= 5.03D-06 at cycle  11 NSaved=  11.
 NSaved=11 IEnMin=11 EnMin= -692.413617386414     IErMin=11 ErrMin= 5.03D-06
 ErrMax= 5.03D-06  0.00D+00 EMaxC= 1.00D-01 BMatC= 9.64D-09 BMatP= 1.04D-07
 IDIUse=1 WtCom= 1.00D+00 WtEn= 0.00D+00
 Coeff-Com:  0.502D-04-0.952D-04 0.308D-03 0.276D-04-0.709D-03 0.890D-02
 Coeff-Com:  0.248D-01 0.575D-01 0.152D+00 0.314D+00 0.444D+00
 Coeff:      0.502D-04-0.952D-04 0.308D-03 0.276D-04-0.709D-03 0.890D-02
 Coeff:      0.248D-01 0.575D-01 0.152D+00 0.314D+00 0.444D+00
 Gap=     0.126 Goal=   None    Shift=    0.000
 RMSDP=3.12D-07 MaxDP=8.04D-06 DE=-9.46D-08 OVMax= 5.37D-05

 Cycle  12  Pass 1  IDiag  1:
 RMSU=  2.21D-07    CP:  9.82D-01  4.65D-01  6.64D-01  1.45D-01  6.08D-01
                    CP:  6.62D-01  6.18D-01  5.74D-01  6.57D-01  6.21D-01
                    CP:  7.29D-01
 E= -692.413617409509     Delta-E=       -0.000000023095 Rises=F Damp=F
 DIIS: error= 1.25D-06 at cycle  12 NSaved=  12.
 NSaved=12 IEnMin=12 EnMin= -692.413617409509     IErMin=12 ErrMin= 1.25D-06
 ErrMax= 1.25D-06  0.00D+00 EMaxC= 1.00D-01 BMatC= 8.58D-10 BMatP= 9.64D-09
 IDIUse=1 WtCom= 1.00D+00 WtEn= 0.00D+00
 Coeff-Com:  0.211D-04-0.277D-04 0.544D-04 0.900D-05-0.179D-03 0.148D-02
 Coeff-Com:  0.432D-02 0.115D-01 0.367D-01 0.964D-01 0.261D+00 0.589D+00
 Coeff:      0.211D-04-0.277D-04 0.544D-04 0.900D-05-0.179D-03 0.148D-02
 Coeff:      0.432D-02 0.115D-01 0.367D-01 0.964D-01 0.261D+00 0.589D+00
 Gap=     0.126 Goal=   None    Shift=    0.000
 RMSDP=1.25D-07 MaxDP=9.59D-06 DE=-2.31D-08 OVMax= 1.26D-05

 Cycle  13  Pass 1  IDiag  1:
 RMSU=  8.08D-08    CP:  9.82D-01  4.65D-01  6.64D-01  1.45D-01  6.08D-01
                    CP:  6.62D-01  6.18D-01  5.74D-01  6.63D-01  6.16D-01
                    CP:  7.33D-01  6.99D-01
 E= -692.413617397043     Delta-E=        0.000000012466 Rises=F Damp=F
 DIIS: error= 2.62D-07 at cycle  13 NSaved=  13.
 NSaved=13 IEnMin=12 EnMin= -692.413617409509     IErMin=13 ErrMin= 2.62D-07
 ErrMax= 2.62D-07  0.00D+00 EMaxC= 1.00D-01 BMatC= 8.28D-11 BMatP= 8.58D-10
 IDIUse=1 WtCom= 1.00D+00 WtEn= 0.00D+00
 Coeff-Com:  0.850D-05-0.136D-04 0.130D-04 0.530D-05-0.665D-04 0.412D-03
 Coeff-Com:  0.118D-02 0.351D-02 0.130D-01 0.389D-01 0.126D+00 0.348D+00
 Coeff-Com:  0.468D+00
 Coeff:      0.850D-05-0.136D-04 0.130D-04 0.530D-05-0.665D-04 0.412D-03
 Coeff:      0.118D-02 0.351D-02 0.130D-01 0.389D-01 0.126D+00 0.348D+00
 Coeff:      0.468D+00
 Gap=     0.126 Goal=   None    Shift=    0.000
 RMSDP=3.88D-08 MaxDP=3.10D-06 DE= 1.25D-08 OVMax= 2.32D-06

 Cycle  14  Pass 1  IDiag  1:
 RMSU=  1.89D-08    CP:  9.82D-01  4.65D-01  6.64D-01  1.45D-01  6.08D-01
                    CP:  6.62D-01  6.18D-01  5.74D-01  6.63D-01  6.18D-01
                    CP:  7.47D-01  7.31D-01  6.75D-01
 E= -692.413617397135     Delta-E=       -0.000000000091 Rises=F Damp=F
 DIIS: error= 7.04D-08 at cycle  14 NSaved=  14.
 NSaved=14 IEnMin=12 EnMin= -692.413617409509     IErMin=14 ErrMin= 7.04D-08
 ErrMax= 7.04D-08  0.00D+00 EMaxC= 1.00D-01 BMatC= 3.33D-12 BMatP= 8.28D-11
 IDIUse=1 WtCom= 1.00D+00 WtEn= 0.00D+00
 Coeff-Com:  0.159D-05-0.267D-05 0.952D-06 0.894D-06-0.942D-05 0.409D-04
 Coeff-Com:  0.106D-03 0.425D-03 0.247D-02 0.883D-02 0.316D-01 0.102D+00
 Coeff-Com:  0.208D+00 0.647D+00
 Coeff:      0.159D-05-0.267D-05 0.952D-06 0.894D-06-0.942D-05 0.409D-04
 Coeff:      0.106D-03 0.425D-03 0.247D-02 0.883D-02 0.316D-01 0.102D+00
 Coeff:      0.208D+00 0.647D+00
 Gap=     0.126 Goal=   None    Shift=    0.000
 RMSDP=1.14D-08 MaxDP=1.52D-06 DE=-9.14D-11 OVMax= 7.54D-07

 Cycle  15  Pass 1  IDiag  1:
 RMSU=  6.00D-09    CP:  9.82D-01  4.65D-01  6.64D-01  1.45D-01  6.08D-01
                    CP:  6.62D-01  6.18D-01  5.74D-01  6.63D-01  6.17D-01
                    CP:  7.50D-01  7.39D-01  6.92D-01  8.45D-01
 E= -692.413617397127     Delta-E=        0.000000000008 Rises=F Damp=F
 DIIS: error= 5.14D-08 at cycle  15 NSaved=  15.
 NSaved=15 IEnMin=12 EnMin= -692.413617409509     IErMin=15 ErrMin= 5.14D-08
 ErrMax= 5.14D-08  0.00D+00 EMaxC= 1.00D-01 BMatC= 6.32D-13 BMatP= 3.33D-12
 IDIUse=1 WtCom= 1.00D+00 WtEn= 0.00D+00
 Coeff-Com:  0.501D-06-0.456D-06-0.913D-06 0.277D-06-0.216D-05-0.118D-04
 Coeff-Com: -0.307D-04 0.386D-05 0.635D-03 0.283D-02 0.109D-01 0.389D-01
 Coeff-Com:  0.968D-01 0.400D+00 0.450D+00
 Coeff:      0.501D-06-0.456D-06-0.913D-06 0.277D-06-0.216D-05-0.118D-04
 Coeff:     -0.307D-04 0.386D-05 0.635D-03 0.283D-02 0.109D-01 0.389D-01
 Coeff:      0.968D-01 0.400D+00 0.450D+00
 Gap=     0.126 Goal=   None    Shift=    0.000
 RMSDP=3.10D-09 MaxDP=2.26D-07 DE= 7.50D-12 OVMax= 4.37D-07

 Error on total polarization charges =  0.01884
 SCF Done:  E(RB-P86) =  -692.413617397     A.U. after   15 cycles
            NFock= 15  Conv=0.31D-08     -V/T= 2.0040
 KE= 6.896732555888D+02 PE=-3.766888348847D+03 EE= 1.306522294422D+03
 Leave Link  502 at Mon Feb 22 21:15:10 2021, MaxMem=   104857600 cpu:            1456.1 elap:              46.4
 (Enter /sw/arch/RedHatEnterpriseServer7/EB_production/2019/software/Gaussian/g16.c01/l601.exe)
 Copying SCF densities to generalized density rwf, IOpCl= 0 IROHF=0.

 **********************************************************************

            Population analysis using the SCF Density.

 **********************************************************************

 Orbital symmetries:
       Occupied  (A) (A) (A) (A) (A) (A) (A) (A) (A) (A) (A) (A)
                 (A) (A) (A) (A) (A) (A) (A) (A) (A) (A) (A) (A)
                 (A) (A) (A) (A) (A) (A) (A) (A) (A) (A) (A) (A)
                 (A) (A) (A) (A) (A) (A) (A) (A) (A) (A) (A) (A)
                 (A) (A) (A) (A) (A) (A) (A) (A) (A) (A) (A) (A)
       Virtual   (A) (A) (A) (A) (A) (A) (A) (A) (A) (A) (A) (A)
                 (A) (A) (A) (A) (A) (A) (A) (A) (A) (A) (A) (A)
                 (A) (A) (A) (A) (A) (A) (A) (A) (A) (A) (A) (A)
                 (A) (A) (A) (A) (A) (A) (A) (A) (A) (A) (A) (A)
                 (A) (A) (A) (A) (A) (A) (A) (A) (A) (A) (A) (A)
                 (A) (A) (A) (A) (A) (A) (A) (A) (A) (A) (A) (A)
                 (A) (A) (A) (A) (A) (A) (A) (A) (A) (A) (A) (A)
                 (A) (A) (A) (A) (A) (A) (A) (A) (A) (A) (A) (A)
                 (A) (A) (A) (A) (A) (A) (A) (A) (A) (A) (A) (A)
                 (A) (A) (A) (A) (A) (A) (A) (A) (A) (A) (A) (A)
                 (A) (A) (A) (A) (A) (A) (A) (A) (A) (A) (A) (A)
                 (A) (A) (A) (A) (A) (A) (A) (A) (A) (A) (A) (A)
                 (A) (A) (A) (A) (A) (A) (A) (A) (A) (A) (A) (A)
                 (A) (A) (A) (A) (A) (A) (A) (A) (A) (A) (A) (A)
                 (A) (A) (A) (A) (A) (A) (A) (A) (A) (A) (A) (A)
                 (A) (A) (A) (A) (A) (A) (A) (A) (A) (A) (A) (A)
                 (A) (A) (A) (A) (A) (A) (A) (A) (A) (A) (A) (A)
                 (A) (A) (A) (A) (A) (A) (A) (A) (A) (A) (A) (A)
                 (A) (A) (A) (A) (A) (A) (A) (A) (A) (A) (A) (A)
                 (A) (A) (A) (A) (A) (A) (A) (A) (A) (A) (A) (A)
                 (A) (A) (A) (A) (A) (A) (A) (A) (A) (A) (A) (A)
                 (A) (A) (A) (A) (A) (A) (A) (A) (A) (A) (A) (A)
                 (A) (A) (A) (A) (A) (A) (A) (A) (A) (A) (A) (A)
                 (A) (A) (A) (A) (A) (A) (A) (A) (A) (A) (A) (A)
                 (A) (A) (A) (A) (A) (A) (A) (A) (A) (A) (A) (A)
                 (A) (A) (A) (A) (A) (A) (A) (A) (A) (A) (A) (A)
                 (A) (A) (A) (A) (A) (A) (A) (A) (A) (A) (A) (A)
                 (A) (A) (A) (A) (A) (A) (A) (A) (A) (A) (A) (A)
                 (A) (A) (A) (A) (A) (A) (A) (A) (A) (A) (A) (A)
                 (A) (A) (A) (A) (A) (A) (A) (A) (A) (A) (A) (A)
                 (A) (A) (A) (A)
 The electronic state is 1-A.
 Alpha  occ. eigenvalues --  -18.74866 -14.05258 -13.99633 -10.00414  -9.95564
 Alpha  occ. eigenvalues --   -9.94135  -9.92061  -9.92058  -9.89959  -9.89886
 Alpha  occ. eigenvalues --   -9.89860  -9.89686  -9.89586  -9.89325  -9.89222
 Alpha  occ. eigenvalues --   -9.88377  -0.96098  -0.88733  -0.83797  -0.78172
 Alpha  occ. eigenvalues --   -0.72356  -0.71423  -0.69071  -0.67509  -0.63692
 Alpha  occ. eigenvalues --   -0.61581  -0.59860  -0.57381  -0.55345  -0.53271
 Alpha  occ. eigenvalues --   -0.52827  -0.50200  -0.46046  -0.44586  -0.43371
 Alpha  occ. eigenvalues --   -0.42734  -0.41554  -0.41314  -0.40220  -0.39548
 Alpha  occ. eigenvalues --   -0.38674  -0.38253  -0.37464  -0.36933  -0.35849
 Alpha  occ. eigenvalues --   -0.35688  -0.34880  -0.33894  -0.32979  -0.32370
 Alpha  occ. eigenvalues --   -0.31762  -0.31307  -0.31100  -0.30197  -0.29434
 Alpha  occ. eigenvalues --   -0.28488  -0.23127  -0.22584  -0.20653  -0.19167
 Alpha virt. eigenvalues --   -0.06569  -0.04838  -0.01158   0.00299   0.02726
 Alpha virt. eigenvalues --    0.03774   0.04978   0.05596   0.05886   0.06673
 Alpha virt. eigenvalues --    0.07266   0.08160   0.08344   0.08656   0.09348
 Alpha virt. eigenvalues --    0.09605   0.09816   0.10037   0.10785   0.11010
 Alpha virt. eigenvalues --    0.11124   0.11617   0.12043   0.12486   0.13214
 Alpha virt. eigenvalues --    0.14080   0.14422   0.15001   0.16135   0.16396
 Alpha virt. eigenvalues --    0.16931   0.16997   0.17447   0.18699   0.19163
 Alpha virt. eigenvalues --    0.19389   0.20223   0.20808   0.20964   0.21401
 Alpha virt. eigenvalues --    0.22390   0.22664   0.23010   0.23929   0.24321
 Alpha virt. eigenvalues --    0.24445   0.24868   0.25759   0.26768   0.27056
 Alpha virt. eigenvalues --    0.27303   0.28231   0.28505   0.29320   0.30232
 Alpha virt. eigenvalues --    0.30894   0.31355   0.31939   0.32502   0.33977
 Alpha virt. eigenvalues --    0.34321   0.34802   0.35968   0.36695   0.36904
 Alpha virt. eigenvalues --    0.37749   0.37951   0.38788   0.39187   0.39606
 Alpha virt. eigenvalues --    0.39683   0.40697   0.40912   0.41663   0.41680
 Alpha virt. eigenvalues --    0.42166   0.42664   0.43059   0.43333   0.43691
 Alpha virt. eigenvalues --    0.44083   0.44930   0.45114   0.45719   0.46205
 Alpha virt. eigenvalues --    0.46832   0.47108   0.47459   0.48059   0.48222
 Alpha virt. eigenvalues --    0.48903   0.49636   0.50359   0.51051   0.51605
 Alpha virt. eigenvalues --    0.51864   0.53240   0.54204   0.54468   0.55289
 Alpha virt. eigenvalues --    0.56199   0.57167   0.58609   0.59460   0.60578
 Alpha virt. eigenvalues --    0.61635   0.62025   0.63720   0.64311   0.65004
 Alpha virt. eigenvalues --    0.65924   0.66634   0.68411   0.69573   0.70624
 Alpha virt. eigenvalues --    0.73134   0.73793   0.74517   0.75442   0.76874
 Alpha virt. eigenvalues --    0.81874   0.83035   0.87748   0.89664   1.07571
 Alpha virt. eigenvalues --    1.07862   1.09521   1.10665   1.14474   1.14687
 Alpha virt. eigenvalues --    1.17188   1.18051   1.18704   1.19363   1.20481
 Alpha virt. eigenvalues --    1.20799   1.21476   1.21941   1.22431   1.23103
 Alpha virt. eigenvalues --    1.24199   1.24376   1.24981   1.25428   1.26110
 Alpha virt. eigenvalues --    1.26773   1.27594   1.27940   1.28251   1.29922
 Alpha virt. eigenvalues --    1.30217   1.31065   1.31637   1.32878   1.33284
 Alpha virt. eigenvalues --    1.33689   1.34965   1.36120   1.36634   1.37401
 Alpha virt. eigenvalues --    1.37649   1.38275   1.38725   1.39089   1.39386
 Alpha virt. eigenvalues --    1.40078   1.40455   1.41328   1.42515   1.42615
 Alpha virt. eigenvalues --    1.44570   1.45673   1.46034   1.46157   1.46934
 Alpha virt. eigenvalues --    1.47222   1.47355   1.47594   1.47826   1.48414
 Alpha virt. eigenvalues --    1.50649   1.51126   1.53102   1.53529   1.54719
 Alpha virt. eigenvalues --    1.55735   1.56502   1.57338   1.60025   1.60524
 Alpha virt. eigenvalues --    1.60962   1.63374   1.64463   1.64687   1.66878
 Alpha virt. eigenvalues --    1.67961   1.68816   1.70331   1.71224   1.73007
 Alpha virt. eigenvalues --    1.73252   1.73387   1.73828   1.73949   1.75433
 Alpha virt. eigenvalues --    1.75555   1.76315   1.76421   1.77265   1.78191
 Alpha virt. eigenvalues --    1.78403   1.79006   1.80457   1.80853   1.82289
 Alpha virt. eigenvalues --    1.82615   1.84024   1.84715   1.84819   1.86988
 Alpha virt. eigenvalues --    1.87657   1.88338   1.89971   1.90748   1.91327
 Alpha virt. eigenvalues --    1.93980   1.94980   1.95789   1.98054   1.98850
 Alpha virt. eigenvalues --    1.99601   2.02321   2.04465   2.05532   2.06645
 Alpha virt. eigenvalues --    2.08028   2.09434   2.10831   2.11193   2.12372
 Alpha virt. eigenvalues --    2.13892   2.15093   2.17062   2.17762   2.18675
 Alpha virt. eigenvalues --    2.19399   2.20126   2.20634   2.21020   2.21698
 Alpha virt. eigenvalues --    2.22366   2.24067   2.24527   2.25157   2.26876
 Alpha virt. eigenvalues --    2.28344   2.29977   2.31268   2.32609   2.33871
 Alpha virt. eigenvalues --    2.34837   2.35893   2.36778   2.38632   2.39730
 Alpha virt. eigenvalues --    2.40406   2.42885   2.44004   2.45212   2.46104
 Alpha virt. eigenvalues --    2.46486   2.47332   2.47955   2.49884   2.50398
 Alpha virt. eigenvalues --    2.51728   2.51776   2.51979   2.52367   2.53743
 Alpha virt. eigenvalues --    2.54149   2.55194   2.56917   2.58029   2.58078
 Alpha virt. eigenvalues --    2.59298   2.60313   2.61148   2.62012   2.62946
 Alpha virt. eigenvalues --    2.63295   2.64435   2.64840   2.65714   2.67355
 Alpha virt. eigenvalues --    2.68499   2.69185   2.71929   2.72476   2.73187
 Alpha virt. eigenvalues --    2.74395   2.75818   2.77876   2.79993   2.81595
 Alpha virt. eigenvalues --    2.83735   2.85763   2.87943   2.90443   2.95052
 Alpha virt. eigenvalues --    2.97147   3.02908   3.03433   3.04001   3.05997
 Alpha virt. eigenvalues --    3.06491   3.07763   3.07927   3.09352   3.10074
 Alpha virt. eigenvalues --    3.11399   3.12984   3.17997   3.20695   3.21578
 Alpha virt. eigenvalues --    3.23553   3.24514   3.25874   3.27013   3.27421
 Alpha virt. eigenvalues --    3.27976   3.29001   3.30541   3.30817   3.32749
 Alpha virt. eigenvalues --    3.33532   3.35401   3.37283   3.38385   3.40228
 Alpha virt. eigenvalues --    3.41776   3.49783   3.57217   3.71512   3.77047
 Alpha virt. eigenvalues --    3.79503   3.93379   4.17267  21.16102  21.61055
 Alpha virt. eigenvalues --   21.72814  21.74272  21.77917  21.79445  21.81520
 Alpha virt. eigenvalues --   21.82423  21.84369  21.84713  21.90920  21.94107
 Alpha virt. eigenvalues --   21.99628  31.56351  31.58994  43.19440
          Condensed to atoms (all electrons):
               1          2          3          4          5          6
     1  C    5.126091   0.172586  -0.044746   0.017474  -0.003023   0.000622
     2  C    0.172586   5.288363   0.227189  -0.094469   0.019218  -0.002390
     3  C   -0.044746   0.227189   5.120928   0.304526  -0.064419  -0.004431
     4  N    0.017474  -0.094469   0.304526   6.882826  -0.007413  -0.057068
     5  C   -0.003023   0.019218  -0.064419  -0.007413   6.302543   0.079793
     6  C    0.000622  -0.002390  -0.004431  -0.057068   0.079793   5.267910
     7  C    0.000523  -0.004772   0.020037   0.028918  -0.217070  -0.003703
     8  O   -0.000003  -0.000045  -0.000394  -0.001317  -0.119236   0.001060
     9  N    0.000010   0.000216   0.001320   0.020296  -0.136540   0.011890
    10  C    0.000002   0.000008  -0.000326   0.010973  -0.020600   0.005933
    11  C   -0.000000  -0.000002   0.000039  -0.001524   0.009485  -0.001523
    12  C    0.000000  -0.000000   0.000002  -0.000051  -0.000163   0.000011
    13  C   -0.000000  -0.000000   0.000000  -0.000005   0.000090  -0.000005
    14  C    0.000000   0.000000   0.000001   0.000012  -0.000121  -0.000012
    15  C    0.000000  -0.000026  -0.000062  -0.001671  -0.004047   0.000544
    16  C   -0.000002  -0.000037   0.000092  -0.001373   0.002455  -0.001734
    17  H    0.400404  -0.033561  -0.008570  -0.000139  -0.000032   0.000002
    18  H    0.397860  -0.037347   0.013014  -0.000540   0.000071  -0.000005
    19  H    0.405005  -0.039030  -0.008297  -0.000239   0.000073  -0.000008
    20  H   -0.025330   0.382034  -0.049227   0.024696  -0.004991   0.000789
    21  H   -0.046262   0.426269  -0.044755  -0.005321   0.001633  -0.000302
    22  H   -0.010205  -0.008803   0.388135  -0.047867   0.014178  -0.007653
    23  H    0.021686  -0.081112   0.414663  -0.049957  -0.025810   0.018461
    24  H   -0.000550  -0.002265  -0.022440   0.324055   0.025507  -0.021383
    25  H   -0.000462   0.002032  -0.015144  -0.039921   0.456762  -0.043804
    26  H   -0.000013   0.000085   0.000469   0.011603  -0.042713   0.380461
    27  H   -0.000025   0.000076  -0.001084  -0.014107   0.032830   0.366780
    28  H   -0.000013  -0.000044   0.000761   0.001429  -0.055056   0.407208
    29  H    0.000026  -0.000043  -0.000250   0.002349   0.026982  -0.004131
    30  H   -0.000000  -0.000001  -0.000003  -0.000470   0.002717  -0.000143
    31  H    0.000000  -0.000000   0.000000   0.000001  -0.000015   0.000001
    32  H   -0.000000   0.000000  -0.000000   0.000000   0.000000  -0.000000
    33  H    0.000000   0.000000  -0.000000   0.000001  -0.000003   0.000001
    34  H    0.000000  -0.000001  -0.000030  -0.000157  -0.000142   0.000558
    35  H   -0.000000   0.000000   0.000000  -0.000007   0.000070  -0.000012
    36  H    0.000004   0.000046   0.000008   0.001070  -0.001401   0.000247
               7          8          9         10         11         12
     1  C    0.000523  -0.000003   0.000010   0.000002  -0.000000   0.000000
     2  C   -0.004772  -0.000045   0.000216   0.000008  -0.000002  -0.000000
     3  C    0.020037  -0.000394   0.001320  -0.000326   0.000039   0.000002
     4  N    0.028918  -0.001317   0.020296   0.010973  -0.001524  -0.000051
     5  C   -0.217070  -0.119236  -0.136540  -0.020600   0.009485  -0.000163
     6  C   -0.003703   0.001060   0.011890   0.005933  -0.001523   0.000011
     7  C    5.359719   0.664088   0.182671  -0.113337  -0.043266   0.008517
     8  O    0.664088   7.949709  -0.113955  -0.048552   0.005025   0.001929
     9  N    0.182671  -0.113955   6.575254   0.381205  -0.068708   0.015608
    10  C   -0.113337  -0.048552   0.381205   5.519098   0.197184   0.118634
    11  C   -0.043266   0.005025  -0.068708   0.197184   5.678458   0.187991
    12  C    0.008517   0.001929   0.015608   0.118634   0.187991   5.206334
    13  C   -0.001362   0.000057  -0.001445  -0.199605   0.111001   0.339875
    14  C    0.002642   0.000171   0.013751   0.152030  -0.252015   0.084179
    15  C    0.021407  -0.001019  -0.073374  -0.065773   0.070266  -0.197659
    16  C   -0.007544  -0.000215   0.009465  -0.212151   0.031204  -0.006555
    17  H   -0.000002   0.000000   0.000000   0.000000   0.000000  -0.000000
    18  H   -0.000011   0.000000   0.000000   0.000000   0.000000  -0.000000
    19  H   -0.000009   0.000000  -0.000000  -0.000000   0.000000   0.000000
    20  H    0.001492   0.000008  -0.000013   0.000131  -0.000011  -0.000001
    21  H   -0.000346   0.000002  -0.000064  -0.000020   0.000002   0.000000
    22  H   -0.008175  -0.000237  -0.000151  -0.000062   0.000009   0.000000
    23  H    0.005041   0.000036   0.000008   0.000084  -0.000007  -0.000000
    24  H   -0.039977  -0.000201   0.000613   0.000589   0.000277   0.000008
    25  H   -0.094206   0.015538   0.012644   0.000598  -0.000027  -0.000014
    26  H    0.008592   0.001950  -0.000478  -0.000575   0.000037   0.000002
    27  H   -0.038217   0.000208   0.004594  -0.000673  -0.000038   0.000004
    28  H    0.014730  -0.000417  -0.000123   0.000037   0.000031  -0.000001
    29  H   -0.028622   0.005314   0.344769  -0.033313   0.003627   0.000322
    30  H   -0.010997   0.028369  -0.007028  -0.055630   0.409664  -0.045399
    31  H   -0.000126  -0.000190  -0.000232   0.020918  -0.064539   0.448029
    32  H    0.000000   0.000002  -0.000024  -0.004717   0.021420  -0.072021
    33  H    0.000054  -0.000001  -0.000059   0.035619  -0.007852   0.017929
    34  H    0.000249  -0.000038   0.004564  -0.029161   0.001062  -0.000324
    35  H    0.000082   0.000003   0.000434   0.018645  -0.000598   0.000026
    36  H    0.001447  -0.000001  -0.001268   0.001120  -0.001727   0.000884
              13         14         15         16         17         18
     1  C   -0.000000   0.000000   0.000000  -0.000002   0.400404   0.397860
     2  C   -0.000000   0.000000  -0.000026  -0.000037  -0.033561  -0.037347
     3  C    0.000000   0.000001  -0.000062   0.000092  -0.008570   0.013014
     4  N   -0.000005   0.000012  -0.001671  -0.001373  -0.000139  -0.000540
     5  C    0.000090  -0.000121  -0.004047   0.002455  -0.000032   0.000071
     6  C   -0.000005  -0.000012   0.000544  -0.001734   0.000002  -0.000005
     7  C   -0.001362   0.002642   0.021407  -0.007544  -0.000002  -0.000011
     8  O    0.000057   0.000171  -0.001019  -0.000215   0.000000   0.000000
     9  N   -0.001445   0.013751  -0.073374   0.009465   0.000000   0.000000
    10  C   -0.199605   0.152030  -0.065773  -0.212151   0.000000   0.000000
    11  C    0.111001  -0.252015   0.070266   0.031204   0.000000   0.000000
    12  C    0.339875   0.084179  -0.197659  -0.006555  -0.000000  -0.000000
    13  C    5.179438   0.306045   0.085315   0.025088   0.000000   0.000000
    14  C    0.306045   5.251832   0.238793  -0.087698  -0.000000  -0.000000
    15  C    0.085315   0.238793   6.042790   0.273731  -0.000000  -0.000000
    16  C    0.025088  -0.087698   0.273731   5.317385  -0.000000   0.000000
    17  H    0.000000  -0.000000  -0.000000  -0.000000   0.560033  -0.023462
    18  H    0.000000  -0.000000  -0.000000   0.000000  -0.023462   0.539473
    19  H   -0.000000   0.000000  -0.000000  -0.000000  -0.030484  -0.025220
    20  H    0.000000  -0.000001   0.000007  -0.000021   0.008655  -0.004968
    21  H   -0.000000   0.000000  -0.000003   0.000010  -0.007438  -0.002322
    22  H   -0.000000   0.000000  -0.000003   0.000003  -0.000692  -0.000162
    23  H    0.000000  -0.000000   0.000006  -0.000036   0.004873  -0.000691
    24  H   -0.000002  -0.000007  -0.000976   0.000592   0.000019  -0.000013
    25  H    0.000002  -0.000008   0.000029   0.000032   0.000020   0.000005
    26  H   -0.000001   0.000004  -0.000042   0.000086   0.000000   0.000000
    27  H   -0.000002   0.000005  -0.000178   0.000302   0.000000   0.000000
    28  H    0.000000  -0.000001  -0.000010   0.000050  -0.000009  -0.000000
    29  H   -0.000663   0.004392  -0.028620   0.004037   0.000000  -0.000000
    30  H    0.013291  -0.003145   0.023115   0.000310   0.000000  -0.000000
    31  H   -0.071562   0.020080  -0.004090  -0.000040  -0.000000  -0.000000
[...]
    31  H    0.000000  -0.000000   0.000000   0.000000  -0.000014   0.000000
    32  H   -0.000000   0.000000  -0.000000  -0.000000   0.000001   0.000000
    33  H    0.000000  -0.000001   0.000000   0.000000  -0.000002  -0.000000
    34  H    0.000105  -0.000394  -0.000843   0.002593   0.000952  -0.000171
    35  H    0.000052   0.000103  -0.000151   0.000325   0.000022   0.000002
    36  H   -0.000001  -0.003772   0.002205   0.000127  -0.000589   0.000055
               7          8          9         10         11         12
     1  C   -0.000303  -0.000002  -0.000057   0.000063  -0.000004   0.000000
     2  C   -0.002146  -0.000011   0.002424   0.000833   0.000044  -0.000008
     3  C    0.031416   0.001177   0.004460  -0.004480  -0.000783   0.000041
     4  N   -0.065837   0.006800   0.004318   0.016494  -0.000123   0.000088
     5  C   -0.121573  -0.109370  -0.169420   0.013425   0.011599  -0.000502
     6  C   -0.030157  -0.009718  -0.018114  -0.002553   0.000009  -0.000069
     7  C    5.330693   0.631477   0.296997  -0.101389  -0.042064   0.004252
     8  O    0.631477   7.996349  -0.120232  -0.029291  -0.002384  -0.002303
     9  N    0.296997  -0.120232   6.624815   0.294951  -0.058563   0.013591
    10  C   -0.101389  -0.029291   0.294951   5.549290   0.225961   0.119905
    11  C   -0.042064  -0.002384  -0.058563   0.225961   5.602262   0.209864
    12  C    0.004252  -0.002303   0.013591   0.119905   0.209864   5.261511
    13  C   -0.000089   0.000336  -0.000544  -0.191888   0.083633   0.317629
    14  C   -0.000149  -0.000158   0.013236   0.119654  -0.220898   0.078157
    15  C    0.033273   0.000539  -0.057088  -0.017022   0.021075  -0.185347
    16  C   -0.002936  -0.000068   0.007763  -0.192556   0.025739  -0.007040
    17  H    0.000025  -0.000000  -0.000003   0.000006   0.000000  -0.000000
    18  H   -0.000007  -0.000000   0.000002   0.000002  -0.000000   0.000000
    19  H   -0.000002   0.000001  -0.000001  -0.000056  -0.000005   0.000000
    20  H   -0.000932   0.000000  -0.001336   0.001392   0.000061  -0.000003
    21  H    0.000406  -0.000001   0.000031  -0.000095  -0.000002   0.000000
    22  H    0.022909  -0.000783   0.004143  -0.004970  -0.000186  -0.000027
    23  H   -0.010754   0.000022  -0.000049   0.000333   0.000028   0.000001
    24  H    0.013529  -0.000384  -0.000504  -0.000244   0.000022  -0.000002
    25  H   -0.130683   0.011955   0.009785  -0.000400   0.000619   0.000017
    26  H    0.004421   0.010521   0.001874   0.000472  -0.000153   0.000001
    27  H   -0.028771   0.000320   0.006982  -0.000530   0.000497   0.000022
    28  H    0.015429  -0.000384  -0.000293   0.000025  -0.000003   0.000000
    29  H   -0.048486   0.004337   0.335492  -0.017356   0.005543   0.000768
    30  H   -0.006725   0.028670  -0.009746  -0.059474   0.402375  -0.037729
    31  H   -0.000160  -0.000139  -0.000231   0.019797  -0.066614   0.443914
    32  H    0.000005   0.000002  -0.000004  -0.005918   0.022650  -0.075687
    33  H    0.000019  -0.000002  -0.000164   0.035203  -0.007417   0.018708
    34  H    0.000028   0.000003  -0.002876  -0.006772  -0.000389   0.000531
    35  H   -0.000026   0.000003   0.000020   0.021137  -0.000453   0.000111
    36  H    0.000300  -0.000038   0.002529  -0.016458   0.000413  -0.000057
              13         14         15         16         17         18
     1  C   -0.000000  -0.000001  -0.000081  -0.000199   0.402150   0.399628
     2  C    0.000006  -0.000088  -0.000945   0.002096  -0.035838  -0.041430
     3  C   -0.000014   0.000127   0.003150  -0.001729  -0.009028   0.013326
     4  N   -0.000013  -0.000234  -0.010139   0.004401   0.000018  -0.000432
     5  C    0.000171  -0.000426  -0.009633   0.000877  -0.000124   0.000041
     6  C    0.000005  -0.000003   0.000417  -0.000216  -0.000001  -0.000002
     7  C   -0.000089  -0.000149   0.033273  -0.002936   0.000025  -0.000007
     8  O    0.000336  -0.000158   0.000539  -0.000068  -0.000000  -0.000000
     9  N   -0.000544   0.013236  -0.057088   0.007763  -0.000003   0.000002
    10  C   -0.191888   0.119654  -0.017022  -0.192556   0.000006   0.000002
    11  C    0.083633  -0.220898   0.021075   0.025739   0.000000  -0.000000
    12  C    0.317629   0.078157  -0.185347  -0.007040  -0.000000   0.000000
    13  C    5.229493   0.290020   0.069332   0.027390   0.000000  -0.000000
    14  C    0.290020   5.287470   0.275797  -0.084523  -0.000000   0.000000
    15  C    0.069332   0.275797   5.887726   0.295439  -0.000009  -0.000003
    16  C    0.027390  -0.084523   0.295439   5.282116   0.000004   0.000021
    17  H    0.000000  -0.000000  -0.000009   0.000004   0.556629  -0.024055
    18  H   -0.000000   0.000000  -0.000003   0.000021  -0.024055   0.532855
    19  H   -0.000001   0.000007   0.000078   0.000102  -0.032192  -0.024654
    20  H    0.000005  -0.000170  -0.001959   0.003251   0.008394  -0.001963
    21  H   -0.000000   0.000003   0.000107  -0.000164  -0.007081  -0.003338
    22  H    0.000013   0.000093   0.003314  -0.002218  -0.001279  -0.000327
    23  H    0.000000  -0.000006  -0.000293   0.000177   0.006380  -0.000257
    24  H    0.000001  -0.000000   0.000182  -0.000198   0.000004  -0.000032
    25  H   -0.000002  -0.000005  -0.000478  -0.000014   0.000004   0.000000
    26  H   -0.000000  -0.000001   0.000051   0.000003   0.000000   0.000000
    27  H   -0.000002  -0.000003  -0.000700  -0.000004  -0.000000  -0.000000
    28  H   -0.000000   0.000000   0.000012  -0.000002  -0.000000  -0.000000
    29  H   -0.000714   0.002765  -0.031520   0.006209   0.000012  -0.000010
    30  H    0.012261  -0.002657   0.020446   0.000137   0.000000  -0.000000
    31  H   -0.069703   0.019262  -0.003998  -0.000008  -0.000000   0.000000
    32  H    0.446055  -0.072695   0.023746  -0.000416   0.000000  -0.000000
    33  H   -0.068866   0.444800  -0.074859  -0.022934  -0.000000   0.000000
    34  H   -0.001199  -0.000733  -0.040869   0.405179  -0.000002  -0.000002
    35  H    0.000757  -0.006503  -0.038787   0.378766   0.000002  -0.000003
    36  H   -0.000030  -0.004552  -0.047138   0.429506   0.000030  -0.000011
              19         20         21         22         23         24
     1  C    0.404957  -0.042404  -0.036148  -0.000373   0.004320   0.000395
     2  C   -0.036827   0.431063   0.407345  -0.046044  -0.023160  -0.009169
     3  C   -0.008706  -0.064999  -0.034505   0.431411   0.370781  -0.028247
     4  N   -0.000305   0.006686  -0.006985  -0.052915  -0.040958   0.360859
     5  C    0.000043  -0.000279   0.000062  -0.012827  -0.004399  -0.048883
     6  C    0.000000  -0.000056   0.000078   0.001364   0.000195   0.000690
     7  C   -0.000002  -0.000932   0.000406   0.022909  -0.010754   0.013529
     8  O    0.000001   0.000000  -0.000001  -0.000783   0.000022  -0.000384
     9  N   -0.000001  -0.001336   0.000031   0.004143  -0.000049  -0.000504
    10  C   -0.000056   0.001392  -0.000095  -0.004970   0.000333  -0.000244
    11  C   -0.000005   0.000061  -0.000002  -0.000186   0.000028   0.000022
    12  C    0.000000  -0.000003   0.000000  -0.000027   0.000001  -0.000002
    13  C   -0.000001   0.000005  -0.000000   0.000013   0.000000   0.000001
    14  C    0.000007  -0.000170   0.000003   0.000093  -0.000006  -0.000000
    15  C    0.000078  -0.001959   0.000107   0.003314  -0.000293   0.000182
    16  C    0.000102   0.003251  -0.000164  -0.002218   0.000177  -0.000198
    17  H   -0.032192   0.008394  -0.007081  -0.001279   0.006380   0.000004
    18  H   -0.024654  -0.001963  -0.003338  -0.000327  -0.000257  -0.000032
    19  H    0.555498  -0.007660   0.007915   0.006095  -0.001163   0.000034
    20  H   -0.007660   0.566033  -0.038797  -0.009621   0.009280  -0.001435
    21  H    0.007915  -0.038797   0.566873   0.008643  -0.012627   0.006987
    22  H    0.006095  -0.009621   0.008643   0.552877  -0.048005   0.007942
    23  H   -0.001163   0.009280  -0.012627  -0.048005   0.611425  -0.006134
    24  H    0.000034  -0.001435   0.006987   0.007942  -0.006134   0.447450
    25  H   -0.000002   0.000180  -0.000188  -0.005379   0.014931  -0.002553
    26  H    0.000000  -0.000000  -0.000002   0.000023   0.000021   0.000523
    27  H   -0.000000   0.000027  -0.000013  -0.000159   0.000237  -0.002612
    28  H    0.000000  -0.000004   0.000025   0.000042  -0.000205   0.003271
    29  H   -0.000034   0.001687  -0.000370  -0.005300   0.002003  -0.000649
    30  H   -0.000000  -0.000000   0.000000   0.000053  -0.000001   0.000010
    31  H    0.000000  -0.000000   0.000000   0.000000  -0.000000  -0.000000
    32  H   -0.000000   0.000000  -0.000000   0.000000  -0.000000   0.000000
    33  H    0.000000  -0.000003   0.000000  -0.000002  -0.000000  -0.000000
    34  H    0.000017  -0.000151   0.000044  -0.000042   0.000021   0.000008
    35  H   -0.000021   0.000251  -0.000014  -0.000048   0.000007  -0.000001
    36  H    0.000228  -0.000455   0.000301   0.000702   0.000069   0.000020
              25         26         27         28         29         30
     1  C    0.000265  -0.000002   0.000013  -0.000004   0.000362  -0.000000
     2  C    0.000144   0.000079  -0.000017  -0.000115   0.000327   0.000002
     3  C   -0.011251  -0.000304  -0.000369  -0.000514  -0.014405  -0.000079
     4  N   -0.052473   0.009846   0.004585  -0.001862   0.047943  -0.000116
     5  C    0.475637  -0.050151  -0.020151  -0.053344   0.002695   0.001472
     6  C   -0.034244   0.394372   0.387703   0.416064  -0.002816   0.000084
     7  C   -0.130683   0.004421  -0.028771   0.015429  -0.048486  -0.006725
     8  O    0.011955   0.010521   0.000320  -0.000384   0.004337   0.028670
     9  N    0.009785   0.001874   0.006982  -0.000293   0.335492  -0.009746
    10  C   -0.000400   0.000472  -0.000530   0.000025  -0.017356  -0.059474
    11  C    0.000619  -0.000153   0.000497  -0.000003   0.005543   0.402375
    12  C    0.000017   0.000001   0.000022   0.000000   0.000768  -0.037729
    13  C   -0.000002  -0.000000  -0.000002  -0.000000  -0.000714   0.012261
    14  C   -0.000005  -0.000001  -0.000003   0.000000   0.002765  -0.002657
    15  C   -0.000478   0.000051  -0.000700   0.000012  -0.031520   0.020446
    16  C   -0.000014   0.000003  -0.000004  -0.000002   0.006209   0.000137
    17  H    0.000004   0.000000  -0.000000  -0.000000   0.000012   0.000000
    18  H    0.000000   0.000000  -0.000000  -0.000000  -0.000010  -0.000000
    19  H   -0.000002   0.000000  -0.000000   0.000000  -0.000034  -0.000000
    20  H    0.000180  -0.000000   0.000027  -0.000004   0.001687  -0.000000
    21  H   -0.000188  -0.000002  -0.000013   0.000025  -0.000370   0.000000
    22  H   -0.005379   0.000023  -0.000159   0.000042  -0.005300   0.000053
    23  H    0.014931   0.000021   0.000237  -0.000205   0.002003  -0.000001
    24  H   -0.002553   0.000523  -0.002612   0.003271  -0.000649   0.000010
    25  H    0.546386  -0.001117   0.009548  -0.008617   0.004576  -0.000096
    26  H   -0.001117   0.516071  -0.020759  -0.020172  -0.000220   0.000002
    27  H    0.009548  -0.020759   0.540005  -0.026808   0.002481  -0.000035
    28  H   -0.008617  -0.020172  -0.026808   0.512610  -0.000183   0.000006
    29  H    0.004576  -0.000220   0.002481  -0.000183   0.390931  -0.000831
    30  H   -0.000096   0.000002  -0.000035   0.000006  -0.000831   0.498315
    31  H   -0.000000   0.000000  -0.000000  -0.000000   0.000020  -0.006452
    32  H   -0.000000  -0.000000  -0.000000   0.000000  -0.000005  -0.000106
    33  H    0.000000   0.000000   0.000000  -0.000000   0.000014  -0.000044
    34  H    0.000042  -0.000002   0.000111   0.000001   0.005184  -0.000031
    35  H    0.000001  -0.000000   0.000002  -0.000000   0.000473   0.000006
    36  H   -0.000019   0.000001  -0.000002  -0.000002  -0.004761   0.000010
              31         32         33         34         35         36
     1  C    0.000000  -0.000000   0.000000   0.000105   0.000052  -0.000001
     2  C   -0.000000   0.000000  -0.000001  -0.000394   0.000103  -0.003772
     3  C    0.000000  -0.000000   0.000000  -0.000843  -0.000151   0.002205
     4  N    0.000000  -0.000000   0.000000   0.002593   0.000325   0.000127
     5  C   -0.000014   0.000001  -0.000002   0.000952   0.000022  -0.000589
     6  C    0.000000   0.000000  -0.000000  -0.000171   0.000002   0.000055
     7  C   -0.000160   0.000005   0.000019   0.000028  -0.000026   0.000300
     8  O   -0.000139   0.000002  -0.000002   0.000003   0.000003  -0.000038
     9  N   -0.000231  -0.000004  -0.000164  -0.002876   0.000020   0.002529
    10  C    0.019797  -0.005918   0.035203  -0.006772   0.021137  -0.016458
    11  C   -0.066614   0.022650  -0.007417  -0.000389  -0.000453   0.000413
    12  C    0.443914  -0.075687   0.018708   0.000531   0.000111  -0.000057
    13  C   -0.069703   0.446055  -0.068866  -0.001199   0.000757  -0.000030
    14  C    0.019262  -0.072695   0.444800  -0.000733  -0.006503  -0.004552
    15  C   -0.003998   0.023746  -0.074859  -0.040869  -0.038787  -0.047138
    16  C   -0.000008  -0.000416  -0.022934   0.405179   0.378766   0.429506
    17  H   -0.000000   0.000000  -0.000000  -0.000002   0.000002   0.000030
    18  H    0.000000  -0.000000   0.000000  -0.000002  -0.000003  -0.000011
    19  H    0.000000  -0.000000   0.000000   0.000017  -0.000021   0.000228
    20  H   -0.000000   0.000000  -0.000003  -0.000151   0.000251  -0.000455
    21  H    0.000000  -0.000000   0.000000   0.000044  -0.000014   0.000301
    22  H    0.000000   0.000000  -0.000002  -0.000042  -0.000048   0.000702
    23  H   -0.000000  -0.000000  -0.000000   0.000021   0.000007   0.000069
    24  H   -0.000000   0.000000  -0.000000   0.000008  -0.000001   0.000020
    25  H   -0.000000  -0.000000   0.000000   0.000042   0.000001  -0.000019
    26  H    0.000000  -0.000000   0.000000  -0.000002  -0.000000   0.000001
    27  H   -0.000000  -0.000000   0.000000   0.000111   0.000002  -0.000002
    28  H   -0.000000   0.000000  -0.000000   0.000001  -0.000000  -0.000002
    29  H    0.000020  -0.000005   0.000014   0.005184   0.000473  -0.004761
    30  H   -0.006452  -0.000106  -0.000044  -0.000031   0.000006   0.000010
    31  H    0.528520  -0.007649  -0.000184  -0.000001  -0.000001  -0.000002
    32  H   -0.007649   0.533158  -0.007137   0.000007  -0.000011   0.000015
    33  H   -0.000184  -0.007137   0.540280   0.000325   0.006277  -0.000072
    34  H   -0.000001   0.000007   0.000325   0.525414  -0.017697  -0.038274
    35  H   -0.000001  -0.000011   0.006277  -0.017697   0.502592  -0.016578
    36  H   -0.000002   0.000015  -0.000072  -0.038274  -0.016578   0.507552
 Mulliken charges:
               1
     1  C   -0.430777
     2  C   -0.243705
     3  C   -0.194521
     4  N   -0.415538
     5  C   -0.117370
     6  C   -0.428844
     7  C    0.208009
     8  O   -0.417241
     9  N   -0.184187
    10  C    0.232513
    11  C   -0.212351
    12  C   -0.160338
    13  C   -0.144041
    14  C   -0.137586
    15  C   -0.113816
    16  C   -0.553951
    17  H    0.135952
    18  H    0.150653
    19  H    0.136651
    20  H    0.143918
    21  H    0.141510
    22  H    0.150880
    23  H    0.127779
    24  H    0.259121
    25  H    0.173430
    26  H    0.154602
    27  H    0.148403
    28  H    0.165027
    29  H    0.313837
    30  H    0.160274
    31  H    0.143644
    32  H    0.143988
    33  H    0.136061
    34  H    0.169881
    35  H    0.169388
    36  H    0.188749
 Sum of Mulliken charges =  -0.00000
 Mulliken charges with hydrogens summed into heavy atoms:
               1
     1  C   -0.007522
     2  C    0.041723
     3  C    0.084137
     4  N   -0.156418
     5  C    0.056060
     6  C    0.039188
     7  C    0.208009
     8  O   -0.417241
     9  N    0.129649
    10  C    0.232513
    11  C   -0.052078
    12  C   -0.016694
    13  C   -0.000053
    14  C   -0.001525
    15  C   -0.113816
    16  C   -0.025933
 Electronic spatial extent (au):  <R**2>=           4597.5031
 Charge=             -0.0000 electrons
 Dipole moment (field-independent basis, Debye):
    X=              4.4792    Y=             -3.7822    Z=              3.1710  Tot=              6.6651
 Quadrupole moment (field-independent basis, Debye-Ang):
   XX=            -84.6243   YY=           -101.6878   ZZ=           -103.4259
   XY=              6.0426   XZ=              2.1054   YZ=              5.0277
 Traceless Quadrupole moment (field-independent basis, Debye-Ang):
   XX=             11.9550   YY=             -5.1084   ZZ=             -6.8466
   XY=              6.0426   XZ=              2.1054   YZ=              5.0277
 Octapole moment (field-independent basis, Debye-Ang**2):
  XXX=             22.7885  YYY=            -26.4361  ZZZ=              8.3567  XYY=              6.3911
  XXY=              7.1023  XXZ=             -0.9636  XZZ=             17.7201  YZZ=             -3.0376
  YYZ=             25.9662  XYZ=              8.5187
 Hexadecapole moment (field-independent basis, Debye-Ang**3):
 XXXX=          -3702.8313 YYYY=          -1950.2820 ZZZZ=           -426.2560 XXXY=             54.8601
 XXXZ=             90.9586 YYYX=             54.2170 YYYZ=             24.3027 ZZZX=              7.2411
 ZZZY=              6.3364 XXYY=           -927.3718 XXZZ=           -766.3110 YYZZ=           -416.1976
 XXYZ=            -19.5294 YYXZ=              2.9128 ZZXY=              5.3302
 N-N= 1.105956311477D+03 E-N=-3.821825790349D+03  KE= 6.889843715135D+02
 Unable to Open any file for archive entry.
 1\1\GINC-TCN1719\SP\RBP86\TZVP\C13H20N2O1\ELENAA\22-Feb-2021\0\\# BP86
 /TZVP SCRF=COSMORS geom=CHECKPOINT guess=CHECKPOINT\\COSMO-file for #M
 VFGUOIZUNYYSO-UHFFFAOYSA-N\\0,1\C,0,-0.2352323803,1.6587640445,-2.0558
 48421\C,0,1.1574281805,2.0943578603,-1.5861324175\C,0,1.1213621213,2.7
 73974619,-0.216729297\N,0,2.4775926166,3.1216530259,0.2442977672\C,0,2
 .5236603797,3.7454957479,1.573737937\C,0,3.7962419268,4.5900025092,1.7
 315910691\C,0,2.5020865472,2.6694260059,2.6861642316\O,0,2.2007723259,
 2.9520142237,3.8534626401\N,0,2.8817128018,1.4424873996,2.2216597881\C
 ,0,2.9808055985,0.2068999234,2.8884330858\C,0,3.0607188024,0.120755311
 3,4.2909732216\C,0,3.1716141527,-1.1278639487,4.9102245114\C,0,3.21211
 23396,-2.296117653,4.1423679259\C,0,3.1342860699,-2.2042111538,2.74719
 18058\C,0,3.0144458107,-0.9696939365,2.0949989509\C,0,2.9048574113,-0.
 8952702142,0.5912226681\H,0,-0.9179042447,2.5199399516,-2.1318723574\H
 ,0,-0.1898109307,1.1781463817,-3.0442195428\H,0,-0.6816178471,0.938631
 0694,-1.3517118074\H,0,1.830885345,1.2227906363,-1.5318124704\H,0,1.60
 13313555,2.7873482901,-2.322295636\H,0,0.6809093875,2.084177483,0.5246
 893516\H,0,0.4589626615,3.6642463981,-0.2527928485\H,0,2.9332953222,3.
 7279853036,-0.4417691714\H,0,1.6393500858,4.3855979965,1.7651516111\H,
 0,3.8663617343,4.9878596445,2.7528202629\H,0,4.688750004,3.9777390435,
 1.5300481743\H,0,3.7841467506,5.4374836753,1.0299425278\H,0,3.03574023
 91,1.4839761766,1.2006048921\H,0,3.0286557182,1.0348000963,4.880675529
 4\H,0,3.2322656645,-1.1815509638,5.9993839057\H,0,3.3013477104,-3.2726
 9554,4.6223370115\H,0,3.161067663,-3.1145259704,2.1425184814\H,0,3.734
 146295,-0.3232221742,0.1411966236\H,0,2.9214958435,-1.8996544656,0.148
 2522097\H,0,1.9667665377,-0.4065667969,0.2793577857\\Version=ES64L-G16
 RevC.01\State=1-A\HF=-692.4214721\RMSD=3.174e-09\Dipole=0.232047,0.046
 379,-2.6115568\Quadrupole=-3.4470762,6.1690905,-2.7220143,1.1565253,2.
 0484157,-7.8781459\PG=C01 [X(C13H20N2O1)]\\@
 The archive entry for this job was punched.


 THE CAUTIOUS SELDOM ERR...CONFUCIUS                   
 Job cpu time:       0 days  0 hours 19 minutes  9.3 seconds.
 Elapsed time:       0 days  0 hours  0 minutes 37.0 seconds.
 File lengths (MBytes):  RWF=    140 Int=      0 D2E=      0 Chk=     19 Scr=      1
 Normal termination of Gaussian 16 at Mon Feb 22 21:45:52 2021.
