 Entering Gaussian System, Link 0=g16
 Input=NNJVILVZKWQKPM-UHFFFAOYSA-N.gjf
 Output=NNJVILVZKWQKPM-UHFFFAOYSA-N.log
 Initial command:
 /sw/arch/RedHatEnterpriseServer7/EB_production/2019/software/Gaussian/g16.c01/l1.exe "/scratch-local/elenaa.9715245/Gau-14191.inp" -scrdir="/scratch-local/elenaa.9715245/"
 Entering Link 1 = /sw/arch/RedHatEnterpriseServer7/EB_production/2019/software/Gaussian/g16.c01/l1.exe PID=     14192.
  
 Copyright (c) 1988-2019, Gaussian, Inc.  All Rights Reserved.
  
 This is part of the Gaussian(R) 16 program.  It is based on
 the Gaussian(R) 09 system (copyright 2009, Gaussian, Inc.),
 the Gaussian(R) 03 system (copyright 2003, Gaussian, Inc.),
 the Gaussian(R) 98 system (copyright 1998, Gaussian, Inc.),
 the Gaussian(R) 94 system (copyright 1995, Gaussian, Inc.),
 the Gaussian 92(TM) system (copyright 1992, Gaussian, Inc.),
 the Gaussian 90(TM) system (copyright 1990, Gaussian, Inc.),
 the Gaussian 88(TM) system (copyright 1988, Gaussian, Inc.),
 the Gaussian 86(TM) system (copyright 1986, Carnegie Mellon
 University), and the Gaussian 82(TM) system (copyright 1983,
 Carnegie Mellon University). Gaussian is a federally registered
 trademark of Gaussian, Inc.
  
 This software contains proprietary and confidential information,
 including trade secrets, belonging to Gaussian, Inc.
  
 This software is provided under written license and may be
 used, copied, transmitted, or stored only in accord with that
 written license.
  
 The following legend is applicable only to US Government
 contracts under FAR:
  
                    RESTRICTED RIGHTS LEGEND
  
 Use, reproduction and disclosure by the US Government is
 subject to restrictions as set forth in subparagraphs (a)
 and (c) of the Commercial Computer Software - Restricted
 Rights clause in FAR 52.227-19.
  
 Gaussian, Inc.
 340 Quinnipiac St., Bldg. 40, Wallingford CT 06492
  
  
 ---------------------------------------------------------------
 Warning -- This program may not be used in any manner that
 competes with the business of Gaussian, Inc. or will provide
 assistance to any competitor of Gaussian, Inc.  The licensee
 of this program is prohibited from giving any competitor of
 Gaussian, Inc. access to this program.  By using this program,
 the user acknowledges that Gaussian, Inc. is engaged in the
 business of creating and licensing software in the field of
 computational chemistry and represents and warrants to the
 licensee that it is not a competitor of Gaussian, Inc. and that
 it will not use this program in any manner prohibited above.
 ---------------------------------------------------------------
  

 Cite this work as:
 Gaussian 16, Revision C.01,
 M. J. Frisch, G. W. Trucks, H. B. Schlegel, G. E. Scuseria, 
 M. A. Robb, J. R. Cheeseman, G. Scalmani, V. Barone, 
 G. A. Petersson, H. Nakatsuji, X. Li, M. Caricato, A. V. Marenich, 
 J. Bloino, B. G. Janesko, R. Gomperts, B. Mennucci, H. P. Hratchian, 
 J. V. Ortiz, A. F. Izmaylov, J. L. Sonnenberg, D. Williams-Young, 
 F. Ding, F. Lipparini, F. Egidi, J. Goings, B. Peng, A. Petrone, 
 T. Henderson, D. Ranasinghe, V. G. Zakrzewski, J. Gao, N. Rega, 
 G. Zheng, W. Liang, M. Hada, M. Ehara, K. Toyota, R. Fukuda, 
 J. Hasegawa, M. Ishida, T. Nakajima, Y. Honda, O. Kitao, H. Nakai, 
 T. Vreven, K. Throssell, J. A. Montgomery, Jr., J. E. Peralta, 
 F. Ogliaro, M. J. Bearpark, J. J. Heyd, E. N. Brothers, K. N. Kudin, 
 V. N. Staroverov, T. A. Keith, R. Kobayashi, J. Normand, 
 K. Raghavachari, A. P. Rendell, J. C. Burant, S. S. Iyengar, 
 J. Tomasi, M. Cossi, J. M. Millam, M. Klene, C. Adamo, R. Cammi, 
 J. W. Ochterski, R. L. Martin, K. Morokuma, O. Farkas, 
 J. B. Foresman, and D. J. Fox, Gaussian, Inc., Wallingford CT, 2019.
 
 ******************************************
 Gaussian 16:  ES64L-G16RevC.01  3-Jul-2019
                22-Feb-2021 
 ******************************************
 %chk=NNJVILVZKWQKPM-UHFFFAOYSA-N.chk
 %NProcShared=32
 Will use up to   32 processors via shared memory.
 -------------------------------------------------------------
 #P BP86/TZVP EmpiricalDispersion=GD3 SCRF=(Solvent=Water) Opt
 -------------------------------------------------------------
 1/18=20,19=15,26=3,38=1/1,3;
 2/9=110,12=2,17=6,18=5,40=1/2;
 3/5=19,7=101,11=2,25=1,30=1,70=2201,71=1,72=1,74=404,124=31/1,2,3;
 4//1;
 5/5=2,38=5,53=1/2;
 6/7=2,8=2,9=2,10=2,28=1/1;
 7//1,2,3,16;
 1/18=20,19=15,26=3/3(2);
 2/9=110/2;
 99//99;
 2/9=110/2;
 3/5=19,7=101,11=2,25=1,30=1,70=2205,71=1,72=1,74=404,124=31/1,2,3;
 4/5=5,16=3,69=1/1;
 5/5=2,38=5,53=1/2;
 7//1,2,3,16;
 1/18=20,19=15,26=3/3(-5);
 2/9=110/2;
 6/7=2,8=2,9=2,10=2,19=2,28=1/1;
 99/9=1/99;
 Leave Link    1 at Mon Feb 22 21:15:17 2021, MaxMem=           0 cpu:               1.5 elap:               0.1
 (Enter /sw/arch/RedHatEnterpriseServer7/EB_production/2019/software/Gaussian/g16.c01/l101.exe)
 -------------------------------------
 Particle #NNJVILVZKWQKPM-UHFFFAOYSA-N
 -------------------------------------
 Symbolic Z-matrix:
 Charge =  0 Multiplicity = 1
 C                     3.02898   3.25267   2.25084 
 C                     2.03147   2.14815   1.83273 
 N                     1.08801   1.75331   2.93666 
 C                     1.73736   0.93216   4.0145 
 C                     0.95719   0.93607   5.34934 
 C                    -0.19807   1.16672   2.43328 
 C                    -1.03642   2.14092   1.70624 
 O                    -1.37012   3.19621   2.29621 
 N                    -1.47081   1.85097   0.45004 
 C                    -2.37207   2.59824  -0.25116 
 C                    -3.70585   2.11516  -0.34658 
 C                    -4.10405   0.83497   0.29403 
 C                    -4.66415   2.87486  -1.05547 
 C                    -4.30802   4.0833   -1.67299 
 C                    -2.98446   4.54393  -1.59799 
 C                    -1.99992   3.81275  -0.89296 
 C                    -0.60668   4.32272  -0.84877 
 H                     2.52696   4.00186   2.86368 
 H                     3.86124   2.83112   2.81398 
 H                     3.43545   3.74237   1.36456 
 H                     1.47797   2.5488    0.97933 
 H                     2.58299   1.27528   1.472 
 H                     2.7285    1.32939   4.23945 
 H                     1.87249  -0.10045   3.68137 
 H                     1.61671   0.65528   6.17219 
 H                     0.13415   0.22049   5.31892 
 H                     0.55577   1.93036   5.54991 
 H                    -0.81959   0.82333   3.26282 
 H                     0.01344   0.29628   1.80448 
 H                    -1.18066   1.01016   0.05805 
 H                    -3.91808   0.88295   1.36833 
 H                    -3.51904   0.01745  -0.12756 
 H                    -5.15845   0.60276   0.14427 
 H                    -5.63287   2.55429  -1.12901 
 H                    -5.01117   4.62161  -2.18566 
 H                    -2.74851   5.42384  -2.06416 
 H                     0.08972   3.53014  -1.12454 
 H                    -0.45192   5.15719  -1.53664 
 H                    -0.37085   4.66504   0.15879 
 
 ITRead=  0  0  0  0  0  0  0  0  0  0  0  0  0  0  0  0  0  0  0  0
 ITRead=  0  0  0  0  0  0  0  0  0  0  0  0  0  0  0  0  0  0  0
 MicOpt= -1 -1 -1 -1 -1 -1 -1 -1 -1 -1 -1 -1 -1 -1 -1 -1 -1 -1 -1 -1
 MicOpt= -1 -1 -1 -1 -1 -1 -1 -1 -1 -1 -1 -1 -1 -1 -1 -1 -1 -1 -1
 NAtoms=     39 NQM=       39 NQMF=       0 NMMI=      0 NMMIF=      0
                NMic=       0 NMicF=      0.
                    Isotopes and Nuclear Properties:
 (Nuclear quadrupole moments (NQMom) in fm**2, nuclear magnetic moments (NMagM)
  in nuclear magnetons)

  Atom         1           2           3           4           5           6           7           8           9          10
 IAtWgt=          12          12          14          12          12          12          12          16          14          12
 AtmWgt=  12.0000000  12.0000000  14.0030740  12.0000000  12.0000000  12.0000000  12.0000000  15.9949146  14.0030740  12.0000000
 NucSpn=           0           0           2           0           0           0           0           0           2           0
 AtZEff=  -0.0000000  -0.0000000  -0.0000000  -0.0000000  -0.0000000  -0.0000000  -0.0000000  -0.0000000  -0.0000000  -0.0000000
 NQMom=    0.0000000   0.0000000   2.0440000   0.0000000   0.0000000   0.0000000   0.0000000   0.0000000   2.0440000   0.0000000
 NMagM=    0.0000000   0.0000000   0.4037610   0.0000000   0.0000000   0.0000000   0.0000000   0.0000000   0.4037610   0.0000000
 AtZNuc=   6.0000000   6.0000000   7.0000000   6.0000000   6.0000000   6.0000000   6.0000000   8.0000000   7.0000000   6.0000000

  Atom        11          12          13          14          15          16          17          18          19          20
 IAtWgt=          12          12          12          12          12          12          12           1           1           1
 AtmWgt=  12.0000000  12.0000000  12.0000000  12.0000000  12.0000000  12.0000000  12.0000000   1.0078250   1.0078250   1.0078250
 NucSpn=           0           0           0           0           0           0           0           1           1           1
 AtZEff=  -0.0000000  -0.0000000  -0.0000000  -0.0000000  -0.0000000  -0.0000000  -0.0000000  -0.0000000  -0.0000000  -0.0000000
 NQMom=    0.0000000   0.0000000   0.0000000   0.0000000   0.0000000   0.0000000   0.0000000   0.0000000   0.0000000   0.0000000
 NMagM=    0.0000000   0.0000000   0.0000000   0.0000000   0.0000000   0.0000000   0.0000000   2.7928460   2.7928460   2.7928460
 AtZNuc=   6.0000000   6.0000000   6.0000000   6.0000000   6.0000000   6.0000000   6.0000000   1.0000000   1.0000000   1.0000000

  Atom        21          22          23          24          25          26          27          28          29          30
 IAtWgt=           1           1           1           1           1           1           1           1           1           1
 AtmWgt=   1.0078250   1.0078250   1.0078250   1.0078250   1.0078250   1.0078250   1.0078250   1.0078250   1.0078250   1.0078250
 NucSpn=           1           1           1           1           1           1           1           1           1           1
 AtZEff=  -0.0000000  -0.0000000  -0.0000000  -0.0000000  -0.0000000  -0.0000000  -0.0000000  -0.0000000  -0.0000000  -0.0000000
 NQMom=    0.0000000   0.0000000   0.0000000   0.0000000   0.0000000   0.0000000   0.0000000   0.0000000   0.0000000   0.0000000
 NMagM=    2.7928460   2.7928460   2.7928460   2.7928460   2.7928460   2.7928460   2.7928460   2.7928460   2.7928460   2.7928460
 AtZNuc=   1.0000000   1.0000000   1.0000000   1.0000000   1.0000000   1.0000000   1.0000000   1.0000000   1.0000000   1.0000000

  Atom        31          32          33          34          35          36          37          38          39
 IAtWgt=           1           1           1           1           1           1           1           1           1
 AtmWgt=   1.0078250   1.0078250   1.0078250   1.0078250   1.0078250   1.0078250   1.0078250   1.0078250   1.0078250
 NucSpn=           1           1           1           1           1           1           1           1           1
 AtZEff=  -0.0000000  -0.0000000  -0.0000000  -0.0000000  -0.0000000  -0.0000000  -0.0000000  -0.0000000  -0.0000000
 NQMom=    0.0000000   0.0000000   0.0000000   0.0000000   0.0000000   0.0000000   0.0000000   0.0000000   0.0000000
 NMagM=    2.7928460   2.7928460   2.7928460   2.7928460   2.7928460   2.7928460   2.7928460   2.7928460   2.7928460
 AtZNuc=   1.0000000   1.0000000   1.0000000   1.0000000   1.0000000   1.0000000   1.0000000   1.0000000   1.0000000
 Leave Link  101 at Mon Feb 22 21:15:17 2021, MaxMem=   104857600 cpu:               3.1 elap:               0.1
 (Enter /sw/arch/RedHatEnterpriseServer7/EB_production/2019/software/Gaussian/g16.c01/l103.exe)

 GradGradGradGradGradGradGradGradGradGradGradGradGradGradGradGradGradGrad
 Berny optimization.
 Initialization pass.
                           ----------------------------
                           !    Initial Parameters    !
                           ! (Angstroms and Degrees)  !
 --------------------------                            --------------------------
 ! Name  Definition              Value          Derivative Info.                !
 --------------------------------------------------------------------------------
 ! R1    R(1,2)                  1.5459         estimate D2E/DX2                !
 ! R2    R(1,18)                 1.0904         estimate D2E/DX2                !
 ! R3    R(1,19)                 1.0897         estimate D2E/DX2                !
 ! R4    R(1,20)                 1.0911         estimate D2E/DX2                !
 ! R5    R(2,3)                  1.5049         estimate D2E/DX2                !
 ! R6    R(2,21)                 1.0932         estimate D2E/DX2                !
 ! R7    R(2,22)                 1.0937         estimate D2E/DX2                !
 ! R8    R(3,4)                  1.5026         estimate D2E/DX2                !
 ! R9    R(3,6)                  1.5005         estimate D2E/DX2                !
 ! R10   R(4,5)                  1.5461         estimate D2E/DX2                !
 ! R11   R(4,23)                 1.0912         estimate D2E/DX2                !
 ! R12   R(4,24)                 1.0934         estimate D2E/DX2                !
 ! R13   R(5,25)                 1.0913         estimate D2E/DX2                !
 ! R14   R(5,26)                 1.091          estimate D2E/DX2                !
 ! R15   R(5,27)                 1.0909         estimate D2E/DX2                !
 ! R16   R(6,7)                  1.4766         estimate D2E/DX2                !
 ! R17   R(6,28)                 1.0919         estimate D2E/DX2                !
 ! R18   R(6,29)                 1.0944         estimate D2E/DX2                !
 ! R19   R(7,8)                  1.2542         estimate D2E/DX2                !
 ! R20   R(7,9)                  1.3604         estimate D2E/DX2                !
 ! R21   R(9,10)                 1.3647         estimate D2E/DX2                !
 ! R22   R(9,30)                 0.972          estimate D2E/DX2                !
 ! R23   R(10,11)                1.4218         estimate D2E/DX2                !
 ! R24   R(10,16)                1.4232         estimate D2E/DX2                !
 ! R25   R(11,12)                1.4859         estimate D2E/DX2                !
 ! R26   R(11,13)                1.4135         estimate D2E/DX2                !
 ! R27   R(12,31)                1.0913         estimate D2E/DX2                !
 ! R28   R(12,32)                1.0901         estimate D2E/DX2                !
 ! R29   R(12,33)                1.09           estimate D2E/DX2                !
 ! R30   R(13,14)                1.403          estimate D2E/DX2                !
 ! R31   R(13,34)                1.023          estimate D2E/DX2                !
 ! R32   R(14,15)                1.4034         estimate D2E/DX2                !
 ! R33   R(14,35)                1.0232         estimate D2E/DX2                !
 ! R34   R(15,16)                1.4146         estimate D2E/DX2                !
 ! R35   R(15,36)                1.0233         estimate D2E/DX2                !
 ! R36   R(16,17)                1.4843         estimate D2E/DX2                !
 ! R37   R(17,37)                1.0905         estimate D2E/DX2                !
 ! R38   R(17,38)                1.0925         estimate D2E/DX2                !
 ! R39   R(17,39)                1.0899         estimate D2E/DX2                !
 ! A1    A(2,1,18)             110.2337         estimate D2E/DX2                !
 ! A2    A(2,1,19)             110.8662         estimate D2E/DX2                !
 ! A3    A(2,1,20)             109.9595         estimate D2E/DX2                !
 ! A4    A(18,1,19)            109.0858         estimate D2E/DX2                !
 ! A5    A(18,1,20)            108.6437         estimate D2E/DX2                !
 ! A6    A(19,1,20)            107.991          estimate D2E/DX2                !
 ! A7    A(1,2,3)              113.1783         estimate D2E/DX2                !
 ! A8    A(1,2,21)             106.0202         estimate D2E/DX2                !
 ! A9    A(1,2,22)             109.5141         estimate D2E/DX2                !
 ! A10   A(3,2,21)             110.5714         estimate D2E/DX2                !
 ! A11   A(3,2,22)             110.4073         estimate D2E/DX2                !
 ! A12   A(21,2,22)            106.8772         estimate D2E/DX2                !
 ! A13   A(2,3,4)              113.4946         estimate D2E/DX2                !
 ! A14   A(2,3,6)              113.1925         estimate D2E/DX2                !
 ! A15   A(4,3,6)              113.4166         estimate D2E/DX2                !
 ! A16   A(3,4,5)              113.5695         estimate D2E/DX2                !
 ! A17   A(3,4,23)             109.9662         estimate D2E/DX2                !
 ! A18   A(3,4,24)             110.5469         estimate D2E/DX2                !
 ! A19   A(5,4,23)             106.2259         estimate D2E/DX2                !
 ! A20   A(5,4,24)             109.1347         estimate D2E/DX2                !
 ! A21   A(23,4,24)            107.118          estimate D2E/DX2                !
 ! A22   A(4,5,25)             110.2049         estimate D2E/DX2                !
 ! A23   A(4,5,26)             110.7885         estimate D2E/DX2                !
 ! A24   A(4,5,27)             110.2874         estimate D2E/DX2                !
 ! A25   A(25,5,26)            107.9488         estimate D2E/DX2                !
 ! A26   A(25,5,27)            108.559          estimate D2E/DX2                !
 ! A27   A(26,5,27)            108.9861         estimate D2E/DX2                !
 ! A28   A(3,6,7)              113.1958         estimate D2E/DX2                !
 ! A29   A(3,6,28)             110.8506         estimate D2E/DX2                !
 ! A30   A(3,6,29)             109.7564         estimate D2E/DX2                !
 ! A31   A(7,6,28)             104.9729         estimate D2E/DX2                !
 ! A32   A(7,6,29)             110.5822         estimate D2E/DX2                !
 ! A33   A(28,6,29)            107.2393         estimate D2E/DX2                !
 ! A34   A(6,7,8)              118.3303         estimate D2E/DX2                !
 ! A35   A(6,7,9)              119.6897         estimate D2E/DX2                !
 ! A36   A(8,7,9)              121.9189         estimate D2E/DX2                !
 ! A37   A(7,9,10)             124.6536         estimate D2E/DX2                !
 ! A38   A(7,9,30)             117.4791         estimate D2E/DX2                !
 ! A39   A(10,9,30)            117.6191         estimate D2E/DX2                !
 ! A40   A(9,10,11)            117.903          estimate D2E/DX2                !
 ! A41   A(9,10,16)            121.7564         estimate D2E/DX2                !
 ! A42   A(11,10,16)           120.3312         estimate D2E/DX2                !
 ! A43   A(10,11,12)           121.0114         estimate D2E/DX2                !
 ! A44   A(10,11,13)           119.1465         estimate D2E/DX2                !
 ! A45   A(12,11,13)           119.8406         estimate D2E/DX2                !
 ! A46   A(11,12,31)           109.9291         estimate D2E/DX2                !
 ! A47   A(11,12,32)           109.6078         estimate D2E/DX2                !
 ! A48   A(11,12,33)           112.5536         estimate D2E/DX2                !
 ! A49   A(31,12,32)           108.7979         estimate D2E/DX2                !
 ! A50   A(31,12,33)           108.0264         estimate D2E/DX2                !
 ! A51   A(32,12,33)           107.8319         estimate D2E/DX2                !
 ! A52   A(11,13,14)           120.7679         estimate D2E/DX2                !
 ! A53   A(11,13,34)           120.6374         estimate D2E/DX2                !
 ! A54   A(14,13,34)           118.5946         estimate D2E/DX2                !
 ! A55   A(13,14,15)           119.9047         estimate D2E/DX2                !
 ! A56   A(13,14,35)           119.9478         estimate D2E/DX2                !
 ! A57   A(15,14,35)           120.144          estimate D2E/DX2                !
 ! A58   A(14,15,16)           120.8887         estimate D2E/DX2                !
 ! A59   A(14,15,36)           118.38           estimate D2E/DX2                !
 ! A60   A(16,15,36)           120.7312         estimate D2E/DX2                !
 ! A61   A(10,16,15)           118.9383         estimate D2E/DX2                !
 ! A62   A(10,16,17)           121.6834         estimate D2E/DX2                !
 ! A63   A(15,16,17)           119.3766         estimate D2E/DX2                !
 ! A64   A(16,17,37)           110.0101         estimate D2E/DX2                !
 ! A65   A(16,17,38)           112.1274         estimate D2E/DX2                !
 ! A66   A(16,17,39)           109.787          estimate D2E/DX2                !
 ! A67   A(37,17,38)           107.7865         estimate D2E/DX2                !
 ! A68   A(37,17,39)           108.8966         estimate D2E/DX2                !
 ! A69   A(38,17,39)           108.1502         estimate D2E/DX2                !
 ! D1    D(18,1,2,3)           -40.4071         estimate D2E/DX2                !
 ! D2    D(18,1,2,21)           80.9657         estimate D2E/DX2                !
 ! D3    D(18,1,2,22)         -164.0598         estimate D2E/DX2                !
 ! D4    D(19,1,2,3)            80.4871         estimate D2E/DX2                !
 ! D5    D(19,1,2,21)         -158.1402         estimate D2E/DX2                !
 ! D6    D(19,1,2,22)          -43.1656         estimate D2E/DX2                !
 ! D7    D(20,1,2,3)          -160.1654         estimate D2E/DX2                !
 ! D8    D(20,1,2,21)          -38.7927         estimate D2E/DX2                !
 ! D9    D(20,1,2,22)           76.1819         estimate D2E/DX2                !
 ! D10   D(1,2,3,4)            -73.5092         estimate D2E/DX2                !
 ! D11   D(1,2,3,6)            155.3674         estimate D2E/DX2                !
 ! D12   D(21,2,3,4)           167.7178         estimate D2E/DX2                !
 ! D13   D(21,2,3,6)            36.5944         estimate D2E/DX2                !
 ! D14   D(22,2,3,4)            49.6516         estimate D2E/DX2                !
 ! D15   D(22,2,3,6)           -81.4718         estimate D2E/DX2                !
 ! D16   D(2,3,4,5)            159.941          estimate D2E/DX2                !
 ! D17   D(2,3,4,23)            41.0696         estimate D2E/DX2                !
 ! D18   D(2,3,4,24)           -77.0044         estimate D2E/DX2                !
 ! D19   D(6,3,4,5)            -69.0464         estimate D2E/DX2                !
 ! D20   D(6,3,4,23)           172.0822         estimate D2E/DX2                !
 ! D21   D(6,3,4,24)            54.0082         estimate D2E/DX2                !
 ! D22   D(2,3,6,7)            -66.7541         estimate D2E/DX2                !
 ! D23   D(2,3,6,28)           175.6008         estimate D2E/DX2                !
 ! D24   D(2,3,6,29)            57.3221         estimate D2E/DX2                !
 ! D25   D(4,3,6,7)            162.0838         estimate D2E/DX2                !
 ! D26   D(4,3,6,28)            44.4387         estimate D2E/DX2                !
 ! D27   D(4,3,6,29)           -73.8401         estimate D2E/DX2                !
 ! D28   D(3,4,5,25)          -159.2882         estimate D2E/DX2                !
 ! D29   D(3,4,5,26)            81.3083         estimate D2E/DX2                !
 ! D30   D(3,4,5,27)           -39.4452         estimate D2E/DX2                !
 ! D31   D(23,4,5,25)          -38.2936         estimate D2E/DX2                !
 ! D32   D(23,4,5,26)         -157.6971         estimate D2E/DX2                !
 ! D33   D(23,4,5,27)           81.5494         estimate D2E/DX2                !
 ! D34   D(24,4,5,25)           76.8856         estimate D2E/DX2                !
 ! D35   D(24,4,5,26)          -42.5179         estimate D2E/DX2                !
 ! D36   D(24,4,5,27)         -163.2714         estimate D2E/DX2                !
 ! D37   D(3,6,7,8)            -56.581          estimate D2E/DX2                !
 ! D38   D(3,6,7,9)            126.2071         estimate D2E/DX2                !
 ! D39   D(28,6,7,8)            64.4464         estimate D2E/DX2                !
 ! D40   D(28,6,7,9)          -112.7655         estimate D2E/DX2                !
 ! D41   D(29,6,7,8)           179.7951         estimate D2E/DX2                !
 ! D42   D(29,6,7,9)             2.5832         estimate D2E/DX2                !
 ! D43   D(6,7,9,10)           171.9371         estimate D2E/DX2                !
 ! D44   D(6,7,9,30)            -2.1886         estimate D2E/DX2                !
 ! D45   D(8,7,9,10)            -5.1715         estimate D2E/DX2                !
 ! D46   D(8,7,9,30)          -179.2972         estimate D2E/DX2                !
 ! D47   D(7,9,10,11)         -103.3477         estimate D2E/DX2                !
 ! D48   D(7,9,10,16)           77.7647         estimate D2E/DX2                !
 ! D49   D(30,9,10,11)          70.7705         estimate D2E/DX2                !
 ! D50   D(30,9,10,16)        -108.1171         estimate D2E/DX2                !
 ! D51   D(9,10,11,12)          -0.1711         estimate D2E/DX2                !
 ! D52   D(9,10,11,13)         179.3793         estimate D2E/DX2                !
 ! D53   D(16,10,11,12)        178.7331         estimate D2E/DX2                !
 ! D54   D(16,10,11,13)         -1.7165         estimate D2E/DX2                !
 ! D55   D(9,10,16,15)        -179.6576         estimate D2E/DX2                !
 ! D56   D(9,10,16,17)           0.8128         estimate D2E/DX2                !
 ! D57   D(11,10,16,15)          1.4814         estimate D2E/DX2                !
 ! D58   D(11,10,16,17)       -178.0483         estimate D2E/DX2                !
 ! D59   D(10,11,12,31)         58.8763         estimate D2E/DX2                !
 ! D60   D(10,11,12,32)        -60.6627         estimate D2E/DX2                !
 ! D61   D(10,11,12,33)        179.3409         estimate D2E/DX2                !
 ! D62   D(13,11,12,31)       -120.6709         estimate D2E/DX2                !
 ! D63   D(13,11,12,32)        119.79           estimate D2E/DX2                !
 ! D64   D(13,11,12,33)         -0.2063         estimate D2E/DX2                !
 ! D65   D(10,11,13,14)          0.7386         estimate D2E/DX2                !
 ! D66   D(10,11,13,34)       -179.2726         estimate D2E/DX2                !
 ! D67   D(12,11,13,14)       -179.7056         estimate D2E/DX2                !
 ! D68   D(12,11,13,34)          0.2832         estimate D2E/DX2                !
 ! D69   D(11,13,14,15)          0.4667         estimate D2E/DX2                !
 ! D70   D(11,13,14,35)        179.793          estimate D2E/DX2                !
 ! D71   D(34,13,14,15)       -179.5223         estimate D2E/DX2                !
 ! D72   D(34,13,14,35)         -0.1961         estimate D2E/DX2                !
 ! D73   D(13,14,15,16)         -0.7072         estimate D2E/DX2                !
 ! D74   D(13,14,15,36)        179.442          estimate D2E/DX2                !
 ! D75   D(35,14,15,16)        179.9679         estimate D2E/DX2                !
 ! D76   D(35,14,15,36)          0.1171         estimate D2E/DX2                !
 ! D77   D(14,15,16,10)         -0.2646         estimate D2E/DX2                !
 ! D78   D(14,15,16,17)        179.2761         estimate D2E/DX2                !
 ! D79   D(36,15,16,10)        179.5827         estimate D2E/DX2                !
 ! D80   D(36,15,16,17)         -0.8767         estimate D2E/DX2                !
 ! D81   D(10,16,17,37)         49.5343         estimate D2E/DX2                !
 ! D82   D(10,16,17,38)        169.4695         estimate D2E/DX2                !
 ! D83   D(10,16,17,39)        -70.288          estimate D2E/DX2                !
 ! D84   D(15,16,17,37)       -129.9933         estimate D2E/DX2                !
 ! D85   D(15,16,17,38)        -10.0581         estimate D2E/DX2                !
 ! D86   D(15,16,17,39)        110.1844         estimate D2E/DX2                !
 --------------------------------------------------------------------------------
 Trust Radius=3.00D-01 FncErr=1.00D-07 GrdErr=1.00D-06 EigMax=2.50D+02 EigMin=1.00D-04
 Number of steps in this run=    204 maximum allowed number of steps=    234.
 GradGradGradGradGradGradGradGradGradGradGradGradGradGradGradGradGradGrad

 Leave Link  103 at Mon Feb 22 21:15:17 2021, MaxMem=   104857600 cpu:               0.5 elap:               0.0
 (Enter /sw/arch/RedHatEnterpriseServer7/EB_production/2019/software/Gaussian/g16.c01/l202.exe)
                          Input orientation:                          
 ---------------------------------------------------------------------
 Center     Atomic      Atomic             Coordinates (Angstroms)
 Number     Number       Type             X           Y           Z
 ---------------------------------------------------------------------
      1          6           0        3.028980    3.252670    2.250840
      2          6           0        2.031470    2.148150    1.832730
      3          7           0        1.088010    1.753310    2.936660
      4          6           0        1.737360    0.932160    4.014500
      5          6           0        0.957190    0.936070    5.349340
      6          6           0       -0.198070    1.166720    2.433280
      7          6           0       -1.036420    2.140920    1.706240
      8          8           0       -1.370120    3.196210    2.296210
      9          7           0       -1.470810    1.850970    0.450040
     10          6           0       -2.372070    2.598240   -0.251160
     11          6           0       -3.705850    2.115160   -0.346580
     12          6           0       -4.104050    0.834970    0.294030
     13          6           0       -4.664150    2.874860   -1.055470
     14          6           0       -4.308020    4.083300   -1.672990
     15          6           0       -2.984460    4.543930   -1.597990
     16          6           0       -1.999920    3.812750   -0.892960
     17          6           0       -0.606680    4.322720   -0.848770
     18          1           0        2.526960    4.001860    2.863680
     19          1           0        3.861240    2.831120    2.813980
     20          1           0        3.435450    3.742370    1.364560
     21          1           0        1.477970    2.548800    0.979330
     22          1           0        2.582990    1.275280    1.472000
     23          1           0        2.728500    1.329390    4.239450
     24          1           0        1.872490   -0.100450    3.681370
     25          1           0        1.616710    0.655280    6.172190
     26          1           0        0.134150    0.220490    5.318920
     27          1           0        0.555770    1.930360    5.549910
     28          1           0       -0.819590    0.823330    3.262820
     29          1           0        0.013440    0.296280    1.804480
     30          1           0       -1.180660    1.010160    0.058050
     31          1           0       -3.918080    0.882950    1.368330
     32          1           0       -3.519040    0.017450   -0.127560
     33          1           0       -5.158450    0.602760    0.144270
     34          1           0       -5.632870    2.554290   -1.129010
     35          1           0       -5.011170    4.621610   -2.185660
     36          1           0       -2.748510    5.423840   -2.064160
     37          1           0        0.089720    3.530140   -1.124540
     38          1           0       -0.451920    5.157190   -1.536640
     39          1           0       -0.370850    4.665040    0.158790
 ---------------------------------------------------------------------
                    Distance matrix (angstroms):
                    1          2          3          4          5
     1  C    0.000000
     2  C    1.545900   0.000000
     3  N    2.546722   1.504884   0.000000
     4  C    3.188032   2.515006   1.502558   0.000000
     5  C    4.388582   3.871661   2.550690   1.546117   0.000000
     6  C    3.846859   2.508927   1.500494   2.510212   3.145033
     7  C    4.249712   3.070505   2.485433   3.805656   4.324156
     8  O    4.399696   3.589437   2.921393   4.211279   4.454908
     9  N    5.045370   3.777051   3.569366   4.882821   5.543949
    10  C    5.988291   4.892478   4.779985   6.152974   6.724015
    11  C    7.307425   6.137371   5.821657   7.074393   7.455045
    12  C    7.781677   6.460390   5.897824   6.926284   7.154197
    13  C    8.382045   7.328106   7.091003   8.393927   8.739563
    14  C    8.361696   7.498267   7.469596   8.878279   9.324195
    15  C    7.255502   6.532163   6.703404   8.175605   8.764625
    16  C    5.957097   5.143188   5.333160   6.807953   7.482386
    17  C    4.895979   4.345001   4.878865   6.375093   7.234062
    18  H    1.090359   2.178212   2.670558   3.372078   4.247558
    19  H    1.089719   2.185717   2.977840   3.091628   4.295669
    20  H    1.091108   2.175289   3.455189   4.219357   5.467684
    21  H    2.125512   1.093240   2.148491   3.448632   4.687120
    22  H    2.171536   1.093710   2.146790   2.701320   4.218063
    23  H    2.782780   2.636005   2.137329   1.091216   2.126992
    24  H    3.824565   2.915295   2.146259   1.093398   2.166627
    25  H    4.911001   4.607776   3.457434   2.178726   1.091280
    26  H    5.194927   4.412394   2.989072   2.185925   1.091043
    27  H    4.330027   4.005315   2.672770   2.179459   1.090862
    28  H    4.662326   3.453817   2.147133   2.667370   2.742849
    29  H    4.246523   2.739099   2.135291   2.874097   3.723712
    30  H    5.249595   3.842172   3.739723   4.916749   5.707332
    31  H    7.392972   6.100290   5.317718   6.244088   6.294404
    32  H    7.681146   6.260254   5.798928   6.754487   7.132807
    33  H    8.859665   7.545467   6.938261   7.914504   8.037717
    34  H    9.324096   8.226722   7.895661   9.132759   9.381713
    35  H    9.284425   8.477278   8.465536   9.879103  10.294695
    36  H    7.530777   6.983130   7.293825   8.789103   9.425087
    37  H    4.484354   3.798123   4.543903   5.989487   7.028003
    38  H    5.485332   5.155017   5.828224   7.311565   8.198790
    39  H    4.234419   3.861082   4.280538   5.765886   6.527688
                    6          7          8          9         10
     6  C    0.000000
     7  C    1.476646   0.000000
     8  O    2.347620   1.254216   0.000000
     9  N    2.453835   1.360443   2.286515   0.000000
    10  C    3.739217   2.413404   2.801886   1.364684   0.000000
    11  C    4.575115   3.367579   3.688989   2.387426   1.421774
    12  C    4.465773   3.620801   4.130200   2.826756   2.531029
    13  C    5.919036   4.618023   4.710378   3.675912   2.444803
    14  C    6.500737   5.088753   5.017244   4.188116   2.823988
    15  C    5.951525   4.526285   4.425747   3.706426   2.444316
    16  C    4.616493   3.237157   3.308712   2.435608   1.423179
    17  C    4.571559   3.387182   3.426772   2.922871   2.539207
    18  H    3.955888   4.183353   4.019742   5.141415   5.972677
    19  H    4.403766   5.068583   5.269583   5.914361   6.950070
    20  H    4.580240   4.762248   4.925420   5.337146   6.135705
    21  H    2.614044   2.648947   3.203893   3.076104   4.042197
    22  H    2.944510   3.728851   4.471730   4.220085   5.410372
    23  H    3.442895   4.609811   4.905088   5.680306   6.913130
    24  H    2.729591   4.169728   4.827127   5.042538   6.384670
    25  H    4.187415   5.402864   5.513683   6.611010   7.806720
    26  H    3.054937   4.255554   4.500501   5.379624   6.554436
    27  H    3.296180   4.165718   3.987229   5.488352   6.532283
    28  H    1.091943   2.050853   2.620683   3.064615   4.231850
    29  H    1.094437   2.124748   3.250482   2.540584   3.900684
    30  H    2.575211   2.003984   3.134337   0.972011   2.009245
    31  H    3.879835   3.162378   3.564300   2.787373   2.820481
    32  H    4.348283   3.746378   4.538395   2.809032   2.826888
    33  H    5.492084   4.668706   5.070333   3.905152   3.449959
    34  H    6.644721   5.416352   5.505927   4.506751   3.377184
    35  H    7.512443   6.090923   5.947787   5.211287   3.847228
    36  H    6.697371   5.284386   5.086759   4.551826   3.378268
    37  H    4.280965   3.348349   3.734190   2.781037   2.773381
    38  H    5.634586   4.467191   4.402190   3.989502   3.447849
    39  H    4.176290   3.034595   2.779310   3.035412   2.905960
                   11         12         13         14         15
    11  C    0.000000
    12  C    1.485877   0.000000
    13  C    1.413509   2.509186   0.000000
    14  C    2.448581   3.802949   1.403028   0.000000
    15  C    2.825837   4.311567   2.429296   1.403430   0.000000
    16  C    2.467902   3.834512   2.829164   2.451320   1.414571
    17  C    3.838016   5.069713   4.313014   3.799550   2.502819
    18  H    7.260394   7.784766   8.266918   8.203960   7.111687
    19  H    8.231804   8.589564   9.362523   9.404130   8.322428
    20  H    7.521568   8.151262   8.497802   8.324919   7.115788
    21  H    5.368247   5.879268   6.478608   6.547303   5.525975
    22  H    6.600162   6.804263   7.840140   8.078487   7.148805
    23  H    7.940401   7.905348   9.223661   9.594456   8.777636
    24  H    7.228498   6.933117   8.603359   9.185404   8.545869
    25  H    8.541385   8.204398   9.829283  10.411561   9.831992
    26  H    7.101638   6.602230   8.408461   9.140076   8.732783
    27  H    7.277647   7.109014   8.471758   8.970055   8.393834
    28  H    4.798655   4.427361   6.134904   6.867224   6.492842
    29  H    4.665673   4.418752   6.058732   6.716348   6.213432
    30  H    2.785917   2.938126   4.105087   4.713923   4.299267
    31  H    2.122333   1.091333   3.224769   4.432146   4.803486
    32  H    2.117370   1.090098   3.215134   4.420631   4.789255
    33  H    2.153679   1.090004   2.616514   4.017440   4.826440
    34  H    2.125662   2.705253   1.023031   2.094997   3.345547
    35  H    3.371701   4.616316   2.109239   1.023244   2.111621
    36  H    3.848889   5.334442   3.344313   2.093354   1.023342
    37  H    4.124772   5.183048   4.799317   4.466195   3.271469
    38  H    4.610667   5.947352   4.814918   4.005164   2.606456
    39  H    4.228417   5.350188   4.807452   4.381227   3.151492
                   16         17         18         19         20
    16  C    0.000000
    17  C    1.484298   0.000000
    18  H    5.885639   4.868771   0.000000
    19  H    7.004156   5.966818   1.775783   0.000000
    20  H    5.885966   4.644831   1.772019   1.764226   0.000000
    21  H    4.147139   3.291581   2.600488   3.020864   2.324810
    22  H    5.747595   4.984662   3.061724   2.419808   2.612425
    23  H    7.407204   6.780371   3.012550   2.360139   3.819325
    24  H    7.157736   6.799477   4.233898   3.647135   4.751602
    25  H    8.542012   8.227239   4.793161   4.588003   5.995936
    26  H    7.486390   7.444294   5.104165   5.194354   6.240127
    27  H    7.182306   6.929486   3.923332   4.384383   5.393801
    28  H    5.253601   5.403354   4.632684   5.113008   5.498141
    29  H    4.867788   4.861739   4.601197   4.716998   4.876394
    30  H    3.070850   3.482073   5.528858   6.027587   5.520907
    31  H    4.168513   5.264306   7.314521   8.148809   7.889911
    32  H    4.159070   5.247603   7.834357   8.428400   8.029096
    33  H    4.621276   5.961782   8.832587   9.666838   9.230459
    34  H    3.851982   5.335585   9.198905  10.284062   9.479655
    35  H    3.375345   4.612607   9.094137  10.340305   9.204483
    36  H    2.127841   2.697605   7.357732   8.614363   7.268069
    37  H    2.121342   1.090507   4.697718   5.497721   4.175472
    38  H    2.148987   1.092454   5.437953   6.553003   5.052754
    39  H    2.118123   1.089943   4.019147   5.322019   4.097941
                   21         22         23         24         25
    21  H    0.000000
    22  H    1.756601   0.000000
    23  H    3.698536   2.771801   0.000000
    24  H    3.804628   2.697918   1.757455   0.000000
    25  H    5.529056   4.838376   2.329374   2.615480   0.000000
    26  H    5.104794   4.680619   3.020855   2.409647   1.764964
    27  H    4.703522   4.600880   2.607533   3.057676   1.771625
    28  H    3.670198   3.871543   3.714680   2.876777   3.798451
    29  H    2.810617   2.769760   3.790507   2.671363   4.666503
    30  H    3.206943   4.029219   5.733022   4.866583   6.733047
    31  H    5.660718   6.513723   7.253941   6.312522   7.332312
    32  H    5.709908   6.432379   7.734579   6.602306   8.152889
    33  H    6.966094   7.883213   8.916416   7.901879   9.068703
    34  H    7.416817   8.712145  10.011656   9.301496  10.462799
    35  H    7.511501   9.069050  10.584103  10.203169  11.380432
    36  H    5.949102   7.624950   9.300412   9.213172  10.470519
    37  H    2.704909   4.247683   6.370153   6.281419   7.989918
    38  H    4.105883   5.773372   7.624326   7.763587   9.163650
    39  H    2.927438   4.684033   6.114272   6.336485   7.495969
                   26         27         28         29         30
    26  H    0.000000
    27  H    1.776169   0.000000
    28  H    2.345332   2.889275   0.000000
    29  H    3.517329   4.122206   1.760249   0.000000
    30  H    5.479877   5.832880   3.230453   2.232827   0.000000
    31  H    5.697945   6.212730   3.632256   3.998907   3.037513
    32  H    6.561339   7.245479   4.408078   4.035956   2.547145
    33  H    7.411798   7.977204   5.347870   5.440466   3.999528
    34  H    8.959963   9.126693   6.741814   6.751651   4.859591
    35  H   10.107566   9.903166   7.853802   7.737984   5.722728
    36  H    9.481268   9.005372   7.298092   6.991896   5.142227
    37  H    7.243889   6.879301   5.234749   4.363809   3.059850
    38  H    8.468364   7.851564   6.477063   5.916763   4.502439
    39  H    6.829055   6.115658   4.959345   4.684233   3.744875
                   31         32         33         34         35
    31  H    0.000000
    32  H    1.773700   0.000000
    33  H    1.765035   1.761858   0.000000
    34  H    3.459854   3.450614   2.377979   0.000000
    35  H    5.272881   5.259327   4.647733   2.403504   0.000000
    36  H    5.811159   5.794238   5.824756   4.174728   2.403740
    37  H    5.411513   5.133820   6.141883   5.805199   5.323191
    38  H    6.222720   6.148956   6.761636   5.812357   4.636252
    39  H    5.324475   5.620782   6.278809   5.813996   5.199125
                   36         37         38         39
    36  H    0.000000
    37  H    3.539002   0.000000
    38  H    2.371435   1.763659   0.000000
    39  H    3.342237   1.773995   1.767277   0.000000
 Stoichiometry    C14H22N2O
 Framework group  C1[X(C14H22N2O)]
 Deg. of freedom   111
 Full point group                 C1      NOp   1
 Largest Abelian subgroup         C1      NOp   1
 Largest concise Abelian subgroup C1      NOp   1
                         Standard orientation:                         
 ---------------------------------------------------------------------
 Center     Atomic      Atomic             Coordinates (Angstroms)
 Number     Number       Type             X           Y           Z
 ---------------------------------------------------------------------
      1          6           0        3.540106    2.412244   -0.080768
      2          6           0        2.779459    1.264087   -0.782876
      3          7           0        2.874012   -0.045605   -0.047726
      4          6           0        4.221152   -0.701118   -0.162600
      5          6           0        4.496046   -1.746942    0.942463
      6          6           0        1.732308   -0.973173   -0.343718
      7          6           0        0.435882   -0.479913    0.162701
      8          8           0        0.334388   -0.220355    1.385561
      9          7           0       -0.622559   -0.373865   -0.685391
     10          6           0       -1.899135   -0.082944   -0.300577
     11          6           0       -2.838489   -1.149066   -0.251202
     12          6           0       -2.442776   -2.535311   -0.611160
     13          6           0       -4.164801   -0.879673    0.156635
     14          6           0       -4.561090    0.423001    0.494985
     15          6           0       -3.637381    1.476957    0.420457
     16          6           0       -2.300422    1.243993    0.021361
     17          6           0       -1.355764    2.385883   -0.061393
     18          1           0        3.396134    2.355350    0.998546
     19          1           0        4.606194    2.363310   -0.301107
     20          1           0        3.167232    3.375595   -0.432102
     21          1           0        1.738533    1.590669   -0.853524
     22          1           0        3.147951    1.154174   -1.806759
     23          1           0        5.009075    0.048780   -0.075516
     24          1           0        4.334963   -1.175373   -1.141195
     25          1           0        5.569435   -1.916563    1.042254
     26          1           0        4.026169   -2.700877    0.698338
     27          1           0        4.109521   -1.395737    1.900186
     28          1           0        1.878143   -1.937866    0.146629
     29          1           0        1.678275   -1.161513   -1.420472
     30          1           0       -0.473967   -0.601090   -1.618715
     31          1           0       -1.630649   -2.870333    0.036310
     32          1           0       -2.100538   -2.561059   -1.645821
     33          1           0       -3.265635   -3.243534   -0.514043
     34          1           0       -4.856401   -1.631551    0.211052
     35          1           0       -5.525303    0.604373    0.785546
     36          1           0       -3.953723    2.419144    0.664261
     37          1           0       -0.843749    2.377581   -1.024190
     38          1           0       -1.863504    3.348028    0.038271
     39          1           0       -0.614005    2.309467    0.733547
 ---------------------------------------------------------------------
 Rotational constants (GHZ):           0.9013427           0.2373969           0.2016079
 Leave Link  202 at Mon Feb 22 21:15:17 2021, MaxMem=   104857600 cpu:               1.2 elap:               0.1
 (Enter /sw/arch/RedHatEnterpriseServer7/EB_production/2019/software/Gaussian/g16.c01/l301.exe)
 Standard basis: TZVP (5D, 7F)
 Ernie: Thresh=  0.10000D-02 Tol=  0.10000D-05 Strict=F.
 There are   472 symmetry adapted cartesian basis functions of A   symmetry.
 There are   455 symmetry adapted basis functions of A   symmetry.
   455 basis functions,   771 primitive gaussians,   472 cartesian basis functions
    64 alpha electrons       64 beta electrons
       nuclear repulsion energy      1226.0840417916 Hartrees.
 IExCor=  404 DFT=T Ex=B Corr=P86 ExCW=0 ScaHFX=  0.000000
 ScaDFX=  1.000000  1.000000  1.000000  1.000000 ScalE2=  1.000000  1.000000
 IRadAn=      5 IRanWt=     -1 IRanGd=            0 ICorTp=0 IEmpDi=131
 NAtoms=   39 NActive=   39 NUniq=   39 SFac= 1.00D+00 NAtFMM=   60 NAOKFM=F Big=F
 Integral buffers will be    131072 words long.
 Raffenetti 2 integral format.
 Two-electron integral symmetry is turned on.
 R6Disp:  Grimme-D3 Dispersion energy=       -0.0428841206 Hartrees.
 Nuclear repulsion after empirical dispersion term =     1226.0411576710 Hartrees.
 ------------------------------------------------------------------------------
 Polarizable Continuum Model (PCM)
 =================================
 Model                : PCM.
 Atomic radii         : UFF (Universal Force Field).
 Polarization charges : Total charges.
 Charge compensation  : None.
 Solution method      : On-the-fly selection.
 Cavity type          : Scaled VdW (van der Waals Surface) (Alpha=1.100).
 Cavity algorithm     : GePol (No added spheres)
                        Default sphere list used, NSphG=   39.
                        Lebedev-Laikov grids with approx.  5.0 points / Ang**2.
                        Smoothing algorithm: York/Karplus (Gamma=1.0000).
                        Polarization charges: spherical gaussians, with
                                              point-specific exponents (IZeta= 3).
                        Self-potential: point-specific (ISelfS= 7).
                        Self-field    : sphere-specific E.n sum rule (ISelfD= 2).
 1st derivatives      : Analytical E(r).r(x)/FMM algorithm (CHGder, D1EAlg=3).
                        Cavity 1st derivative terms included.
 Solvent              : Water, Eps=  78.355300 Eps(inf)=   1.777849
 ------------------------------------------------------------------------------
 GePol: Number of generator spheres                  =      39
 GePol: Total number of spheres                      =      39
 GePol: Number of exposed spheres                    =      39 (100.00%)
 GePol: Number of points                             =    2664
 GePol: Average weight of points                     =       0.13
 GePol: Minimum weight of points                     =   0.17D-10
 GePol: Maximum weight of points                     =    0.20577
 GePol: Number of points with low weight             =     171
 GePol: Fraction of low-weight points (<1% of avg)   =       6.42%
 GePol: Cavity surface area                          =    352.525 Ang**2
 GePol: Cavity volume                                =    375.938 Ang**3
 Leave Link  301 at Mon Feb 22 21:15:17 2021, MaxMem=   104857600 cpu:               2.2 elap:               0.1
 (Enter /sw/arch/RedHatEnterpriseServer7/EB_production/2019/software/Gaussian/g16.c01/l302.exe)
 NPDir=0 NMtPBC=     1 NCelOv=     1 NCel=       1 NClECP=     1 NCelD=      1
         NCelK=      1 NCelE2=     1 NClLst=     1 CellRange=     0.0.
 One-electron integrals computed using PRISM.
 One-electron integral symmetry used in STVInt
 PrsmSu:  requested number of processors reduced to:  25 ShMem   1 Linda.
 NBasis=   455 RedAO= T EigKep=  5.92D-06  NBF=   455
 NBsUse=   455 1.00D-06 EigRej= -1.00D+00 NBFU=   455
 Precomputing XC quadrature grid using
 IXCGrd= 4 IRadAn=           5 IRanWt=          -1 IRanGd=           0 AccXCQ= 0.00D+00.
 Generated NRdTot=       0 NPtTot=           0 NUsed=           0 NTot=          32
 NSgBfM=   462   461   461   462   462 MxSgAt=    39 MxSgA2=    39.
 Leave Link  302 at Mon Feb 22 21:15:18 2021, MaxMem=   104857600 cpu:              18.0 elap:               0.6
 (Enter /sw/arch/RedHatEnterpriseServer7/EB_production/2019/software/Gaussian/g16.c01/l303.exe)
 DipDrv:  MaxL=1.
 Leave Link  303 at Mon Feb 22 21:15:18 2021, MaxMem=   104857600 cpu:               2.9 elap:               0.1
 (Enter /sw/arch/RedHatEnterpriseServer7/EB_production/2019/software/Gaussian/g16.c01/l401.exe)
 ExpMin= 9.52D-02 ExpMax= 2.70D+04 ExpMxC= 9.22D+02 IAcc=3 IRadAn=         5 AccDes= 0.00D+00
 Harris functional with IExCor=  404 and IRadAn=       5 diagonalized for initial guess.
 HarFok:  IExCor=  404 AccDes= 0.00D+00 IRadAn=         5 IDoV= 1 UseB2=F ITyADJ=14
 ICtDFT=  3500011 ScaDFX=  1.000000  1.000000  1.000000  1.000000
 FoFCou: FMM=F IPFlag=           0 FMFlag=      100000 FMFlg1=           0
         NFxFlg=           0 DoJE=T BraDBF=F KetDBF=T FulRan=T
         wScrn=  0.000000 ICntrl=       500 IOpCl=  0 I1Cent=   200000004 NGrid=           0
         NMat0=    1 NMatS0=      1 NMatT0=    0 NMatD0=    1 NMtDS0=    0 NMtDT0=    0
 Petite list used in FoFCou.
 Harris En= -732.110992495294    
 JPrj=0 DoOrth=F DoCkMO=F.
 Leave Link  401 at Mon Feb 22 21:15:20 2021, MaxMem=   104857600 cpu:              32.9 elap:               1.1
 (Enter /sw/arch/RedHatEnterpriseServer7/EB_production/2019/software/Gaussian/g16.c01/l502.exe)
 Integral symmetry usage will be decided dynamically.
 Closed shell SCF:
 Using DIIS extrapolation, IDIIS=  1040.
 NGot=   104857600 LenX=   104391128 LenY=   104167872
 Requested convergence on RMS density matrix=1.00D-08 within 128 cycles.
 Requested convergence on MAX density matrix=1.00D-06.
 Requested convergence on             energy=1.00D-06.
 No special actions if energy rises.
 Fock matrices will be formed incrementally for  20 cycles.

 Cycle   1  Pass 1  IDiag  1:
 FoFJK:  IHMeth= 1 ICntrl=     500 DoSepK=F KAlg= 0 I1Cent=           0 FoldK=F
 IRaf= 810000000 NMat=       1 IRICut=       1 DoRegI=T DoRafI=F ISym2E= 0 IDoP0=0 IntGTp=1.
 FoFCou: FMM=F IPFlag=           0 FMFlag=      100000 FMFlg1=           0
         NFxFlg=           0 DoJE=T BraDBF=F KetDBF=F FulRan=T
         wScrn=  0.000000 ICntrl=       500 IOpCl=  0 I1Cent=           0 NGrid=           0
         NMat0=    1 NMatS0=      1 NMatT0=    0 NMatD0=    1 NMtDS0=    0 NMtDT0=    0
 Symmetry not used in FoFCou.
 Inv3:  Mode=1 IEnd=    21290688.
 Iteration    1 A*A^-1 deviation from unit magnitude is 3.33D-15 for   1054.
 Iteration    1 A*A^-1 deviation from orthogonality  is 2.29D-15 for   2352    488.
 Iteration    1 A^-1*A deviation from unit magnitude is 3.22D-15 for   1772.
 Iteration    1 A^-1*A deviation from orthogonality  is 1.99D-15 for   2086    732.
 E= -731.242153175205    
 DIIS: error= 2.40D-02 at cycle   1 NSaved=   1.
 NSaved= 1 IEnMin= 1 EnMin= -731.242153175205     IErMin= 1 ErrMin= 2.40D-02
 ErrMax= 2.40D-02  0.00D+00 EMaxC= 1.00D-01 BMatC= 5.03D-01 BMatP= 5.03D-01
 IDIUse=3 WtCom= 7.60D-01 WtEn= 2.40D-01
 Coeff-Com:  0.100D+01
 Coeff-En:   0.100D+01
 Coeff:      0.100D+01
 Gap=     0.126 Goal=   None    Shift=    0.000
 GapD=    0.126 DampG=1.000 DampE=0.500 DampFc=0.5000 IDamp=-1.
 Damping current iteration by 5.00D-01
 RMSDP=6.90D-03 MaxDP=4.09D-01              OVMax= 2.99D-01

 Cycle   2  Pass 1  IDiag  1:
 RMSU=  3.45D-03    CP:  1.01D+00
 E= -731.335819911290     Delta-E=       -0.093666736085 Rises=F Damp=T
 DIIS: error= 1.88D-02 at cycle   2 NSaved=   2.
 NSaved= 2 IEnMin= 2 EnMin= -731.335819911290     IErMin= 2 ErrMin= 1.88D-02
 ErrMax= 1.88D-02  0.00D+00 EMaxC= 1.00D-01 BMatC= 1.11D-01 BMatP= 5.03D-01
 IDIUse=3 WtCom= 8.12D-01 WtEn= 1.88D-01
 Coeff-Com:  0.271D+00 0.729D+00
 Coeff-En:   0.408D+00 0.592D+00
 Coeff:      0.297D+00 0.703D+00
 Gap=     0.200 Goal=   None    Shift=    0.000
 RMSDP=2.83D-03 MaxDP=1.88D-01 DE=-9.37D-02 OVMax= 2.41D-01

 Cycle   3  Pass 1  IDiag  1:
 RMSU=  1.60D-03    CP:  9.61D-01  3.38D-01
 E= -731.598954625152     Delta-E=       -0.263134713862 Rises=F Damp=F
 DIIS: error= 2.62D-02 at cycle   3 NSaved=   3.
 NSaved= 3 IEnMin= 3 EnMin= -731.598954625152     IErMin= 2 ErrMin= 1.88D-02
 ErrMax= 2.62D-02  0.00D+00 EMaxC= 1.00D-01 BMatC= 1.60D-01 BMatP= 1.11D-01
 IDIUse=2 WtCom= 0.00D+00 WtEn= 1.00D+00
 EnCoef did     1 forward-backward iterations
 Coeff-En:   0.121D-02 0.273D-01 0.971D+00
 Coeff:      0.121D-02 0.273D-01 0.971D+00
 Gap=     0.099 Goal=   None    Shift=    0.000
 RMSDP=6.11D-03 MaxDP=4.73D-01 DE=-2.63D-01 OVMax= 5.91D-01

 Cycle   4  Pass 1  IDiag  1:
 RMSU=  3.05D-03    CP:  1.03D+00  1.53D+00 -1.03D+00
 E= -730.516062171555     Delta-E=        1.082892453597 Rises=F Damp=F
 DIIS: error= 7.97D-02 at cycle   4 NSaved=   4.
 NSaved= 4 IEnMin= 3 EnMin= -731.598954625152     IErMin= 2 ErrMin= 1.88D-02
 ErrMax= 7.97D-02  0.00D+00 EMaxC= 1.00D-01 BMatC= 1.38D+00 BMatP= 1.11D-01
 IDIUse=2 WtCom= 0.00D+00 WtEn= 1.00D+00
 Coeff-En:   0.000D+00 0.000D+00 0.835D+00 0.165D+00
 Coeff:      0.000D+00 0.000D+00 0.835D+00 0.165D+00
 Gap=     0.103 Goal=   None    Shift=    0.000
 RMSDP=4.42D-03 MaxDP=3.72D-01 DE= 1.08D+00 OVMax= 2.64D-01

 Cycle   5  Pass 1  IDiag  1:
 RMSU=  8.12D-04    CP:  9.93D-01  6.31D-01  1.89D-01  2.50D-01
 E= -731.611766788701     Delta-E=       -1.095704617146 Rises=F Damp=F
 DIIS: error= 2.45D-02 at cycle   5 NSaved=   5.
 NSaved= 5 IEnMin= 5 EnMin= -731.611766788701     IErMin= 2 ErrMin= 1.88D-02
 ErrMax= 2.45D-02  0.00D+00 EMaxC= 1.00D-01 BMatC= 1.48D-01 BMatP= 1.11D-01
 IDIUse=2 WtCom= 0.00D+00 WtEn= 1.00D+00
 Coeff-En:   0.000D+00 0.000D+00 0.483D+00 0.000D+00 0.517D+00
 Coeff:      0.000D+00 0.000D+00 0.483D+00 0.000D+00 0.517D+00
 Gap=     0.127 Goal=   None    Shift=    0.000
 RMSDP=1.17D-03 MaxDP=6.71D-02 DE=-1.10D+00 OVMax= 1.43D-01

 Cycle   6  Pass 1  IDiag  1:
 RMSU=  2.76D-04    CP:  9.74D-01  4.33D-01  6.10D-01  9.39D-02  5.68D-01
 E= -731.732486126572     Delta-E=       -0.120719337870 Rises=F Damp=F
 DIIS: error= 2.15D-03 at cycle   6 NSaved=   6.
 NSaved= 6 IEnMin= 6 EnMin= -731.732486126572     IErMin= 6 ErrMin= 2.15D-03
 ErrMax= 2.15D-03  0.00D+00 EMaxC= 1.00D-01 BMatC= 1.76D-03 BMatP= 1.11D-01
 IDIUse=3 WtCom= 9.79D-01 WtEn= 2.15D-02
 Coeff-Com: -0.681D-02 0.286D-01 0.178D+00-0.429D-01 0.324D+00 0.519D+00
 Coeff-En:   0.000D+00 0.000D+00 0.000D+00 0.000D+00 0.000D+00 0.100D+01
 Coeff:     -0.667D-02 0.280D-01 0.174D+00-0.420D-01 0.317D+00 0.529D+00
 Gap=     0.124 Goal=   None    Shift=    0.000
 RMSDP=1.87D-04 MaxDP=8.84D-03 DE=-1.21D-01 OVMax= 2.21D-02

 Cycle   7  Pass 1  IDiag  1:
 RMSU=  7.41D-05    CP:  9.76D-01  4.69D-01  5.81D-01  1.05D-01  6.42D-01
                    CP:  7.01D-01
 E= -731.733666407077     Delta-E=       -0.001180280506 Rises=F Damp=F
 DIIS: error= 1.22D-03 at cycle   7 NSaved=   7.
 NSaved= 7 IEnMin= 7 EnMin= -731.733666407077     IErMin= 7 ErrMin= 1.22D-03
 ErrMax= 1.22D-03  0.00D+00 EMaxC= 1.00D-01 BMatC= 4.94D-04 BMatP= 1.76D-03
 IDIUse=3 WtCom= 9.88D-01 WtEn= 1.22D-02
 Coeff-Com: -0.252D-02 0.262D-02 0.364D-01-0.949D-02 0.590D-01 0.324D+00
 Coeff-Com:  0.590D+00
 Coeff-En:   0.000D+00 0.000D+00 0.000D+00 0.000D+00 0.000D+00 0.278D+00
 Coeff-En:   0.722D+00
 Coeff:     -0.249D-02 0.259D-02 0.360D-01-0.938D-02 0.582D-01 0.323D+00
 Coeff:      0.592D+00
 Gap=     0.123 Goal=   None    Shift=    0.000
 RMSDP=5.98D-05 MaxDP=2.12D-03 DE=-1.18D-03 OVMax= 7.47D-03

 Cycle   8  Pass 1  IDiag  1:
 RMSU=  2.69D-05    CP:  9.76D-01  4.62D-01  5.96D-01  1.03D-01  6.19D-01
                    CP:  7.73D-01  6.07D-01
 E= -731.734086530791     Delta-E=       -0.000420123714 Rises=F Damp=F
 DIIS: error= 3.21D-04 at cycle   8 NSaved=   8.
 NSaved= 8 IEnMin= 8 EnMin= -731.734086530791     IErMin= 8 ErrMin= 3.21D-04
 ErrMax= 3.21D-04  0.00D+00 EMaxC= 1.00D-01 BMatC= 3.93D-05 BMatP= 4.94D-04
 IDIUse=3 WtCom= 9.97D-01 WtEn= 3.21D-03
 Coeff-Com: -0.158D-03-0.172D-02 0.764D-02-0.723D-03 0.131D-02 0.157D+00
 Coeff-Com:  0.374D+00 0.463D+00
 Coeff-En:   0.000D+00 0.000D+00 0.000D+00 0.000D+00 0.000D+00 0.000D+00
 Coeff-En:   0.000D+00 0.100D+01
 Coeff:     -0.157D-03-0.171D-02 0.762D-02-0.721D-03 0.130D-02 0.156D+00
 Coeff:      0.373D+00 0.464D+00
 Gap=     0.124 Goal=   None    Shift=    0.000
 RMSDP=2.12D-05 MaxDP=6.76D-04 DE=-4.20D-04 OVMax= 1.72D-03

 Cycle   9  Pass 1  IDiag  1:
 RMSU=  1.06D-05    CP:  9.76D-01  4.59D-01  5.95D-01  1.02D-01  6.16D-01
                    CP:  7.73D-01  6.67D-01  5.00D-01
 E= -731.734119083824     Delta-E=       -0.000032553032 Rises=F Damp=F
 DIIS: error= 8.30D-05 at cycle   9 NSaved=   9.
 NSaved= 9 IEnMin= 9 EnMin= -731.734119083824     IErMin= 9 ErrMin= 8.30D-05
 ErrMax= 8.30D-05  0.00D+00 EMaxC= 1.00D-01 BMatC= 2.56D-06 BMatP= 3.93D-05
 IDIUse=1 WtCom= 1.00D+00 WtEn= 0.00D+00
 Coeff-Com:  0.215D-03-0.140D-02 0.282D-02 0.175D-03-0.320D-02 0.761D-01
 Coeff-Com:  0.195D+00 0.293D+00 0.438D+00
 Coeff:      0.215D-03-0.140D-02 0.282D-02 0.175D-03-0.320D-02 0.761D-01
 Coeff:      0.195D+00 0.293D+00 0.438D+00
 Gap=     0.124 Goal=   None    Shift=    0.000
 RMSDP=6.36D-06 MaxDP=2.93D-04 DE=-3.26D-05 OVMax= 5.75D-04

 Cycle  10  Pass 1  IDiag  1:
 RMSU=  2.76D-06    CP:  9.76D-01  4.59D-01  5.96D-01  1.02D-01  6.16D-01
                    CP:  7.82D-01  6.66D-01  5.26D-01  5.95D-01
 E= -731.734121443322     Delta-E=       -0.000002359499 Rises=F Damp=F
 DIIS: error= 2.13D-05 at cycle  10 NSaved=  10.
 NSaved=10 IEnMin=10 EnMin= -731.734121443322     IErMin=10 ErrMin= 2.13D-05
 ErrMax= 2.13D-05  0.00D+00 EMaxC= 1.00D-01 BMatC= 1.72D-07 BMatP= 2.56D-06
 IDIUse=1 WtCom= 1.00D+00 WtEn= 0.00D+00
 Coeff-Com:  0.229D-03-0.477D-03 0.887D-03 0.961D-04-0.186D-02 0.230D-01
 Coeff-Com:  0.659D-01 0.113D+00 0.252D+00 0.548D+00
 Coeff:      0.229D-03-0.477D-03 0.887D-03 0.961D-04-0.186D-02 0.230D-01
 Coeff:      0.659D-01 0.113D+00 0.252D+00 0.548D+00
 Gap=     0.124 Goal=   None    Shift=    0.000
 RMSDP=1.10D-06 MaxDP=3.71D-05 DE=-2.36D-06 OVMax= 1.19D-04

 Cycle  11  Pass 1  IDiag  1:
 RMSU=  7.61D-07    CP:  9.76D-01  4.59D-01  5.96D-01  1.02D-01  6.16D-01
                    CP:  7.81D-01  6.69D-01  5.27D-01  5.87D-01  7.49D-01
 E= -731.734121652572     Delta-E=       -0.000000209249 Rises=F Damp=F
 DIIS: error= 2.69D-06 at cycle  11 NSaved=  11.
 NSaved=11 IEnMin=11 EnMin= -731.734121652572     IErMin=11 ErrMin= 2.69D-06
 ErrMax= 2.69D-06  0.00D+00 EMaxC= 1.00D-01 BMatC= 4.82D-09 BMatP= 1.72D-07
 IDIUse=1 WtCom= 1.00D+00 WtEn= 0.00D+00
 Coeff-Com:  0.100D-03-0.159D-03 0.287D-03 0.275D-04-0.635D-03 0.646D-02
 Coeff-Com:  0.196D-01 0.350D-01 0.901D-01 0.242D+00 0.608D+00
 Coeff:      0.100D-03-0.159D-03 0.287D-03 0.275D-04-0.635D-03 0.646D-02
 Coeff:      0.196D-01 0.350D-01 0.901D-01 0.242D+00 0.608D+00
 Gap=     0.124 Goal=   None    Shift=    0.000
 RMSDP=3.17D-07 MaxDP=1.71D-05 DE=-2.09D-07 OVMax= 3.10D-05

 Cycle  12  Pass 1  IDiag  1:
 RMSU=  2.04D-07    CP:  9.76D-01  4.58D-01  5.96D-01  1.02D-01  6.16D-01
                    CP:  7.81D-01  6.69D-01  5.29D-01  5.93D-01  7.53D-01
                    CP:  8.33D-01
 E= -731.734121603844     Delta-E=        0.000000048727 Rises=F Damp=F
 DIIS: error= 1.53D-06 at cycle  12 NSaved=  12.
 NSaved=12 IEnMin=11 EnMin= -731.734121652572     IErMin=12 ErrMin= 1.53D-06
 ErrMax= 1.53D-06  0.00D+00 EMaxC= 1.00D-01 BMatC= 1.60D-09 BMatP= 4.82D-09
 IDIUse=1 WtCom= 1.00D+00 WtEn= 0.00D+00
 Coeff-Com:  0.375D-04-0.514D-04 0.676D-04 0.104D-04-0.192D-03 0.123D-02
 Coeff-Com:  0.424D-02 0.817D-02 0.268D-01 0.886D-01 0.403D+00 0.468D+00
 Coeff:      0.375D-04-0.514D-04 0.676D-04 0.104D-04-0.192D-03 0.123D-02
 Coeff:      0.424D-02 0.817D-02 0.268D-01 0.886D-01 0.403D+00 0.468D+00
 Gap=     0.124 Goal=   None    Shift=    0.000
 RMSDP=1.20D-07 MaxDP=6.96D-06 DE= 4.87D-08 OVMax= 1.43D-05

 Cycle  13  Pass 1  IDiag  1:
 RMSU=  8.08D-08    CP:  9.76D-01  4.58D-01  5.96D-01  1.02D-01  6.16D-01
                    CP:  7.81D-01  6.69D-01  5.29D-01  5.95D-01  7.53D-01
                    CP:  8.53D-01  6.34D-01
 E= -731.734121628113     Delta-E=       -0.000000024269 Rises=F Damp=F
 DIIS: error= 3.94D-07 at cycle  13 NSaved=  13.
 NSaved=13 IEnMin=11 EnMin= -731.734121652572     IErMin=13 ErrMin= 3.94D-07
 ErrMax= 3.94D-07  0.00D+00 EMaxC= 1.00D-01 BMatC= 9.63D-11 BMatP= 1.60D-09
 IDIUse=1 WtCom= 1.00D+00 WtEn= 0.00D+00
 Coeff-Com:  0.143D-04-0.213D-04 0.211D-04 0.478D-05-0.671D-04 0.338D-03
 Coeff-Com:  0.122D-02 0.244D-02 0.968D-02 0.356D-01 0.191D+00 0.276D+00
 Coeff-Com:  0.483D+00
 Coeff:      0.143D-04-0.213D-04 0.211D-04 0.478D-05-0.671D-04 0.338D-03
 Coeff:      0.122D-02 0.244D-02 0.968D-02 0.356D-01 0.191D+00 0.276D+00
 Coeff:      0.483D+00
 Gap=     0.124 Goal=   None    Shift=    0.000
 RMSDP=3.77D-08 MaxDP=1.17D-06 DE=-2.43D-08 OVMax= 3.54D-06

 Cycle  14  Pass 1  IDiag  1:
 RMSU=  2.42D-08    CP:  9.76D-01  4.58D-01  5.96D-01  1.02D-01  6.16D-01
                    CP:  7.81D-01  6.69D-01  5.29D-01  5.95D-01  7.54D-01
                    CP:  8.54D-01  6.72D-01  7.47D-01
 E= -731.734121628200     Delta-E=       -0.000000000087 Rises=F Damp=F
 DIIS: error= 1.47D-07 at cycle  14 NSaved=  14.
 NSaved=14 IEnMin=11 EnMin= -731.734121652572     IErMin=14 ErrMin= 1.47D-07
 ErrMax= 1.47D-07  0.00D+00 EMaxC= 1.00D-01 BMatC= 1.04D-11 BMatP= 9.63D-11
 IDIUse=1 WtCom= 1.00D+00 WtEn= 0.00D+00
 Coeff-Com:  0.336D-05-0.456D-05 0.327D-05 0.101D-05-0.124D-04 0.307D-04
 Coeff-Com:  0.144D-03 0.333D-03 0.218D-02 0.945D-02 0.576D-01 0.999D-01
 Coeff-Com:  0.286D+00 0.545D+00
 Coeff:      0.336D-05-0.456D-05 0.327D-05 0.101D-05-0.124D-04 0.307D-04
 Coeff:      0.144D-03 0.333D-03 0.218D-02 0.945D-02 0.576D-01 0.999D-01
 Coeff:      0.286D+00 0.545D+00
 Gap=     0.124 Goal=   None    Shift=    0.000
 RMSDP=1.33D-08 MaxDP=4.06D-07 DE=-8.66D-11 OVMax= 1.42D-06

 Cycle  15  Pass 1  IDiag  1:
 RMSU=  9.69D-09    CP:  9.76D-01  4.58D-01  5.96D-01  1.02D-01  6.16D-01
                    CP:  7.81D-01  6.69D-01  5.29D-01  5.95D-01  7.54D-01
                    CP:  8.59D-01  6.65D-01  7.74D-01  7.46D-01
 E= -731.734121628210     Delta-E=       -0.000000000010 Rises=F Damp=F
 DIIS: error= 6.62D-08 at cycle  15 NSaved=  15.
 NSaved=15 IEnMin=11 EnMin= -731.734121652572     IErMin=15 ErrMin= 6.62D-08
 ErrMax= 6.62D-08  0.00D+00 EMaxC= 1.00D-01 BMatC= 1.45D-12 BMatP= 1.04D-11
 IDIUse=1 WtCom= 1.00D+00 WtEn= 0.00D+00
 Coeff-Com:  0.989D-06-0.949D-06 0.175D-06 0.232D-06-0.250D-05-0.114D-04
 Coeff-Com: -0.159D-04 0.203D-05 0.619D-03 0.325D-02 0.214D-01 0.419D-01
 Coeff-Com:  0.145D+00 0.350D+00 0.437D+00
 Coeff:      0.989D-06-0.949D-06 0.175D-06 0.232D-06-0.250D-05-0.114D-04
 Coeff:     -0.159D-04 0.203D-05 0.619D-03 0.325D-02 0.214D-01 0.419D-01
 Coeff:      0.145D+00 0.350D+00 0.437D+00
 Gap=     0.124 Goal=   None    Shift=    0.000
 RMSDP=4.57D-09 MaxDP=2.08D-07 DE=-9.55D-12 OVMax= 6.29D-07

 Error on total polarization charges =  0.01889
 SCF Done:  E(RB-P86) =  -731.734121628     A.U. after   15 cycles
            NFock= 15  Conv=0.46D-08     -V/T= 2.0042
 KE= 7.286486207816D+02 PE=-4.154008847378D+03 EE= 1.467584947297D+03
 Leave Link  502 at Mon Feb 22 21:16:17 2021, MaxMem=   104857600 cpu:            1812.5 elap:              57.6
 (Enter /sw/arch/RedHatEnterpriseServer7/EB_production/2019/software/Gaussian/g16.c01/l601.exe)
 Copying SCF densities to generalized density rwf, IOpCl= 0 IROHF=0.

 **********************************************************************

            Population analysis using the SCF Density.

 **********************************************************************

 Orbital symmetries:
       Occupied  (A) (A) (A) (A) (A) (A) (A) (A) (A) (A) (A) (A)
                 (A) (A) (A) (A) (A) (A) (A) (A) (A) (A) (A) (A)
                 (A) (A) (A) (A) (A) (A) (A) (A) (A) (A) (A) (A)
                 (A) (A) (A) (A) (A) (A) (A) (A) (A) (A) (A) (A)
                 (A) (A) (A) (A) (A) (A) (A) (A) (A) (A) (A) (A)
                 (A) (A) (A) (A)
       Virtual   (A) (A) (A) (A) (A) (A) (A) (A) (A) (A) (A) (A)
                 (A) (A) (A) (A) (A) (A) (A) (A) (A) (A) (A) (A)
                 (A) (A) (A) (A) (A) (A) (A) (A) (A) (A) (A) (A)
                 (A) (A) (A) (A) (A) (A) (A) (A) (A) (A) (A) (A)
                 (A) (A) (A) (A) (A) (A) (A) (A) (A) (A) (A) (A)
                 (A) (A) (A) (A) (A) (A) (A) (A) (A) (A) (A) (A)
                 (A) (A) (A) (A) (A) (A) (A) (A) (A) (A) (A) (A)
                 (A) (A) (A) (A) (A) (A) (A) (A) (A) (A) (A) (A)
                 (A) (A) (A) (A) (A) (A) (A) (A) (A) (A) (A) (A)
                 (A) (A) (A) (A) (A) (A) (A) (A) (A) (A) (A) (A)
                 (A) (A) (A) (A) (A) (A) (A) (A) (A) (A) (A) (A)
                 (A) (A) (A) (A) (A) (A) (A) (A) (A) (A) (A) (A)
                 (A) (A) (A) (A) (A) (A) (A) (A) (A) (A) (A) (A)
                 (A) (A) (A) (A) (A) (A) (A) (A) (A) (A) (A) (A)
                 (A) (A) (A) (A) (A) (A) (A) (A) (A) (A) (A) (A)
                 (A) (A) (A) (A) (A) (A) (A) (A) (A) (A) (A) (A)
                 (A) (A) (A) (A) (A) (A) (A) (A) (A) (A) (A) (A)
                 (A) (A) (A) (A) (A) (A) (A) (A) (A) (A) (A) (A)
                 (A) (A) (A) (A) (A) (A) (A) (A) (A) (A) (A) (A)
                 (A) (A) (A) (A) (A) (A) (A) (A) (A) (A) (A) (A)
                 (A) (A) (A) (A) (A) (A) (A) (A) (A) (A) (A) (A)
                 (A) (A) (A) (A) (A) (A) (A) (A) (A) (A) (A) (A)
                 (A) (A) (A) (A) (A) (A) (A) (A) (A) (A) (A) (A)
                 (A) (A) (A) (A) (A) (A) (A) (A) (A) (A) (A) (A)
                 (A) (A) (A) (A) (A) (A) (A) (A) (A) (A) (A) (A)
                 (A) (A) (A) (A) (A) (A) (A) (A) (A) (A) (A) (A)
                 (A) (A) (A) (A) (A) (A) (A) (A) (A) (A) (A) (A)
                 (A) (A) (A) (A) (A) (A) (A) (A) (A) (A) (A) (A)
                 (A) (A) (A) (A) (A) (A) (A) (A) (A) (A) (A) (A)
                 (A) (A) (A) (A) (A) (A) (A) (A) (A) (A) (A) (A)
                 (A) (A) (A) (A) (A) (A) (A) (A) (A) (A) (A) (A)
                 (A) (A) (A) (A) (A) (A) (A) (A) (A) (A) (A) (A)
                 (A) (A) (A) (A) (A) (A) (A)
 The electronic state is 1-A.
 Alpha  occ. eigenvalues --  -18.74047 -14.03968 -14.00441  -9.99999  -9.93990
 Alpha  occ. eigenvalues --   -9.93199  -9.92214  -9.92165  -9.91863  -9.91812
 Alpha  occ. eigenvalues --   -9.89771  -9.89537  -9.89516  -9.89391  -9.89089
 Alpha  occ. eigenvalues --   -9.88547  -9.88456  -0.95640  -0.87882  -0.83163
 Alpha  occ. eigenvalues --   -0.78202  -0.72341  -0.70615  -0.69182  -0.68296
 Alpha  occ. eigenvalues --   -0.64799  -0.62368  -0.62288  -0.57325  -0.56425
 Alpha  occ. eigenvalues --   -0.54464  -0.52848  -0.52100  -0.49421  -0.45806
 Alpha  occ. eigenvalues --   -0.44747  -0.43365  -0.43164  -0.42336  -0.40362
 Alpha  occ. eigenvalues --   -0.39336  -0.39153  -0.38856  -0.37980  -0.36973
 Alpha  occ. eigenvalues --   -0.36902  -0.36662  -0.36430  -0.35628  -0.34092
 Alpha  occ. eigenvalues --   -0.33370  -0.33010  -0.32357  -0.31796  -0.31390
 Alpha  occ. eigenvalues --   -0.31179  -0.30928  -0.30126  -0.29654  -0.24791
 Alpha  occ. eigenvalues --   -0.22448  -0.22274  -0.22083  -0.18054
 Alpha virt. eigenvalues --   -0.05673  -0.04502  -0.03898   0.01207   0.02751
 Alpha virt. eigenvalues --    0.03471   0.04735   0.05251   0.05540   0.06347
 Alpha virt. eigenvalues --    0.06923   0.07361   0.07844   0.08077   0.08546
 Alpha virt. eigenvalues --    0.08989   0.09093   0.09467   0.09932   0.10671
 Alpha virt. eigenvalues --    0.11438   0.11540   0.11815   0.12003   0.12566
 Alpha virt. eigenvalues --    0.12770   0.12983   0.13524   0.14622   0.15393
 Alpha virt. eigenvalues --    0.15540   0.16040   0.16543   0.16896   0.17662
 Alpha virt. eigenvalues --    0.18227   0.18521   0.18909   0.20072   0.20336
 Alpha virt. eigenvalues --    0.20983   0.21566   0.22378   0.22636   0.22820
 Alpha virt. eigenvalues --    0.23261   0.24585   0.24741   0.25059   0.25699
 Alpha virt. eigenvalues --    0.25952   0.26650   0.27123   0.27805   0.28885
 Alpha virt. eigenvalues --    0.30140   0.30226   0.30931   0.31623   0.31923
 Alpha virt. eigenvalues --    0.32428   0.33217   0.34097   0.34402   0.35037
 Alpha virt. eigenvalues --    0.35787   0.36199   0.36531   0.36917   0.37695
 Alpha virt. eigenvalues --    0.37792   0.38475   0.38901   0.39272   0.39396
 Alpha virt. eigenvalues --    0.39692   0.40498   0.40629   0.41235   0.41649
 Alpha virt. eigenvalues --    0.41950   0.42417   0.42617   0.43313   0.43577
 Alpha virt. eigenvalues --    0.43705   0.44256   0.44670   0.45018   0.45195
 Alpha virt. eigenvalues --    0.46159   0.46328   0.46600   0.47454   0.47794
 Alpha virt. eigenvalues --    0.48223   0.49135   0.49315   0.49614   0.49778
 Alpha virt. eigenvalues --    0.50185   0.50636   0.51268   0.51716   0.52825
 Alpha virt. eigenvalues --    0.53564   0.54419   0.56049   0.56981   0.58290
 Alpha virt. eigenvalues --    0.59108   0.60313   0.60557   0.62486   0.63069
 Alpha virt. eigenvalues --    0.64299   0.64685   0.65552   0.65970   0.67569
 Alpha virt. eigenvalues --    0.67721   0.69372   0.69894   0.71407   0.73381
 Alpha virt. eigenvalues --    0.73453   0.76413   0.77926   0.79388   0.79665
 Alpha virt. eigenvalues --    0.82396   0.90056   0.93901   1.08584   1.09200
 Alpha virt. eigenvalues --    1.11432   1.12499   1.14228   1.15254   1.17529
 Alpha virt. eigenvalues --    1.18102   1.18907   1.19348   1.20576   1.21426
 Alpha virt. eigenvalues --    1.21696   1.21978   1.22461   1.23279   1.23985
 Alpha virt. eigenvalues --    1.24594   1.24857   1.25072   1.26459   1.26770
 Alpha virt. eigenvalues --    1.27331   1.27795   1.28735   1.29523   1.29624
 Alpha virt. eigenvalues --    1.31676   1.32170   1.32461   1.33683   1.34194
 Alpha virt. eigenvalues --    1.34663   1.35162   1.35761   1.36168   1.36414
 Alpha virt. eigenvalues --    1.36848   1.38677   1.39020   1.39677   1.40216
 Alpha virt. eigenvalues --    1.40456   1.41117   1.41592   1.42185   1.42647
 Alpha virt. eigenvalues --    1.43616   1.43998   1.44808   1.45869   1.46199
 Alpha virt. eigenvalues --    1.46646   1.47714   1.48610   1.48952   1.49667
 Alpha virt. eigenvalues --    1.49886   1.50002   1.51304   1.51999   1.52277
 Alpha virt. eigenvalues --    1.54023   1.55713   1.56548   1.56848   1.57468
 Alpha virt. eigenvalues --    1.58044   1.58246   1.59660   1.59896   1.60542
 Alpha virt. eigenvalues --    1.62908   1.63387   1.65201   1.65589   1.67164
 Alpha virt. eigenvalues --    1.67827   1.68481   1.70249   1.71664   1.72162
 Alpha virt. eigenvalues --    1.72542   1.73004   1.73373   1.73694   1.73937
 Alpha virt. eigenvalues --    1.75019   1.75386   1.75805   1.75985   1.76420
 Alpha virt. eigenvalues --    1.77502   1.78713   1.79246   1.80625   1.81810
 Alpha virt. eigenvalues --    1.82285   1.83384   1.84251   1.85180   1.85830
 Alpha virt. eigenvalues --    1.86551   1.87079   1.87666   1.87989   1.89338
 Alpha virt. eigenvalues --    1.91227   1.92314   1.92398   1.94186   1.96420
 Alpha virt. eigenvalues --    1.97793   1.99047   2.00403   2.02115   2.04841
 Alpha virt. eigenvalues --    2.05624   2.06067   2.08047   2.10083   2.10237
 Alpha virt. eigenvalues --    2.10736   2.12566   2.13180   2.15010   2.17136
 Alpha virt. eigenvalues --    2.17969   2.18263   2.20124   2.20790   2.21568
 Alpha virt. eigenvalues --    2.21811   2.22424   2.23000   2.24079   2.24393
 Alpha virt. eigenvalues --    2.25004   2.25787   2.26335   2.27463   2.28265
 Alpha virt. eigenvalues --    2.28950   2.29927   2.31552   2.32364   2.33985
 Alpha virt. eigenvalues --    2.35460   2.36961   2.38535   2.39547   2.40910
 Alpha virt. eigenvalues --    2.41443   2.43498   2.44183   2.44653   2.44880
 Alpha virt. eigenvalues --    2.46385   2.47289   2.48978   2.49228   2.50234
 Alpha virt. eigenvalues --    2.50549   2.51885   2.52026   2.52506   2.53681
 Alpha virt. eigenvalues --    2.53854   2.54898   2.55428   2.56437   2.56621
 Alpha virt. eigenvalues --    2.58160   2.58695   2.59870   2.60710   2.61812
 Alpha virt. eigenvalues --    2.62875   2.64220   2.64751   2.65857   2.67029
 Alpha virt. eigenvalues --    2.68508   2.69545   2.70792   2.71132   2.72330
 Alpha virt. eigenvalues --    2.73472   2.74292   2.75256   2.76485   2.78143
 Alpha virt. eigenvalues --    2.79628   2.80768   2.83024   2.84665   2.87555
 Alpha virt. eigenvalues --    2.88905   2.91480   2.93695   2.96908   2.99115
 Alpha virt. eigenvalues --    3.00969   3.02879   3.03940   3.04511   3.05605
 Alpha virt. eigenvalues --    3.07689   3.08487   3.09784   3.11080   3.12828
 Alpha virt. eigenvalues --    3.14545   3.17804   3.20355   3.22037   3.24424
 Alpha virt. eigenvalues --    3.24795   3.25072   3.25285   3.26334   3.26902
 Alpha virt. eigenvalues --    3.27370   3.28520   3.29110   3.30245   3.33413
 Alpha virt. eigenvalues --    3.34005   3.34990   3.35620   3.36789   3.38417
 Alpha virt. eigenvalues --    3.40264   3.47969   3.49105   3.62813   3.65475
 Alpha virt. eigenvalues --    3.67303   3.75008   3.83590   4.13639  21.15665
 Alpha virt. eigenvalues --   21.59715  21.69118  21.70117  21.77264  21.78374
 Alpha virt. eigenvalues --   21.81589  21.82108  21.84857  21.84938  21.87682
 Alpha virt. eigenvalues --   21.88904  21.96684  22.00013  31.66265  31.69194
 Alpha virt. eigenvalues --   43.32686
          Condensed to atoms (all electrons):
               1          2          3          4          5          6
     1  C    5.132560   0.254315  -0.078192  -0.010246   0.001855   0.013774
     2  C    0.254315   5.134188   0.279973  -0.070559   0.015210  -0.101601
     3  N   -0.078192   0.279973   6.832268   0.286524  -0.080313   0.259067
     4  C   -0.010246  -0.070559   0.286524   5.137392   0.253044  -0.064411
     5  C    0.001855   0.015210  -0.080313   0.253044   5.126290   0.000602
     6  C    0.013774  -0.101601   0.259067  -0.064411   0.000602   5.659391
     7  C    0.002952   0.023768  -0.046640  -0.004013   0.003250  -0.075714
     8  O   -0.000312   0.006282   0.000551  -0.002514  -0.000040  -0.117656
     9  N   -0.000077  -0.004684  -0.006209  -0.001501  -0.000076  -0.099044
    10  C   -0.000267   0.000611   0.001160   0.000039  -0.000039   0.014729
    11  C    0.000004  -0.000104  -0.000182   0.000007   0.000001   0.003676
    12  C    0.000001   0.000012   0.000033  -0.000012  -0.000000  -0.004091
    13  C   -0.000000   0.000004  -0.000006   0.000000  -0.000000   0.000051
    14  C    0.000000   0.000001   0.000002  -0.000000   0.000000  -0.000043
    15  C    0.000003  -0.000055  -0.000021  -0.000000  -0.000000  -0.000090
    16  C    0.000072  -0.001019  -0.000231  -0.000014   0.000007  -0.000308
    17  C    0.000764  -0.001265  -0.000360  -0.000057  -0.000001  -0.009597
    18  H    0.378505  -0.047374   0.022214  -0.002263  -0.001502  -0.001069
    19  H    0.403774  -0.033167  -0.004136   0.001303  -0.000490  -0.000702
    20  H    0.386569  -0.033619   0.007758   0.001184  -0.000108  -0.000736
    21  H   -0.023181   0.383110  -0.041046   0.008351  -0.000161  -0.005811
    22  H   -0.067128   0.412490  -0.059672  -0.009029  -0.001733  -0.001984
    23  H    0.004559   0.004765  -0.041165   0.394061  -0.026692   0.013410
    24  H   -0.002473  -0.013504  -0.055029   0.412791  -0.066689  -0.018333
    25  H   -0.000081  -0.000790   0.007499  -0.031947   0.383359   0.000692
    26  H   -0.000038  -0.000197  -0.006105  -0.032542   0.406491   0.004803
    27  H   -0.001271  -0.001117   0.024389  -0.053343   0.384888  -0.007597
    28  H    0.000082   0.008316  -0.037601  -0.007049   0.008636   0.383193
    29  H   -0.002337  -0.005064  -0.059001  -0.005193  -0.003068   0.421865
    30  H   -0.000079   0.000012  -0.000446  -0.000031  -0.000005   0.000389
    31  H   -0.000000  -0.000004   0.000021  -0.000002   0.000001   0.000844
    32  H   -0.000000  -0.000003   0.000004   0.000003   0.000000   0.000385
    33  H   -0.000000   0.000000   0.000001   0.000000  -0.000000   0.000100
    34  H   -0.000000  -0.000000  -0.000000  -0.000000  -0.000000  -0.000006
    35  H    0.000000   0.000000   0.000000  -0.000000   0.000000  -0.000000
    36  H   -0.000000   0.000002   0.000000   0.000000  -0.000000   0.000003
    37  H   -0.000412  -0.000389  -0.000011  -0.000006   0.000000  -0.000317
    38  H   -0.000029   0.000157  -0.000006   0.000001  -0.000000   0.000048
    39  H   -0.000344  -0.000049   0.000305   0.000045  -0.000002   0.003380
               7          8          9         10         11         12
     1  C    0.002952  -0.000312  -0.000077  -0.000267   0.000004   0.000001
     2  C    0.023768   0.006282  -0.004684   0.000611  -0.000104   0.000012
     3  N   -0.046640   0.000551  -0.006209   0.001160  -0.000182   0.000033
     4  C   -0.004013  -0.002514  -0.001501   0.000039   0.000007  -0.000012
     5  C    0.003250  -0.000040  -0.000076  -0.000039   0.000001  -0.000000
     6  C   -0.075714  -0.117656  -0.099044   0.014729   0.003676  -0.004091
     7  C    5.502070   0.667126   0.068274  -0.118257   0.027919  -0.010288
     8  O    0.667126   7.955099  -0.151678   0.023633   0.004988  -0.003351
     9  N    0.068274  -0.151678   6.814402   0.236958  -0.083120   0.014916
    10  C   -0.118257   0.023633   0.236958   5.992904   0.025220  -0.162078
    11  C    0.027919   0.004988  -0.083120   0.025220   5.648488   0.305629
[...]
    36  H    0.000135   0.000072  -0.000423   0.041412  -0.005949  -0.000025
    37  H   -0.001764  -0.000319   0.006277  -0.012498   0.000103  -0.000090
    38  H    0.000723   0.000353   0.000172   0.020228  -0.001026   0.000020
    39  H    0.010697   0.017513  -0.010165  -0.011813   0.001094  -0.000021
              13         14         15         16         17         18
     1  C    0.000000   0.000000   0.000004   0.000022   0.000778   0.394685
     2  C   -0.000000   0.000004  -0.000106  -0.001445  -0.002069  -0.047415
     3  N   -0.000006   0.000003  -0.000037  -0.000576  -0.000001   0.013544
     4  C    0.000001  -0.000000  -0.000000  -0.000012  -0.000121  -0.002415
     5  C   -0.000000  -0.000000   0.000000   0.000003   0.000003  -0.000312
     6  C    0.000146  -0.000009  -0.000008   0.005804  -0.014851  -0.001212
     7  C    0.001985  -0.000508   0.003453  -0.046609  -0.060098  -0.001700
     8  O    0.000468  -0.000508   0.001388   0.009687  -0.049210   0.001066
     9  N    0.005381   0.003287   0.007785  -0.051141   0.042423   0.000222
    10  C    0.180048  -0.254873   0.185476  -0.059404  -0.192729   0.000061
    11  C    0.244905   0.108696  -0.253212   0.137658   0.016336  -0.000000
    12  C   -0.094223   0.026448  -0.007660   0.033493   0.000548   0.000000
    13  C    5.381650   0.248232   0.126694  -0.287427  -0.003894  -0.000000
    14  C    0.248232   5.251740   0.249759   0.141282   0.025191   0.000000
    15  C    0.126694   0.249759   5.404042   0.156108  -0.086392  -0.000002
    16  C   -0.287427   0.141282   0.156108   5.898391   0.275569  -0.000118
    17  C   -0.003894   0.025191  -0.086392   0.275569   5.380379   0.000424
    18  H   -0.000000   0.000000  -0.000002  -0.000118   0.000424   0.564270
    19  H   -0.000000   0.000000  -0.000000   0.000001  -0.000018  -0.032972
    20  H   -0.000000   0.000000  -0.000001  -0.000031   0.000082  -0.017712
    21  H   -0.000009   0.000008  -0.000010   0.001085   0.000192  -0.011570
    22  H   -0.000000  -0.000000  -0.000004  -0.000155   0.000202   0.011602
    23  H    0.000000  -0.000000   0.000000   0.000003  -0.000007  -0.001115
    24  H   -0.000000   0.000000  -0.000000  -0.000006   0.000009   0.000771
    25  H   -0.000000   0.000000  -0.000000  -0.000000   0.000000   0.000059
    26  H    0.000000  -0.000000   0.000000   0.000000  -0.000002   0.000004
    27  H   -0.000000   0.000000  -0.000000  -0.000002   0.000004   0.000529
    28  H    0.000008  -0.000004   0.000014  -0.000085  -0.000121  -0.000128
    29  H   -0.000007  -0.000003  -0.000021  -0.000628   0.001336   0.000384
    30  H    0.001966  -0.000486   0.001021  -0.002071  -0.000741   0.000000
    31  H   -0.002954  -0.000007  -0.000351   0.002326   0.000024   0.000000
    32  H    0.002789  -0.001572   0.000803  -0.002553  -0.000076  -0.000000
    33  H   -0.005144   0.001424  -0.000023  -0.000943   0.000020   0.000000
    34  H    0.446214  -0.076121   0.020044  -0.005270   0.000041   0.000000
    35  H   -0.079241   0.450326  -0.078983   0.025946  -0.000437   0.000000
    36  H    0.020417  -0.076447   0.443674  -0.080080  -0.020654  -0.000000
    37  H    0.000254  -0.000776   0.002880  -0.048219   0.416218  -0.000014
    38  H    0.000273   0.000378  -0.004015  -0.040211   0.381158   0.000005
    39  H   -0.000074  -0.000477  -0.005112  -0.029239   0.386135   0.000042
              19         20         21         22         23         24
     1  C    0.404205   0.387766  -0.023808  -0.050841  -0.002836   0.001356
     2  C   -0.035462  -0.035671   0.377507   0.400444   0.009125  -0.021393
     3  N   -0.005836   0.008038  -0.049608  -0.056600  -0.050566  -0.049870
     4  C   -0.000054   0.001228   0.010407  -0.012446   0.393475   0.408540
     5  C   -0.000278  -0.000062  -0.000540  -0.000546  -0.027742  -0.056473
     6  C   -0.000552  -0.000832  -0.011868  -0.001009   0.017741  -0.022155
     7  C    0.000636  -0.000143   0.040335  -0.017252  -0.000506  -0.004260
     8  O    0.000025   0.000016  -0.007229   0.000125   0.000034   0.000002
     9  N   -0.000025   0.000055  -0.005797   0.002031  -0.000004   0.000491
    10  C   -0.000001   0.000025  -0.001827   0.000504  -0.000011   0.000100
    11  C    0.000000   0.000000  -0.000136   0.000001   0.000000  -0.000002
    12  C    0.000000   0.000000  -0.000002   0.000001  -0.000000   0.000001
    13  C   -0.000000  -0.000000  -0.000009  -0.000000   0.000000  -0.000000
    14  C    0.000000   0.000000   0.000008  -0.000000  -0.000000   0.000000
    15  C   -0.000000  -0.000001  -0.000010  -0.000004   0.000000  -0.000000
    16  C    0.000001  -0.000031   0.001085  -0.000155   0.000003  -0.000006
    17  C   -0.000018   0.000082   0.000192   0.000202  -0.000007   0.000009
    18  H   -0.032972  -0.017712  -0.011570   0.011602  -0.001115   0.000771
    19  H    0.547284  -0.024742   0.008893  -0.008201   0.005589  -0.000200
    20  H   -0.024742   0.537425  -0.007200   0.005498  -0.000654   0.000335
    21  H    0.008893  -0.007200   0.555376  -0.050358   0.001280  -0.001338
    22  H   -0.008201   0.005498  -0.050358   0.622936  -0.005711   0.020495
    23  H    0.005589  -0.000654   0.001280  -0.005711   0.557554  -0.043804
    24  H   -0.000200   0.000335  -0.001338   0.020495  -0.043804   0.625649
    25  H    0.000064   0.000007   0.000001   0.000235  -0.006194   0.006906
    26  H   -0.000027   0.000001   0.000004  -0.000068   0.007473  -0.008068
    27  H   -0.000019   0.000031  -0.000133   0.000440  -0.009057   0.011294
    28  H    0.000030   0.000006   0.000813  -0.001201   0.000518  -0.003826
    29  H   -0.000060   0.000204  -0.003706   0.016502  -0.000946   0.017750
    30  H   -0.000001   0.000003   0.000243   0.000306   0.000004   0.000049
    31  H    0.000000   0.000000  -0.000008   0.000001   0.000000   0.000002
    32  H   -0.000000   0.000000   0.000005   0.000000  -0.000000  -0.000000
    33  H    0.000000   0.000000  -0.000000   0.000000   0.000000   0.000000
    34  H   -0.000000   0.000000   0.000000   0.000000   0.000000  -0.000000
    35  H    0.000000   0.000000   0.000000  -0.000000  -0.000000   0.000000
    36  H    0.000000   0.000000  -0.000004   0.000000   0.000000  -0.000000
    37  H   -0.000006   0.000130   0.003260   0.000211  -0.000001   0.000004
    38  H   -0.000000   0.000001  -0.000190   0.000001  -0.000000  -0.000000
    39  H    0.000011  -0.000058  -0.000197   0.000014   0.000002  -0.000002
              25         26         27         28         29         30
     1  C    0.000134  -0.000121   0.000178  -0.000452  -0.000710  -0.000037
     2  C   -0.001025   0.000456  -0.002063   0.012411  -0.011063  -0.000379
     3  N    0.008207  -0.009525   0.017014  -0.044768  -0.053459  -0.000296
     4  C   -0.035726  -0.035597  -0.050055  -0.002282  -0.010813  -0.000007
     5  C    0.383799   0.405770   0.397404  -0.000386   0.000598   0.000003
     6  C    0.000609   0.009034  -0.007346   0.382843   0.428430   0.002064
     7  C   -0.000156  -0.002033   0.000574   0.006076  -0.127399  -0.027409
     8  O    0.000009   0.000093   0.000162   0.000940   0.004587   0.004700
     9  N    0.000008  -0.000004   0.000076  -0.006678   0.035480   0.342009
    10  C    0.000001  -0.000029   0.000015  -0.002949   0.009709  -0.020284
    11  C   -0.000000   0.000002  -0.000000   0.000597  -0.000760  -0.008489
    12  C   -0.000000  -0.000005   0.000000   0.000152   0.000240   0.000291
    13  C   -0.000000   0.000000  -0.000000   0.000008  -0.000007   0.001966
    14  C    0.000000  -0.000000   0.000000  -0.000004  -0.000003  -0.000486
    15  C   -0.000000   0.000000  -0.000000   0.000014  -0.000021   0.001021
    16  C   -0.000000   0.000000  -0.000002  -0.000085  -0.000628  -0.002071
    17  C    0.000000  -0.000002   0.000004  -0.000121   0.001336  -0.000741
    18  H    0.000059   0.000004   0.000529  -0.000128   0.000384   0.000000
    19  H    0.000064  -0.000027  -0.000019   0.000030  -0.000060  -0.000001
    20  H    0.000007   0.000001   0.000031   0.000006   0.000204   0.000003
    21  H    0.000001   0.000004  -0.000133   0.000813  -0.003706   0.000243
    22  H    0.000235  -0.000068   0.000440  -0.001201   0.016502   0.000306
    23  H   -0.006194   0.007473  -0.009057   0.000518  -0.000946   0.000004
    24  H    0.006906  -0.008068   0.011294  -0.003826   0.017750   0.000049
    25  H    0.538107  -0.025685  -0.015910  -0.000767   0.000401   0.000000
    26  H   -0.025685   0.544561  -0.031588   0.004306  -0.000039   0.000003
    27  H   -0.015910  -0.031588   0.556488  -0.000497   0.000671   0.000001
    28  H   -0.000767   0.004306  -0.000497   0.485678  -0.028414   0.001268
    29  H    0.000401  -0.000039   0.000671  -0.028414   0.568468   0.002310
    30  H    0.000000   0.000003   0.000001   0.001268   0.002310   0.388909
    31  H    0.000000   0.000002   0.000000  -0.000060   0.000202  -0.001442
    32  H   -0.000000  -0.000000  -0.000000  -0.000009   0.000030   0.002231
    33  H    0.000000   0.000000   0.000000  -0.000013   0.000001   0.000006
    34  H    0.000000   0.000000  -0.000000   0.000000   0.000000   0.000014
    35  H   -0.000000  -0.000000   0.000000  -0.000000  -0.000000  -0.000004
    36  H    0.000000   0.000000  -0.000000  -0.000000   0.000000   0.000024
    37  H    0.000000  -0.000000   0.000000   0.000032  -0.000081   0.000658
    38  H    0.000000  -0.000000   0.000000   0.000001  -0.000003   0.000019
    39  H   -0.000000   0.000001  -0.000002  -0.000053  -0.000188  -0.000331
              31         32         33         34         35         36
     1  C   -0.000000  -0.000000  -0.000000   0.000000   0.000000  -0.000000
     2  C    0.000006  -0.000007   0.000000  -0.000000   0.000000   0.000002
     3  N    0.000022  -0.000003   0.000001  -0.000000   0.000000   0.000000
     4  C   -0.000007   0.000002   0.000000  -0.000000  -0.000000   0.000000
     5  C    0.000006   0.000000  -0.000000   0.000000   0.000000   0.000000
     6  C   -0.000221   0.000259   0.000073  -0.000005  -0.000000   0.000001
     7  C   -0.002054   0.000644   0.000117  -0.000065  -0.000002   0.000135
     8  O   -0.000396   0.000065  -0.000018   0.000003   0.000000   0.000072
     9  N    0.007123   0.000478   0.001396  -0.000491   0.000016  -0.000423
    10  C   -0.013213  -0.013940   0.015152   0.035890  -0.006441   0.041412
    11  C   -0.044398  -0.027356  -0.044242  -0.078105   0.025368  -0.005949
    12  C    0.419772   0.400534   0.393498  -0.018322  -0.000353  -0.000025
    13  C   -0.002954   0.002789  -0.005144   0.446214  -0.079241   0.020417
    14  C   -0.000007  -0.001572   0.001424  -0.076121   0.450326  -0.076447
    15  C   -0.000351   0.000803  -0.000023   0.020044  -0.078983   0.443674
    16  C    0.002326  -0.002553  -0.000943  -0.005270   0.025946  -0.080080
    17  C    0.000024  -0.000076   0.000020   0.000041  -0.000437  -0.020654
    18  H    0.000000  -0.000000   0.000000   0.000000   0.000000  -0.000000
    19  H    0.000000  -0.000000   0.000000  -0.000000   0.000000   0.000000
    20  H    0.000000   0.000000   0.000000   0.000000   0.000000   0.000000
    21  H   -0.000008   0.000005  -0.000000   0.000000   0.000000  -0.000004
    22  H    0.000001   0.000000   0.000000   0.000000  -0.000000   0.000000
    23  H    0.000000  -0.000000   0.000000   0.000000  -0.000000   0.000000
    24  H    0.000002  -0.000000   0.000000  -0.000000   0.000000  -0.000000
    25  H    0.000000  -0.000000   0.000000   0.000000  -0.000000   0.000000
    26  H    0.000002  -0.000000   0.000000   0.000000  -0.000000   0.000000
    27  H    0.000000  -0.000000   0.000000  -0.000000   0.000000  -0.000000
    28  H   -0.000060  -0.000009  -0.000013   0.000000  -0.000000  -0.000000
    29  H    0.000202   0.000030   0.000001   0.000000  -0.000000   0.000000
    30  H   -0.001442   0.002231   0.000006   0.000014  -0.000004   0.000024
    31  H    0.522926  -0.032005  -0.021950   0.000005   0.000014  -0.000003
    32  H   -0.032005   0.520780  -0.019284   0.000330   0.000007   0.000002
    33  H   -0.021950  -0.019284   0.513358   0.003893  -0.000013   0.000002
    34  H    0.000005   0.000330   0.003893   0.545110  -0.007524  -0.000237
    35  H    0.000014   0.000007  -0.000013  -0.007524   0.537431  -0.007597
    36  H   -0.000003   0.000002   0.000002  -0.000237  -0.007597   0.546284
    37  H    0.000033  -0.000033  -0.000001   0.000002   0.000011  -0.000024
    38  H   -0.000000  -0.000001  -0.000000   0.000001  -0.000019   0.005476
    39  H   -0.000032   0.000017   0.000001  -0.000007   0.000015   0.000388
              37         38         39
     1  C   -0.000225  -0.000007  -0.000248
     2  C   -0.001198   0.000215   0.000145
     3  N   -0.000049  -0.000012   0.000128
     4  C   -0.000024   0.000001   0.000063
     5  C    0.000002  -0.000000  -0.000006
     6  C   -0.000154   0.000035   0.004295
     7  C   -0.001764   0.000723   0.010697
     8  O   -0.000319   0.000353   0.017513
     9  N    0.006277   0.000172  -0.010165
    10  C   -0.012498   0.020228  -0.011813
    11  C    0.000103  -0.001026   0.001094
    12  C   -0.000090   0.000020  -0.000021
    13  C    0.000254   0.000273  -0.000074
    14  C   -0.000776   0.000378  -0.000477
    15  C    0.002880  -0.004015  -0.005112
    16  C   -0.048219  -0.040211  -0.029239
    17  C    0.416218   0.381158   0.386135
    18  H   -0.000014   0.000005   0.000042
    19  H   -0.000006  -0.000000   0.000011
    20  H    0.000130   0.000001  -0.000058
    21  H    0.003260  -0.000190  -0.000197
    22  H    0.000211   0.000001   0.000014
    23  H   -0.000001  -0.000000   0.000002
    24  H    0.000004  -0.000000  -0.000002
    25  H    0.000000   0.000000  -0.000000
    26  H   -0.000000  -0.000000   0.000001
    27  H    0.000000   0.000000  -0.000002
    28  H    0.000032   0.000001  -0.000053
    29  H   -0.000081  -0.000003  -0.000188
    30  H    0.000658   0.000019  -0.000331
    31  H    0.000033  -0.000000  -0.000032
    32  H   -0.000033  -0.000001   0.000017
    33  H   -0.000001  -0.000000   0.000001
    34  H    0.000002   0.000001  -0.000007
    35  H    0.000011  -0.000019   0.000015
    36  H   -0.000024   0.005476   0.000388
    37  H    0.517472  -0.020859  -0.032505
    38  H   -0.020859   0.514361  -0.018430
    39  H   -0.032505  -0.018430   0.517382
 Mulliken charges:
               1
     1  C   -0.402372
     2  C   -0.213630
     3  N   -0.189375
     4  C   -0.195811
     5  C   -0.408356
     6  C   -0.289550
     7  C    0.161250
     8  O   -0.390879
     9  N   -0.194502
    10  C    0.129447
    11  C   -0.019569
    12  C   -0.491299
    13  C   -0.188452
    14  C   -0.094986
    15  C   -0.167207
    16  C   -0.031153
    17  C   -0.495653
    18  H    0.129015
    19  H    0.141714
    20  H    0.146254
    21  H    0.176127
    22  H    0.122843
    23  H    0.156354
    24  H    0.117644
    25  H    0.146915
    26  H    0.141079
    27  H    0.131790
    28  H    0.196997
    29  H    0.150998
    30  H    0.313873
    31  H    0.166637
    32  H    0.167865
    33  H    0.162690
    34  H    0.134601
    35  H    0.141479
    36  H    0.133556
    37  H    0.171293
    38  H    0.161352
    39  H    0.171019
 Sum of Mulliken charges =  -0.00000
 Mulliken charges with hydrogens summed into heavy atoms:
               1
     1  C    0.014611
     2  C    0.085340
     3  N   -0.189375
     4  C    0.078188
     5  C    0.011429
     6  C    0.058445
     7  C    0.161250
     8  O   -0.390879
     9  N    0.119371
    10  C    0.129447
    11  C   -0.019569
    12  C    0.005893
    13  C   -0.053851
    14  C    0.046493
    15  C   -0.033651
    16  C   -0.031153
    17  C    0.008012
 Electronic spatial extent (au):  <R**2>=           5590.9853
 Charge=             -0.0000 electrons
 Dipole moment (field-independent basis, Debye):
    X=              0.0533    Y=             -2.2703    Z=             -6.0566  Tot=              6.4684
 Quadrupole moment (field-independent basis, Debye-Ang):
   XX=            -93.6721   YY=            -94.0722   ZZ=           -112.5983
   XY=             -0.1139   XZ=             -4.8261   YZ=              1.8288
 Traceless Quadrupole moment (field-independent basis, Debye-Ang):
   XX=              6.4421   YY=              6.0420   ZZ=            -12.4841
   XY=             -0.1139   XZ=             -4.8261   YZ=              1.8288
 Octapole moment (field-independent basis, Debye-Ang**2):
  XXX=              4.7705  YYY=             -2.9082  ZZZ=            -16.8645  XYY=            -10.4038
  XXY=            -11.6344  XXZ=             -1.0958  XZZ=              8.0254  YZZ=             -5.5797
  YYZ=             -2.3789  XYZ=             -8.4977
 Hexadecapole moment (field-independent basis, Debye-Ang**3):
 XXXX=          -5457.2436 YYYY=          -1445.3954 ZZZZ=           -371.6526 XXXY=             -2.7870
 XXXZ=            -88.9992 YYYX=             -1.8519 YYYZ=              3.7360 ZZZX=              7.6645
 ZZZY=             11.3542 XXYY=          -1149.7452 XXZZ=          -1116.7190 YYZZ=           -311.2226
 XXYZ=             14.8233 YYXZ=             -6.1459 ZZXY=              8.1138
 N-N= 1.225427741120D+03 E-N=-4.152324957791D+03  KE= 7.280697851644D+02
 Unable to Open any file for archive entry.
 1\1\GINC-TCN1638\SP\RBP86\TZVP\C14H22N2O1\ELENAA\22-Feb-2021\0\\# BP86
 /TZVP SCRF=COSMORS geom=CHECKPOINT guess=CHECKPOINT\\COSMO-file for #N
 NJVILVZKWQKPM-UHFFFAOYSA-N\\0,1\C,0,3.0629915215,3.2331713593,2.276332
 635\C,0,1.9733817466,2.2378746597,1.8765975882\N,0,1.090161227,1.85501
 15382,2.9967417792\C,0,1.7605785003,0.9477470612,3.947973764\C,0,1.045
 4957559,0.8477050049,5.2966240428\C,0,-0.1473400901,1.2685310885,2.488
 1989344\C,0,-1.0165244862,2.3077385565,1.7652625815\O,0,-1.2478731076,
 3.4259292295,2.2363708293\N,0,-1.5277002871,1.8758155208,0.5690908036\
 C,0,-2.4545489998,2.6140825375,-0.2337617208\C,0,-3.7581159466,2.09732
 09616,-0.3960359569\C,0,-4.1640206918,0.810234019,0.2790724208\C,0,-4.
 6612077527,2.814448452,-1.1949208382\C,0,-4.2789063882,4.0114581183,-1
 .8083418021\C,0,-2.9803001727,4.5003056765,-1.641256444\C,0,-2.0397668
 626,3.8080102795,-0.8610238697\C,0,-0.6281166627,4.3160904784,-0.72212
 85917\H,0,2.613868393,4.1308796433,2.7266319511\H,0,3.7774820847,2.808
 2370665,2.9965532619\H,0,3.6355165647,3.5390221375,1.3876444415\H,0,1.
 340377033,2.7073834047,1.107250985\H,0,2.4256520676,1.3364627779,1.403
 0009833\H,0,2.7723342256,1.3418365963,4.1188778139\H,0,1.8887881684,-0
 .0666634936,3.5044067867\H,0,1.636976299,0.2307358027,5.9898152071\H,0
 ,0.051850984,0.3824840437,5.2138721354\H,0,0.9206674825,1.8467625004,5
 .7402692568\H,0,-0.7519954871,0.9045515398,3.3329622866\H,0,0.04574539
 19,0.3917703875,1.8269352314\H,0,-1.3522664767,0.9050249403,0.31376632
 87\H,0,-3.9244893489,0.8293357277,1.3535333552\H,0,-3.6347023035,-0.05
 67415559,-0.1508861297\H,0,-5.2414142768,0.6303713159,0.1655477832\H,0
 ,-5.6760054849,2.4314128048,-1.3274076918\H,0,-4.9943047106,4.56222443
 55,-2.4229836749\H,0,-2.6792967049,5.4280651381,-2.1341613969\H,0,0.09
 98636848,3.5067255889,-0.8887343009\H,0,-0.4263623179,5.119861403,-1.4
 429007576\H,0,-0.449832571,4.7014332538,0.2937199885\\Version=ES64L-G1
 6RevC.01\State=1-A\HF=-731.7291613\RMSD=6.136e-09\Dipole=0.3719352,-2.
 2512288,-1.1268934\Quadrupole=4.1574732,0.4886738,-4.646147,1.3968539,
 3.14364,-6.9264053\PG=C01 [X(C14H22N2O1)]\\@
 The archive entry for this job was punched.


 "TIGER, TIGER BURNING BRIGHT
 IN THE FOREST OF THE NIGHT.
 WHAT IMMORTAL HAND OR EYE
 CAN FRAME THY FEARFUL SYMMETRYE?"
                     - WILLIAM BLAKE
 Job cpu time:       0 days  0 hours 22 minutes 21.9 seconds.
 Elapsed time:       0 days  0 hours  0 minutes 43.1 seconds.
 File lengths (MBytes):  RWF=    160 Int=      0 D2E=      0 Chk=     21 Scr=      1
 Normal termination of Gaussian 16 at Mon Feb 22 21:30:03 2021.
