 Entering Gaussian System, Link 0=g16
 Input=NOOLISFMXDJSKH-KXUCPTDWSA-N.gjf
 Output=NOOLISFMXDJSKH-KXUCPTDWSA-N.log
 Initial command:
 /sw/arch/RedHatEnterpriseServer7/EB_production/2019/software/Gaussian/g16.c01/l1.exe "/scratch-local/elenaa.9715246/Gau-4721.inp" -scrdir="/scratch-local/elenaa.9715246/"
 Entering Link 1 = /sw/arch/RedHatEnterpriseServer7/EB_production/2019/software/Gaussian/g16.c01/l1.exe PID=      4722.
  
 Copyright (c) 1988-2019, Gaussian, Inc.  All Rights Reserved.
  
 This is part of the Gaussian(R) 16 program.  It is based on
 the Gaussian(R) 09 system (copyright 2009, Gaussian, Inc.),
 the Gaussian(R) 03 system (copyright 2003, Gaussian, Inc.),
 the Gaussian(R) 98 system (copyright 1998, Gaussian, Inc.),
 the Gaussian(R) 94 system (copyright 1995, Gaussian, Inc.),
 the Gaussian 92(TM) system (copyright 1992, Gaussian, Inc.),
 the Gaussian 90(TM) system (copyright 1990, Gaussian, Inc.),
 the Gaussian 88(TM) system (copyright 1988, Gaussian, Inc.),
 the Gaussian 86(TM) system (copyright 1986, Carnegie Mellon
 University), and the Gaussian 82(TM) system (copyright 1983,
 Carnegie Mellon University). Gaussian is a federally registered
 trademark of Gaussian, Inc.
  
 This software contains proprietary and confidential information,
 including trade secrets, belonging to Gaussian, Inc.
  
 This software is provided under written license and may be
 used, copied, transmitted, or stored only in accord with that
 written license.
  
 The following legend is applicable only to US Government
 contracts under FAR:
  
                    RESTRICTED RIGHTS LEGEND
  
 Use, reproduction and disclosure by the US Government is
 subject to restrictions as set forth in subparagraphs (a)
 and (c) of the Commercial Computer Software - Restricted
 Rights clause in FAR 52.227-19.
  
 Gaussian, Inc.
 340 Quinnipiac St., Bldg. 40, Wallingford CT 06492
  
  
 ---------------------------------------------------------------
 Warning -- This program may not be used in any manner that
 competes with the business of Gaussian, Inc. or will provide
 assistance to any competitor of Gaussian, Inc.  The licensee
 of this program is prohibited from giving any competitor of
 Gaussian, Inc. access to this program.  By using this program,
 the user acknowledges that Gaussian, Inc. is engaged in the
 business of creating and licensing software in the field of
 computational chemistry and represents and warrants to the
 licensee that it is not a competitor of Gaussian, Inc. and that
 it will not use this program in any manner prohibited above.
 ---------------------------------------------------------------
  

 Cite this work as:
 Gaussian 16, Revision C.01,
 M. J. Frisch, G. W. Trucks, H. B. Schlegel, G. E. Scuseria, 
 M. A. Robb, J. R. Cheeseman, G. Scalmani, V. Barone, 
 G. A. Petersson, H. Nakatsuji, X. Li, M. Caricato, A. V. Marenich, 
 J. Bloino, B. G. Janesko, R. Gomperts, B. Mennucci, H. P. Hratchian, 
 J. V. Ortiz, A. F. Izmaylov, J. L. Sonnenberg, D. Williams-Young, 
 F. Ding, F. Lipparini, F. Egidi, J. Goings, B. Peng, A. Petrone, 
 T. Henderson, D. Ranasinghe, V. G. Zakrzewski, J. Gao, N. Rega, 
 G. Zheng, W. Liang, M. Hada, M. Ehara, K. Toyota, R. Fukuda, 
 J. Hasegawa, M. Ishida, T. Nakajima, Y. Honda, O. Kitao, H. Nakai, 
 T. Vreven, K. Throssell, J. A. Montgomery, Jr., J. E. Peralta, 
 F. Ogliaro, M. J. Bearpark, J. J. Heyd, E. N. Brothers, K. N. Kudin, 
 V. N. Staroverov, T. A. Keith, R. Kobayashi, J. Normand, 
 K. Raghavachari, A. P. Rendell, J. C. Burant, S. S. Iyengar, 
 J. Tomasi, M. Cossi, J. M. Millam, M. Klene, C. Adamo, R. Cammi, 
 J. W. Ochterski, R. L. Martin, K. Morokuma, O. Farkas, 
 J. B. Foresman, and D. J. Fox, Gaussian, Inc., Wallingford CT, 2019.
 
 ******************************************
 Gaussian 16:  ES64L-G16RevC.01  3-Jul-2019
                22-Feb-2021 
 ******************************************
 %chk=NOOLISFMXDJSKH-KXUCPTDWSA-N.chk
 %NProcShared=32
 Will use up to   32 processors via shared memory.
 -------------------------------------------------------------
 #P BP86/TZVP EmpiricalDispersion=GD3 SCRF=(Solvent=Water) Opt
 -------------------------------------------------------------
 1/18=20,19=15,26=3,38=1/1,3;
 2/9=110,12=2,17=6,18=5,40=1/2;
 3/5=19,7=101,11=2,25=1,30=1,70=2201,71=1,72=1,74=404,124=31/1,2,3;
 4//1;
 5/5=2,38=5,53=1/2;
 6/7=2,8=2,9=2,10=2,28=1/1;
 7//1,2,3,16;
 1/18=20,19=15,26=3/3(2);
 2/9=110/2;
 99//99;
 2/9=110/2;
 3/5=19,7=101,11=2,25=1,30=1,70=2205,71=1,72=1,74=404,124=31/1,2,3;
 4/5=5,16=3,69=1/1;
 5/5=2,38=5,53=1/2;
 7//1,2,3,16;
 1/18=20,19=15,26=3/3(-5);
 2/9=110/2;
 6/7=2,8=2,9=2,10=2,19=2,28=1/1;
 99/9=1/99;
 Leave Link    1 at Mon Feb 22 21:15:17 2021, MaxMem=           0 cpu:               1.3 elap:               0.1
 (Enter /sw/arch/RedHatEnterpriseServer7/EB_production/2019/software/Gaussian/g16.c01/l101.exe)
 -------------------------------------
 Particle #NOOLISFMXDJSKH-KXUCPTDWSA-N
 -------------------------------------
 Symbolic Z-matrix:
 Charge =  0 Multiplicity = 1
 C                     3.06631   1.8502   -1.79804 
 C                     2.75399   0.48871  -1.10969 
 C                     3.80275   0.21091   0.00924 
 C                     1.24405   0.35665  -0.66941 
 C                     0.79373   1.42014   0.38557 
 C                    -0.69568   1.27983   0.79545 
 C                    -1.0176   -0.15124   1.31895 
 C                    -2.49496  -0.27515   1.7794 
 C                    -0.63984  -1.20119   0.22986 
 C                     0.85649  -1.08343  -0.18529 
 O                     1.12253  -2.03639  -1.21734 
 H                     3.01719   2.67261  -1.08085 
 H                     4.0703    1.83721  -2.22764 
 H                     2.35801   2.04369  -2.60662 
 H                     2.92702  -0.26835  -1.88052 
 H                     3.69593  -0.79738   0.40924 
 H                     4.81498   0.29023  -0.39357 
 H                     3.70551   0.92728   0.82698 
 H                     0.64612   0.5406   -1.56875 
 H                     0.92687   2.42651  -0.01513 
 H                     1.4092    1.33548   1.28334 
 H                    -0.91271   2.01839   1.57224 
 H                    -1.32589   1.50914  -0.07037 
 H                    -0.39946  -0.33768   2.20324 
 H                    -2.70642   0.45315   2.56619 
 H                    -3.17928  -0.10035   0.94751 
 H                    -2.68143  -1.27159   2.1849 
 H                    -0.82134  -2.20719   0.61868 
 H                    -1.27676  -1.06632  -0.65009 
 H                     1.46161  -1.35458   0.68356 
 H                     0.94659  -2.90923  -0.80697 
 
 ITRead=  0  0  0  0  0  0  0  0  0  0  0  0  0  0  0  0  0  0  0  0
 ITRead=  0  0  0  0  0  0  0  0  0  0  0
 MicOpt= -1 -1 -1 -1 -1 -1 -1 -1 -1 -1 -1 -1 -1 -1 -1 -1 -1 -1 -1 -1
 MicOpt= -1 -1 -1 -1 -1 -1 -1 -1 -1 -1 -1
 NAtoms=     31 NQM=       31 NQMF=       0 NMMI=      0 NMMIF=      0
                NMic=       0 NMicF=      0.
                    Isotopes and Nuclear Properties:
 (Nuclear quadrupole moments (NQMom) in fm**2, nuclear magnetic moments (NMagM)
  in nuclear magnetons)

  Atom         1           2           3           4           5           6           7           8           9          10
 IAtWgt=          12          12          12          12          12          12          12          12          12          12
 AtmWgt=  12.0000000  12.0000000  12.0000000  12.0000000  12.0000000  12.0000000  12.0000000  12.0000000  12.0000000  12.0000000
 NucSpn=           0           0           0           0           0           0           0           0           0           0
 AtZEff=  -0.0000000  -0.0000000  -0.0000000  -0.0000000  -0.0000000  -0.0000000  -0.0000000  -0.0000000  -0.0000000  -0.0000000
 NQMom=    0.0000000   0.0000000   0.0000000   0.0000000   0.0000000   0.0000000   0.0000000   0.0000000   0.0000000   0.0000000
 NMagM=    0.0000000   0.0000000   0.0000000   0.0000000   0.0000000   0.0000000   0.0000000   0.0000000   0.0000000   0.0000000
 AtZNuc=   6.0000000   6.0000000   6.0000000   6.0000000   6.0000000   6.0000000   6.0000000   6.0000000   6.0000000   6.0000000

  Atom        11          12          13          14          15          16          17          18          19          20
 IAtWgt=          16           1           1           1           1           1           1           1           1           1
 AtmWgt=  15.9949146   1.0078250   1.0078250   1.0078250   1.0078250   1.0078250   1.0078250   1.0078250   1.0078250   1.0078250
 NucSpn=           0           1           1           1           1           1           1           1           1           1
 AtZEff=  -0.0000000  -0.0000000  -0.0000000  -0.0000000  -0.0000000  -0.0000000  -0.0000000  -0.0000000  -0.0000000  -0.0000000
 NQMom=    0.0000000   0.0000000   0.0000000   0.0000000   0.0000000   0.0000000   0.0000000   0.0000000   0.0000000   0.0000000
 NMagM=    0.0000000   2.7928460   2.7928460   2.7928460   2.7928460   2.7928460   2.7928460   2.7928460   2.7928460   2.7928460
 AtZNuc=   8.0000000   1.0000000   1.0000000   1.0000000   1.0000000   1.0000000   1.0000000   1.0000000   1.0000000   1.0000000

  Atom        21          22          23          24          25          26          27          28          29          30
 IAtWgt=           1           1           1           1           1           1           1           1           1           1
 AtmWgt=   1.0078250   1.0078250   1.0078250   1.0078250   1.0078250   1.0078250   1.0078250   1.0078250   1.0078250   1.0078250
 NucSpn=           1           1           1           1           1           1           1           1           1           1
 AtZEff=  -0.0000000  -0.0000000  -0.0000000  -0.0000000  -0.0000000  -0.0000000  -0.0000000  -0.0000000  -0.0000000  -0.0000000
 NQMom=    0.0000000   0.0000000   0.0000000   0.0000000   0.0000000   0.0000000   0.0000000   0.0000000   0.0000000   0.0000000
 NMagM=    2.7928460   2.7928460   2.7928460   2.7928460   2.7928460   2.7928460   2.7928460   2.7928460   2.7928460   2.7928460
 AtZNuc=   1.0000000   1.0000000   1.0000000   1.0000000   1.0000000   1.0000000   1.0000000   1.0000000   1.0000000   1.0000000

  Atom        31
 IAtWgt=           1
 AtmWgt=   1.0078250
 NucSpn=           1
 AtZEff=  -0.0000000
 NQMom=    0.0000000
 NMagM=    2.7928460
 AtZNuc=   1.0000000
 Leave Link  101 at Mon Feb 22 21:15:17 2021, MaxMem=   104857600 cpu:               3.1 elap:               0.1
 (Enter /sw/arch/RedHatEnterpriseServer7/EB_production/2019/software/Gaussian/g16.c01/l103.exe)

 GradGradGradGradGradGradGradGradGradGradGradGradGradGradGradGradGradGrad
 Berny optimization.
 Initialization pass.
                           ----------------------------
                           !    Initial Parameters    !
                           ! (Angstroms and Degrees)  !
 --------------------------                            --------------------------
 ! Name  Definition              Value          Derivative Info.                !
 --------------------------------------------------------------------------------
 ! R1    R(1,2)                  1.5572         estimate D2E/DX2                !
 ! R2    R(1,12)                 1.0923         estimate D2E/DX2                !
 ! R3    R(1,13)                 1.0921         estimate D2E/DX2                !
 ! R4    R(1,14)                 1.0922         estimate D2E/DX2                !
 ! R5    R(2,3)                  1.5585         estimate D2E/DX2                !
 ! R6    R(2,4)                  1.5784         estimate D2E/DX2                !
 ! R7    R(2,15)                 1.0942         estimate D2E/DX2                !
 ! R8    R(3,16)                 1.09           estimate D2E/DX2                !
 ! R9    R(3,17)                 1.0923         estimate D2E/DX2                !
 ! R10   R(3,18)                 1.0915         estimate D2E/DX2                !
 ! R11   R(4,5)                  1.5642         estimate D2E/DX2                !
 ! R12   R(4,10)                 1.5679         estimate D2E/DX2                !
 ! R13   R(4,19)                 1.0955         estimate D2E/DX2                !
 ! R14   R(5,6)                  1.5511         estimate D2E/DX2                !
 ! R15   R(5,20)                 1.0914         estimate D2E/DX2                !
 ! R16   R(5,21)                 1.0918         estimate D2E/DX2                !
 ! R17   R(6,7)                  1.5574         estimate D2E/DX2                !
 ! R18   R(6,22)                 1.0936         estimate D2E/DX2                !
 ! R19   R(6,23)                 1.0952         estimate D2E/DX2                !
 ! R20   R(7,8)                  1.5524         estimate D2E/DX2                !
 ! R21   R(7,9)                  1.5592         estimate D2E/DX2                !
 ! R22   R(7,24)                 1.0949         estimate D2E/DX2                !
 ! R23   R(8,25)                 1.0928         estimate D2E/DX2                !
 ! R24   R(8,26)                 1.0913         estimate D2E/DX2                !
 ! R25   R(8,27)                 1.0918         estimate D2E/DX2                !
 ! R26   R(9,10)                 1.5573         estimate D2E/DX2                !
 ! R27   R(9,28)                 1.0937         estimate D2E/DX2                !
 ! R28   R(9,29)                 1.0946         estimate D2E/DX2                !
 ! R29   R(10,11)                1.4297         estimate D2E/DX2                !
 ! R30   R(10,30)                1.093          estimate D2E/DX2                !
 ! R31   R(11,31)                0.9804         estimate D2E/DX2                !
 ! A1    A(2,1,12)             111.0398         estimate D2E/DX2                !
 ! A2    A(2,1,13)             110.3561         estimate D2E/DX2                !
 ! A3    A(2,1,14)             110.6135         estimate D2E/DX2                !
 ! A4    A(12,1,13)            107.9732         estimate D2E/DX2                !
 ! A5    A(12,1,14)            108.8768         estimate D2E/DX2                !
 ! A6    A(13,1,14)            107.8824         estimate D2E/DX2                !
 ! A7    A(1,2,3)              109.7688         estimate D2E/DX2                !
 ! A8    A(1,2,4)              112.85           estimate D2E/DX2                !
 ! A9    A(1,2,15)             105.1769         estimate D2E/DX2                !
 ! A10   A(3,2,4)              115.3763         estimate D2E/DX2                !
 ! A11   A(3,2,15)             106.0233         estimate D2E/DX2                !
 ! A12   A(4,2,15)             106.8521         estimate D2E/DX2                !
 ! A13   A(2,3,16)             111.2479         estimate D2E/DX2                !
 ! A14   A(2,3,17)             110.2355         estimate D2E/DX2                !
 ! A15   A(2,3,18)             111.1579         estimate D2E/DX2                !
 ! A16   A(16,3,17)            107.0568         estimate D2E/DX2                !
 ! A17   A(16,3,18)            108.8726         estimate D2E/DX2                !
 ! A18   A(17,3,18)            108.1302         estimate D2E/DX2                !
 ! A19   A(2,4,5)              113.9951         estimate D2E/DX2                !
 ! A20   A(2,4,10)             113.5433         estimate D2E/DX2                !
 ! A21   A(2,4,19)             106.206          estimate D2E/DX2                !
 ! A22   A(5,4,10)             110.1844         estimate D2E/DX2                !
 ! A23   A(5,4,19)             106.4023         estimate D2E/DX2                !
 ! A24   A(10,4,19)            105.8298         estimate D2E/DX2                !
 ! A25   A(4,5,6)              113.1506         estimate D2E/DX2                !
 ! A26   A(4,5,20)             110.1324         estimate D2E/DX2                !
 ! A27   A(4,5,21)             109.8517         estimate D2E/DX2                !
 ! A28   A(6,5,20)             107.3117         estimate D2E/DX2                !
 ! A29   A(6,5,21)             108.4814         estimate D2E/DX2                !
 ! A30   A(20,5,21)            107.737          estimate D2E/DX2                !
 ! A31   A(5,6,7)              111.7407         estimate D2E/DX2                !
 ! A32   A(5,6,22)             108.4913         estimate D2E/DX2                !
 ! A33   A(5,6,23)             108.9473         estimate D2E/DX2                !
 ! A34   A(7,6,22)             109.9239         estimate D2E/DX2                !
 ! A35   A(7,6,23)             109.8273         estimate D2E/DX2                !
 ! A36   A(22,6,23)            107.8151         estimate D2E/DX2                !
 ! A37   A(6,7,8)              111.6998         estimate D2E/DX2                !
 ! A38   A(6,7,9)              109.5045         estimate D2E/DX2                !
 ! A39   A(6,7,24)             108.1338         estimate D2E/DX2                !
 ! A40   A(8,7,9)              112.5807         estimate D2E/DX2                !
 ! A41   A(8,7,24)             106.5067         estimate D2E/DX2                !
 ! A42   A(9,7,24)             108.2207         estimate D2E/DX2                !
 ! A43   A(7,8,25)             110.1517         estimate D2E/DX2                !
 ! A44   A(7,8,26)             110.9699         estimate D2E/DX2                !
 ! A45   A(7,8,27)             110.2143         estimate D2E/DX2                !
 ! A46   A(25,8,26)            108.7086         estimate D2E/DX2                !
 ! A47   A(25,8,27)            107.926          estimate D2E/DX2                !
 ! A48   A(26,8,27)            108.7963         estimate D2E/DX2                !
 ! A49   A(7,9,10)             111.5965         estimate D2E/DX2                !
 ! A50   A(7,9,28)             109.3211         estimate D2E/DX2                !
 ! A51   A(7,9,29)             109.7284         estimate D2E/DX2                !
 ! A52   A(10,9,28)            108.8917         estimate D2E/DX2                !
 ! A53   A(10,9,29)            109.6008         estimate D2E/DX2                !
 ! A54   A(28,9,29)            107.6118         estimate D2E/DX2                !
 ! A55   A(4,10,9)             112.9086         estimate D2E/DX2                !
 ! A56   A(4,10,11)            110.0789         estimate D2E/DX2                !
 ! A57   A(4,10,30)            109.661          estimate D2E/DX2                !
 ! A58   A(9,10,11)            108.713          estimate D2E/DX2                !
 ! A59   A(9,10,30)            107.5351         estimate D2E/DX2                !
 ! A60   A(11,10,30)           107.7857         estimate D2E/DX2                !
 ! A61   A(10,11,31)           104.9436         estimate D2E/DX2                !
 ! D1    D(12,1,2,3)           -60.8113         estimate D2E/DX2                !
 ! D2    D(12,1,2,4)            69.4017         estimate D2E/DX2                !
 ! D3    D(12,1,2,15)         -174.4775         estimate D2E/DX2                !
 ! D4    D(13,1,2,3)            58.8819         estimate D2E/DX2                !
 ! D5    D(13,1,2,4)          -170.9051         estimate D2E/DX2                !
 ! D6    D(13,1,2,15)          -54.7843         estimate D2E/DX2                !
 ! D7    D(14,1,2,3)           178.1883         estimate D2E/DX2                !
 ! D8    D(14,1,2,4)           -51.5987         estimate D2E/DX2                !
 ! D9    D(14,1,2,15)           64.5221         estimate D2E/DX2                !
 ! D10   D(1,2,3,16)          -171.7711         estimate D2E/DX2                !
 ! D11   D(1,2,3,17)           -53.1671         estimate D2E/DX2                !
 ! D12   D(1,2,3,18)            66.7198         estimate D2E/DX2                !
 ! D13   D(4,2,3,16)            59.3864         estimate D2E/DX2                !
 ! D14   D(4,2,3,17)           177.9904         estimate D2E/DX2                !
 ! D15   D(4,2,3,18)           -62.1227         estimate D2E/DX2                !
 ! D16   D(15,2,3,16)          -58.6512         estimate D2E/DX2                !
 ! D17   D(15,2,3,17)           59.9528         estimate D2E/DX2                !
 ! D18   D(15,2,3,18)          179.8397         estimate D2E/DX2                !
 ! D19   D(1,2,4,5)            -61.9053         estimate D2E/DX2                !
 ! D20   D(1,2,4,10)           170.7994         estimate D2E/DX2                !
 ! D21   D(1,2,4,19)            54.9188         estimate D2E/DX2                !
 ! D22   D(3,2,4,5)             65.4027         estimate D2E/DX2                !
 ! D23   D(3,2,4,10)           -61.8926         estimate D2E/DX2                !
 ! D24   D(3,2,4,19)          -177.7732         estimate D2E/DX2                !
 ! D25   D(15,2,4,5)          -177.0234         estimate D2E/DX2                !
 ! D26   D(15,2,4,10)           55.6814         estimate D2E/DX2                !
 ! D27   D(15,2,4,19)          -60.1992         estimate D2E/DX2                !
 ! D28   D(2,4,5,6)            179.5254         estimate D2E/DX2                !
 ! D29   D(2,4,5,20)            59.4302         estimate D2E/DX2                !
 ! D30   D(2,4,5,21)           -59.0809         estimate D2E/DX2                !
 ! D31   D(10,4,5,6)           -51.4634         estimate D2E/DX2                !
 ! D32   D(10,4,5,20)         -171.5586         estimate D2E/DX2                !
 ! D33   D(10,4,5,21)           69.9303         estimate D2E/DX2                !
 ! D34   D(19,4,5,6)            62.8151         estimate D2E/DX2                !
 ! D35   D(19,4,5,20)          -57.2802         estimate D2E/DX2                !
 ! D36   D(19,4,5,21)         -175.7912         estimate D2E/DX2                !
 ! D37   D(2,4,10,9)          -179.3383         estimate D2E/DX2                !
 ! D38   D(2,4,10,11)          -57.6492         estimate D2E/DX2                !
 ! D39   D(2,4,10,30)           60.7725         estimate D2E/DX2                !
 ! D40   D(5,4,10,9)            51.4059         estimate D2E/DX2                !
 ! D41   D(5,4,10,11)          173.095          estimate D2E/DX2                !
 ! D42   D(5,4,10,30)          -68.4833         estimate D2E/DX2                !
 ! D43   D(19,4,10,9)          -63.2362         estimate D2E/DX2                !
 ! D44   D(19,4,10,11)          58.4529         estimate D2E/DX2                !
 ! D45   D(19,4,10,30)         176.8746         estimate D2E/DX2                !
 ! D46   D(4,5,6,7)             55.4686         estimate D2E/DX2                !
 ! D47   D(4,5,6,22)           176.8142         estimate D2E/DX2                !
 ! D48   D(4,5,6,23)           -66.0636         estimate D2E/DX2                !
 ! D49   D(20,5,6,7)           177.1617         estimate D2E/DX2                !
 ! D50   D(20,5,6,22)          -61.4927         estimate D2E/DX2                !
 ! D51   D(20,5,6,23)           55.6296         estimate D2E/DX2                !
 ! D52   D(21,5,6,7)           -66.694          estimate D2E/DX2                !
 ! D53   D(21,5,6,22)           54.6516         estimate D2E/DX2                !
 ! D54   D(21,5,6,23)          171.7739         estimate D2E/DX2                !
 ! D55   D(5,6,7,8)            177.8344         estimate D2E/DX2                !
 ! D56   D(5,6,7,9)            -56.7583         estimate D2E/DX2                !
 ! D57   D(5,6,7,24)            60.9554         estimate D2E/DX2                !
 ! D58   D(22,6,7,8)            57.3218         estimate D2E/DX2                !
 ! D59   D(22,6,7,9)          -177.2709         estimate D2E/DX2                !
 ! D60   D(22,6,7,24)          -59.5572         estimate D2E/DX2                !
 ! D61   D(23,6,7,8)           -61.1432         estimate D2E/DX2                !
 ! D62   D(23,6,7,9)            64.2641         estimate D2E/DX2                !
 ! D63   D(23,6,7,24)         -178.0222         estimate D2E/DX2                !
 ! D64   D(6,7,8,25)           -58.3453         estimate D2E/DX2                !
 ! D65   D(6,7,8,26)            62.0891         estimate D2E/DX2                !
 ! D66   D(6,7,8,27)          -177.3251         estimate D2E/DX2                !
 ! D67   D(9,7,8,25)           177.9666         estimate D2E/DX2                !
 ! D68   D(9,7,8,26)           -61.599          estimate D2E/DX2                !
 ! D69   D(9,7,8,27)            58.9868         estimate D2E/DX2                !
 ! D70   D(24,7,8,25)           59.514          estimate D2E/DX2                !
 ! D71   D(24,7,8,26)          179.9483         estimate D2E/DX2                !
 ! D72   D(24,7,8,27)          -59.4658         estimate D2E/DX2                !
 ! D73   D(6,7,9,10)            56.7475         estimate D2E/DX2                !
 ! D74   D(6,7,9,28)           177.2649         estimate D2E/DX2                !
 ! D75   D(6,7,9,29)           -64.9376         estimate D2E/DX2                !
 ! D76   D(8,7,9,10)          -178.3543         estimate D2E/DX2                !
 ! D77   D(8,7,9,28)           -57.8368         estimate D2E/DX2                !
 ! D78   D(8,7,9,29)            59.9607         estimate D2E/DX2                !
 ! D79   D(24,7,9,10)          -60.9119         estimate D2E/DX2                !
 ! D80   D(24,7,9,28)           59.6055         estimate D2E/DX2                !
 ! D81   D(24,7,9,29)          177.4031         estimate D2E/DX2                !
 ! D82   D(7,9,10,4)           -55.4117         estimate D2E/DX2                !
 ! D83   D(7,9,10,11)         -177.8683         estimate D2E/DX2                !
 ! D84   D(7,9,10,30)           65.6922         estimate D2E/DX2                !
 ! D85   D(28,9,10,4)         -176.1802         estimate D2E/DX2                !
 ! D86   D(28,9,10,11)          61.3632         estimate D2E/DX2                !
 ! D87   D(28,9,10,30)         -55.0763         estimate D2E/DX2                !
 ! D88   D(29,9,10,4)           66.3471         estimate D2E/DX2                !
 ! D89   D(29,9,10,11)         -56.1095         estimate D2E/DX2                !
 ! D90   D(29,9,10,30)        -172.549          estimate D2E/DX2                !
 ! D91   D(4,10,11,31)         174.1629         estimate D2E/DX2                !
 ! D92   D(9,10,11,31)         -61.6842         estimate D2E/DX2                !
 ! D93   D(30,10,11,31)         54.5943         estimate D2E/DX2                !
 --------------------------------------------------------------------------------
 Trust Radius=3.00D-01 FncErr=1.00D-07 GrdErr=1.00D-06 EigMax=2.50D+02 EigMin=1.00D-04
 Number of steps in this run=    186 maximum allowed number of steps=    186.
 GradGradGradGradGradGradGradGradGradGradGradGradGradGradGradGradGradGrad

 Leave Link  103 at Mon Feb 22 21:15:17 2021, MaxMem=   104857600 cpu:               0.6 elap:               0.0
 (Enter /sw/arch/RedHatEnterpriseServer7/EB_production/2019/software/Gaussian/g16.c01/l202.exe)
                          Input orientation:                          
 ---------------------------------------------------------------------
 Center     Atomic      Atomic             Coordinates (Angstroms)
 Number     Number       Type             X           Y           Z
 ---------------------------------------------------------------------
      1          6           0        3.066310    1.850200   -1.798040
      2          6           0        2.753990    0.488710   -1.109690
      3          6           0        3.802750    0.210910    0.009240
      4          6           0        1.244050    0.356650   -0.669410
      5          6           0        0.793730    1.420140    0.385570
      6          6           0       -0.695680    1.279830    0.795450
      7          6           0       -1.017600   -0.151240    1.318950
      8          6           0       -2.494960   -0.275150    1.779400
      9          6           0       -0.639840   -1.201190    0.229860
     10          6           0        0.856490   -1.083430   -0.185290
     11          8           0        1.122530   -2.036390   -1.217340
     12          1           0        3.017190    2.672610   -1.080850
     13          1           0        4.070300    1.837210   -2.227640
     14          1           0        2.358010    2.043690   -2.606620
     15          1           0        2.927020   -0.268350   -1.880520
     16          1           0        3.695930   -0.797380    0.409240
     17          1           0        4.814980    0.290230   -0.393570
     18          1           0        3.705510    0.927280    0.826980
     19          1           0        0.646120    0.540600   -1.568750
     20          1           0        0.926870    2.426510   -0.015130
     21          1           0        1.409200    1.335480    1.283340
     22          1           0       -0.912710    2.018390    1.572240
     23          1           0       -1.325890    1.509140   -0.070370
     24          1           0       -0.399460   -0.337680    2.203240
     25          1           0       -2.706420    0.453150    2.566190
     26          1           0       -3.179280   -0.100350    0.947510
     27          1           0       -2.681430   -1.271590    2.184900
     28          1           0       -0.821340   -2.207190    0.618680
     29          1           0       -1.276760   -1.066320   -0.650090
     30          1           0        1.461610   -1.354580    0.683560
     31          1           0        0.946590   -2.909230   -0.806970
 ---------------------------------------------------------------------
                    Distance matrix (angstroms):
                    1          2          3          4          5
     1  C    0.000000
     2  C    1.557249   0.000000
     3  C    2.548701   1.558549   0.000000
     4  C    2.612495   1.578355   2.651179   0.000000
     5  C    3.180837   2.635523   3.264669   1.564219   0.000000
     6  C    4.604789   4.019409   4.690052   2.600121   1.551139
     7  C    5.513593   4.531304   5.008220   3.053946   2.573198
     8  C    6.945712   6.040016   6.559792   4.513982   3.953764
     9  C    5.211421   4.020975   4.666830   2.604725   2.991779
    10  C    4.011291   2.631852   3.223912   1.567930   2.568595
    11  O    4.384185   3.008219   3.706539   2.457974   3.824268
    12  H    1.092306   2.199892   2.804526   2.945671   2.943271
    13  H    1.092118   2.191104   2.778501   3.550750   4.211737
    14  H    1.092213   2.194439   3.505578   2.799963   3.433510
    15  H    2.124726   1.094193   2.137238   2.165595   3.540775
    16  H    3.504024   2.201914   1.089981   2.916674   3.652495
    17  H    2.732012   2.190868   1.092317   3.582184   4.249024
    18  H    2.855011   2.201914   1.091485   2.936594   2.986003
    19  H    2.761330   2.157903   3.544441   1.095523   2.148196
    20  H    2.843959   2.879496   3.630449   2.193856   1.091360
    21  H    3.536362   2.872642   2.935485   2.190574   1.091770
    22  H    5.217248   4.793470   5.286352   3.526753   2.162875
    23  H    4.732081   4.332076   5.291001   2.879527   2.169929
    24  H    5.727881   4.647868   4.772123   3.381618   2.795990
    25  H    7.370391   6.582510   6.997569   5.107312   4.235708
    26  H    7.095779   6.307357   7.051665   4.731715   4.290976
    27  H    7.658061   6.595208   6.998278   5.119340   4.749709
    28  H    6.116925   4.799805   5.253649   3.535292   3.977476
    29  H    5.355944   4.344686   5.278963   2.894771   3.397352
    30  H    4.359360   2.878143   2.895929   2.192297   2.869483
    31  H    5.303547   3.860613   4.308030   3.282282   4.493213
                    6          7          8          9         10
     6  C    0.000000
     7  C    1.557449   0.000000
     8  C    2.573622   1.552405   0.000000
     9  C    2.545284   1.559235   2.588454   0.000000
    10  C    2.992671   2.577582   3.968065   1.557312   0.000000
    11  O    4.284218   3.816636   5.016837   2.428558   1.429698
    12  H    4.386997   5.478385   6.874163   5.486179   4.424759
    13  H    5.671359   6.512984   7.976282   6.120180   4.798948
    14  H    4.634931   5.623394   6.940137   5.249949   4.230400
    15  H    4.762524   5.080389   6.541630   4.248104   2.797366
    16  H    4.873417   4.843804   6.362168   4.358227   2.915083
    17  H    5.723675   6.094802   7.647004   5.689293   4.195231
    18  H    4.415400   4.869600   6.387391   4.875346   3.631055
    19  H    2.817149   3.403736   4.662825   2.814698   2.143756
    20  H    2.145829   3.493641   4.714682   3.959142   3.514767
    21  H    2.161401   2.846219   4.252372   3.426818   2.883312
    22  H    1.093607   2.186882   2.794057   3.498877   3.979983
    23  H    1.095168   2.186805   2.823484   2.811884   3.390783
    24  H    2.164707   1.094909   2.138848   2.167409   2.799755
    25  H    2.803925   2.184721   1.092783   3.530727   4.756685
    26  H    2.845398   2.193950   1.091279   2.859305   4.305476
    27  H    3.519022   2.184807   1.091831   2.827583   4.262638
    28  H    3.493758   2.180786   2.807321   1.093691   2.173550
    29  H    2.816320   2.186699   2.830615   1.094609   2.183366
    30  H    3.406837   2.828114   4.245054   2.155334   1.092974
    31  H    4.776298   3.998010   5.046975   2.551309   1.930842
                   11         12         13         14         15
    11  O    0.000000
    12  H    5.077701   0.000000
    13  H    4.971401   1.766936   0.000000
    14  H    4.483700   1.777085   1.765842   0.000000
    15  H    2.611888   3.049073   2.420943   2.489282   0.000000
    16  H    3.286837   3.836911   3.746245   4.353978   2.472670
    17  H    4.441390   3.062701   2.512272   3.742848   2.467271
    18  H    4.431069   2.675776   3.208075   3.853795   3.060414
    19  H    2.644113   3.225754   3.720261   2.503402   2.440104
    20  H    4.626129   2.359187   3.888911   2.985052   3.839603
    21  H    4.207741   3.156413   4.433979   4.066152   3.858245
    22  H    5.325899   4.786544   6.269155   5.306705   5.647500
    23  H    4.458821   4.608370   5.820680   4.504379   4.952106
    24  H    4.111257   5.614320   6.658949   6.034013   5.267577
    25  H    5.930748   7.140491   8.415483   7.411898   7.213143
    26  H    5.190414   7.085181   8.148136   6.920284   6.731484
    27  H    5.160452   7.661338   8.644131   7.703616   6.999203
    28  H    2.679323   6.437015   6.956066   6.211345   4.904621
    29  H    2.649415   5.709918   6.285714   5.168339   4.452244
    30  H    2.047745   4.663822   5.046570   4.814256   3.146717
    31  H    0.980412   5.959810   5.857009   5.455480   3.471147
                   16         17         18         19         20
    16  H    0.000000
    17  H    1.754900   0.000000
    18  H    1.774556   1.768191   0.000000
    19  H    3.873497   4.338563   3.904985   0.000000
    20  H    4.270978   4.452450   3.267672   2.459515   0.000000
    21  H    3.246887   3.937501   2.376538   3.057539   1.763239
    22  H    5.524554   6.297410   4.803529   3.805211   2.463810
    23  H    5.546957   6.269010   5.143810   2.659330   2.433012
    24  H    4.494661   5.859017   4.510543   4.011549   3.784318
    25  H    6.870687   8.084441   6.660518   5.323993   4.874234
    26  H    6.931385   8.115371   6.962103   4.623426   4.916520
    27  H    6.636909   8.079849   6.889991   5.333527   5.615684
    28  H    4.736788   6.247388   5.510051   3.806394   4.992908
    29  H    5.091380   6.246225   5.565895   2.669006   4.178399
    30  H    2.319032   3.887248   3.203520   3.054445   3.882107
    31  H    3.673955   5.037051   5.000024   3.545690   5.394212
                   21         22         23         24         25
    21  H    0.000000
    22  H    2.437436   0.000000
    23  H    3.056699   1.768678   0.000000
    24  H    2.630006   2.492519   3.072185   0.000000
    25  H    4.400288   2.579788   3.157915   2.465605   0.000000
    26  H    4.819599   3.164915   2.657366   3.059507   1.774848
    27  H    4.933850   3.785194   3.828340   2.465748   1.766560
    28  H    4.238820   4.332799   3.813197   2.486741   3.797859
    29  H    4.089153   3.819256   2.640357   3.072794   3.833689
    30  H    2.756611   4.219487   4.066873   2.609041   4.917790
    31  H    4.754047   5.779193   5.022822   4.181637   6.002357
                   26         27         28         29         30
    26  H    0.000000
    27  H    1.775047   0.000000
    28  H    3.179117   2.605442   0.000000
    29  H    2.665522   3.170552   1.766004   0.000000
    30  H    4.814626   4.407458   2.437830   3.059475   0.000000
    31  H    5.290634   4.979526   2.377165   2.892095   2.214467
                   31
    31  H    0.000000
 Stoichiometry    C10H20O
 Framework group  C1[X(C10H20O)]
 Deg. of freedom    87
 Full point group                 C1      NOp   1
 Largest Abelian subgroup         C1      NOp   1
 Largest concise Abelian subgroup C1      NOp   1
                         Standard orientation:                         
 ---------------------------------------------------------------------
 Center     Atomic      Atomic             Coordinates (Angstroms)
 Number     Number       Type             X           Y           Z
 ---------------------------------------------------------------------
      1          6           0       -3.083173   -1.072839   -0.812090
      2          6           0       -2.251180    0.043307   -0.114215
      3          6           0       -2.645249    0.131300    1.391123
      4          6           0       -0.703882   -0.074630   -0.402599
      5          6           0       -0.059118   -1.401326    0.117919
      6          6           0        1.458625   -1.501959   -0.185984
      7          6           0        2.241929   -0.278982    0.376518
      8          6           0        3.767518   -0.406789    0.119215
      9          6           0        1.644051    1.036453   -0.209473
     10          6           0        0.122274    1.160772    0.097055
     11          8           0       -0.371167    2.358438   -0.508048
     12          1           0       -2.890947   -2.047372   -0.357702
     13          1           0       -4.151189   -0.863481   -0.721369
     14          1           0       -2.840790   -1.124922   -1.875795
     15          1           0       -2.588348    0.979220   -0.569893
     16          1           0       -2.186000    0.996201    1.869764
     17          1           0       -3.726818    0.245736    1.492463
     18          1           0       -2.347124   -0.770008    1.929736
     19          1           0       -0.595976   -0.085159   -1.492744
     20          1           0       -0.541543   -2.261812   -0.348876
     21          1           0       -0.202266   -1.484633    1.197053
     22          1           0        1.840759   -2.425479    0.257929
     23          1           0        1.600666   -1.567438   -1.269926
     24          1           0        2.110214   -0.260512    1.463319
     25          1           0        4.150982   -1.322363    0.576219
     26          1           0        3.982340   -0.432924   -0.950392
     27          1           0        4.297187    0.438093    0.563871
     28          1           0        2.164031    1.895115    0.224669
     29          1           0        1.804120    1.064977   -1.291939
     30          1           0        0.011728    1.263604    1.179552
     31          1           0        0.127535    3.083803   -0.076365
 ---------------------------------------------------------------------
 Rotational constants (GHZ):           1.7119602           0.6659975           0.5490168
 Leave Link  202 at Mon Feb 22 21:15:18 2021, MaxMem=   104857600 cpu:               0.8 elap:               0.1
 (Enter /sw/arch/RedHatEnterpriseServer7/EB_production/2019/software/Gaussian/g16.c01/l301.exe)
 Standard basis: TZVP (5D, 7F)
 Ernie: Thresh=  0.10000D-02 Tol=  0.10000D-05 Strict=F.
 There are   340 symmetry adapted cartesian basis functions of A   symmetry.
 There are   329 symmetry adapted basis functions of A   symmetry.
   329 basis functions,   545 primitive gaussians,   340 cartesian basis functions
    44 alpha electrons       44 beta electrons
       nuclear repulsion energy       678.8412053221 Hartrees.
 IExCor=  404 DFT=T Ex=B Corr=P86 ExCW=0 ScaHFX=  0.000000
 ScaDFX=  1.000000  1.000000  1.000000  1.000000 ScalE2=  1.000000  1.000000
 IRadAn=      5 IRanWt=     -1 IRanGd=            0 ICorTp=0 IEmpDi=131
 NAtoms=   31 NActive=   31 NUniq=   31 SFac= 1.00D+00 NAtFMM=   60 NAOKFM=F Big=F
 Integral buffers will be    131072 words long.
 Raffenetti 2 integral format.
 Two-electron integral symmetry is turned on.
 R6Disp:  Grimme-D3 Dispersion energy=       -0.0355567588 Hartrees.
 Nuclear repulsion after empirical dispersion term =      678.8056485632 Hartrees.
 ------------------------------------------------------------------------------
 Polarizable Continuum Model (PCM)
 =================================
 Model                : PCM.
 Atomic radii         : UFF (Universal Force Field).
 Polarization charges : Total charges.
 Charge compensation  : None.
 Solution method      : On-the-fly selection.
 Cavity type          : Scaled VdW (van der Waals Surface) (Alpha=1.100).
 Cavity algorithm     : GePol (No added spheres)
                        Default sphere list used, NSphG=   31.
                        Lebedev-Laikov grids with approx.  5.0 points / Ang**2.
                        Smoothing algorithm: York/Karplus (Gamma=1.0000).
                        Polarization charges: spherical gaussians, with
                                              point-specific exponents (IZeta= 3).
                        Self-potential: point-specific (ISelfS= 7).
                        Self-field    : sphere-specific E.n sum rule (ISelfD= 2).
 1st derivatives      : Analytical E(r).r(x)/FMM algorithm (CHGder, D1EAlg=3).
                        Cavity 1st derivative terms included.
 Solvent              : Water, Eps=  78.355300 Eps(inf)=   1.777849
 ------------------------------------------------------------------------------
 GePol: Number of generator spheres                  =      31
 GePol: Total number of spheres                      =      31
 GePol: Number of exposed spheres                    =      31 (100.00%)
 GePol: Number of points                             =    1953
 GePol: Average weight of points                     =       0.13
 GePol: Minimum weight of points                     =   0.16D-09
 GePol: Maximum weight of points                     =    0.20577
 GePol: Number of points with low weight             =     164
 GePol: Fraction of low-weight points (<1% of avg)   =       8.40%
 GePol: Cavity surface area                          =    260.056 Ang**2
 GePol: Cavity volume                                =    274.636 Ang**3
 Leave Link  301 at Mon Feb 22 21:15:18 2021, MaxMem=   104857600 cpu:               1.9 elap:               0.1
 (Enter /sw/arch/RedHatEnterpriseServer7/EB_production/2019/software/Gaussian/g16.c01/l302.exe)
 NPDir=0 NMtPBC=     1 NCelOv=     1 NCel=       1 NClECP=     1 NCelD=      1
         NCelK=      1 NCelE2=     1 NClLst=     1 CellRange=     0.0.
 One-electron integrals computed using PRISM.
 One-electron integral symmetry used in STVInt
 PrsmSu:  requested number of processors reduced to:  27 ShMem   1 Linda.
 NBasis=   329 RedAO= T EigKep=  8.64D-05  NBF=   329
 NBsUse=   329 1.00D-06 EigRej= -1.00D+00 NBFU=   329
 Precomputing XC quadrature grid using
 IXCGrd= 4 IRadAn=           5 IRanWt=          -1 IRanGd=           0 AccXCQ= 0.00D+00.
 Generated NRdTot=       0 NPtTot=           0 NUsed=           0 NTot=          32
 NSgBfM=   338   337   338   338   338 MxSgAt=    31 MxSgA2=    31.
 Leave Link  302 at Mon Feb 22 21:15:18 2021, MaxMem=   104857600 cpu:               9.1 elap:               0.3
 (Enter /sw/arch/RedHatEnterpriseServer7/EB_production/2019/software/Gaussian/g16.c01/l303.exe)
 DipDrv:  MaxL=1.
 Leave Link  303 at Mon Feb 22 21:15:18 2021, MaxMem=   104857600 cpu:               4.8 elap:               0.2
 (Enter /sw/arch/RedHatEnterpriseServer7/EB_production/2019/software/Gaussian/g16.c01/l401.exe)
 ExpMin= 9.52D-02 ExpMax= 2.70D+04 ExpMxC= 9.22D+02 IAcc=3 IRadAn=         5 AccDes= 0.00D+00
 Harris functional with IExCor=  404 and IRadAn=       5 diagonalized for initial guess.
 HarFok:  IExCor=  404 AccDes= 0.00D+00 IRadAn=         5 IDoV= 1 UseB2=F ITyADJ=14
 ICtDFT=  3500011 ScaDFX=  1.000000  1.000000  1.000000  1.000000
 FoFCou: FMM=F IPFlag=           0 FMFlag=      100000 FMFlg1=           0
         NFxFlg=           0 DoJE=T BraDBF=F KetDBF=T FulRan=T
         wScrn=  0.000000 ICntrl=       500 IOpCl=  0 I1Cent=   200000004 NGrid=           0
         NMat0=    1 NMatS0=      1 NMatT0=    0 NMatD0=    1 NMtDS0=    0 NMtDT0=    0
 Petite list used in FoFCou.
 Harris En= -468.840225635281    
 JPrj=0 DoOrth=F DoCkMO=F.
 Leave Link  401 at Mon Feb 22 21:15:19 2021, MaxMem=   104857600 cpu:              20.4 elap:               0.7
 (Enter /sw/arch/RedHatEnterpriseServer7/EB_production/2019/software/Gaussian/g16.c01/l502.exe)
 Integral symmetry usage will be decided dynamically.
 Closed shell SCF:
 Using DIIS extrapolation, IDIIS=  1040.
 NGot=   104857600 LenX=   104611132 LenY=   104495091
 Requested convergence on RMS density matrix=1.00D-08 within 128 cycles.
 Requested convergence on MAX density matrix=1.00D-06.
 Requested convergence on             energy=1.00D-06.
 No special actions if energy rises.
 Fock matrices will be formed incrementally for  20 cycles.

 Cycle   1  Pass 1  IDiag  1:
 FoFJK:  IHMeth= 1 ICntrl=     500 DoSepK=F KAlg= 0 I1Cent=           0 FoldK=F
 IRaf= 910000000 NMat=       1 IRICut=       1 DoRegI=T DoRafI=F ISym2E= 0 IDoP0=0 IntGTp=1.
 FoFCou: FMM=F IPFlag=           0 FMFlag=      100000 FMFlg1=           0
         NFxFlg=           0 DoJE=T BraDBF=F KetDBF=F FulRan=T
         wScrn=  0.000000 ICntrl=       500 IOpCl=  0 I1Cent=           0 NGrid=           0
         NMat0=    1 NMatS0=      1 NMatT0=    0 NMatD0=    1 NMtDS0=    0 NMtDT0=    0
 Symmetry not used in FoFCou.
 Inv3:  Mode=1 IEnd=    11442627.
 Iteration    1 A*A^-1 deviation from unit magnitude is 2.66D-15 for     97.
 Iteration    1 A*A^-1 deviation from orthogonality  is 2.89D-15 for   1670   1264.
 Iteration    1 A^-1*A deviation from unit magnitude is 2.66D-15 for     97.
 Iteration    1 A^-1*A deviation from orthogonality  is 3.63D-15 for   1396   1388.
 E= -468.138829201998    
 DIIS: error= 2.89D-02 at cycle   1 NSaved=   1.
 NSaved= 1 IEnMin= 1 EnMin= -468.138829201998     IErMin= 1 ErrMin= 2.89D-02
 ErrMax= 2.89D-02  0.00D+00 EMaxC= 1.00D-01 BMatC= 3.70D-01 BMatP= 3.70D-01
 IDIUse=3 WtCom= 7.11D-01 WtEn= 2.89D-01
 Coeff-Com:  0.100D+01
 Coeff-En:   0.100D+01
 Coeff:      0.100D+01
 Gap=     0.182 Goal=   None    Shift=    0.000
 GapD=    0.182 DampG=1.000 DampE=0.500 DampFc=0.5000 IDamp=-1.
 Damping current iteration by 5.00D-01
 RMSDP=7.45D-03 MaxDP=4.35D-01              OVMax= 2.04D-01

 Cycle   2  Pass 1  IDiag  1:
 RMSU=  3.72D-03    CP:  9.82D-01
 E= -468.246729424267     Delta-E=       -0.107900222269 Rises=F Damp=T
 DIIS: error= 8.41D-03 at cycle   2 NSaved=   2.
 NSaved= 2 IEnMin= 2 EnMin= -468.246729424267     IErMin= 2 ErrMin= 8.41D-03
 ErrMax= 8.41D-03  0.00D+00 EMaxC= 1.00D-01 BMatC= 4.16D-02 BMatP= 3.70D-01
 IDIUse=3 WtCom= 9.16D-01 WtEn= 8.41D-02
 Coeff-Com:  0.216D+00 0.784D+00
 Coeff-En:   0.350D+00 0.650D+00
 Coeff:      0.227D+00 0.773D+00
 Gap=     0.244 Goal=   None    Shift=    0.000
 RMSDP=2.36D-03 MaxDP=1.41D-01 DE=-1.08D-01 OVMax= 1.26D-01

 Cycle   3  Pass 1  IDiag  1:
 RMSU=  1.06D-03    CP:  9.86D-01  4.34D-01
 E= -468.516984173826     Delta-E=       -0.270254749559 Rises=F Damp=F
 DIIS: error= 4.76D-03 at cycle   3 NSaved=   3.
 NSaved= 3 IEnMin= 3 EnMin= -468.516984173826     IErMin= 3 ErrMin= 4.76D-03
 ErrMax= 4.76D-03  0.00D+00 EMaxC= 1.00D-01 BMatC= 7.38D-03 BMatP= 4.16D-02
 IDIUse=3 WtCom= 9.52D-01 WtEn= 4.76D-02
 Coeff-Com:  0.692D-01 0.320D+00 0.611D+00
 Coeff-En:   0.000D+00 0.000D+00 0.100D+01
 Coeff:      0.659D-01 0.304D+00 0.630D+00
 Gap=     0.236 Goal=   None    Shift=    0.000
 RMSDP=6.04D-04 MaxDP=2.92D-02 DE=-2.70D-01 OVMax= 2.24D-02

 Cycle   4  Pass 1  IDiag  1:
 RMSU=  4.04D-04    CP:  9.89D-01  5.39D-01  7.94D-01
 E= -468.520462844223     Delta-E=       -0.003478670397 Rises=F Damp=F
 DIIS: error= 3.43D-03 at cycle   4 NSaved=   4.
 NSaved= 4 IEnMin= 4 EnMin= -468.520462844223     IErMin= 4 ErrMin= 3.43D-03
 ErrMax= 3.43D-03  0.00D+00 EMaxC= 1.00D-01 BMatC= 3.39D-03 BMatP= 7.38D-03
 IDIUse=3 WtCom= 9.66D-01 WtEn= 3.43D-02
 Coeff-Com:  0.161D-01 0.976D-01 0.406D+00 0.480D+00
 Coeff-En:   0.000D+00 0.000D+00 0.315D+00 0.685D+00
 Coeff:      0.155D-01 0.942D-01 0.403D+00 0.487D+00
 Gap=     0.241 Goal=   None    Shift=    0.000
 RMSDP=2.85D-04 MaxDP=1.93D-02 DE=-3.48D-03 OVMax= 1.10D-02

 Cycle   5  Pass 1  IDiag  1:
 RMSU=  1.71D-04    CP:  9.85D-01  4.93D-01  8.14D-01  6.37D-01
 E= -468.522960107722     Delta-E=       -0.002497263498 Rises=F Damp=F
 DIIS: error= 6.98D-04 at cycle   5 NSaved=   5.
 NSaved= 5 IEnMin= 5 EnMin= -468.522960107722     IErMin= 5 ErrMin= 6.98D-04
 ErrMax= 6.98D-04  0.00D+00 EMaxC= 1.00D-01 BMatC= 1.43D-04 BMatP= 3.39D-03
 IDIUse=3 WtCom= 9.93D-01 WtEn= 6.98D-03
 Coeff-Com:  0.301D-02 0.236D-01 0.152D+00 0.248D+00 0.574D+00
 Coeff-En:   0.000D+00 0.000D+00 0.000D+00 0.000D+00 0.100D+01
 Coeff:      0.299D-02 0.234D-01 0.151D+00 0.246D+00 0.577D+00
 Gap=     0.239 Goal=   None    Shift=    0.000
 RMSDP=8.28D-05 MaxDP=5.00D-03 DE=-2.50D-03 OVMax= 2.60D-03

 Cycle   6  Pass 1  IDiag  1:
 RMSU=  3.52D-05    CP:  9.87D-01  4.99D-01  8.36D-01  6.74D-01  6.16D-01
 E= -468.523057280658     Delta-E=       -0.000097172937 Rises=F Damp=F
 DIIS: error= 2.29D-04 at cycle   6 NSaved=   6.
 NSaved= 6 IEnMin= 6 EnMin= -468.523057280658     IErMin= 6 ErrMin= 2.29D-04
 ErrMax= 2.29D-04  0.00D+00 EMaxC= 1.00D-01 BMatC= 2.59D-05 BMatP= 1.43D-04
 IDIUse=3 WtCom= 9.98D-01 WtEn= 2.29D-03
 Coeff-Com:  0.876D-03 0.704D-02 0.653D-01 0.119D+00 0.370D+00 0.438D+00
 Coeff-En:   0.000D+00 0.000D+00 0.000D+00 0.000D+00 0.124D+00 0.876D+00
 Coeff:      0.874D-03 0.703D-02 0.652D-01 0.119D+00 0.369D+00 0.439D+00
 Gap=     0.239 Goal=   None    Shift=    0.000
 RMSDP=1.78D-05 MaxDP=6.22D-04 DE=-9.72D-05 OVMax= 7.20D-04

 Cycle   7  Pass 1  IDiag  1:
 RMSU=  1.13D-05    CP:  9.86D-01  4.98D-01  8.35D-01  6.66D-01  6.74D-01
                    CP:  7.78D-01
 E= -468.523079774414     Delta-E=       -0.000022493756 Rises=F Damp=F
 DIIS: error= 2.53D-05 at cycle   7 NSaved=   7.
 NSaved= 7 IEnMin= 7 EnMin= -468.523079774414     IErMin= 7 ErrMin= 2.53D-05
 ErrMax= 2.53D-05  0.00D+00 EMaxC= 1.00D-01 BMatC= 3.77D-07 BMatP= 2.59D-05
 IDIUse=1 WtCom= 1.00D+00 WtEn= 0.00D+00
 Coeff-Com:  0.271D-03 0.127D-02 0.161D-01 0.306D-01 0.110D+00 0.174D+00
 Coeff-Com:  0.668D+00
 Coeff:      0.271D-03 0.127D-02 0.161D-01 0.306D-01 0.110D+00 0.174D+00
 Coeff:      0.668D+00
 Gap=     0.239 Goal=   None    Shift=    0.000
 RMSDP=4.02D-06 MaxDP=9.26D-05 DE=-2.25D-05 OVMax= 1.19D-04

 Cycle   8  Pass 1  IDiag  1:
 RMSU=  2.93D-06    CP:  9.86D-01  4.98D-01  8.35D-01  6.67D-01  6.77D-01
                    CP:  7.83D-01  7.89D-01
 E= -468.523080115766     Delta-E=       -0.000000341352 Rises=F Damp=F
 DIIS: error= 9.79D-06 at cycle   8 NSaved=   8.
 NSaved= 8 IEnMin= 8 EnMin= -468.523080115766     IErMin= 8 ErrMin= 9.79D-06
 ErrMax= 9.79D-06  0.00D+00 EMaxC= 1.00D-01 BMatC= 3.25D-08 BMatP= 3.77D-07
 IDIUse=1 WtCom= 1.00D+00 WtEn= 0.00D+00
 Coeff-Com:  0.951D-04 0.149D-03 0.325D-02 0.645D-02 0.262D-01 0.493D-01
 Coeff-Com:  0.290D+00 0.624D+00
 Coeff:      0.951D-04 0.149D-03 0.325D-02 0.645D-02 0.262D-01 0.493D-01
 Coeff:      0.290D+00 0.624D+00
 Gap=     0.239 Goal=   None    Shift=    0.000
 RMSDP=9.51D-07 MaxDP=3.13D-05 DE=-3.41D-07 OVMax= 4.12D-05

 Cycle   9  Pass 1  IDiag  1:
 RMSU=  7.40D-07    CP:  9.86D-01  4.98D-01  8.35D-01  6.68D-01  6.78D-01
                    CP:  7.88D-01  8.24D-01  8.86D-01
 E= -468.523080139004     Delta-E=       -0.000000023238 Rises=F Damp=F
 DIIS: error= 5.69D-06 at cycle   9 NSaved=   9.
 NSaved= 9 IEnMin= 9 EnMin= -468.523080139004     IErMin= 9 ErrMin= 5.69D-06
 ErrMax= 5.69D-06  0.00D+00 EMaxC= 1.00D-01 BMatC= 9.31D-09 BMatP= 3.25D-08
 IDIUse=1 WtCom= 1.00D+00 WtEn= 0.00D+00
 Coeff-Com:  0.240D-04-0.727D-04-0.180D-03-0.205D-03 0.966D-03 0.570D-02
 Coeff-Com:  0.836D-01 0.384D+00 0.526D+00
 Coeff:      0.240D-04-0.727D-04-0.180D-03-0.205D-03 0.966D-03 0.570D-02
 Coeff:      0.836D-01 0.384D+00 0.526D+00
 Gap=     0.239 Goal=   None    Shift=    0.000
 RMSDP=3.81D-07 MaxDP=1.12D-05 DE=-2.32D-08 OVMax= 1.47D-05

 Cycle  10  Pass 1  IDiag  1:
 RMSU=  1.62D-07    CP:  9.86D-01  4.98D-01  8.35D-01  6.68D-01  6.77D-01
                    CP:  7.91D-01  8.30D-01  8.95D-01  6.38D-01
 E= -468.523080148044     Delta-E=       -0.000000009040 Rises=F Damp=F
 DIIS: error= 2.25D-07 at cycle  10 NSaved=  10.
 NSaved=10 IEnMin=10 EnMin= -468.523080148044     IErMin=10 ErrMin= 2.25D-07
 ErrMax= 2.25D-07  0.00D+00 EMaxC= 1.00D-01 BMatC= 4.79D-11 BMatP= 9.31D-09
 IDIUse=1 WtCom= 1.00D+00 WtEn= 0.00D+00
 Coeff-Com:  0.343D-05-0.200D-04-0.104D-03-0.175D-03-0.202D-03 0.489D-03
 Coeff-Com:  0.165D-01 0.904D-01 0.150D+00 0.743D+00
 Coeff:      0.343D-05-0.200D-04-0.104D-03-0.175D-03-0.202D-03 0.489D-03
 Coeff:      0.165D-01 0.904D-01 0.150D+00 0.743D+00
 Gap=     0.239 Goal=   None    Shift=    0.000
 RMSDP=4.61D-08 MaxDP=1.24D-06 DE=-9.04D-09 OVMax= 1.38D-06

 Cycle  11  Pass 1  IDiag  1:
 RMSU=  3.08D-08    CP:  9.86D-01  4.98D-01  8.35D-01  6.68D-01  6.78D-01
                    CP:  7.91D-01  8.30D-01  9.01D-01  6.48D-01  8.70D-01
 E= -468.523080148073     Delta-E=       -0.000000000029 Rises=F Damp=F
 DIIS: error= 1.12D-07 at cycle  11 NSaved=  11.
 NSaved=11 IEnMin=11 EnMin= -468.523080148073     IErMin=11 ErrMin= 1.12D-07
 ErrMax= 1.12D-07  0.00D+00 EMaxC= 1.00D-01 BMatC= 1.30D-11 BMatP= 4.79D-11
 IDIUse=1 WtCom= 1.00D+00 WtEn= 0.00D+00
 Coeff-Com:  0.782D-06-0.820D-05-0.493D-04-0.881D-04-0.132D-03 0.668D-04
 Coeff-Com:  0.608D-02 0.355D-01 0.630D-01 0.416D+00 0.479D+00
 Coeff:      0.782D-06-0.820D-05-0.493D-04-0.881D-04-0.132D-03 0.668D-04
 Coeff:      0.608D-02 0.355D-01 0.630D-01 0.416D+00 0.479D+00
 Gap=     0.239 Goal=   None    Shift=    0.000
 RMSDP=1.36D-08 MaxDP=4.59D-07 DE=-2.93D-11 OVMax= 6.58D-07

 Cycle  12  Pass 1  IDiag  1:
 RMSU=  1.01D-08    CP:  9.86D-01  4.98D-01  8.35D-01  6.68D-01  6.78D-01
                    CP:  7.92D-01  8.30D-01  9.02D-01  6.47D-01  8.83D-01
                    CP:  7.47D-01
 E= -468.523080148088     Delta-E=       -0.000000000014 Rises=F Damp=F
 DIIS: error= 3.08D-08 at cycle  12 NSaved=  12.
 NSaved=12 IEnMin=12 EnMin= -468.523080148088     IErMin=12 ErrMin= 3.08D-08
 ErrMax= 3.08D-08  0.00D+00 EMaxC= 1.00D-01 BMatC= 7.39D-13 BMatP= 1.30D-11
 IDIUse=1 WtCom= 1.00D+00 WtEn= 0.00D+00
 Coeff-Com: -0.179D-06-0.121D-05-0.903D-05-0.181D-04-0.281D-04-0.240D-04
 Coeff-Com:  0.714D-03 0.463D-02 0.927D-02 0.952D-01 0.226D+00 0.664D+00
 Coeff:     -0.179D-06-0.121D-05-0.903D-05-0.181D-04-0.281D-04-0.240D-04
 Coeff:      0.714D-03 0.463D-02 0.927D-02 0.952D-01 0.226D+00 0.664D+00
 Gap=     0.239 Goal=   None    Shift=    0.000
 RMSDP=4.40D-09 MaxDP=1.19D-07 DE=-1.44D-11 OVMax= 1.25D-07

 Error on total polarization charges =  0.01646
 SCF Done:  E(RB-P86) =  -468.523080148     A.U. after   12 cycles
            NFock= 12  Conv=0.44D-08     -V/T= 2.0056
 KE= 4.659335124816D+02 PE=-2.445805212882D+03 EE= 8.325429716895D+02
 Leave Link  502 at Mon Feb 22 21:15:44 2021, MaxMem=   104857600 cpu:             780.2 elap:              24.8
 (Enter /sw/arch/RedHatEnterpriseServer7/EB_production/2019/software/Gaussian/g16.c01/l601.exe)
 Copying SCF densities to generalized density rwf, IOpCl= 0 IROHF=0.

 **********************************************************************

            Population analysis using the SCF Density.

 **********************************************************************

 Orbital symmetries:
       Occupied  (A) (A) (A) (A) (A) (A) (A) (A) (A) (A) (A) (A)
                 (A) (A) (A) (A) (A) (A) (A) (A) (A) (A) (A) (A)
                 (A) (A) (A) (A) (A) (A) (A) (A) (A) (A) (A) (A)
                 (A) (A) (A) (A) (A) (A) (A) (A)
       Virtual   (A) (A) (A) (A) (A) (A) (A) (A) (A) (A) (A) (A)
                 (A) (A) (A) (A) (A) (A) (A) (A) (A) (A) (A) (A)
                 (A) (A) (A) (A) (A) (A) (A) (A) (A) (A) (A) (A)
                 (A) (A) (A) (A) (A) (A) (A) (A) (A) (A) (A) (A)
                 (A) (A) (A) (A) (A) (A) (A) (A) (A) (A) (A) (A)
                 (A) (A) (A) (A) (A) (A) (A) (A) (A) (A) (A) (A)
                 (A) (A) (A) (A) (A) (A) (A) (A) (A) (A) (A) (A)
                 (A) (A) (A) (A) (A) (A) (A) (A) (A) (A) (A) (A)
                 (A) (A) (A) (A) (A) (A) (A) (A) (A) (A) (A) (A)
                 (A) (A) (A) (A) (A) (A) (A) (A) (A) (A) (A) (A)
                 (A) (A) (A) (A) (A) (A) (A) (A) (A) (A) (A) (A)
                 (A) (A) (A) (A) (A) (A) (A) (A) (A) (A) (A) (A)
                 (A) (A) (A) (A) (A) (A) (A) (A) (A) (A) (A) (A)
                 (A) (A) (A) (A) (A) (A) (A) (A) (A) (A) (A) (A)
                 (A) (A) (A) (A) (A) (A) (A) (A) (A) (A) (A) (A)
                 (A) (A) (A) (A) (A) (A) (A) (A) (A) (A) (A) (A)
                 (A) (A) (A) (A) (A) (A) (A) (A) (A) (A) (A) (A)
                 (A) (A) (A) (A) (A) (A) (A) (A) (A) (A) (A) (A)
                 (A) (A) (A) (A) (A) (A) (A) (A) (A) (A) (A) (A)
                 (A) (A) (A) (A) (A) (A) (A) (A) (A) (A) (A) (A)
                 (A) (A) (A) (A) (A) (A) (A) (A) (A) (A) (A) (A)
                 (A) (A) (A) (A) (A) (A) (A) (A) (A) (A) (A) (A)
                 (A) (A) (A) (A) (A) (A) (A) (A) (A) (A) (A) (A)
                 (A) (A) (A) (A) (A) (A) (A) (A) (A)
 The electronic state is 1-A.
 Alpha  occ. eigenvalues --  -18.76925  -9.94369  -9.90202  -9.90082  -9.90081
 Alpha  occ. eigenvalues --   -9.89010  -9.88970  -9.88894  -9.88180  -9.88054
 Alpha  occ. eigenvalues --   -9.88011  -0.93794  -0.75425  -0.72024  -0.67208
 Alpha  occ. eigenvalues --   -0.65975  -0.61482  -0.61011  -0.55377  -0.53983
 Alpha  occ. eigenvalues --   -0.50470  -0.48729  -0.45773  -0.41975  -0.41198
 Alpha  occ. eigenvalues --   -0.40256  -0.39457  -0.37898  -0.36432  -0.35711
 Alpha  occ. eigenvalues --   -0.34629  -0.34146  -0.33889  -0.33348  -0.32474
 Alpha  occ. eigenvalues --   -0.30582  -0.30409  -0.29857  -0.28471  -0.28141
 Alpha  occ. eigenvalues --   -0.27444  -0.26506  -0.25580  -0.22449
 Alpha virt. eigenvalues --    0.01471   0.02395   0.02860   0.03729   0.05709
 Alpha virt. eigenvalues --    0.06849   0.06947   0.07508   0.08030   0.08727
 Alpha virt. eigenvalues --    0.09253   0.09805   0.09978   0.10455   0.11179
 Alpha virt. eigenvalues --    0.11609   0.12387   0.12531   0.12805   0.13908
 Alpha virt. eigenvalues --    0.14150   0.14616   0.15523   0.15776   0.17128
 Alpha virt. eigenvalues --    0.17400   0.18048   0.18527   0.18919   0.19504
 Alpha virt. eigenvalues --    0.20664   0.21941   0.22450   0.23576   0.24530
 Alpha virt. eigenvalues --    0.24967   0.25621   0.27205   0.27881   0.28349
 Alpha virt. eigenvalues --    0.29886   0.30463   0.31519   0.32092   0.32272
 Alpha virt. eigenvalues --    0.33141   0.34991   0.36672   0.36909   0.38198
 Alpha virt. eigenvalues --    0.38717   0.39076   0.39498   0.39765   0.39982
 Alpha virt. eigenvalues --    0.41092   0.41381   0.41707   0.42188   0.42531
 Alpha virt. eigenvalues --    0.42698   0.42858   0.43717   0.44155   0.44846
 Alpha virt. eigenvalues --    0.45025   0.45356   0.45946   0.46411   0.46741
 Alpha virt. eigenvalues --    0.47536   0.48227   0.48801   0.49450   0.50465
 Alpha virt. eigenvalues --    0.51196   0.51559   0.52644   0.54568   0.55446
 Alpha virt. eigenvalues --    0.56856   0.57134   0.59238   0.60796   0.62831
 Alpha virt. eigenvalues --    0.64554   0.66130   0.67009   0.71964   0.73047
 Alpha virt. eigenvalues --    0.76416   0.79082   0.79366   0.83887   0.89286
 Alpha virt. eigenvalues --    1.05146   1.05650   1.07422   1.10616   1.15549
 Alpha virt. eigenvalues --    1.18782   1.19510   1.21128   1.21682   1.21752
 Alpha virt. eigenvalues --    1.22531   1.24112   1.24314   1.25318   1.26457
 Alpha virt. eigenvalues --    1.26876   1.27478   1.28273   1.29231   1.29318
 Alpha virt. eigenvalues --    1.30111   1.30374   1.31994   1.32463   1.33627
 Alpha virt. eigenvalues --    1.34360   1.35739   1.37040   1.37902   1.38480
 Alpha virt. eigenvalues --    1.39093   1.39331   1.40324   1.41263   1.44143
 Alpha virt. eigenvalues --    1.44433   1.46738   1.46853   1.48354   1.49423
 Alpha virt. eigenvalues --    1.50072   1.50590   1.52588   1.53602   1.55562
 Alpha virt. eigenvalues --    1.56560   1.57079   1.58055   1.58797   1.59790
 Alpha virt. eigenvalues --    1.61115   1.61841   1.62532   1.63226   1.64489
 Alpha virt. eigenvalues --    1.66487   1.68048   1.69248   1.70726   1.71384
 Alpha virt. eigenvalues --    1.72331   1.73785   1.74211   1.74236   1.74811
 Alpha virt. eigenvalues --    1.75119   1.76309   1.76355   1.77245   1.78767
 Alpha virt. eigenvalues --    1.80071   1.80241   1.81100   1.82413   1.83820
 Alpha virt. eigenvalues --    1.85035   1.85505   1.87080   1.88833   1.89236
 Alpha virt. eigenvalues --    1.89824   1.92549   1.92814   1.93640   1.95193
 Alpha virt. eigenvalues --    1.96367   1.97090   2.01581   2.03207   2.03593
 Alpha virt. eigenvalues --    2.05287   2.07057   2.08209   2.13627   2.14272
 Alpha virt. eigenvalues --    2.16063   2.17691   2.19658   2.21034   2.21846
 Alpha virt. eigenvalues --    2.23335   2.25205   2.26870   2.28122   2.30136
 Alpha virt. eigenvalues --    2.30680   2.31773   2.34192   2.34624   2.35873
 Alpha virt. eigenvalues --    2.38501   2.40112   2.40335   2.42404   2.43217
 Alpha virt. eigenvalues --    2.47187   2.49154   2.50421   2.51181   2.52805
 Alpha virt. eigenvalues --    2.53470   2.55741   2.55853   2.56529   2.57321
 Alpha virt. eigenvalues --    2.58027   2.58752   2.59327   2.60108   2.60992
 Alpha virt. eigenvalues --    2.62004   2.62088   2.62769   2.63843   2.64167
 Alpha virt. eigenvalues --    2.66494   2.66930   2.68284   2.69282   2.70867
 Alpha virt. eigenvalues --    2.75514   2.78513   2.79722   2.85445   2.87045
 Alpha virt. eigenvalues --    2.90237   2.91695   2.92675   2.95359   2.99527
 Alpha virt. eigenvalues --    3.01685   3.04101   3.06151   3.08859   3.09829
 Alpha virt. eigenvalues --    3.12747   3.17804   3.23149   3.23848   3.25608
 Alpha virt. eigenvalues --    3.25912   3.27317   3.27817   3.30073   3.31294
 Alpha virt. eigenvalues --    3.32575   3.33940   3.35264   3.36302   3.37145
 Alpha virt. eigenvalues --    3.39539   3.41810   3.42385   3.45974   3.46331
 Alpha virt. eigenvalues --    3.47413   3.48503   3.93677   4.17515  21.75568
 Alpha virt. eigenvalues --   21.81612  21.81819  21.83091  21.84259  21.87063
 Alpha virt. eigenvalues --   21.89753  21.93206  21.95356  21.97759  43.24946
          Condensed to atoms (all electrons):
               1          2          3          4          5          6
     1  C    5.161456   0.268365  -0.094827  -0.062815  -0.001445   0.000929
     2  C    0.268365   5.356249   0.244052   0.176615  -0.034658   0.015078
     3  C   -0.094827   0.244052   5.206320  -0.051735  -0.018886  -0.000708
     4  C   -0.062815   0.176615  -0.051735   5.958452   0.167592  -0.068783
     5  C   -0.001445  -0.034658  -0.018886   0.167592   5.327101   0.237127
     6  C    0.000929   0.015078  -0.000708  -0.068783   0.237127   5.284451
     7  C    0.000209  -0.004701  -0.000065   0.034602  -0.077366   0.271648
     8  C   -0.000011   0.000365  -0.000011  -0.004788   0.021874  -0.069502
     9  C   -0.001264   0.022372  -0.001784  -0.037334  -0.014001  -0.077770
    10  C    0.020027  -0.084048   0.006932  -0.054848  -0.009550  -0.006964
    11  O   -0.000770  -0.007951   0.000334  -0.097445   0.009635  -0.001535
    12  H    0.409291  -0.031705  -0.009753  -0.024957   0.009679  -0.000467
    13  H    0.403550  -0.043928  -0.004226   0.015212   0.000004   0.000009
    14  H    0.393881  -0.046935   0.015119   0.004068  -0.005274   0.000031
    15  H   -0.054143   0.462534  -0.049944  -0.086515   0.015440  -0.000843
    16  H    0.012179  -0.044201   0.402344  -0.006066  -0.001998   0.000091
    17  H   -0.001983  -0.040575   0.395595   0.014112   0.000280   0.000062
    18  H   -0.007887  -0.032412   0.400888  -0.012881   0.006697  -0.001005
    19  H   -0.014439  -0.058951   0.014122   0.390173  -0.048004   0.002694
    20  H    0.006606  -0.005993  -0.001866  -0.039551   0.405962  -0.031454
    21  H   -0.003168  -0.009416   0.007618  -0.044339   0.405017  -0.037952
    22  H   -0.000068  -0.000579   0.000047   0.009051  -0.030235   0.385341
    23  H   -0.000152  -0.000615   0.000069  -0.003506  -0.050954   0.415705
    24  H   -0.000003  -0.000515   0.000058  -0.011320   0.000404  -0.057422
    25  H    0.000000  -0.000016   0.000001   0.000383  -0.000772  -0.003611
    26  H    0.000000  -0.000007  -0.000000   0.000020  -0.000079  -0.014562
    27  H    0.000000  -0.000010   0.000000   0.000148  -0.001128   0.014967
    28  H    0.000063  -0.000452  -0.000002   0.023051  -0.002349   0.011941
    29  H   -0.000082  -0.001894   0.000107  -0.030854   0.002761  -0.010401
    30  H   -0.000927  -0.026577   0.009833  -0.098468   0.000234   0.001296
    31  H    0.000101   0.000310  -0.000061   0.024145  -0.001552  -0.000069
               7          8          9         10         11         12
     1  C    0.000209  -0.000011  -0.001264   0.020027  -0.000770   0.409291
     2  C   -0.004701   0.000365   0.022372  -0.084048  -0.007951  -0.031705
     3  C   -0.000065  -0.000011  -0.001784   0.006932   0.000334  -0.009753
     4  C    0.034602  -0.004788  -0.037334  -0.054848  -0.097445  -0.024957
     5  C   -0.077366   0.021874  -0.014001  -0.009550   0.009635   0.009679
     6  C    0.271648  -0.069502  -0.077770  -0.006964  -0.001535  -0.000467
     7  C    5.468541   0.234989   0.100682  -0.098871   0.024792   0.000027
     8  C    0.234989   5.098409  -0.042713   0.018609  -0.000397  -0.000002
     9  C    0.100682  -0.042713   5.524318   0.243756  -0.063182  -0.000051
    10  C   -0.098871   0.018609   0.243756   5.536292   0.265882  -0.000834
    11  O    0.024792  -0.000397  -0.063182   0.265882   7.962260  -0.000000
    12  H    0.000027  -0.000002  -0.000051  -0.000834  -0.000000   0.553091
    13  H    0.000003   0.000000   0.000050  -0.000853   0.000009  -0.028105
    14  H   -0.000013  -0.000001  -0.000082   0.000148   0.000023  -0.026784
    15  H   -0.000437   0.000003   0.000621  -0.007223   0.020055   0.008134
    16  H   -0.000086   0.000006   0.000279   0.004658   0.001375  -0.000197
    17  H   -0.000014   0.000000   0.000029   0.000229  -0.000122  -0.000208
    18  H    0.000246  -0.000003  -0.000145  -0.005469   0.000269   0.005242
    19  H    0.000022  -0.000441  -0.020652  -0.012220   0.007367   0.000351
    20  H    0.011360  -0.000720  -0.000359   0.009439  -0.000214  -0.001137
    21  H   -0.007350  -0.000956  -0.006542  -0.005792  -0.000219   0.000354
    22  H   -0.037194  -0.002449   0.014473   0.000915   0.000018   0.000035
    23  H   -0.038814  -0.007199  -0.013325  -0.003558   0.000029   0.000066
    24  H    0.432589  -0.044390  -0.056164  -0.001065  -0.000275   0.000007
    25  H   -0.041127   0.401177   0.010250  -0.001099   0.000021   0.000000
    26  H   -0.031741   0.406977  -0.012242  -0.000343  -0.000021   0.000000
    27  H   -0.046345   0.403210  -0.003273  -0.000255  -0.000023  -0.000000
    28  H   -0.016683  -0.005046   0.380691  -0.047112  -0.001223  -0.000001
    29  H   -0.034101  -0.005534   0.401018  -0.038270   0.007841   0.000007
    30  H    0.003890  -0.000758  -0.068281   0.455427  -0.057713   0.000079
    31  H    0.001547  -0.000067   0.002496  -0.054036   0.297938   0.000002
              13         14         15         16         17         18
     1  C    0.403550   0.393881  -0.054143   0.012179  -0.001983  -0.007887
     2  C   -0.043928  -0.046935   0.462534  -0.044201  -0.040575  -0.032412
     3  C   -0.004226   0.015119  -0.049944   0.402344   0.395595   0.400888
     4  C    0.015212   0.004068  -0.086515  -0.006066   0.014112  -0.012881
     5  C    0.000004  -0.005274   0.015440  -0.001998   0.000280   0.006697
     6  C    0.000009   0.000031  -0.000843   0.000091   0.000062  -0.001005
     7  C    0.000003  -0.000013  -0.000437  -0.000086  -0.000014   0.000246
     8  C    0.000000  -0.000001   0.000003   0.000006   0.000000  -0.000003
     9  C    0.000050  -0.000082   0.000621   0.000279   0.000029  -0.000145
    10  C   -0.000853   0.000148  -0.007223   0.004658   0.000229  -0.005469
    11  O    0.000009   0.000023   0.020055   0.001375  -0.000122   0.000269
    12  H   -0.028105  -0.026784   0.008134  -0.000197  -0.000208   0.005242
    13  H    0.537681  -0.022576  -0.004321  -0.000089   0.002987  -0.000009
    14  H   -0.022576   0.549752  -0.004542  -0.000488  -0.000142  -0.000329
    15  H   -0.004321  -0.004542   0.551824  -0.003433  -0.004246   0.007830
    16  H   -0.000089  -0.000488  -0.003433   0.539144  -0.024576  -0.024345
    17  H    0.002987  -0.000142  -0.004246  -0.024576   0.543896  -0.027907
    18  H   -0.000009  -0.000329   0.007830  -0.024345  -0.027907   0.557028
    19  H   -0.000042   0.005903  -0.002642  -0.000443  -0.000248  -0.000384
    20  H    0.000030  -0.000169  -0.000135   0.000019  -0.000032  -0.000000
    21  H   -0.000053   0.000299  -0.000455   0.000055   0.000005  -0.000668
    22  H   -0.000001   0.000005   0.000029  -0.000005  -0.000002   0.000043
    23  H   -0.000004   0.000042  -0.000028  -0.000000   0.000001  -0.000006
    24  H   -0.000000  -0.000001   0.000016  -0.000012   0.000003  -0.000030
    25  H   -0.000000   0.000000  -0.000000  -0.000000  -0.000000  -0.000000
    26  H   -0.000000  -0.000000   0.000000   0.000000   0.000000   0.000000
    27  H   -0.000000   0.000000   0.000000  -0.000000  -0.000000   0.000000
    28  H   -0.000001  -0.000000  -0.000127   0.000046  -0.000002   0.000000
    29  H   -0.000001   0.000010   0.000224  -0.000042   0.000001  -0.000005
    30  H   -0.000006   0.000015   0.001693  -0.002751   0.000093  -0.000432
    31  H   -0.000003  -0.000005  -0.000965  -0.000025  -0.000005   0.000014
              19         20         21         22         23         24
     1  C   -0.014439   0.006606  -0.003168  -0.000068  -0.000152  -0.000003
     2  C   -0.058951  -0.005993  -0.009416  -0.000579  -0.000615  -0.000515
     3  C    0.014122  -0.001866   0.007618   0.000047   0.000069   0.000058
     4  C    0.390173  -0.039551  -0.044339   0.009051  -0.003506  -0.011320
     5  C   -0.048004   0.405962   0.405017  -0.030235  -0.050954   0.000404
     6  C    0.002694  -0.031454  -0.037952   0.385341   0.415705  -0.057422
     7  C    0.000022   0.011360  -0.007350  -0.037194  -0.038814   0.432589
     8  C   -0.000441  -0.000720  -0.000956  -0.002449  -0.007199  -0.044390
     9  C   -0.020652  -0.000359  -0.006542   0.014473  -0.013325  -0.056164
    10  C   -0.012220   0.009439  -0.005792   0.000915  -0.003558  -0.001065
    11  O    0.007367  -0.000214  -0.000219   0.000018   0.000029  -0.000275
    12  H    0.000351  -0.001137   0.000354   0.000035   0.000066   0.000007
    13  H   -0.000042   0.000030  -0.000053  -0.000001  -0.000004  -0.000000
    14  H    0.005903  -0.000169   0.000299   0.000005   0.000042  -0.000001
    15  H   -0.002642  -0.000135  -0.000455   0.000029  -0.000028   0.000016
    16  H   -0.000443   0.000019   0.000055  -0.000005  -0.000000  -0.000012
    17  H   -0.000248  -0.000032   0.000005  -0.000002   0.000001   0.000003
    18  H   -0.000384  -0.000000  -0.000668   0.000043  -0.000006  -0.000030
    19  H    0.567763  -0.004645   0.008394   0.000201   0.005745   0.000781
    20  H   -0.004645   0.531549  -0.021238  -0.003014  -0.004940  -0.000136
    21  H    0.008394  -0.021238   0.560314  -0.004750   0.009348   0.006681
    22  H    0.000201  -0.003014  -0.004750   0.552898  -0.025178  -0.003958
    23  H    0.005745  -0.004940   0.009348  -0.025178   0.568213   0.008953
    24  H    0.000781  -0.000136   0.006681  -0.003958   0.008953   0.573421
    25  H    0.000032  -0.000036   0.000151   0.004140  -0.000040  -0.005258
    26  H   -0.000032   0.000009   0.000022  -0.000173   0.006370   0.008951
    27  H    0.000002   0.000028   0.000005  -0.000128  -0.000287  -0.005367
    28  H   -0.000650   0.000083   0.000024  -0.000578   0.000028  -0.004379
    29  H    0.009560  -0.000151   0.000489   0.000106   0.005695   0.009247
    30  H    0.011409  -0.000420   0.005186   0.000317   0.000273   0.008191
    31  H   -0.000751   0.000033   0.000020  -0.000009   0.000018  -0.000004
              25         26         27         28         29         30
     1  C    0.000000   0.000000   0.000000   0.000063  -0.000082  -0.000927
     2  C   -0.000016  -0.000007  -0.000010  -0.000452  -0.001894  -0.026577
     3  C    0.000001  -0.000000   0.000000  -0.000002   0.000107   0.009833
     4  C    0.000383   0.000020   0.000148   0.023051  -0.030854  -0.098468
     5  C   -0.000772  -0.000079  -0.001128  -0.002349   0.002761   0.000234
     6  C   -0.003611  -0.014562   0.014967   0.011941  -0.010401   0.001296
     7  C   -0.041127  -0.031741  -0.046345  -0.016683  -0.034101   0.003890
     8  C    0.401177   0.406977   0.403210  -0.005046  -0.005534  -0.000758
     9  C    0.010250  -0.012242  -0.003273   0.380691   0.401018  -0.068281
    10  C   -0.001099  -0.000343  -0.000255  -0.047112  -0.038270   0.455427
    11  O    0.000021  -0.000021  -0.000023  -0.001223   0.007841  -0.057713
    12  H    0.000000   0.000000  -0.000000  -0.000001   0.000007   0.000079
    13  H   -0.000000  -0.000000  -0.000000  -0.000001  -0.000001  -0.000006
    14  H    0.000000  -0.000000   0.000000  -0.000000   0.000010   0.000015
    15  H   -0.000000   0.000000   0.000000  -0.000127   0.000224   0.001693
    16  H   -0.000000   0.000000  -0.000000   0.000046  -0.000042  -0.002751
    17  H   -0.000000   0.000000  -0.000000  -0.000002   0.000001   0.000093
    18  H   -0.000000   0.000000   0.000000   0.000000  -0.000005  -0.000432
    19  H    0.000032  -0.000032   0.000002  -0.000650   0.009560   0.011409
    20  H   -0.000036   0.000009   0.000028   0.000083  -0.000151  -0.000420
    21  H    0.000151   0.000022   0.000005   0.000024   0.000489   0.005186
    22  H    0.004140  -0.000173  -0.000128  -0.000578   0.000106   0.000317
    23  H   -0.000040   0.006370  -0.000287   0.000028   0.005695   0.000273
    24  H   -0.005258   0.008951  -0.005367  -0.004379   0.009247   0.008191
    25  H    0.549981  -0.028445  -0.024519   0.000019  -0.000128   0.000066
    26  H   -0.028445   0.558844  -0.027245  -0.000083   0.005407  -0.000012
    27  H   -0.024519  -0.027245   0.547206   0.004398  -0.000407   0.000043
    28  H    0.000019  -0.000083   0.004398   0.557847  -0.033501  -0.011678
    29  H   -0.000128   0.005407  -0.000407  -0.033501   0.574011   0.013280
    30  H    0.000066  -0.000012   0.000043  -0.011678   0.013280   0.613071
    31  H    0.000001   0.000003   0.000010   0.008389  -0.002896  -0.012455
              31
     1  C    0.000101
     2  C    0.000310
     3  C   -0.000061
     4  C    0.024145
     5  C   -0.001552
     6  C   -0.000069
     7  C    0.001547
     8  C   -0.000067
     9  C    0.002496
    10  C   -0.054036
    11  O    0.297938
    12  H    0.000002
    13  H   -0.000003
    14  H   -0.000005
    15  H   -0.000965
    16  H   -0.000025
    17  H   -0.000005
    18  H    0.000014
    19  H   -0.000751
    20  H    0.000033
    21  H    0.000020
    22  H   -0.000009
    23  H    0.000018
    24  H   -0.000004
    25  H    0.000001
    26  H    0.000003
    27  H    0.000010
    28  H    0.008389
    29  H   -0.002896
    30  H   -0.012455
    31  H    0.452110
 Mulliken charges:
               1
     1  C   -0.432674
     2  C   -0.069800
     3  C   -0.469568
     4  C   -0.081420
     5  C   -0.311560
     6  C   -0.258325
     7  C   -0.150237
     8  C   -0.400634
     9  C   -0.281874
    10  C   -0.129903
    11  O   -0.366756
    12  H    0.137839
    13  H    0.144683
    14  H    0.138047
    15  H    0.151594
    16  H    0.148562
    17  H    0.142770
    18  H    0.135660
    19  H    0.140022
    20  H    0.151092
    21  H    0.138916
    22  H    0.140703
    23  H    0.128051
    24  H    0.140998
    25  H    0.138826
    26  H    0.128382
    27  H    0.138968
    28  H    0.137285
    29  H    0.128503
    30  H    0.156083
    31  H    0.285767
 Sum of Mulliken charges =  -0.00000
 Mulliken charges with hydrogens summed into heavy atoms:
               1
     1  C   -0.012105
     2  C    0.081794
     3  C   -0.042576
     4  C    0.058603
     5  C   -0.021551
     6  C    0.010428
     7  C   -0.009239
     8  C    0.005542
     9  C   -0.016086
    10  C    0.026180
    11  O   -0.080989
 Electronic spatial extent (au):  <R**2>=           2285.7040
 Charge=              0.0000 electrons
 Dipole moment (field-independent basis, Debye):
    X=              1.4357    Y=             -0.2278    Z=              1.4609  Tot=              2.0610
 Quadrupole moment (field-independent basis, Debye-Ang):
   XX=            -73.4515   YY=            -70.2904   ZZ=            -73.3680
   XY=              3.2513   XZ=              0.2337   YZ=              3.6090
 Traceless Quadrupole moment (field-independent basis, Debye-Ang):
   XX=             -1.0815   YY=              2.0795   ZZ=             -0.9980
   XY=              3.2513   XZ=              0.2337   YZ=              3.6090
 Octapole moment (field-independent basis, Debye-Ang**2):
  XXX=             -7.2810  YYY=             25.4027  ZZZ=             -2.6178  XYY=             11.5630
  XXY=              5.0534  XXZ=              1.4214  XZZ=              2.9727  YZZ=              0.4755
  YYZ=             10.5587  XYZ=             -0.8825
 Hexadecapole moment (field-independent basis, Debye-Ang**3):
 XXXX=          -2183.5625 YYYY=           -627.5213 ZZZZ=           -310.6157 XXXY=             -7.5036
 XXXZ=              7.2382 YYYX=             20.4314 YYYZ=             14.8864 ZZZX=              3.8824
 ZZZY=              0.0191 XXYY=           -487.0381 XXZZ=           -417.6625 YYZZ=           -176.3314
 XXYZ=             -2.9285 YYXZ=              0.8258 ZZXY=             -1.3860
 N-N= 6.788056485632D+02 E-N=-2.445805207673D+03  KE= 4.659335124816D+02
 No NMR shielding tensors so no spin-rotation constants.
 Leave Link  601 at Mon Feb 22 21:15:45 2021, MaxMem=   104857600 cpu:               5.2 elap:               0.2
 (Enter /sw/arch/RedHatEnterpriseServer7/EB_production/2019/software/Gaussian/g16.c01/l701.exe)
 ... and contract with generalized density number  0.
 Compute integral first derivatives.
 R6Disp: Adding Grimme-D3 dispersion energy 1st derivatives to the gradient.
 PrsmSu:  requested number of processors reduced to:  28 ShMem   1 Linda.
 D1PCM: PCM CHGder 1st derivatives, ID1Alg=3 FixD1E=F DoIter=F DoCFld=F I1PDM=0.
 GePol: Maximum number of non-zero 1st derivatives   =     207
 CoulSu:  requested number of processors reduced to:  28 ShMem   1 Linda.
 CoulSu:  requested number of processors reduced to:  29 ShMem   1 Linda.
 Leave Link  701 at Mon Feb 22 21:15:46 2021, MaxMem=   104857600 cpu:              37.5 elap:               1.4
 (Enter /sw/arch/RedHatEnterpriseServer7/EB_production/2019/software/Gaussian/g16.c01/l702.exe)
 L702 exits ... SP integral derivatives will be done elsewhere.
 Leave Link  702 at Mon Feb 22 21:15:46 2021, MaxMem=   104857600 cpu:               0.7 elap:               0.1
[...]
 Alpha virt. eigenvalues --    1.75285   1.75660   1.76591   1.77981   1.79703
 Alpha virt. eigenvalues --    1.80315   1.80912   1.81229   1.82546   1.84022
 Alpha virt. eigenvalues --    1.85356   1.85704   1.87906   1.89824   1.91225
 Alpha virt. eigenvalues --    1.92528   1.94789   1.95043   1.95841   1.97050
 Alpha virt. eigenvalues --    1.98588   1.99824   2.02289   2.04501   2.04860
 Alpha virt. eigenvalues --    2.06216   2.10014   2.10401   2.14676   2.15996
 Alpha virt. eigenvalues --    2.17340   2.17676   2.20658   2.21837   2.24032
 Alpha virt. eigenvalues --    2.25131   2.26338   2.27222   2.29172   2.30992
 Alpha virt. eigenvalues --    2.31843   2.32557   2.33701   2.36923   2.36975
 Alpha virt. eigenvalues --    2.38897   2.39636   2.41294   2.43302   2.44170
 Alpha virt. eigenvalues --    2.47543   2.49997   2.50514   2.51151   2.52917
 Alpha virt. eigenvalues --    2.54742   2.56527   2.56915   2.57635   2.58071
 Alpha virt. eigenvalues --    2.59038   2.59139   2.59761   2.61247   2.62009
 Alpha virt. eigenvalues --    2.62333   2.63228   2.64635   2.65283   2.65820
 Alpha virt. eigenvalues --    2.67491   2.68591   2.69606   2.71098   2.73729
 Alpha virt. eigenvalues --    2.76031   2.80947   2.82798   2.86657   2.88752
 Alpha virt. eigenvalues --    2.90330   2.91169   2.94608   2.97959   3.00620
 Alpha virt. eigenvalues --    3.02782   3.05405   3.06521   3.08556   3.09848
 Alpha virt. eigenvalues --    3.12855   3.17957   3.23018   3.24237   3.24998
 Alpha virt. eigenvalues --    3.26136   3.27823   3.28287   3.30312   3.31947
 Alpha virt. eigenvalues --    3.32285   3.34711   3.35494   3.36501   3.38188
 Alpha virt. eigenvalues --    3.39328   3.43217   3.43636   3.48013   3.48292
 Alpha virt. eigenvalues --    3.49841   3.52170   3.92758   4.18897  21.74432
 Alpha virt. eigenvalues --   21.80402  21.81450  21.82601  21.84100  21.86192
 Alpha virt. eigenvalues --   21.90481  21.94613  21.97088  22.00341  43.25009
          Condensed to atoms (all electrons):
               1          2          3          4          5          6
     1  C    5.182246   0.274316  -0.095267  -0.072562  -0.008630   0.000610
     2  C    0.274316   5.424532   0.204960   0.140889  -0.018355   0.013457
     3  C   -0.095267   0.204960   5.261229  -0.049588  -0.018055  -0.000641
     4  C   -0.072562   0.140889  -0.049588   6.120061   0.140086  -0.078489
     5  C   -0.008630  -0.018355  -0.018055   0.140086   5.371794   0.228374
     6  C    0.000610   0.013457  -0.000641  -0.078489   0.228374   5.302846
     7  C    0.000026  -0.000889  -0.000779   0.021434  -0.070810   0.276507
     8  C   -0.000018   0.000391   0.000009  -0.006375   0.022657  -0.074459
     9  C   -0.001616   0.023387  -0.001295  -0.026910  -0.010119  -0.098004
    10  C    0.020550  -0.107884   0.003098  -0.061712  -0.018781  -0.000352
    11  O   -0.000560  -0.018679   0.002712  -0.110023   0.012886  -0.001632
    12  H    0.408640  -0.021216  -0.014342  -0.029419   0.008861  -0.000559
    13  H    0.403321  -0.050534  -0.001524   0.017503   0.000012   0.000021
    14  H    0.395679  -0.051391   0.015645   0.004847  -0.003978   0.000087
    15  H   -0.046383   0.471662  -0.049116  -0.106644   0.016677  -0.000945
    16  H    0.012544  -0.048627   0.399718   0.003950  -0.005437   0.000171
    17  H   -0.001832  -0.042289   0.393389   0.015717   0.000593   0.000068
    18  H   -0.007806  -0.026081   0.402547  -0.020775   0.008813  -0.001024
    19  H   -0.017229  -0.066665   0.016075   0.391363  -0.051936   0.006338
    20  H    0.003995   0.001858  -0.004840  -0.046384   0.400616  -0.025132
    21  H   -0.001248  -0.019694   0.011659  -0.044221   0.408901  -0.035007
    22  H   -0.000103  -0.000531   0.000107   0.009792  -0.026140   0.379740
    23  H   -0.000009  -0.001355   0.000142  -0.001806  -0.056897   0.423209
    24  H   -0.000002  -0.000797   0.000078  -0.011586  -0.002657  -0.053068
    25  H    0.000000  -0.000013   0.000001   0.000397  -0.000527  -0.002557
    26  H    0.000001  -0.000020  -0.000000  -0.000025  -0.000054  -0.016209
    27  H    0.000000  -0.000009  -0.000000   0.000191  -0.001138   0.015461
    28  H    0.000085  -0.000423  -0.000034   0.024070  -0.002718   0.012819
    29  H   -0.000188  -0.002468   0.000133  -0.036032   0.001646  -0.009321
    30  H   -0.001469  -0.026458   0.009310  -0.108854  -0.004841   0.003705
    31  H    0.000098   0.001081  -0.000285   0.022420  -0.001579  -0.000027
               7          8          9         10         11         12
     1  C    0.000026  -0.000018  -0.001616   0.020550  -0.000560   0.408640
     2  C   -0.000889   0.000391   0.023387  -0.107884  -0.018679  -0.021216
     3  C   -0.000779   0.000009  -0.001295   0.003098   0.002712  -0.014342
     4  C    0.021434  -0.006375  -0.026910  -0.061712  -0.110023  -0.029419
     5  C   -0.070810   0.022657  -0.010119  -0.018781   0.012886   0.008861
     6  C    0.276507  -0.074459  -0.098004  -0.000352  -0.001632  -0.000559
     7  C    5.441804   0.234442   0.114883  -0.085425   0.022903   0.000091
     8  C    0.234442   5.128540  -0.050644   0.019610  -0.000490  -0.000003
     9  C    0.114883  -0.050644   5.556089   0.228638  -0.068099  -0.000132
    10  C   -0.085425   0.019610   0.228638   5.511049   0.290979  -0.000831
    11  O    0.022903  -0.000490  -0.068099   0.290979   7.992576  -0.000006
    12  H    0.000091  -0.000003  -0.000132  -0.000831  -0.000006   0.549536
    13  H    0.000003   0.000000   0.000071  -0.000928   0.000013  -0.027634
    14  H   -0.000023  -0.000001  -0.000098   0.000414   0.000025  -0.027391
    15  H   -0.000545   0.000006   0.000802  -0.008151   0.027600   0.007432
    16  H    0.000105   0.000005   0.000053   0.002217   0.000278  -0.000139
    17  H   -0.000022   0.000000   0.000060   0.000363  -0.000143  -0.000009
    18  H    0.000325  -0.000005  -0.000261  -0.005182   0.000230   0.005856
    19  H    0.000300  -0.000495  -0.026287  -0.001932   0.008493   0.000449
    20  H    0.011251  -0.000709  -0.001375   0.010792  -0.000241   0.000721
    21  H   -0.008007  -0.000709  -0.006589  -0.004327  -0.000284   0.000358
    22  H   -0.035269  -0.003284   0.014845   0.000634   0.000029   0.000035
    23  H   -0.045086  -0.005906  -0.012976  -0.004261  -0.000073   0.000079
    24  H    0.420020  -0.035833  -0.054955  -0.000941  -0.000320   0.000007
    25  H   -0.041678   0.397869   0.011449  -0.001011   0.000020   0.000000
    26  H   -0.032995   0.410600  -0.013872  -0.000636  -0.000021   0.000000
    27  H   -0.046527   0.401207  -0.002306  -0.000056  -0.000022  -0.000000
    28  H   -0.015714  -0.005898   0.380792  -0.047420  -0.002014  -0.000001
    29  H   -0.039927  -0.005024   0.405829  -0.040984   0.007832   0.000015
    30  H    0.000788  -0.000595  -0.065741   0.470054  -0.055003   0.000106
    31  H    0.001661  -0.000091   0.001432  -0.052716   0.302311   0.000003
              13         14         15         16         17         18
     1  C    0.403321   0.395679  -0.046383   0.012544  -0.001832  -0.007806
     2  C   -0.050534  -0.051391   0.471662  -0.048627  -0.042289  -0.026081
     3  C   -0.001524   0.015645  -0.049116   0.399718   0.393389   0.402547
     4  C    0.017503   0.004847  -0.106644   0.003950   0.015717  -0.020775
     5  C    0.000012  -0.003978   0.016677  -0.005437   0.000593   0.008813
     6  C    0.000021   0.000087  -0.000945   0.000171   0.000068  -0.001024
     7  C    0.000003  -0.000023  -0.000545   0.000105  -0.000022   0.000325
     8  C    0.000000  -0.000001   0.000006   0.000005   0.000000  -0.000005
     9  C    0.000071  -0.000098   0.000802   0.000053   0.000060  -0.000261
    10  C   -0.000928   0.000414  -0.008151   0.002217   0.000363  -0.005182
    11  O    0.000013   0.000025   0.027600   0.000278  -0.000143   0.000230
    12  H   -0.027634  -0.027391   0.007432  -0.000139  -0.000009   0.005856
    13  H    0.535866  -0.021986  -0.004118  -0.000126   0.002574  -0.000152
    14  H   -0.021986   0.545988  -0.004334  -0.000481  -0.000228  -0.000250
    15  H   -0.004118  -0.004334   0.546331  -0.003266  -0.004767   0.007296
    16  H   -0.000126  -0.000481  -0.003266   0.535811  -0.022166  -0.025718
    17  H    0.002574  -0.000228  -0.004767  -0.022166   0.538840  -0.027113
    18  H   -0.000152  -0.000250   0.007296  -0.025718  -0.027113   0.549679
    19  H    0.000071   0.006525  -0.002776  -0.000341  -0.000249  -0.000543
    20  H   -0.000029  -0.000101  -0.000051   0.000146  -0.000043  -0.000106
    21  H   -0.000049   0.000161  -0.000583   0.000187   0.000121  -0.003236
    22  H   -0.000001   0.000009   0.000029  -0.000009  -0.000002   0.000037
    23  H   -0.000007   0.000032  -0.000039  -0.000004   0.000001  -0.000016
    24  H   -0.000001  -0.000001   0.000023  -0.000021   0.000003  -0.000040
    25  H   -0.000000   0.000000  -0.000001  -0.000000  -0.000000  -0.000000
    26  H   -0.000000  -0.000000   0.000001   0.000000   0.000000   0.000000
    27  H   -0.000000   0.000000   0.000000  -0.000000  -0.000000   0.000000
    28  H   -0.000001   0.000000  -0.000160   0.000068  -0.000002   0.000002
    29  H   -0.000001   0.000020   0.000327  -0.000051   0.000002  -0.000007
    30  H    0.000001   0.000024   0.001794  -0.000823   0.000059  -0.000493
    31  H   -0.000003  -0.000007  -0.001197  -0.000048  -0.000002   0.000019
              19         20         21         22         23         24
     1  C   -0.017229   0.003995  -0.001248  -0.000103  -0.000009  -0.000002
     2  C   -0.066665   0.001858  -0.019694  -0.000531  -0.001355  -0.000797
     3  C    0.016075  -0.004840   0.011659   0.000107   0.000142   0.000078
     4  C    0.391363  -0.046384  -0.044221   0.009792  -0.001806  -0.011586
     5  C   -0.051936   0.400616   0.408901  -0.026140  -0.056897  -0.002657
     6  C    0.006338  -0.025132  -0.035007   0.379740   0.423209  -0.053068
     7  C    0.000300   0.011251  -0.008007  -0.035269  -0.045086   0.420020
     8  C   -0.000495  -0.000709  -0.000709  -0.003284  -0.005906  -0.035833
     9  C   -0.026287  -0.001375  -0.006589   0.014845  -0.012976  -0.054955
    10  C   -0.001932   0.010792  -0.004327   0.000634  -0.004261  -0.000941
    11  O    0.008493  -0.000241  -0.000284   0.000029  -0.000073  -0.000320
    12  H    0.000449   0.000721   0.000358   0.000035   0.000079   0.000007
    13  H    0.000071  -0.000029  -0.000049  -0.000001  -0.000007  -0.000001
    14  H    0.006525  -0.000101   0.000161   0.000009   0.000032  -0.000001
    15  H   -0.002776  -0.000051  -0.000583   0.000029  -0.000039   0.000023
    16  H   -0.000341   0.000146   0.000187  -0.000009  -0.000004  -0.000021
    17  H   -0.000249  -0.000043   0.000121  -0.000002   0.000001   0.000003
    18  H   -0.000543  -0.000106  -0.003236   0.000037  -0.000016  -0.000040
    19  H    0.560095  -0.003791   0.007771   0.000449   0.004995   0.000723
    20  H   -0.003791   0.526871  -0.020665  -0.003531  -0.004614  -0.000175
    21  H    0.007771  -0.020665   0.548200  -0.004038   0.008991   0.007204
    22  H    0.000449  -0.003531  -0.004038   0.550799  -0.026533  -0.004534
    23  H    0.004995  -0.004614   0.008991  -0.026533   0.572299   0.009500
    24  H    0.000723  -0.000175   0.007204  -0.004534   0.009500   0.573545
    25  H    0.000043  -0.000028   0.000108   0.004306  -0.000337  -0.005338
    26  H   -0.000071   0.000003   0.000018  -0.000117   0.007218   0.008625
    27  H    0.000006   0.000026   0.000007  -0.000165  -0.000296  -0.005449
    28  H   -0.000627   0.000094   0.000022  -0.000566  -0.000030  -0.004818
    29  H    0.011903  -0.000146   0.000588   0.000103   0.006053   0.009671
    30  H    0.011885  -0.000389   0.006358   0.000364   0.000161   0.008164
    31  H   -0.000550   0.000033   0.000014  -0.000009   0.000016  -0.000012
              25         26         27         28         29         30
     1  C    0.000000   0.000001   0.000000   0.000085  -0.000188  -0.001469
     2  C   -0.000013  -0.000020  -0.000009  -0.000423  -0.002468  -0.026458
     3  C    0.000001  -0.000000  -0.000000  -0.000034   0.000133   0.009310
     4  C    0.000397  -0.000025   0.000191   0.024070  -0.036032  -0.108854
     5  C   -0.000527  -0.000054  -0.001138  -0.002718   0.001646  -0.004841
     6  C   -0.002557  -0.016209   0.015461   0.012819  -0.009321   0.003705
     7  C   -0.041678  -0.032995  -0.046527  -0.015714  -0.039927   0.000788
     8  C    0.397869   0.410600   0.401207  -0.005898  -0.005024  -0.000595
     9  C    0.011449  -0.013872  -0.002306   0.380792   0.405829  -0.065741
    10  C   -0.001011  -0.000636  -0.000056  -0.047420  -0.040984   0.470054
    11  O    0.000020  -0.000021  -0.000022  -0.002014   0.007832  -0.055003
    12  H    0.000000   0.000000  -0.000000  -0.000001   0.000015   0.000106
    13  H   -0.000000  -0.000000  -0.000000  -0.000001  -0.000001   0.000001
    14  H    0.000000  -0.000000   0.000000   0.000000   0.000020   0.000024
    15  H   -0.000001   0.000001   0.000000  -0.000160   0.000327   0.001794
    16  H   -0.000000   0.000000  -0.000000   0.000068  -0.000051  -0.000823
    17  H   -0.000000   0.000000  -0.000000  -0.000002   0.000002   0.000059
    18  H   -0.000000   0.000000   0.000000   0.000002  -0.000007  -0.000493
    19  H    0.000043  -0.000071   0.000006  -0.000627   0.011903   0.011885
    20  H   -0.000028   0.000003   0.000026   0.000094  -0.000146  -0.000389
    21  H    0.000108   0.000018   0.000007   0.000022   0.000588   0.006358
    22  H    0.004306  -0.000117  -0.000165  -0.000566   0.000103   0.000364
    23  H   -0.000337   0.007218  -0.000296  -0.000030   0.006053   0.000161
    24  H   -0.005338   0.008625  -0.005449  -0.004818   0.009671   0.008164
    25  H    0.545239  -0.028500  -0.023031  -0.000001  -0.000085   0.000060
    26  H   -0.028500   0.555477  -0.028025   0.000080   0.005744  -0.000027
    27  H   -0.023031  -0.028025   0.542402   0.004582  -0.000557   0.000045
    28  H   -0.000001   0.000080   0.004582   0.547391  -0.032842  -0.010395
    29  H   -0.000085   0.005744  -0.000557  -0.032842   0.577698   0.013439
    30  H    0.000060  -0.000027   0.000045  -0.010395   0.013439   0.601250
    31  H    0.000002   0.000002   0.000009   0.007457  -0.002418  -0.007061
              31
     1  C    0.000098
     2  C    0.001081
     3  C   -0.000285
     4  C    0.022420
     5  C   -0.001579
     6  C   -0.000027
     7  C    0.001661
     8  C   -0.000091
     9  C    0.001432
    10  C   -0.052716
    11  O    0.302311
    12  H    0.000003
    13  H   -0.000003
    14  H   -0.000007
    15  H   -0.001197
    16  H   -0.000048
    17  H   -0.000002
    18  H    0.000019
    19  H   -0.000550
    20  H    0.000033
    21  H    0.000014
    22  H   -0.000009
    23  H    0.000016
    24  H   -0.000012
    25  H    0.000002
    26  H    0.000002
    27  H    0.000009
    28  H    0.007457
    29  H   -0.002418
    30  H   -0.007061
    31  H    0.425690
 Mulliken charges:
               1
     1  C   -0.447190
     2  C   -0.052157
     3  C   -0.485045
     4  C   -0.101315
     5  C   -0.319265
     6  C   -0.265988
     7  C   -0.122847
     8  C   -0.424797
     9  C   -0.297052
    10  C   -0.114869
    11  O   -0.411278
    12  H    0.139492
    13  H    0.147635
    14  H    0.140817
    15  H    0.153094
    16  H    0.152005
    17  H    0.147078
    18  H    0.144004
    19  H    0.146010
    20  H    0.155947
    21  H    0.147987
    22  H    0.143552
    23  H    0.127549
    24  H    0.142982
    25  H    0.143614
    26  H    0.132802
    27  H    0.143645
    28  H    0.146201
    29  H    0.129051
    30  H    0.154581
    31  H    0.303758
 Sum of Mulliken charges =  -0.00000
 Mulliken charges with hydrogens summed into heavy atoms:
               1
     1  C   -0.019246
     2  C    0.100937
     3  C   -0.041959
     4  C    0.044696
     5  C   -0.015331
     6  C    0.005113
     7  C    0.020135
     8  C   -0.004737
     9  C   -0.021801
    10  C    0.039712
    11  O   -0.107520
 Electronic spatial extent (au):  <R**2>=           2223.9986
 Charge=             -0.0000 electrons
 Dipole moment (field-independent basis, Debye):
    X=              1.7935    Y=             -0.1967    Z=              1.4112  Tot=              2.2906
 Quadrupole moment (field-independent basis, Debye-Ang):
   XX=            -74.0143   YY=            -69.9971   ZZ=            -73.3965
   XY=              3.9172   XZ=              0.0820   YZ=              2.9933
 Traceless Quadrupole moment (field-independent basis, Debye-Ang):
   XX=             -1.5450   YY=              2.4722   ZZ=             -0.9272
   XY=              3.9172   XZ=              0.0820   YZ=              2.9933
 Octapole moment (field-independent basis, Debye-Ang**2):
  XXX=             -3.9490  YYY=             27.4085  ZZZ=             -1.8271  XYY=             12.1219
  XXY=              3.9126  XXZ=              1.8575  XZZ=              2.9637  YZZ=              1.2846
  YYZ=              8.7827  XYZ=             -0.9266
 Hexadecapole moment (field-independent basis, Debye-Ang**3):
 XXXX=          -2121.7540 YYYY=           -596.9168 ZZZZ=           -313.8274 XXXY=             -7.3234
 XXXZ=              7.8611 YYYX=             23.2095 YYYZ=              9.2500 ZZZX=              2.9980
 ZZZY=              0.4782 XXYY=           -471.8969 XXZZ=           -411.0872 YYZZ=           -173.6029
 XXYZ=             -2.6944 YYXZ=              0.7203 ZZXY=             -1.8068
 N-N= 6.864739395420D+02 E-N=-2.461127325280D+03  KE= 4.659786635833D+02
 Unable to Open any file for archive entry.
 1\1\GINC-TCN1789\SP\RBP86\TZVP\C10H20O1\ELENAA\22-Feb-2021\0\\# BP86/T
 ZVP SCRF=COSMORS geom=CHECKPOINT guess=CHECKPOINT\\COSMO-file for #NOO
 LISFMXDJSKH-KXUCPTDWSA-N\\0,1\C,0,2.9612908603,1.7862796022,-1.8527919
 694\C,0,2.7174698116,0.4626302402,-1.1088065619\C,0,3.7534163549,0.277
 0654647,0.0123750413\C,0,1.2465948682,0.3448784028,-0.623226533\C,0,0.
 8653909304,1.3600590873,0.4737461526\C,0,-0.617366948,1.2663564502,0.8
 603799407\C,0,-0.9948277706,-0.149184258,1.3273580221\C,0,-2.482435208
 ,-0.2595118945,1.6816008978\C,0,-0.597902238,-1.1664328047,0.243669079
 4\C,0,0.8825292061,-1.0686027615,-0.1446410673\O,0,1.1975372008,-1.998
 8347535,-1.2118280975\H,0,2.89961306,2.6511586674,-1.1728194965\H,0,3.
 9645112646,1.7980674512,-2.3072298643\H,0,2.2229261121,1.9361320771,-2
 .6568447463\H,0,2.8622191623,-0.3556399435,-1.8336626326\H,0,3.6105682
 611,-0.6698546167,0.554976286\H,0,4.7723621929,0.2700816889,-0.4054410
 994\H,0,3.7038543836,1.0977904713,0.745518714\H,0,0.60348831,0.5449702
 925,-1.5032978915\H,0,1.101897653,2.3804322608,0.1347945439\H,0,1.4807
 558236,1.1776007882,1.3722824322\H,0,-0.851592251,1.997650136,1.652358
 6124\H,0,-1.2440400562,1.5311040511,-0.0120633914\H,0,-0.4023564688,-0
 .3722100171,2.2357772338\H,0,-2.7576001637,0.4572025277,2.471461972\H,
 0,-3.107207633,-0.0443930129,0.7985911957\H,0,-2.7369209584,-1.2709274
 801,2.0358979744\H,0,-0.8191682917,-2.1923981595,0.5881615502\H,0,-1.2
 047415964,-0.9914857715,-0.6639694576\H,0,1.4982306151,-1.313038468,0.
 7451060669\H,0,0.9393135131,-2.886285718,-0.9033629067\\Version=ES64L-
 G16RevC.01\State=1-A\HF=-468.4973796\RMSD=1.972e-09\Dipole=-0.3698,-0.
 1678425,0.8044838\Quadrupole=-1.308166,3.5364948,-2.2283288,1.1549371,
 0.7292639,-2.1370816\PG=C01 [X(C10H20O1)]\\@
 The archive entry for this job was punched.


 I do not feel obliged to believe that the same God who
 has endowed us with sense, reason, and intellect has
 intended us to forgo their use.
                   --Galileo Galilei
 Job cpu time:       0 days  0 hours 11 minutes  5.2 seconds.
 Elapsed time:       0 days  0 hours  0 minutes 21.5 seconds.
 File lengths (MBytes):  RWF=     87 Int=      0 D2E=      0 Chk=     12 Scr=      1
 Normal termination of Gaussian 16 at Mon Feb 22 21:20:20 2021.
