 Entering Gaussian System, Link 0=g16
 Input=NRKYWOKHZRQRJR-UHFFFAOYSA-N.gjf
 Output=NRKYWOKHZRQRJR-UHFFFAOYSA-N.log
 Initial command:
 /sw/arch/RedHatEnterpriseServer7/EB_production/2019/software/Gaussian/g16.c01/l1.exe "/scratch-local/elenaa.9715247/Gau-25324.inp" -scrdir="/scratch-local/elenaa.9715247/"
 Entering Link 1 = /sw/arch/RedHatEnterpriseServer7/EB_production/2019/software/Gaussian/g16.c01/l1.exe PID=     25326.
  
 Copyright (c) 1988-2019, Gaussian, Inc.  All Rights Reserved.
  
 This is part of the Gaussian(R) 16 program.  It is based on
 the Gaussian(R) 09 system (copyright 2009, Gaussian, Inc.),
 the Gaussian(R) 03 system (copyright 2003, Gaussian, Inc.),
 the Gaussian(R) 98 system (copyright 1998, Gaussian, Inc.),
 the Gaussian(R) 94 system (copyright 1995, Gaussian, Inc.),
 the Gaussian 92(TM) system (copyright 1992, Gaussian, Inc.),
 the Gaussian 90(TM) system (copyright 1990, Gaussian, Inc.),
 the Gaussian 88(TM) system (copyright 1988, Gaussian, Inc.),
 the Gaussian 86(TM) system (copyright 1986, Carnegie Mellon
 University), and the Gaussian 82(TM) system (copyright 1983,
 Carnegie Mellon University). Gaussian is a federally registered
 trademark of Gaussian, Inc.
  
 This software contains proprietary and confidential information,
 including trade secrets, belonging to Gaussian, Inc.
  
 This software is provided under written license and may be
 used, copied, transmitted, or stored only in accord with that
 written license.
  
 The following legend is applicable only to US Government
 contracts under FAR:
  
                    RESTRICTED RIGHTS LEGEND
  
 Use, reproduction and disclosure by the US Government is
 subject to restrictions as set forth in subparagraphs (a)
 and (c) of the Commercial Computer Software - Restricted
 Rights clause in FAR 52.227-19.
  
 Gaussian, Inc.
 340 Quinnipiac St., Bldg. 40, Wallingford CT 06492
  
  
 ---------------------------------------------------------------
 Warning -- This program may not be used in any manner that
 competes with the business of Gaussian, Inc. or will provide
 assistance to any competitor of Gaussian, Inc.  The licensee
 of this program is prohibited from giving any competitor of
 Gaussian, Inc. access to this program.  By using this program,
 the user acknowledges that Gaussian, Inc. is engaged in the
 business of creating and licensing software in the field of
 computational chemistry and represents and warrants to the
 licensee that it is not a competitor of Gaussian, Inc. and that
 it will not use this program in any manner prohibited above.
 ---------------------------------------------------------------
  

 Cite this work as:
 Gaussian 16, Revision C.01,
 M. J. Frisch, G. W. Trucks, H. B. Schlegel, G. E. Scuseria, 
 M. A. Robb, J. R. Cheeseman, G. Scalmani, V. Barone, 
 G. A. Petersson, H. Nakatsuji, X. Li, M. Caricato, A. V. Marenich, 
 J. Bloino, B. G. Janesko, R. Gomperts, B. Mennucci, H. P. Hratchian, 
 J. V. Ortiz, A. F. Izmaylov, J. L. Sonnenberg, D. Williams-Young, 
 F. Ding, F. Lipparini, F. Egidi, J. Goings, B. Peng, A. Petrone, 
 T. Henderson, D. Ranasinghe, V. G. Zakrzewski, J. Gao, N. Rega, 
 G. Zheng, W. Liang, M. Hada, M. Ehara, K. Toyota, R. Fukuda, 
 J. Hasegawa, M. Ishida, T. Nakajima, Y. Honda, O. Kitao, H. Nakai, 
 T. Vreven, K. Throssell, J. A. Montgomery, Jr., J. E. Peralta, 
 F. Ogliaro, M. J. Bearpark, J. J. Heyd, E. N. Brothers, K. N. Kudin, 
 V. N. Staroverov, T. A. Keith, R. Kobayashi, J. Normand, 
 K. Raghavachari, A. P. Rendell, J. C. Burant, S. S. Iyengar, 
 J. Tomasi, M. Cossi, J. M. Millam, M. Klene, C. Adamo, R. Cammi, 
 J. W. Ochterski, R. L. Martin, K. Morokuma, O. Farkas, 
 J. B. Foresman, and D. J. Fox, Gaussian, Inc., Wallingford CT, 2019.
 
 ******************************************
 Gaussian 16:  ES64L-G16RevC.01  3-Jul-2019
                22-Feb-2021 
 ******************************************
 %chk=NRKYWOKHZRQRJR-UHFFFAOYSA-N.chk
 %NProcShared=32
 Will use up to   32 processors via shared memory.
 -------------------------------------------------------------
 #P BP86/TZVP EmpiricalDispersion=GD3 SCRF=(Solvent=Water) Opt
 -------------------------------------------------------------
 1/18=20,19=15,26=3,38=1/1,3;
 2/9=110,12=2,17=6,18=5,40=1/2;
 3/5=19,7=101,11=2,25=1,30=1,70=2201,71=1,72=1,74=404,124=31/1,2,3;
 4//1;
 5/5=2,38=5,53=1/2;
 6/7=2,8=2,9=2,10=2,28=1/1;
 7//1,2,3,16;
 1/18=20,19=15,26=3/3(2);
 2/9=110/2;
 99//99;
 2/9=110/2;
 3/5=19,7=101,11=2,25=1,30=1,70=2205,71=1,72=1,74=404,124=31/1,2,3;
 4/5=5,16=3,69=1/1;
 5/5=2,38=5,53=1/2;
 7//1,2,3,16;
 1/18=20,19=15,26=3/3(-5);
 2/9=110/2;
 6/7=2,8=2,9=2,10=2,19=2,28=1/1;
 99/9=1/99;
 Leave Link    1 at Mon Feb 22 21:15:31 2021, MaxMem=           0 cpu:               1.7 elap:               0.1
 (Enter /sw/arch/RedHatEnterpriseServer7/EB_production/2019/software/Gaussian/g16.c01/l101.exe)
 -------------------------------------
 Particle #NRKYWOKHZRQRJR-UHFFFAOYSA-N
 -------------------------------------
 Symbolic Z-matrix:
 Charge =  0 Multiplicity = 1
 N                    -0.27761  -0.23297  -1.18661 
 C                     0.10567   0.44042  -0.08635 
 O                    -0.78396   0.99741   0.59753 
 C                     1.53078   0.5139    0.29402 
 F                     1.72576   1.248     1.44156 
 F                     2.02569  -0.74939   0.5076 
 F                     2.25231   1.11066  -0.71115 
 H                     0.38257  -0.68221  -1.73734 
 H                    -1.21697  -0.26928  -1.4308 
 
 ITRead=  0  0  0  0  0  0  0  0  0
 MicOpt= -1 -1 -1 -1 -1 -1 -1 -1 -1
 NAtoms=      9 NQM=        9 NQMF=       0 NMMI=      0 NMMIF=      0
                NMic=       0 NMicF=      0.
                    Isotopes and Nuclear Properties:
 (Nuclear quadrupole moments (NQMom) in fm**2, nuclear magnetic moments (NMagM)
  in nuclear magnetons)

  Atom         1           2           3           4           5           6           7           8           9
 IAtWgt=          14          12          16          12          19          19          19           1           1
 AtmWgt=  14.0030740  12.0000000  15.9949146  12.0000000  18.9984032  18.9984032  18.9984032   1.0078250   1.0078250
 NucSpn=           2           0           0           0           1           1           1           1           1
 AtZEff=  -0.0000000  -0.0000000  -0.0000000  -0.0000000  -0.0000000  -0.0000000  -0.0000000  -0.0000000  -0.0000000
 NQMom=    2.0440000   0.0000000   0.0000000   0.0000000   0.0000000   0.0000000   0.0000000   0.0000000   0.0000000
 NMagM=    0.4037610   0.0000000   0.0000000   0.0000000   2.6288670   2.6288670   2.6288670   2.7928460   2.7928460
 AtZNuc=   7.0000000   6.0000000   8.0000000   6.0000000   9.0000000   9.0000000   9.0000000   1.0000000   1.0000000
 Leave Link  101 at Mon Feb 22 21:15:31 2021, MaxMem=   104857600 cpu:               2.7 elap:               0.1
 (Enter /sw/arch/RedHatEnterpriseServer7/EB_production/2019/software/Gaussian/g16.c01/l103.exe)

 GradGradGradGradGradGradGradGradGradGradGradGradGradGradGradGradGradGrad
 Berny optimization.
 Initialization pass.
                           ----------------------------
                           !    Initial Parameters    !
                           ! (Angstroms and Degrees)  !
 --------------------------                            --------------------------
 ! Name  Definition              Value          Derivative Info.                !
 --------------------------------------------------------------------------------
 ! R1    R(1,2)                  1.3457         estimate D2E/DX2                !
 ! R2    R(1,8)                  0.97           estimate D2E/DX2                !
 ! R3    R(1,9)                  0.9713         estimate D2E/DX2                !
 ! R4    R(2,3)                  1.2527         estimate D2E/DX2                !
 ! R5    R(2,4)                  1.4768         estimate D2E/DX2                !
 ! R6    R(4,5)                  1.3761         estimate D2E/DX2                !
 ! R7    R(4,6)                  1.3735         estimate D2E/DX2                !
 ! R8    R(4,7)                  1.3737         estimate D2E/DX2                !
 ! A1    A(2,1,8)              120.1389         estimate D2E/DX2                !
 ! A2    A(2,1,9)              119.9821         estimate D2E/DX2                !
 ! A3    A(8,1,9)              119.8791         estimate D2E/DX2                !
 ! A4    A(1,2,3)              117.8112         estimate D2E/DX2                !
 ! A5    A(1,2,4)              120.6853         estimate D2E/DX2                !
 ! A6    A(3,2,4)              121.5035         estimate D2E/DX2                !
 ! A7    A(2,4,5)              112.2123         estimate D2E/DX2                !
 ! A8    A(2,4,6)              109.9988         estimate D2E/DX2                !
 ! A9    A(2,4,7)              109.8769         estimate D2E/DX2                !
 ! A10   A(5,4,6)              108.0547         estimate D2E/DX2                !
 ! A11   A(5,4,7)              107.6986         estimate D2E/DX2                !
 ! A12   A(6,4,7)              108.9101         estimate D2E/DX2                !
 ! D1    D(8,1,2,3)           -179.5681         estimate D2E/DX2                !
 ! D2    D(8,1,2,4)              0.4071         estimate D2E/DX2                !
 ! D3    D(9,1,2,3)              0.4695         estimate D2E/DX2                !
 ! D4    D(9,1,2,4)           -179.5553         estimate D2E/DX2                !
 ! D5    D(1,2,4,5)            179.7554         estimate D2E/DX2                !
 ! D6    D(1,2,4,6)            -59.9221         estimate D2E/DX2                !
 ! D7    D(1,2,4,7)             59.9661         estimate D2E/DX2                !
 ! D8    D(3,2,4,5)             -0.2703         estimate D2E/DX2                !
 ! D9    D(3,2,4,6)            120.0522         estimate D2E/DX2                !
 ! D10   D(3,2,4,7)           -120.0596         estimate D2E/DX2                !
 --------------------------------------------------------------------------------
 Trust Radius=3.00D-01 FncErr=1.00D-07 GrdErr=1.00D-06 EigMax=2.50D+02 EigMin=1.00D-04
 Number of steps in this run=     40 maximum allowed number of steps=    100.
 GradGradGradGradGradGradGradGradGradGradGradGradGradGradGradGradGradGrad

 Leave Link  103 at Mon Feb 22 21:15:31 2021, MaxMem=   104857600 cpu:               0.5 elap:               0.0
 (Enter /sw/arch/RedHatEnterpriseServer7/EB_production/2019/software/Gaussian/g16.c01/l202.exe)
                          Input orientation:                          
 ---------------------------------------------------------------------
 Center     Atomic      Atomic             Coordinates (Angstroms)
 Number     Number       Type             X           Y           Z
 ---------------------------------------------------------------------
      1          7           0       -0.277610   -0.232970   -1.186610
      2          6           0        0.105670    0.440420   -0.086350
      3          8           0       -0.783960    0.997410    0.597530
      4          6           0        1.530780    0.513900    0.294020
      5          9           0        1.725760    1.248000    1.441560
      6          9           0        2.025690   -0.749390    0.507600
      7          9           0        2.252310    1.110660   -0.711150
      8          1           0        0.382570   -0.682210   -1.737340
      9          1           0       -1.216970   -0.269280   -1.430800
 ---------------------------------------------------------------------
                    Distance matrix (angstroms):
                    1          2          3          4          5
     1  N    0.000000
     2  C    1.345708   0.000000
     3  O    2.225619   1.252745   0.000000
     4  C    2.453641   1.476827   2.384098   0.000000
     5  F    3.621331   2.368836   2.659676   1.376142   0.000000
     6  F    2.905551   2.335573   3.309612   1.373482   2.225265
     7  F    2.903773   2.334022   3.308233   1.373716   2.220423
     8  H    0.970030   2.015624   3.103793   2.622115   3.954147
     9  H    0.971259   2.015092   2.430252   3.337440   4.383178
                    6          7          8          9
     6  F    0.000000
     7  F    2.235284   0.000000
     8  H    2.782824   2.786284   0.000000
     9  H    3.808247   3.802372   1.680180   0.000000
 Stoichiometry    C2H2F3NO
 Framework group  C1[X(C2H2F3NO)]
 Deg. of freedom    21
 Full point group                 C1      NOp   1
 Largest Abelian subgroup         C1      NOp   1
 Largest concise Abelian subgroup C1      NOp   1
                         Standard orientation:                         
 ---------------------------------------------------------------------
 Center     Atomic      Atomic             Coordinates (Angstroms)
 Number     Number       Type             X           Y           Z
 ---------------------------------------------------------------------
      1          7           0        1.715138   -0.878935    0.002311
      2          6           0        0.876175    0.173234   -0.000812
      3          8           0        1.378138    1.321014   -0.003628
      4          6           0       -0.586699   -0.029296   -0.001439
      5          9           0       -1.276738    1.161339    0.000660
      6          9           0       -0.962442   -0.737093   -1.116918
      7          9           0       -0.961522   -0.731191    1.118358
      8          1           0        1.362895   -1.782742   -0.001777
      9          1           0        2.675489   -0.733941    0.009224
 ---------------------------------------------------------------------
 Rotational constants (GHZ):           3.7134156           2.4366258           2.0330701
 Leave Link  202 at Mon Feb 22 21:15:31 2021, MaxMem=   104857600 cpu:               0.8 elap:               0.1
 (Enter /sw/arch/RedHatEnterpriseServer7/EB_production/2019/software/Gaussian/g16.c01/l301.exe)
 Standard basis: TZVP (5D, 7F)
 Ernie: Thresh=  0.10000D-02 Tol=  0.10000D-05 Strict=F.
 There are   152 symmetry adapted cartesian basis functions of A   symmetry.
 There are   145 symmetry adapted basis functions of A   symmetry.
   145 basis functions,   261 primitive gaussians,   152 cartesian basis functions
    28 alpha electrons       28 beta electrons
       nuclear repulsion energy       333.4702279730 Hartrees.
 IExCor=  404 DFT=T Ex=B Corr=P86 ExCW=0 ScaHFX=  0.000000
 ScaDFX=  1.000000  1.000000  1.000000  1.000000 ScalE2=  1.000000  1.000000
 IRadAn=      5 IRanWt=     -1 IRanGd=            0 ICorTp=0 IEmpDi=131
 NAtoms=    9 NActive=    9 NUniq=    9 SFac= 1.00D+00 NAtFMM=   60 NAOKFM=F Big=F
 Integral buffers will be    131072 words long.
 Raffenetti 2 integral format.
 Two-electron integral symmetry is turned on.
 R6Disp:  Grimme-D3 Dispersion energy=       -0.0057602194 Hartrees.
 Nuclear repulsion after empirical dispersion term =      333.4644677536 Hartrees.
 ------------------------------------------------------------------------------
 Polarizable Continuum Model (PCM)
 =================================
 Model                : PCM.
 Atomic radii         : UFF (Universal Force Field).
 Polarization charges : Total charges.
 Charge compensation  : None.
 Solution method      : On-the-fly selection.
 Cavity type          : Scaled VdW (van der Waals Surface) (Alpha=1.100).
 Cavity algorithm     : GePol (No added spheres)
                        Default sphere list used, NSphG=    9.
                        Lebedev-Laikov grids with approx.  5.0 points / Ang**2.
                        Smoothing algorithm: York/Karplus (Gamma=1.0000).
                        Polarization charges: spherical gaussians, with
                                              point-specific exponents (IZeta= 3).
                        Self-potential: point-specific (ISelfS= 7).
                        Self-field    : sphere-specific E.n sum rule (ISelfD= 2).
 1st derivatives      : Analytical E(r).r(x)/FMM algorithm (CHGder, D1EAlg=3).
                        Cavity 1st derivative terms included.
 Solvent              : Water, Eps=  78.355300 Eps(inf)=   1.777849
 ------------------------------------------------------------------------------
 Spheres list:
 ISph  on   Nord     Re0    Alpha      Xe            Ye            Ze
    1   N      1    1.8300  1.100      1.715138     -0.878935      0.002311
    2   C      2    1.9255  1.100      0.876175      0.173234     -0.000812
    3   O      3    1.7500  1.100      1.378138      1.321014     -0.003628
    4   C      4    1.9255  1.100     -0.586699     -0.029296     -0.001439
    5   F      5    1.6820  1.100     -1.276738      1.161339      0.000660
    6   F      6    1.6820  1.100     -0.962442     -0.737093     -1.116918
    7   F      7    1.6820  1.100     -0.961522     -0.731191      1.118358
    8   H      8    1.4430  1.100      1.362895     -1.782742     -0.001777
    9   H      9    1.4430  1.100      2.675489     -0.733941      0.009224
 ------------------------------------------------------------------------------
 GePol: Number of generator spheres                  =       9
 GePol: Total number of spheres                      =       9
 GePol: Number of exposed spheres                    =       9 (100.00%)
 GePol: Number of points                             =    1045
 GePol: Average weight of points                     =       0.13
 GePol: Minimum weight of points                     =   0.28D-08
 GePol: Maximum weight of points                     =    0.20212
 GePol: Number of points with low weight             =      39
 GePol: Fraction of low-weight points (<1% of avg)   =       3.73%
 GePol: Cavity surface area                          =    135.504 Ang**2
 GePol: Cavity volume                                =    120.812 Ang**3
 Leave Link  301 at Mon Feb 22 21:15:31 2021, MaxMem=   104857600 cpu:               2.0 elap:               0.1
 (Enter /sw/arch/RedHatEnterpriseServer7/EB_production/2019/software/Gaussian/g16.c01/l302.exe)
 NPDir=0 NMtPBC=     1 NCelOv=     1 NCel=       1 NClECP=     1 NCelD=      1
         NCelK=      1 NCelE2=     1 NClLst=     1 CellRange=     0.0.
 One-electron integrals computed using PRISM.
 One-electron integral symmetry used in STVInt
 PrsmSu:  requested number of processors reduced to:  30 ShMem   1 Linda.
 NBasis=   145 RedAO= T EigKep=  5.18D-04  NBF=   145
 NBsUse=   145 1.00D-06 EigRej= -1.00D+00 NBFU=   145
 Precomputing XC quadrature grid using
 IXCGrd= 4 IRadAn=           5 IRanWt=          -1 IRanGd=           0 AccXCQ= 0.00D+00.
 Generated NRdTot=       0 NPtTot=           0 NUsed=           0 NTot=          32
 NSgBfM=   151   151   151   151   151 MxSgAt=     9 MxSgA2=     9.
 Leave Link  302 at Mon Feb 22 21:15:31 2021, MaxMem=   104857600 cpu:               6.1 elap:               0.2
 (Enter /sw/arch/RedHatEnterpriseServer7/EB_production/2019/software/Gaussian/g16.c01/l303.exe)
 DipDrv:  MaxL=1.
 Leave Link  303 at Mon Feb 22 21:15:32 2021, MaxMem=   104857600 cpu:               2.9 elap:               0.1
 (Enter /sw/arch/RedHatEnterpriseServer7/EB_production/2019/software/Gaussian/g16.c01/l401.exe)
 ExpMin= 9.52D-02 ExpMax= 3.55D+04 ExpMxC= 1.21D+03 IAcc=3 IRadAn=         5 AccDes= 0.00D+00
 Harris functional with IExCor=  404 and IRadAn=       5 diagonalized for initial guess.
 HarFok:  IExCor=  404 AccDes= 0.00D+00 IRadAn=         5 IDoV= 1 UseB2=F ITyADJ=14
 ICtDFT=  3500011 ScaDFX=  1.000000  1.000000  1.000000  1.000000
 FoFCou: FMM=F IPFlag=           0 FMFlag=      100000 FMFlg1=           0
         NFxFlg=           0 DoJE=T BraDBF=F KetDBF=T FulRan=T
         wScrn=  0.000000 ICntrl=       500 IOpCl=  0 I1Cent=   200000004 NGrid=           0
         NMat0=    1 NMatS0=      1 NMatT0=    0 NMatD0=    1 NMtDS0=    0 NMtDT0=    0
 Petite list used in FoFCou.
 Harris En= -507.180162957429    
 JPrj=0 DoOrth=F DoCkMO=F.
 Leave Link  401 at Mon Feb 22 21:15:32 2021, MaxMem=   104857600 cpu:               8.0 elap:               0.3
 (Enter /sw/arch/RedHatEnterpriseServer7/EB_production/2019/software/Gaussian/g16.c01/l502.exe)
 Keep J ints in memory in canonical form, NReq=87408775.
 FoFCou: FMM=F IPFlag=           0 FMFlag=           0 FMFlg1=           0
         NFxFlg=           0 DoJE=F BraDBF=F KetDBF=F FulRan=T
         wScrn=  0.000000 ICntrl=       600 IOpCl=  0 I1Cent=           0 NGrid=           0
         NMat0=    1 NMatS0=  10585 NMatT0=    0 NMatD0=    1 NMtDS0=    0 NMtDT0=    0
 Symmetry not used in FoFCou.
 Two-electron integral symmetry not used.
 Closed shell SCF:
 Using DIIS extrapolation, IDIIS=  1040.
 NGot=   104857600 LenX=    48778343 LenY=    48754798
 Requested convergence on RMS density matrix=1.00D-08 within 128 cycles.
 Requested convergence on MAX density matrix=1.00D-06.
 Requested convergence on             energy=1.00D-06.
 No special actions if energy rises.

 Cycle   1  Pass 1  IDiag  1:
 CoulSu:  requested number of processors reduced to:  22 ShMem   1 Linda.
 Inv3:  Mode=1 IEnd=     3276075.
 Iteration    1 A*A^-1 deviation from unit magnitude is 2.89D-15 for    600.
 Iteration    1 A*A^-1 deviation from orthogonality  is 1.58D-15 for    921    115.
 Iteration    1 A^-1*A deviation from unit magnitude is 2.89D-15 for     37.
 Iteration    1 A^-1*A deviation from orthogonality  is 1.23D-15 for    350    238.
 CoulSu:  requested number of processors reduced to:  22 ShMem   1 Linda.
 CoulSu:  requested number of processors reduced to:  22 ShMem   1 Linda.
 E= -506.968756832168    
 DIIS: error= 3.24D-02 at cycle   1 NSaved=   1.
 NSaved= 1 IEnMin= 1 EnMin= -506.968756832168     IErMin= 1 ErrMin= 3.24D-02
 ErrMax= 3.24D-02  0.00D+00 EMaxC= 1.00D-01 BMatC= 2.50D-01 BMatP= 2.50D-01
 IDIUse=3 WtCom= 6.76D-01 WtEn= 3.24D-01
 Coeff-Com:  0.100D+01
 Coeff-En:   0.100D+01
 Coeff:      0.100D+01
 Gap=     0.067 Goal=   None    Shift=    0.000
 GapD=    0.067 DampG=0.500 DampE=0.500 DampFc=0.2500 IDamp=-1.
 Damping current iteration by 2.50D-01
 RMSDP=1.10D-02 MaxDP=2.81D-01              OVMax= 3.89D-01

 Cycle   2  Pass 1  IDiag  1:
 E= -507.015960771172     Delta-E=       -0.047203939004 Rises=F Damp=T
 DIIS: error= 1.14D-02 at cycle   2 NSaved=   2.
 NSaved= 2 IEnMin= 2 EnMin= -507.015960771172     IErMin= 2 ErrMin= 1.14D-02
 ErrMax= 1.14D-02  0.00D+00 EMaxC= 1.00D-01 BMatC= 2.20D-02 BMatP= 2.50D-01
 IDIUse=3 WtCom= 8.86D-01 WtEn= 1.14D-01
 Coeff-Com: -0.143D+00 0.114D+01
 Coeff-En:   0.258D+00 0.742D+00
 Coeff:     -0.970D-01 0.110D+01
 Gap=     0.158 Goal=   None    Shift=    0.000
 RMSDP=2.18D-03 MaxDP=5.41D-02 DE=-4.72D-02 OVMax= 3.59D-01

 Cycle   3  Pass 1  IDiag  1:
 E= -507.080816964883     Delta-E=       -0.064856193711 Rises=F Damp=F
 DIIS: error= 2.64D-02 at cycle   3 NSaved=   3.
 NSaved= 3 IEnMin= 3 EnMin= -507.080816964883     IErMin= 2 ErrMin= 1.14D-02
 ErrMax= 2.64D-02  0.00D+00 EMaxC= 1.00D-01 BMatC= 7.79D-02 BMatP= 2.20D-02
 IDIUse=2 WtCom= 0.00D+00 WtEn= 1.00D+00
 EnCoef did     4 forward-backward iterations
 Coeff-En:   0.117D+00 0.304D-01 0.852D+00
 Coeff:      0.117D+00 0.304D-01 0.852D+00
 Gap=     0.191 Goal=   None    Shift=    0.000
 RMSDP=6.07D-03 MaxDP=1.37D-01 DE=-6.49D-02 OVMax= 4.93D-01

 Cycle   4  Pass 1  IDiag  1:
 E= -506.604694859406     Delta-E=        0.476122105477 Rises=F Damp=F
 DIIS: error= 8.36D-02 at cycle   4 NSaved=   4.
 NSaved= 4 IEnMin= 3 EnMin= -507.080816964883     IErMin= 2 ErrMin= 1.14D-02
 ErrMax= 8.36D-02  0.00D+00 EMaxC= 1.00D-01 BMatC= 6.50D-01 BMatP= 2.20D-02
 IDIUse=2 WtCom= 0.00D+00 WtEn= 1.00D+00
 EnCoef did     1 forward-backward iterations
 Coeff-En:   0.467D-01 0.000D+00 0.785D+00 0.169D+00
 Coeff:      0.467D-01 0.000D+00 0.785D+00 0.169D+00
 Gap=     0.133 Goal=   None    Shift=    0.000
 RMSDP=4.06D-03 MaxDP=1.08D-01 DE= 4.76D-01 OVMax= 2.61D-01

 Cycle   5  Pass 1  IDiag  1:
 E= -507.090390005020     Delta-E=       -0.485695145614 Rises=F Damp=F
 DIIS: error= 2.61D-02 at cycle   5 NSaved=   5.
 NSaved= 5 IEnMin= 5 EnMin= -507.090390005020     IErMin= 2 ErrMin= 1.14D-02
 ErrMax= 2.61D-02  0.00D+00 EMaxC= 1.00D-01 BMatC= 6.94D-02 BMatP= 2.20D-02
 IDIUse=2 WtCom= 0.00D+00 WtEn= 1.00D+00
 Coeff-En:   0.000D+00 0.000D+00 0.473D+00 0.000D+00 0.527D+00
 Coeff:      0.000D+00 0.000D+00 0.473D+00 0.000D+00 0.527D+00
 Gap=     0.161 Goal=   None    Shift=    0.000
 RMSDP=1.23D-03 MaxDP=3.72D-02 DE=-4.86D-01 OVMax= 1.33D-01

 Cycle   6  Pass 1  IDiag  1:
 E= -507.145505706665     Delta-E=       -0.055115701645 Rises=F Damp=F
 DIIS: error= 2.66D-03 at cycle   6 NSaved=   6.
 NSaved= 6 IEnMin= 6 EnMin= -507.145505706665     IErMin= 6 ErrMin= 2.66D-03
 ErrMax= 2.66D-03  0.00D+00 EMaxC= 1.00D-01 BMatC= 8.97D-04 BMatP= 2.20D-02
 IDIUse=3 WtCom= 9.73D-01 WtEn= 2.66D-02
 Coeff-Com: -0.217D-01 0.391D-01 0.161D+00-0.451D-01 0.303D+00 0.563D+00
 Coeff-En:   0.000D+00 0.000D+00 0.000D+00 0.000D+00 0.000D+00 0.100D+01
 Coeff:     -0.212D-01 0.381D-01 0.157D+00-0.439D-01 0.295D+00 0.575D+00
 Gap=     0.165 Goal=   None    Shift=    0.000
 RMSDP=1.69D-04 MaxDP=3.98D-03 DE=-5.51D-02 OVMax= 1.06D-02

 Cycle   7  Pass 1  IDiag  1:
 E= -507.146180163388     Delta-E=       -0.000674456723 Rises=F Damp=F
 DIIS: error= 1.00D-03 at cycle   7 NSaved=   7.
 NSaved= 7 IEnMin= 7 EnMin= -507.146180163388     IErMin= 7 ErrMin= 1.00D-03
 ErrMax= 1.00D-03  0.00D+00 EMaxC= 1.00D-01 BMatC= 8.94D-05 BMatP= 8.97D-04
 IDIUse=3 WtCom= 9.90D-01 WtEn= 1.00D-02
 Coeff-Com: -0.283D-02 0.115D-01 0.485D-01-0.149D-01 0.827D-01 0.272D+00
 Coeff-Com:  0.603D+00
 Coeff-En:   0.000D+00 0.000D+00 0.000D+00 0.000D+00 0.000D+00 0.457D-01
 Coeff-En:   0.954D+00
 Coeff:     -0.280D-02 0.114D-01 0.480D-01-0.148D-01 0.818D-01 0.270D+00
 Coeff:      0.607D+00
 Gap=     0.165 Goal=   None    Shift=    0.000
 RMSDP=6.04D-05 MaxDP=9.62D-04 DE=-6.74D-04 OVMax= 3.77D-03

 Cycle   8  Pass 1  IDiag  1:
 E= -507.146249483532     Delta-E=       -0.000069320144 Rises=F Damp=F
 DIIS: error= 2.75D-04 at cycle   8 NSaved=   8.
 NSaved= 8 IEnMin= 8 EnMin= -507.146249483532     IErMin= 8 ErrMin= 2.75D-04
 ErrMax= 2.75D-04  0.00D+00 EMaxC= 1.00D-01 BMatC= 1.19D-05 BMatP= 8.94D-05
 IDIUse=3 WtCom= 9.97D-01 WtEn= 2.75D-03
 Coeff-Com:  0.544D-02-0.720D-02 0.721D-02-0.143D-02 0.603D-02 0.114D+00
 Coeff-Com:  0.364D+00 0.513D+00
 Coeff-En:   0.000D+00 0.000D+00 0.000D+00 0.000D+00 0.000D+00 0.000D+00
 Coeff-En:   0.000D+00 0.100D+01
 Coeff:      0.543D-02-0.718D-02 0.719D-02-0.142D-02 0.602D-02 0.113D+00
 Coeff:      0.363D+00 0.514D+00
 Gap=     0.165 Goal=   None    Shift=    0.000
 RMSDP=1.56D-05 MaxDP=3.06D-04 DE=-6.93D-05 OVMax= 6.85D-04

 Cycle   9  Pass 1  IDiag  1:
 E= -507.146257051233     Delta-E=       -0.000007567700 Rises=F Damp=F
 DIIS: error= 5.12D-05 at cycle   9 NSaved=   9.
 NSaved= 9 IEnMin= 9 EnMin= -507.146257051233     IErMin= 9 ErrMin= 5.12D-05
 ErrMax= 5.12D-05  0.00D+00 EMaxC= 1.00D-01 BMatC= 6.03D-07 BMatP= 1.19D-05
 IDIUse=1 WtCom= 1.00D+00 WtEn= 0.00D+00
 Coeff-Com:  0.339D-02-0.451D-02 0.278D-02-0.364D-03 0.838D-03 0.531D-01
 Coeff-Com:  0.177D+00 0.296D+00 0.472D+00
 Coeff:      0.339D-02-0.451D-02 0.278D-02-0.364D-03 0.838D-03 0.531D-01
 Coeff:      0.177D+00 0.296D+00 0.472D+00
 Gap=     0.165 Goal=   None    Shift=    0.000
 RMSDP=3.69D-06 MaxDP=6.49D-05 DE=-7.57D-06 OVMax= 1.22D-04

 Cycle  10  Pass 1  IDiag  1:
 E= -507.146257407096     Delta-E=       -0.000000355863 Rises=F Damp=F
 DIIS: error= 2.50D-05 at cycle  10 NSaved=  10.
 NSaved=10 IEnMin=10 EnMin= -507.146257407096     IErMin=10 ErrMin= 2.50D-05
 ErrMax= 2.50D-05  0.00D+00 EMaxC= 1.00D-01 BMatC= 9.92D-08 BMatP= 6.03D-07
 IDIUse=1 WtCom= 1.00D+00 WtEn= 0.00D+00
 Coeff-Com:  0.118D-02-0.131D-02 0.883D-03-0.109D-03-0.127D-03 0.123D-01
 Coeff-Com:  0.455D-01 0.102D+00 0.284D+00 0.556D+00
 Coeff:      0.118D-02-0.131D-02 0.883D-03-0.109D-03-0.127D-03 0.123D-01
 Coeff:      0.455D-01 0.102D+00 0.284D+00 0.556D+00
 Gap=     0.165 Goal=   None    Shift=    0.000
 RMSDP=1.61D-06 MaxDP=2.58D-05 DE=-3.56D-07 OVMax= 6.39D-05

 Cycle  11  Pass 1  IDiag  1:
 E= -507.146257510810     Delta-E=       -0.000000103715 Rises=F Damp=F
 DIIS: error= 6.74D-06 at cycle  11 NSaved=  11.
 NSaved=11 IEnMin=11 EnMin= -507.146257510810     IErMin=11 ErrMin= 6.74D-06
 ErrMax= 6.74D-06  0.00D+00 EMaxC= 1.00D-01 BMatC= 8.65D-09 BMatP= 9.92D-08
 IDIUse=1 WtCom= 1.00D+00 WtEn= 0.00D+00
 Coeff-Com:  0.380D-03-0.440D-03 0.220D-03-0.286D-04-0.143D-03 0.157D-02
 Coeff-Com:  0.709D-02 0.257D-01 0.979D-01 0.281D+00 0.587D+00
 Coeff:      0.380D-03-0.440D-03 0.220D-03-0.286D-04-0.143D-03 0.157D-02
 Coeff:      0.709D-02 0.257D-01 0.979D-01 0.281D+00 0.587D+00
 Gap=     0.165 Goal=   None    Shift=    0.000
 RMSDP=3.82D-07 MaxDP=7.51D-06 DE=-1.04D-07 OVMax= 1.94D-05

 Cycle  12  Pass 1  IDiag  1:
 E= -507.146257496589     Delta-E=        0.000000014222 Rises=F Damp=F
 DIIS: error= 2.40D-06 at cycle  12 NSaved=  12.
 NSaved=12 IEnMin=11 EnMin= -507.146257510810     IErMin=12 ErrMin= 2.40D-06
 ErrMax= 2.40D-06  0.00D+00 EMaxC= 1.00D-01 BMatC= 7.50D-10 BMatP= 8.65D-09
 IDIUse=1 WtCom= 1.00D+00 WtEn= 0.00D+00
 Coeff-Com:  0.376D-04-0.444D-04 0.267D-04-0.403D-05-0.406D-05-0.721D-03
 Coeff-Com: -0.257D-02-0.333D-02 0.405D-02 0.527D-01 0.196D+00 0.754D+00
 Coeff:      0.376D-04-0.444D-04 0.267D-04-0.403D-05-0.406D-05-0.721D-03
 Coeff:     -0.257D-02-0.333D-02 0.405D-02 0.527D-01 0.196D+00 0.754D+00
 Gap=     0.165 Goal=   None    Shift=    0.000
 RMSDP=1.33D-07 MaxDP=2.43D-06 DE= 1.42D-08 OVMax= 8.91D-06

 Cycle  13  Pass 1  IDiag  1:
 E= -507.146257497207     Delta-E=       -0.000000000618 Rises=F Damp=F
 DIIS: error= 3.58D-07 at cycle  13 NSaved=  13.
 NSaved=13 IEnMin=11 EnMin= -507.146257510810     IErMin=13 ErrMin= 3.58D-07
 ErrMax= 3.58D-07  0.00D+00 EMaxC= 1.00D-01 BMatC= 1.31D-11 BMatP= 7.50D-10
 IDIUse=1 WtCom= 1.00D+00 WtEn= 0.00D+00
 Coeff-Com:  0.402D-05-0.521D-05 0.427D-05 0.332D-09-0.327D-05-0.172D-03
 Coeff-Com: -0.647D-03-0.141D-02-0.193D-02 0.672D-02 0.307D-01 0.167D+00
 Coeff-Com:  0.799D+00
 Coeff:      0.402D-05-0.521D-05 0.427D-05 0.332D-09-0.327D-05-0.172D-03
 Coeff:     -0.647D-03-0.141D-02-0.193D-02 0.672D-02 0.307D-01 0.167D+00
 Coeff:      0.799D+00
 Gap=     0.165 Goal=   None    Shift=    0.000
 RMSDP=1.99D-08 MaxDP=4.12D-07 DE=-6.18D-10 OVMax= 1.87D-06

 Cycle  14  Pass 1  IDiag  1:
 E= -507.146257497217     Delta-E=       -0.000000000010 Rises=F Damp=F
 DIIS: error= 2.14D-08 at cycle  14 NSaved=  14.
 NSaved=14 IEnMin=11 EnMin= -507.146257510810     IErMin=14 ErrMin= 2.14D-08
 ErrMax= 2.14D-08  0.00D+00 EMaxC= 1.00D-01 BMatC= 8.93D-14 BMatP= 1.31D-11
 IDIUse=1 WtCom= 1.00D+00 WtEn= 0.00D+00
 Coeff-Com:  0.193D-09 0.452D-07 0.742D-06 0.170D-07-0.522D-06-0.184D-04
 Coeff-Com: -0.622D-04-0.197D-03-0.531D-03 0.134D-03 0.245D-02 0.122D-01
 Coeff-Com:  0.181D+00 0.805D+00
 Coeff:      0.193D-09 0.452D-07 0.742D-06 0.170D-07-0.522D-06-0.184D-04
 Coeff:     -0.622D-04-0.197D-03-0.531D-03 0.134D-03 0.245D-02 0.122D-01
 Coeff:      0.181D+00 0.805D+00
 Gap=     0.165 Goal=   None    Shift=    0.000
 RMSDP=2.53D-09 MaxDP=3.53D-08 DE=-9.78D-12 OVMax= 6.77D-08

 CoulSu:  requested number of processors reduced to:  23 ShMem   1 Linda.
 CoulSu:  requested number of processors reduced to:  21 ShMem   1 Linda.
 Error on total polarization charges =  0.00586
 SCF Done:  E(RB-P86) =  -507.146257497     A.U. after   14 cycles
            NFock= 14  Conv=0.25D-08     -V/T= 2.0032
 KE= 5.055069230664D+02 PE=-1.867595623899D+03 EE= 5.214779755816D+02
 Leave Link  502 at Mon Feb 22 21:15:37 2021, MaxMem=   104857600 cpu:             102.1 elap:               4.5
 (Enter /sw/arch/RedHatEnterpriseServer7/EB_production/2019/software/Gaussian/g16.c01/l601.exe)
 Copying SCF densities to generalized density rwf, IOpCl= 0 IROHF=0.

 **********************************************************************

            Population analysis using the SCF Density.

 **********************************************************************

 Orbital symmetries:
       Occupied  (A) (A) (A) (A) (A) (A) (A) (A) (A) (A) (A) (A)
                 (A) (A) (A) (A) (A) (A) (A) (A) (A) (A) (A) (A)
                 (A) (A) (A) (A)
       Virtual   (A) (A) (A) (A) (A) (A) (A) (A) (A) (A) (A) (A)
                 (A) (A) (A) (A) (A) (A) (A) (A) (A) (A) (A) (A)
                 (A) (A) (A) (A) (A) (A) (A) (A) (A) (A) (A) (A)
                 (A) (A) (A) (A) (A) (A) (A) (A) (A) (A) (A) (A)
                 (A) (A) (A) (A) (A) (A) (A) (A) (A) (A) (A) (A)
                 (A) (A) (A) (A) (A) (A) (A) (A) (A) (A) (A) (A)
                 (A) (A) (A) (A) (A) (A) (A) (A) (A) (A) (A) (A)
                 (A) (A) (A) (A) (A) (A) (A) (A) (A) (A) (A) (A)
                 (A) (A) (A) (A) (A) (A) (A) (A) (A) (A) (A) (A)
                 (A) (A) (A) (A) (A) (A) (A) (A) (A)
 The electronic state is 1-A.
 Alpha  occ. eigenvalues --  -24.33772 -24.33719 -24.33380 -18.76885 -14.04688
 Alpha  occ. eigenvalues --  -10.17042 -10.03551  -1.22506  -1.14883  -1.14414
 Alpha  occ. eigenvalues --   -0.98118  -0.86661  -0.71432  -0.60655  -0.55975
 Alpha  occ. eigenvalues --   -0.55893  -0.54647  -0.50845  -0.43170  -0.42957
 Alpha  occ. eigenvalues --   -0.41851  -0.41275  -0.39273  -0.37878  -0.37713
 Alpha  occ. eigenvalues --   -0.37514  -0.26657  -0.25046
 Alpha virt. eigenvalues --   -0.08500   0.01826   0.03558   0.06267   0.08736
 Alpha virt. eigenvalues --    0.10615   0.12009   0.16631   0.17001   0.19369
 Alpha virt. eigenvalues --    0.21348   0.23719   0.26077   0.26135   0.29927
 Alpha virt. eigenvalues --    0.34126   0.34314   0.37296   0.38015   0.40070
 Alpha virt. eigenvalues --    0.44662   0.46319   0.47361   0.48169   0.49476
 Alpha virt. eigenvalues --    0.50805   0.53859   0.58900   0.65724   0.66016
 Alpha virt. eigenvalues --    0.66404   0.69662   0.70962   0.75588   0.79993
 Alpha virt. eigenvalues --    0.82441   0.87695   0.98048   0.99254   1.14234
 Alpha virt. eigenvalues --    1.18821   1.19854   1.20350   1.27491   1.28123
 Alpha virt. eigenvalues --    1.33063   1.33795   1.39252   1.41426   1.49413
 Alpha virt. eigenvalues --    1.53579   1.55786   1.67032   1.77134   1.84322
 Alpha virt. eigenvalues --    1.88118   1.90889   1.91059   1.99089   2.02459
 Alpha virt. eigenvalues --    2.04646   2.11735   2.19167   2.28379   2.41041
 Alpha virt. eigenvalues --    2.45046   2.46367   2.51305   2.54865   2.56590
 Alpha virt. eigenvalues --    2.57232   2.66562   2.67744   2.67825   2.75624
 Alpha virt. eigenvalues --    2.80073   2.85044   2.88449   2.90959   2.91391
 Alpha virt. eigenvalues --    2.92092   2.93215   2.97956   3.01922   3.02890
 Alpha virt. eigenvalues --    3.04521   3.07521   3.08048   3.12721   3.13274
 Alpha virt. eigenvalues --    3.13539   3.13692   3.16536   3.21494   3.24877
 Alpha virt. eigenvalues --    3.25589   3.29724   3.33251   3.46038   3.47110
 Alpha virt. eigenvalues --    3.49656   3.67213   3.74469   3.79263   3.83654
 Alpha virt. eigenvalues --    3.88643   4.06807   4.09510   4.39229   4.45144
 Alpha virt. eigenvalues --   21.44255  21.71945  31.38999  43.09882  56.30999
 Alpha virt. eigenvalues --   56.40890  56.48897
          Condensed to atoms (all electrons):
               1          2          3          4          5          6
     1  N    6.492366   0.328416  -0.143263  -0.071465   0.003998  -0.000420
     2  C    0.328416   4.988204   0.613076   0.122709  -0.084391  -0.043254
     3  O   -0.143263   0.613076   7.958177  -0.074435   0.001727   0.000823
     4  C   -0.071465   0.122709  -0.074435   4.796432   0.330605   0.262025
     5  F    0.003998  -0.084391   0.001727   0.330605   8.992812  -0.056834
     6  F   -0.000420  -0.043254   0.000823   0.262025  -0.056834   9.025449
     7  F   -0.000462  -0.043832   0.000829   0.262797  -0.057537  -0.057202
     8  H    0.339768  -0.014954   0.005977   0.014679   0.000103   0.000545
     9  H    0.373199  -0.021014   0.004535   0.003848  -0.000117  -0.000391
               7          8          9
     1  N   -0.000462   0.339768   0.373199
     2  C   -0.043832  -0.014954  -0.021014
     3  O    0.000829   0.005977   0.004535
     4  C    0.262797   0.014679   0.003848
     5  F   -0.057537   0.000103  -0.000117
     6  F   -0.057202   0.000545  -0.000391
     7  F    9.026788   0.000484  -0.000404
     8  H    0.000484   0.383923  -0.014247
     9  H   -0.000404  -0.014247   0.364002
 Mulliken charges:
               1
     1  N   -0.322138
     2  C    0.155040
     3  O   -0.367447
     4  C    0.352803
     5  F   -0.130366
     6  F   -0.130741
     7  F   -0.131462
     8  H    0.283721
     9  H    0.290589
 Sum of Mulliken charges =  -0.00000
 Mulliken charges with hydrogens summed into heavy atoms:
               1
     1  N    0.252172
     2  C    0.155040
     3  O   -0.367447
     4  C    0.352803
     5  F   -0.130366
     6  F   -0.130741
     7  F   -0.131462
 Electronic spatial extent (au):  <R**2>=            621.0182
 Charge=             -0.0000 electrons
 Dipole moment (field-independent basis, Debye):
    X=              1.9786    Y=             -4.6562    Z=              0.0031  Tot=              5.0592
 Quadrupole moment (field-independent basis, Debye-Ang):
   XX=            -34.1036   YY=            -39.5598   ZZ=            -39.2466
   XY=             -7.5103   XZ=              0.0517   YZ=              0.0151
 Traceless Quadrupole moment (field-independent basis, Debye-Ang):
   XX=              3.5331   YY=             -1.9231   ZZ=             -1.6099
   XY=             -7.5103   XZ=              0.0517   YZ=              0.0151
 Octapole moment (field-independent basis, Debye-Ang**2):
  XXX=              6.0816  YYY=            -18.1238  ZZZ=             -0.0064  XYY=             -3.5829
  XXY=            -14.9243  XXZ=              0.1272  XZZ=             -4.3478  YZZ=              1.3200
  YYZ=              0.0100  XYZ=             -0.0000
 Hexadecapole moment (field-independent basis, Debye-Ang**3):
 XXXX=           -292.9658 YYYY=           -193.9984 ZZZZ=           -104.9704 XXXY=            -31.1394
 XXXZ=              0.3830 YYYX=            -21.7100 YYYZ=              0.0958 ZZZX=              0.0068
 ZZZY=              0.0463 XXYY=            -93.4195 XXZZ=            -80.3151 YYZZ=            -52.0134
 XXYZ=             -0.0340 YYXZ=              0.0177 ZZXY=             -0.0222
 N-N= 3.334644677536D+02 E-N=-1.867595621626D+03  KE= 5.055069230664D+02
 No NMR shielding tensors so no spin-rotation constants.
 Leave Link  601 at Mon Feb 22 21:15:37 2021, MaxMem=   104857600 cpu:               4.2 elap:               0.2
 (Enter /sw/arch/RedHatEnterpriseServer7/EB_production/2019/software/Gaussian/g16.c01/l701.exe)
 ... and contract with generalized density number  0.
 Compute integral first derivatives.
 R6Disp: Adding Grimme-D3 dispersion energy 1st derivatives to the gradient.
 PrsmSu:  requested number of processors reduced to:  30 ShMem   1 Linda.
 D1PCM: PCM CHGder 1st derivatives, ID1Alg=3 FixD1E=F DoIter=F DoCFld=F I1PDM=0.
 GePol: Maximum number of non-zero 1st derivatives   =     210
 CoulSu:  requested number of processors reduced to:  29 ShMem   1 Linda.
 CoulSu:  requested number of processors reduced to:  30 ShMem   1 Linda.
 Leave Link  701 at Mon Feb 22 21:15:38 2021, MaxMem=   104857600 cpu:              17.5 elap:               0.6
 (Enter /sw/arch/RedHatEnterpriseServer7/EB_production/2019/software/Gaussian/g16.c01/l702.exe)
 L702 exits ... SP integral derivatives will be done elsewhere.
 Leave Link  702 at Mon Feb 22 21:15:38 2021, MaxMem=   104857600 cpu:               0.7 elap:               0.0
 (Enter /sw/arch/RedHatEnterpriseServer7/EB_production/2019/software/Gaussian/g16.c01/l703.exe)
 Integral derivatives from FoFJK, PRISM(SPDF).
 Compute integral first derivatives, UseDBF=F ICtDFT=           0.
 Calling FoFJK, ICntrl=      2527 FMM=F ISym2X=0 I1Cent= 0 IOpClX= 0 NMat=1 NMatS=1 NMatT=0.
 FoFJK:  IHMeth= 1 ICntrl=    2527 DoSepK=F KAlg= 0 I1Cent=           0 FoldK=F
 IRaf=         0 NMat=       1 IRICut=       1 DoRegI=T DoRafI=F ISym2E= 0 IDoP0=0 IntGTp=1.
 FoFCou: FMM=F IPFlag=           0 FMFlag=      100000 FMFlg1=         800
         NFxFlg=           0 DoJE=F BraDBF=F KetDBF=F FulRan=T
         wScrn=  0.000000 ICntrl=      2527 IOpCl=  0 I1Cent=           0 NGrid=           0
         NMat0=    1 NMatS0=      1 NMatT0=    0 NMatD0=    1 NMtDS0=    0 NMtDT0=    0
 Symmetry not used in FoFCou.
 Leave Link  703 at Mon Feb 22 21:15:39 2021, MaxMem=   104857600 cpu:              21.1 elap:               0.8
 (Enter /sw/arch/RedHatEnterpriseServer7/EB_production/2019/software/Gaussian/g16.c01/l716.exe)
 Dipole        = 7.78444909D-01-1.83190445D+00 1.23514861D-03
 ***** Axes restored to original set *****
 -------------------------------------------------------------------
 Center     Atomic                   Forces (Hartrees/Bohr)
 Number     Number              X              Y              Z
 -------------------------------------------------------------------
      1        7           0.042049879    0.013720615    0.028919680
      2        6          -0.088855625    0.013470787    0.004544541
      3        8           0.023022734   -0.000121158    0.003766070
      4        6           0.038160474    0.004790105    0.013069338
      5        9          -0.002344986   -0.011721136   -0.017006958
      6        9           0.002023317    0.009054391   -0.001495385
      7        9           0.000495790   -0.005504739    0.007168660
      8        1           0.027500423   -0.023326749   -0.030218950
      9        1          -0.042052006   -0.000362114   -0.008746996
 -------------------------------------------------------------------
 Cartesian Forces:  Max     0.088855625 RMS     0.025636656
 Leave Link  716 at Mon Feb 22 21:15:39 2021, MaxMem=   104857600 cpu:               0.8 elap:               0.1
 (Enter /sw/arch/RedHatEnterpriseServer7/EB_production/2019/software/Gaussian/g16.c01/l103.exe)

 GradGradGradGradGradGradGradGradGradGradGradGradGradGradGradGradGradGrad
 Berny optimization.
 FormGI is forming the generalized inverse of G from B-inverse, IUseBI=4.
 Internal  Forces:  Max     0.046681023 RMS     0.016866750
 Search for a local minimum.
 Step number   1 out of a maximum of   40
 All quantities printed in internal units (Hartrees-Bohrs-Radians)
 RMS Force = .16867D-01 SwitMx=.10000D-02 MixMth= 1
 Mixed Optimization -- RFO/linear search
 Second derivative matrix not updated -- first step.
 ITU=  0
     Eigenvalues ---    0.01072   0.01584   0.02410   0.02410   0.11150
     Eigenvalues ---    0.11502   0.16000   0.16000   0.25000   0.25000
     Eigenvalues ---    0.25000   0.25000   0.25000   0.34935   0.49814
     Eigenvalues ---    0.50269   0.50313   0.53120   0.53371   0.55945
     Eigenvalues ---    0.82231
 RFO step:  Lambda=-2.12301107D-02 EMin= 1.07247664D-02
 Linear search not attempted -- first point.
 Iteration  1 RMS(Cart)=  0.04946368 RMS(Int)=  0.00149544
 Iteration  2 RMS(Cart)=  0.00256082 RMS(Int)=  0.00008385
 Iteration  3 RMS(Cart)=  0.00000095 RMS(Int)=  0.00008384
 ITry= 1 IFail=0 DXMaxC= 1.35D-01 DCOld= 1.00D+10 DXMaxT= 3.00D-01 DXLimC= 3.00D+00 Rises=F
 Variable       Old X    -DE/DX   Delta X   Delta X   Delta X     New X
                                 (Linear)    (Quad)   (Total)
    R1        2.54302   0.00538   0.00000   0.00926   0.00926   2.55228
    R2        1.83309   0.04668   0.00000   0.08412   0.08412   1.91721
    R3        1.83541   0.04288   0.00000   0.07762   0.07762   1.91303
    R4        2.36735  -0.01435   0.00000  -0.01701  -0.01701   2.35034
    R5        2.79080   0.03727   0.00000   0.10056   0.10056   2.89136
    R6        2.60053  -0.02076   0.00000  -0.03998  -0.03998   2.56055
    R7        2.59551  -0.00783   0.00000  -0.01494  -0.01494   2.58057
    R8        2.59595  -0.00738   0.00000  -0.01408  -0.01408   2.58186
    A1        2.09682   0.00871   0.00000   0.04807   0.04807   2.14488
    A2        2.09408  -0.00659   0.00000  -0.03639  -0.03639   2.05769
    A3        2.09228  -0.00212   0.00000  -0.01168  -0.01168   2.08061
    A4        2.05619   0.03524   0.00000   0.12993   0.12993   2.18612
    A5        2.10636  -0.02695   0.00000  -0.09937  -0.09937   2.00699
    A6        2.12064  -0.00829   0.00000  -0.03056  -0.03056   2.09007
    A7        1.95847  -0.00142   0.00000  -0.00480  -0.00481   1.95367
    A8        1.91984   0.00720   0.00000   0.02556   0.02541   1.94526
    A9        1.91771   0.00731   0.00000   0.02751   0.02734   1.94506
   A10        1.88591  -0.00349   0.00000  -0.01387  -0.01385   1.87206
   A11        1.87969  -0.00258   0.00000  -0.00767  -0.00770   1.87200
   A12        1.90084  -0.00766   0.00000  -0.02909  -0.02939   1.87145
    D1       -3.13405  -0.00014   0.00000  -0.00326  -0.00330  -3.13736
    D2        0.00711  -0.00009   0.00000  -0.00175  -0.00171   0.00540
    D3        0.00819  -0.00014   0.00000  -0.00329  -0.00334   0.00486
    D4       -3.13383  -0.00009   0.00000  -0.00179  -0.00174  -3.13557
    D5        3.13732   0.00038   0.00000   0.00269   0.00273   3.14006
    D6       -1.04584  -0.00004   0.00000  -0.00051  -0.00060  -1.04644
    D7        1.04661  -0.00040   0.00000  -0.00316  -0.00302   1.04359
    D8       -0.00472   0.00045   0.00000   0.00429   0.00427  -0.00044
    D9        2.09531   0.00003   0.00000   0.00109   0.00094   2.09624
   D10       -2.09544  -0.00033   0.00000  -0.00156  -0.00148  -2.09692
         Item               Value     Threshold  Converged?
 Maximum Force            0.046681     0.000450     NO 
 RMS     Force            0.016867     0.000300     NO 
 Maximum Displacement     0.135006     0.001800     NO 
 RMS     Displacement     0.049251     0.001200     NO 
 Predicted change in Energy=-1.124827D-02
 Lowest energy point so far.  Saving SCF results.
 GradGradGradGradGradGradGradGradGradGradGradGradGradGradGradGradGradGrad

 Leave Link  103 at Mon Feb 22 21:15:39 2021, MaxMem=   104857600 cpu:               2.5 elap:               0.1
 (Enter /sw/arch/RedHatEnterpriseServer7/EB_production/2019/software/Gaussian/g16.c01/l202.exe)
                          Input orientation:                          
 ---------------------------------------------------------------------
 Center     Atomic      Atomic             Coordinates (Angstroms)
 Number     Number       Type             X           Y           Z
 ---------------------------------------------------------------------
      1          7           0       -0.260949   -0.234118   -1.185009
      2          6           0        0.034228    0.462429   -0.066154
      3          8           0       -0.794415    1.040258    0.659355
      4          6           0        1.521379    0.513714    0.289906
      5          9           0        1.747204    1.227819    1.419085
      6          9           0        2.029746   -0.737305    0.493165
      7          9           0        2.254320    1.091048   -0.708171
      8          1           0        0.444930   -0.695383   -1.749162
      9          1           0       -1.232202   -0.291921   -1.464554
 ---------------------------------------------------------------------
                    Distance matrix (angstroms):
                    1          2          3          4          5
     1  N    0.000000
     2  C    1.350607   0.000000
     3  O    2.304408   1.243744   0.000000
     4  C    2.431319   1.530041   2.403465   0.000000
     5  F    3.598783   2.392915   2.659360   1.354987   0.000000
     6  F    2.883877   2.394639   3.341143   1.365577   2.190633
     7  F    2.882709   2.395027   3.341780   1.366263   2.191139
     8  H    1.014544   2.083679   3.217045   2.603547   3.928411
     9  H    1.012334   2.031849   2.545064   3.362943   4.416089
                    6          7          8          9
     6  F    0.000000
     7  F    2.199208   0.000000
     8  H    2.746167   2.747525   0.000000
     9  H    3.830319   3.826298   1.748300   0.000000
 Stoichiometry    C2H2F3NO
 Framework group  C1[X(C2H2F3NO)]
 Deg. of freedom    21
 Full point group                 C1      NOp   1
 RotChk:  IX=2 Diff= 5.39D-02
 Largest Abelian subgroup         C1      NOp   1
 Largest concise Abelian subgroup C1      NOp   1
                         Standard orientation:                         
 ---------------------------------------------------------------------
 Center     Atomic      Atomic             Coordinates (Angstroms)
 Number     Number       Type             X           Y           Z
 ---------------------------------------------------------------------
      1          7           0        1.663690   -0.954632   -0.000342
      2          6           0        0.939147    0.185183   -0.000615
      3          8           0        1.411127    1.335894   -0.000017
      4          6           0       -0.577975   -0.013224   -0.000150
      5          9           0       -1.242890    1.167401    0.001474
      6          9           0       -0.991010   -0.709370   -1.099961
      7          9           0       -0.989993   -0.711969    1.099245
      8          1           0        1.240327   -1.876612   -0.004463
      9          1           0        2.672828   -0.874409    0.004754
 ---------------------------------------------------------------------
 Rotational constants (GHZ):           3.6972989           2.4485766           2.0118619
 Leave Link  202 at Mon Feb 22 21:15:39 2021, MaxMem=   104857600 cpu:               0.8 elap:               0.1
 (Enter /sw/arch/RedHatEnterpriseServer7/EB_production/2019/software/Gaussian/g16.c01/l301.exe)
 Standard basis: TZVP (5D, 7F)
 Ernie: Thresh=  0.10000D-02 Tol=  0.10000D-05 Strict=F.
 There are   152 symmetry adapted cartesian basis functions of A   symmetry.
 There are   145 symmetry adapted basis functions of A   symmetry.
   145 basis functions,   261 primitive gaussians,   152 cartesian basis functions
    28 alpha electrons       28 beta electrons
       nuclear repulsion energy       332.8634345135 Hartrees.
 IExCor=  404 DFT=T Ex=B Corr=P86 ExCW=0 ScaHFX=  0.000000
 ScaDFX=  1.000000  1.000000  1.000000  1.000000 ScalE2=  1.000000  1.000000
 IRadAn=      5 IRanWt=     -1 IRanGd=            0 ICorTp=0 IEmpDi=131
 NAtoms=    9 NActive=    9 NUniq=    9 SFac= 1.00D+00 NAtFMM=   60 NAOKFM=F Big=F
 Integral buffers will be    131072 words long.
 Raffenetti 2 integral format.
 Two-electron integral symmetry is turned on.
 R6Disp:  Grimme-D3 Dispersion energy=       -0.0058535699 Hartrees.
 Nuclear repulsion after empirical dispersion term =      332.8575809437 Hartrees.
 ------------------------------------------------------------------------------
 Polarizable Continuum Model (PCM)
 =================================
 Model                : PCM.
 Atomic radii         : UFF (Universal Force Field).
 Polarization charges : Total charges.
 Charge compensation  : None.
 Solution method      : On-the-fly selection.
 Cavity type          : Scaled VdW (van der Waals Surface) (Alpha=1.100).
 Cavity algorithm     : GePol (No added spheres)
                        Default sphere list used, NSphG=    9.
                        Lebedev-Laikov grids with approx.  5.0 points / Ang**2.
                        Smoothing algorithm: York/Karplus (Gamma=1.0000).
                        Polarization charges: spherical gaussians, with
                                              point-specific exponents (IZeta= 3).
                        Self-potential: point-specific (ISelfS= 7).
                        Self-field    : sphere-specific E.n sum rule (ISelfD= 2).
 1st derivatives      : Analytical E(r).r(x)/FMM algorithm (CHGder, D1EAlg=3).
                        Cavity 1st derivative terms included.
 Solvent              : Water, Eps=  78.355300 Eps(inf)=   1.777849
 ------------------------------------------------------------------------------
 Spheres list:
 ISph  on   Nord     Re0    Alpha      Xe            Ye            Ze
    1   N      1    1.8300  1.100      1.663690     -0.954632     -0.000342
    2   C      2    1.9255  1.100      0.939147      0.185183     -0.000615
    3   O      3    1.7500  1.100      1.411127      1.335894     -0.000017
    4   C      4    1.9255  1.100     -0.577975     -0.013224     -0.000150
    5   F      5    1.6820  1.100     -1.242890      1.167401      0.001474
    6   F      6    1.6820  1.100     -0.991010     -0.709370     -1.099961
    7   F      7    1.6820  1.100     -0.989993     -0.711969      1.099245
    8   H      8    1.4430  1.100      1.240327     -1.876612     -0.004463
    9   H      9    1.4430  1.100      2.672828     -0.874409      0.004754
 ------------------------------------------------------------------------------
 GePol: Number of generator spheres                  =       9
 GePol: Total number of spheres                      =       9
 GePol: Number of exposed spheres                    =       9 (100.00%)
 GePol: Number of points                             =    1051
 GePol: Average weight of points                     =       0.13
 GePol: Minimum weight of points                     =   0.22D-07
 GePol: Maximum weight of points                     =    0.20238
 GePol: Number of points with low weight             =      49
 GePol: Fraction of low-weight points (<1% of avg)   =       4.66%
 GePol: Cavity surface area                          =    136.320 Ang**2
 GePol: Cavity volume                                =    121.680 Ang**3
 Leave Link  301 at Mon Feb 22 21:15:39 2021, MaxMem=   104857600 cpu:               2.2 elap:               0.1
 (Enter /sw/arch/RedHatEnterpriseServer7/EB_production/2019/software/Gaussian/g16.c01/l302.exe)
 NPDir=0 NMtPBC=     1 NCelOv=     1 NCel=       1 NClECP=     1 NCelD=      1
         NCelK=      1 NCelE2=     1 NClLst=     1 CellRange=     0.0.
 One-electron integrals computed using PRISM.
 One-electron integral symmetry used in STVInt
 PrsmSu:  requested number of processors reduced to:  30 ShMem   1 Linda.
 NBasis=   145 RedAO= T EigKep=  6.69D-04  NBF=   145
 NBsUse=   145 1.00D-06 EigRej= -1.00D+00 NBFU=   145
 Precomputing XC quadrature grid using
 IXCGrd= 4 IRadAn=           5 IRanWt=          -1 IRanGd=           0 AccXCQ= 0.00D+00.
 Generated NRdTot=       0 NPtTot=           0 NUsed=           0 NTot=          32
 NSgBfM=   151   151   151   151   151 MxSgAt=     9 MxSgA2=     9.
 Leave Link  302 at Mon Feb 22 21:15:39 2021, MaxMem=   104857600 cpu:               4.4 elap:               0.2
 (Enter /sw/arch/RedHatEnterpriseServer7/EB_production/2019/software/Gaussian/g16.c01/l303.exe)
 DipDrv:  MaxL=1.
 Leave Link  303 at Mon Feb 22 21:15:39 2021, MaxMem=   104857600 cpu:               1.0 elap:               0.1
 (Enter /sw/arch/RedHatEnterpriseServer7/EB_production/2019/software/Gaussian/g16.c01/l401.exe)
 Initial guess from the checkpoint file:  "NRKYWOKHZRQRJR-UHFFFAOYSA-N.chk"
 B after Tr=    -0.000000   -0.000000   -0.000000
         Rot=    0.999912   -0.001270   -0.000004    0.013216 Ang=  -1.52 deg.
 Guess basis will be translated and rotated to current coordinates.
 JPrj=2 DoOrth=T DoCkMO=T.
 Generating alternative initial guess.
 ExpMin= 9.52D-02 ExpMax= 3.55D+04 ExpMxC= 1.21D+03 IAcc=3 IRadAn=         5 AccDes= 0.00D+00
 Harris functional with IExCor=  404 and IRadAn=       5 diagonalized for initial guess.
 HarFok:  IExCor=  404 AccDes= 0.00D+00 IRadAn=         5 IDoV= 1 UseB2=F ITyADJ=14
 ICtDFT=  3500011 ScaDFX=  1.000000  1.000000  1.000000  1.000000
 FoFCou: FMM=F IPFlag=           0 FMFlag=      100000 FMFlg1=           0
         NFxFlg=           0 DoJE=T BraDBF=F KetDBF=T FulRan=T
         wScrn=  0.000000 ICntrl=       500 IOpCl=  0 I1Cent=   200000004 NGrid=           0
         NMat0=    1 NMatS0=      1 NMatT0=    0 NMatD0=    1 NMtDS0=    0 NMtDT0=    0
 Petite list used in FoFCou.
 Harris En= -507.183633413344    
 Leave Link  401 at Mon Feb 22 21:15:40 2021, MaxMem=   104857600 cpu:               8.1 elap:               0.3
 (Enter /sw/arch/RedHatEnterpriseServer7/EB_production/2019/software/Gaussian/g16.c01/l502.exe)
 Keep J ints in memory in canonical form, NReq=87408775.
 FoFCou: FMM=F IPFlag=           0 FMFlag=           0 FMFlg1=           0
         NFxFlg=           0 DoJE=F BraDBF=F KetDBF=F FulRan=T
         wScrn=  0.000000 ICntrl=       600 IOpCl=  0 I1Cent=           0 NGrid=           0
         NMat0=    1 NMatS0=  10585 NMatT0=    0 NMatD0=    1 NMtDS0=    0 NMtDT0=    0
 Symmetry not used in FoFCou.
 Two-electron integral symmetry not used.
 Closed shell SCF:
 Using DIIS extrapolation, IDIIS=  1040.
 NGot=   104857600 LenX=    48778343 LenY=    48754798
 Requested convergence on RMS density matrix=1.00D-08 within 128 cycles.
 Requested convergence on MAX density matrix=1.00D-06.
 Requested convergence on             energy=1.00D-06.
 No special actions if energy rises.

 Cycle   1  Pass 1  IDiag  1:
 CoulSu:  requested number of processors reduced to:  22 ShMem   1 Linda.
 Inv3:  Mode=1 IEnd=     3313803.
 Iteration    1 A*A^-1 deviation from unit magnitude is 3.55D-15 for    238.
 Iteration    1 A*A^-1 deviation from orthogonality  is 1.39D-15 for    975    361.
 Iteration    1 A^-1*A deviation from unit magnitude is 3.33D-15 for    238.
 Iteration    1 A^-1*A deviation from orthogonality  is 1.24D-15 for    367    349.
 CoulSu:  requested number of processors reduced to:  22 ShMem   1 Linda.
 CoulSu:  requested number of processors reduced to:  22 ShMem   1 Linda.
 E= -507.152182248674    
 DIIS: error= 5.39D-03 at cycle   1 NSaved=   1.
 NSaved= 1 IEnMin= 1 EnMin= -507.152182248674     IErMin= 1 ErrMin= 5.39D-03
 ErrMax= 5.39D-03  0.00D+00 EMaxC= 1.00D-01 BMatC= 4.98D-03 BMatP= 4.98D-03
 IDIUse=3 WtCom= 9.46D-01 WtEn= 5.39D-02
 Coeff-Com:  0.100D+01
 Coeff-En:   0.100D+01
 Coeff:      0.100D+01
 Gap=     0.655 Goal=   None    Shift=    0.000
 GapD=    0.655 DampG=2.000 DampE=1.000 DampFc=2.0000 IDamp=-1.
 RMSDP=8.63D-04 MaxDP=1.73D-02              OVMax= 3.11D-02

 Cycle   2  Pass 1  IDiag  1:
 E= -507.155481080905     Delta-E=       -0.003298832231 Rises=F Damp=F
 DIIS: error= 5.87D-03 at cycle   2 NSaved=   2.
 NSaved= 2 IEnMin= 2 EnMin= -507.155481080905     IErMin= 1 ErrMin= 5.39D-03
 ErrMax= 5.87D-03  0.00D+00 EMaxC= 1.00D-01 BMatC= 3.29D-03 BMatP= 4.98D-03
 IDIUse=3 WtCom= 9.41D-01 WtEn= 5.87D-02
 Coeff-Com:  0.421D+00 0.579D+00
 Coeff-En:   0.330D-01 0.967D+00
 Coeff:      0.398D+00 0.602D+00
 Gap=     0.168 Goal=   None    Shift=    0.000
 RMSDP=6.65D-04 MaxDP=1.85D-02 DE=-3.30D-03 OVMax= 6.49D-02

 Cycle   3  Pass 1  IDiag  1:
 E= -507.152286866720     Delta-E=        0.003194214185 Rises=F Damp=F
 DIIS: error= 9.36D-03 at cycle   3 NSaved=   3.
 NSaved= 3 IEnMin= 2 EnMin= -507.155481080905     IErMin= 1 ErrMin= 5.39D-03
 ErrMax= 9.36D-03  0.00D+00 EMaxC= 1.00D-01 BMatC= 7.34D-03 BMatP= 3.29D-03
 IDIUse=3 WtCom= 9.37D-02 WtEn= 9.06D-01
 Coeff-Com:  0.262D-01 0.588D+00 0.386D+00
 Coeff-En:   0.000D+00 0.633D+00 0.367D+00
 Coeff:      0.245D-02 0.629D+00 0.369D+00
 Gap=     0.177 Goal=   None    Shift=    0.000
 RMSDP=3.82D-04 MaxDP=1.02D-02 DE= 3.19D-03 OVMax= 3.35D-02

 Cycle   4  Pass 1  IDiag  1:
 E= -507.157891943326     Delta-E=       -0.005605076606 Rises=F Damp=F
 DIIS: error= 1.07D-03 at cycle   4 NSaved=   4.
 NSaved= 4 IEnMin= 4 EnMin= -507.157891943326     IErMin= 4 ErrMin= 1.07D-03
 ErrMax= 1.07D-03  0.00D+00 EMaxC= 1.00D-01 BMatC= 1.89D-04 BMatP= 3.29D-03
 IDIUse=3 WtCom= 9.89D-01 WtEn= 1.07D-02
 Coeff-Com:  0.726D-02 0.358D+00 0.176D+00 0.458D+00
 Coeff-En:   0.000D+00 0.670D-01 0.000D+00 0.933D+00
 Coeff:      0.718D-02 0.355D+00 0.174D+00 0.463D+00
 Gap=     0.178 Goal=   None    Shift=    0.000
 RMSDP=6.00D-05 MaxDP=1.65D-03 DE=-5.61D-03 OVMax= 5.71D-03

 Cycle   5  Pass 1  IDiag  1:
 E= -507.158028936291     Delta-E=       -0.000136992965 Rises=F Damp=F
 DIIS: error= 2.05D-04 at cycle   5 NSaved=   5.
 NSaved= 5 IEnMin= 5 EnMin= -507.158028936291     IErMin= 5 ErrMin= 2.05D-04
 ErrMax= 2.05D-04  0.00D+00 EMaxC= 1.00D-01 BMatC= 6.22D-06 BMatP= 1.89D-04
 IDIUse=3 WtCom= 9.98D-01 WtEn= 2.05D-03
 Coeff-Com:  0.369D-03 0.107D+00 0.432D-01 0.251D+00 0.598D+00
 Coeff-En:   0.000D+00 0.000D+00 0.000D+00 0.000D+00 0.100D+01
 Coeff:      0.368D-03 0.107D+00 0.431D-01 0.250D+00 0.599D+00
 Gap=     0.178 Goal=   None    Shift=    0.000
 RMSDP=1.07D-05 MaxDP=1.92D-04 DE=-1.37D-04 OVMax= 4.22D-04

 Cycle   6  Pass 1  IDiag  1:
 E= -507.158032466585     Delta-E=       -0.000003530294 Rises=F Damp=F
 DIIS: error= 2.96D-05 at cycle   6 NSaved=   6.
 NSaved= 6 IEnMin= 6 EnMin= -507.158032466585     IErMin= 6 ErrMin= 2.96D-05
 ErrMax= 2.96D-05  0.00D+00 EMaxC= 1.00D-01 BMatC= 2.18D-07 BMatP= 6.22D-06
 IDIUse=1 WtCom= 1.00D+00 WtEn= 0.00D+00
 Coeff-Com:  0.589D-05 0.415D-01 0.168D-01 0.106D+00 0.296D+00 0.540D+00
 Coeff:      0.589D-05 0.415D-01 0.168D-01 0.106D+00 0.296D+00 0.540D+00
 Gap=     0.178 Goal=   None    Shift=    0.000
 RMSDP=2.55D-06 MaxDP=6.19D-05 DE=-3.53D-06 OVMax= 1.18D-04

 Cycle   7  Pass 1  IDiag  1:
 E= -507.158032645839     Delta-E=       -0.000000179254 Rises=F Damp=F
 DIIS: error= 9.38D-06 at cycle   7 NSaved=   7.
 NSaved= 7 IEnMin= 7 EnMin= -507.158032645839     IErMin= 7 ErrMin= 9.38D-06
 ErrMax= 9.38D-06  0.00D+00 EMaxC= 1.00D-01 BMatC= 1.83D-08 BMatP= 2.18D-07
 IDIUse=1 WtCom= 1.00D+00 WtEn= 0.00D+00
 Coeff-Com: -0.675D-04 0.685D-02 0.294D-02 0.209D-01 0.706D-01 0.267D+00
 Coeff-Com:  0.632D+00
 Coeff:     -0.675D-04 0.685D-02 0.294D-02 0.209D-01 0.706D-01 0.267D+00
 Coeff:      0.632D+00
 Gap=     0.178 Goal=   None    Shift=    0.000
 RMSDP=8.68D-07 MaxDP=1.32D-05 DE=-1.79D-07 OVMax= 5.48D-05

 Cycle   8  Pass 1  IDiag  1:
 E= -507.158032666261     Delta-E=       -0.000000020422 Rises=F Damp=F
 DIIS: error= 4.26D-06 at cycle   8 NSaved=   8.
 NSaved= 8 IEnMin= 8 EnMin= -507.158032666261     IErMin= 8 ErrMin= 4.26D-06
 ErrMax= 4.26D-06  0.00D+00 EMaxC= 1.00D-01 BMatC= 2.95D-09 BMatP= 1.83D-08
 IDIUse=1 WtCom= 1.00D+00 WtEn= 0.00D+00
 Coeff-Com: -0.459D-04 0.264D-02 0.108D-02 0.920D-02 0.325D-01 0.150D+00
 Coeff-Com:  0.407D+00 0.398D+00
 Coeff:     -0.459D-04 0.264D-02 0.108D-02 0.920D-02 0.325D-01 0.150D+00
 Coeff:      0.407D+00 0.398D+00
 Gap=     0.178 Goal=   None    Shift=    0.000
 RMSDP=2.24D-07 MaxDP=4.81D-06 DE=-2.04D-08 OVMax= 1.19D-05

 Cycle   9  Pass 1  IDiag  1:
 E= -507.158032668187     Delta-E=       -0.000000001926 Rises=F Damp=F
 DIIS: error= 9.76D-07 at cycle   9 NSaved=   9.
 NSaved= 9 IEnMin= 9 EnMin= -507.158032668187     IErMin= 9 ErrMin= 9.76D-07
 ErrMax= 9.76D-07  0.00D+00 EMaxC= 1.00D-01 BMatC= 1.38D-10 BMatP= 2.95D-09
 IDIUse=1 WtCom= 1.00D+00 WtEn= 0.00D+00
 Coeff-Com: -0.714D-05 0.318D-03 0.222D-04 0.143D-02 0.390D-02 0.248D-01
 Coeff-Com:  0.782D-01 0.168D+00 0.723D+00
 Coeff:     -0.714D-05 0.318D-03 0.222D-04 0.143D-02 0.390D-02 0.248D-01
 Coeff:      0.782D-01 0.168D+00 0.723D+00
 Gap=     0.178 Goal=   None    Shift=    0.000
 RMSDP=7.70D-08 MaxDP=1.37D-06 DE=-1.93D-09 OVMax= 3.15D-06

 Cycle  10  Pass 1  IDiag  1:
 E= -507.158032668293     Delta-E=       -0.000000000106 Rises=F Damp=F
 DIIS: error= 8.13D-08 at cycle  10 NSaved=  10.
 NSaved=10 IEnMin=10 EnMin= -507.158032668293     IErMin=10 ErrMin= 8.13D-08
 ErrMax= 8.13D-08  0.00D+00 EMaxC= 1.00D-01 BMatC= 1.50D-12 BMatP= 1.38D-10
 IDIUse=1 WtCom= 1.00D+00 WtEn= 0.00D+00
 Coeff-Com: -0.850D-06 0.331D-04-0.286D-04 0.238D-03 0.448D-03 0.471D-02
 Coeff-Com:  0.166D-01 0.506D-01 0.259D+00 0.668D+00
 Coeff:     -0.850D-06 0.331D-04-0.286D-04 0.238D-03 0.448D-03 0.471D-02
 Coeff:      0.166D-01 0.506D-01 0.259D+00 0.668D+00
 Gap=     0.178 Goal=   None    Shift=    0.000
 RMSDP=8.89D-09 MaxDP=1.31D-07 DE=-1.06D-10 OVMax= 2.40D-07

 CoulSu:  requested number of processors reduced to:  23 ShMem   1 Linda.
 CoulSu:  requested number of processors reduced to:  21 ShMem   1 Linda.
 Error on total polarization charges =  0.00590
 SCF Done:  E(RB-P86) =  -507.158032668     A.U. after   10 cycles
            NFock= 10  Conv=0.89D-08     -V/T= 2.0036
 KE= 5.053510436248D+02 PE=-1.866415961616D+03 EE= 5.210493043788D+02
 Leave Link  502 at Mon Feb 22 21:15:43 2021, MaxMem=   104857600 cpu:              80.1 elap:               3.5
 (Enter /sw/arch/RedHatEnterpriseServer7/EB_production/2019/software/Gaussian/g16.c01/l701.exe)
 ... and contract with generalized density number  0.
 Compute integral first derivatives.
 R6Disp: Adding Grimme-D3 dispersion energy 1st derivatives to the gradient.
 PrsmSu:  requested number of processors reduced to:  30 ShMem   1 Linda.
 D1PCM: PCM CHGder 1st derivatives, ID1Alg=3 FixD1E=F DoIter=F DoCFld=F I1PDM=0.
 GePol: Maximum number of non-zero 1st derivatives   =     217
 CoulSu:  requested number of processors reduced to:  29 ShMem   1 Linda.
 CoulSu:  requested number of processors reduced to:  30 ShMem   1 Linda.
 Leave Link  701 at Mon Feb 22 21:15:44 2021, MaxMem=   104857600 cpu:              14.6 elap:               0.5
 (Enter /sw/arch/RedHatEnterpriseServer7/EB_production/2019/software/Gaussian/g16.c01/l702.exe)
 L702 exits ... SP integral derivatives will be done elsewhere.
 Leave Link  702 at Mon Feb 22 21:15:44 2021, MaxMem=   104857600 cpu:               0.5 elap:               0.0
 (Enter /sw/arch/RedHatEnterpriseServer7/EB_production/2019/software/Gaussian/g16.c01/l703.exe)
 Integral derivatives from FoFJK, PRISM(SPDF).
 Compute integral first derivatives, UseDBF=F ICtDFT=           0.
 Calling FoFJK, ICntrl=      2527 FMM=F ISym2X=0 I1Cent= 0 IOpClX= 0 NMat=1 NMatS=1 NMatT=0.
 FoFJK:  IHMeth= 1 ICntrl=    2527 DoSepK=F KAlg= 0 I1Cent=           0 FoldK=F
 IRaf=         0 NMat=       1 IRICut=       1 DoRegI=T DoRafI=F ISym2E= 0 IDoP0=0 IntGTp=1.
 FoFCou: FMM=F IPFlag=           0 FMFlag=      100000 FMFlg1=         800
         NFxFlg=           0 DoJE=F BraDBF=F KetDBF=F FulRan=T
         wScrn=  0.000000 ICntrl=      2527 IOpCl=  0 I1Cent=           0 NGrid=           0
         NMat0=    1 NMatS0=      1 NMatT0=    0 NMatD0=    1 NMtDS0=    0 NMtDT0=    0
 Symmetry not used in FoFCou.
 Leave Link  703 at Mon Feb 22 21:15:44 2021, MaxMem=   104857600 cpu:              15.8 elap:               0.6
 (Enter /sw/arch/RedHatEnterpriseServer7/EB_production/2019/software/Gaussian/g16.c01/l716.exe)
 Dipole        = 8.40383099D-01-1.87047629D+00-1.20284552D-03
 ***** Axes restored to original set *****
 -------------------------------------------------------------------
 Center     Atomic                   Forces (Hartrees/Bohr)
 Number     Number              X              Y              Z
 -------------------------------------------------------------------
      1        7           0.006202008    0.004036968    0.007323171
      2        6          -0.029725043    0.007644024    0.005957426
      3        8           0.012044769   -0.008215421   -0.010361967
      4        6           0.019889216    0.002201775    0.006800108
      5        9          -0.003324289   -0.001962299   -0.003653345
      6        9          -0.001066518   -0.000811480   -0.001197575
      7        9          -0.001246819   -0.000711627   -0.001057431
      8        1           0.000638975   -0.000908746   -0.001398502
      9        1          -0.003412299   -0.001273193   -0.002411885
 -------------------------------------------------------------------
 Cartesian Forces:  Max     0.029725043 RMS     0.008409498
 Leave Link  716 at Mon Feb 22 21:15:44 2021, MaxMem=   104857600 cpu:               0.9 elap:               0.1
 (Enter /sw/arch/RedHatEnterpriseServer7/EB_production/2019/software/Gaussian/g16.c01/l103.exe)

 GradGradGradGradGradGradGradGradGradGradGradGradGradGradGradGradGradGrad
 Berny optimization.
 Using GEDIIS/GDIIS optimizer.
 FormGI is forming the generalized inverse of G from B-inverse, IUseBI=4.
 Internal  Forces:  Max     0.017883644 RMS     0.004701104
 Search for a local minimum.
 Step number   2 out of a maximum of   40
 All quantities printed in internal units (Hartrees-Bohrs-Radians)
 RMS Force = .47011D-02 SwitMx=.10000D-02 MixMth= 1
 Mixed Optimization -- RFO/linear search
 Update second derivatives using D2CorX and points    1    2
 DE= -1.18D-02 DEPred=-1.12D-02 R= 1.05D+00
 TightC=F SS=  1.41D+00  RLast= 2.44D-01 DXNew= 5.0454D-01 7.3280D-01
 Trust test= 1.05D+00 RLast= 2.44D-01 DXMaxT set to 5.05D-01
 ITU=  1  0
 Use linear search instead of GDIIS.
     Eigenvalues ---    0.01072   0.01647   0.02410   0.02410   0.10998
     Eigenvalues ---    0.11088   0.15935   0.16242   0.22669   0.25000
     Eigenvalues ---    0.25000   0.25000   0.27066   0.31776   0.49153
     Eigenvalues ---    0.50278   0.50365   0.52727   0.53772   0.57150
     Eigenvalues ---    0.82877
 RFO step:  Lambda=-1.38290337D-03 EMin= 1.07247744D-02
 Quartic linear search produced a step of  0.17852.
 Iteration  1 RMS(Cart)=  0.01838982 RMS(Int)=  0.00024263
 Iteration  2 RMS(Cart)=  0.00035006 RMS(Int)=  0.00002925
 Iteration  3 RMS(Cart)=  0.00000005 RMS(Int)=  0.00002925
 ITry= 1 IFail=0 DXMaxC= 4.31D-02 DCOld= 1.00D+10 DXMaxT= 5.05D-01 DXLimC= 3.00D+00 Rises=F
 Variable       Old X    -DE/DX   Delta X   Delta X   Delta X     New X
                                 (Linear)    (Quad)   (Total)
    R1        2.55228  -0.00463   0.00165  -0.01074  -0.00909   2.54319
    R2        1.91721   0.00162   0.01502  -0.00557   0.00944   1.92665
    R3        1.91303   0.00402   0.01386   0.00045   0.01431   1.92735
    R4        2.35034  -0.01788  -0.00304  -0.02371  -0.02674   2.32359
    R5        2.89136   0.01403   0.01795   0.03644   0.05439   2.94575
    R6        2.56055  -0.00464  -0.00714  -0.00661  -0.01375   2.54681
    R7        2.58057   0.00017  -0.00267   0.00203  -0.00064   2.57993
    R8        2.58186  -0.00019  -0.00251   0.00108  -0.00144   2.58043
    A1        2.14488  -0.00016   0.00858  -0.00590   0.00268   2.14757
    A2        2.05769   0.00171  -0.00650   0.01606   0.00957   2.06726
    A3        2.08061  -0.00155  -0.00208  -0.01017  -0.01225   2.06836
    A4        2.18612   0.00286   0.02320  -0.00007   0.02312   2.20925
    A5        2.00699  -0.00528  -0.01774  -0.01447  -0.03221   1.97478
    A6        2.09007   0.00243  -0.00546   0.01454   0.00908   2.09916
    A7        1.95367  -0.00336  -0.00086  -0.01370  -0.01459   1.93908
    A8        1.94526  -0.00165   0.00454  -0.01107  -0.00660   1.93866
    A9        1.94506  -0.00168   0.00488  -0.01153  -0.00672   1.93834
   A10        1.87206   0.00305  -0.00247   0.01727   0.01477   1.88683
   A11        1.87200   0.00301  -0.00137   0.01629   0.01488   1.88688
   A12        1.87145   0.00113  -0.00525   0.00544   0.00009   1.87153
    D1       -3.13736  -0.00005  -0.00059  -0.00181  -0.00240  -3.13976
    D2        0.00540  -0.00008  -0.00031  -0.00381  -0.00411   0.00129
    D3        0.00486  -0.00008  -0.00060  -0.00320  -0.00380   0.00106
    D4       -3.13557  -0.00011  -0.00031  -0.00520  -0.00551  -3.14108
    D5        3.14006   0.00000   0.00049   0.00120   0.00170  -3.14143
    D6       -1.04644   0.00044  -0.00011   0.00619   0.00605  -1.04039
    D7        1.04359  -0.00037  -0.00054  -0.00221  -0.00272   1.04087
    D8       -0.00044  -0.00003   0.00076  -0.00067   0.00010  -0.00035
    D9        2.09624   0.00041   0.00017   0.00432   0.00445   2.10070
   D10       -2.09692  -0.00040  -0.00026  -0.00408  -0.00432  -2.10124
         Item               Value     Threshold  Converged?
 Maximum Force            0.017884     0.000450     NO 
 RMS     Force            0.004701     0.000300     NO 
 Maximum Displacement     0.043058     0.001800     NO 
 RMS     Displacement     0.018559     0.001200     NO 
 Predicted change in Energy=-9.032313D-04
 Lowest energy point so far.  Saving SCF results.
 GradGradGradGradGradGradGradGradGradGradGradGradGradGradGradGradGradGrad

 Leave Link  103 at Mon Feb 22 21:15:45 2021, MaxMem=   104857600 cpu:               5.3 elap:               0.2
 (Enter /sw/arch/RedHatEnterpriseServer7/EB_production/2019/software/Gaussian/g16.c01/l202.exe)
                          Input orientation:                          
 ---------------------------------------------------------------------
 Center     Atomic      Atomic             Coordinates (Angstroms)
 Number     Number       Type             X           Y           Z
 ---------------------------------------------------------------------
      1          7           0       -0.256988   -0.227282   -1.174349
      2          6           0        0.011443    0.472970   -0.056869
      3          8           0       -0.804654    1.045659    0.662792
      4          6           0        1.530436    0.513293    0.290934
      5          9           0        1.752176    1.223271    1.414807
      6          9           0        2.024455   -0.745344    0.479752
      7          9           0        2.250297    1.082942   -0.719956
      8          1           0        0.464810   -0.683543   -1.731394
      9          1           0       -1.227736   -0.305426   -1.477257
 ---------------------------------------------------------------------
                    Distance matrix (angstroms):
                    1          2          3          4          5
     1  N    0.000000
     2  C    1.345797   0.000000
     3  O    2.301175   1.229593   0.000000
     4  C    2.427012   1.558824   2.423704   0.000000
     5  F    3.583933   2.399778   2.671040   1.347712   0.000000
     6  F    2.865209   2.413394   3.353365   1.365238   2.196340
     7  F    2.865247   2.413342   3.353522   1.365503   2.196595
     8  H    1.019542   2.084969   3.214624   2.580268   3.897670
     9  H    1.019907   2.039354   2.565977   3.377027   4.425022
                    6          7          8          9
     6  F    0.000000
     7  F    2.198394   0.000000
     8  H    2.706562   2.707663   0.000000
     9  H    3.821015   3.820704   1.752789   0.000000
 Stoichiometry    C2H2F3NO
 Framework group  C1[X(C2H2F3NO)]
 Deg. of freedom    21
 Full point group                 C1      NOp   1
 RotChk:  IX=0 Diff= 2.66D-02
 Largest Abelian subgroup         C1      NOp   1
 Largest concise Abelian subgroup C1      NOp   1
                         Standard orientation:                         
 ---------------------------------------------------------------------
 Center     Atomic      Atomic             Coordinates (Angstroms)
 Number     Number       Type             X           Y           Z
 ---------------------------------------------------------------------
      1          7           0        1.634487   -0.974197   -0.000057
      2          6           0        0.956803    0.188521    0.000182
      3          8           0        1.440877    1.318819    0.000010
      4          6           0       -0.590106   -0.003848   -0.000055
      5          9           0       -1.226758    1.184008   -0.000010
      6          9           0       -0.997659   -0.703658   -1.099164
      7          9           0       -0.997650   -0.703904    1.099230
      8          1           0        1.176103   -1.884882   -0.001464
      9          1           0        2.653896   -0.942336    0.000532
 ---------------------------------------------------------------------
 Rotational constants (GHZ):           3.6892852           2.4475067           2.0082230
 Leave Link  202 at Mon Feb 22 21:15:45 2021, MaxMem=   104857600 cpu:               0.7 elap:               0.1
 (Enter /sw/arch/RedHatEnterpriseServer7/EB_production/2019/software/Gaussian/g16.c01/l301.exe)
 Standard basis: TZVP (5D, 7F)
 Ernie: Thresh=  0.10000D-02 Tol=  0.10000D-05 Strict=F.
 There are   152 symmetry adapted cartesian basis functions of A   symmetry.
 There are   145 symmetry adapted basis functions of A   symmetry.
   145 basis functions,   261 primitive gaussians,   152 cartesian basis functions
    28 alpha electrons       28 beta electrons
       nuclear repulsion energy       332.7396003028 Hartrees.
 IExCor=  404 DFT=T Ex=B Corr=P86 ExCW=0 ScaHFX=  0.000000
 ScaDFX=  1.000000  1.000000  1.000000  1.000000 ScalE2=  1.000000  1.000000
 IRadAn=      5 IRanWt=     -1 IRanGd=            0 ICorTp=0 IEmpDi=131
 NAtoms=    9 NActive=    9 NUniq=    9 SFac= 1.00D+00 NAtFMM=   60 NAOKFM=F Big=F
 Integral buffers will be    131072 words long.
 Raffenetti 2 integral format.
 Two-electron integral symmetry is turned on.
 R6Disp:  Grimme-D3 Dispersion energy=       -0.0059395521 Hartrees.
 Nuclear repulsion after empirical dispersion term =      332.7336607507 Hartrees.
 ------------------------------------------------------------------------------
 Polarizable Continuum Model (PCM)
 =================================
 Model                : PCM.
 Atomic radii         : UFF (Universal Force Field).
 Polarization charges : Total charges.
 Charge compensation  : None.
 Solution method      : On-the-fly selection.
 Cavity type          : Scaled VdW (van der Waals Surface) (Alpha=1.100).
 Cavity algorithm     : GePol (No added spheres)
                        Default sphere list used, NSphG=    9.
                        Lebedev-Laikov grids with approx.  5.0 points / Ang**2.
                        Smoothing algorithm: York/Karplus (Gamma=1.0000).
                        Polarization charges: spherical gaussians, with
                                              point-specific exponents (IZeta= 3).
                        Self-potential: point-specific (ISelfS= 7).
                        Self-field    : sphere-specific E.n sum rule (ISelfD= 2).
 1st derivatives      : Analytical E(r).r(x)/FMM algorithm (CHGder, D1EAlg=3).
                        Cavity 1st derivative terms included.
 Solvent              : Water, Eps=  78.355300 Eps(inf)=   1.777849
 ------------------------------------------------------------------------------
 Spheres list:
 ISph  on   Nord     Re0    Alpha      Xe            Ye            Ze
    1   N      1    1.8300  1.100      1.634487     -0.974197     -0.000057
    2   C      2    1.9255  1.100      0.956803      0.188521      0.000182
    3   O      3    1.7500  1.100      1.440877      1.318819      0.000010
    4   C      4    1.9255  1.100     -0.590106     -0.003848     -0.000055
    5   F      5    1.6820  1.100     -1.226758      1.184008     -0.000010
    6   F      6    1.6820  1.100     -0.997659     -0.703658     -1.099164
    7   F      7    1.6820  1.100     -0.997650     -0.703904      1.099230
    8   H      8    1.4430  1.100      1.176103     -1.884882     -0.001464
    9   H      9    1.4430  1.100      2.653896     -0.942336      0.000532
 ------------------------------------------------------------------------------
 GePol: Number of generator spheres                  =       9
 GePol: Total number of spheres                      =       9
 GePol: Number of exposed spheres                    =       9 (100.00%)
 GePol: Number of points                             =    1045
 GePol: Average weight of points                     =       0.13
 GePol: Minimum weight of points                     =   0.39D-05
 GePol: Maximum weight of points                     =    0.20299
 GePol: Number of points with low weight             =      43
 GePol: Fraction of low-weight points (<1% of avg)   =       4.11%
 GePol: Cavity surface area                          =    136.532 Ang**2
 GePol: Cavity volume                                =    121.932 Ang**3
 Leave Link  301 at Mon Feb 22 21:15:45 2021, MaxMem=   104857600 cpu:               2.1 elap:               0.1
 (Enter /sw/arch/RedHatEnterpriseServer7/EB_production/2019/software/Gaussian/g16.c01/l302.exe)
 NPDir=0 NMtPBC=     1 NCelOv=     1 NCel=       1 NClECP=     1 NCelD=      1
         NCelK=      1 NCelE2=     1 NClLst=     1 CellRange=     0.0.
 One-electron integrals computed using PRISM.
 One-electron integral symmetry used in STVInt
 PrsmSu:  requested number of processors reduced to:  30 ShMem   1 Linda.
 NBasis=   145 RedAO= T EigKep=  7.36D-04  NBF=   145
 NBsUse=   145 1.00D-06 EigRej= -1.00D+00 NBFU=   145
 Precomputing XC quadrature grid using
[...]
 --------------------------                            --------------------------
 ! Name  Definition              Value                                          !
 --------------------------------------------------------------------------------
 ! R1    R(1,2)                  1.3464                                         !
 ! R2    R(1,8)                  1.0164                                         !
 ! R3    R(1,9)                  1.0172                                         !
 ! R4    R(2,3)                  1.2266                                         !
 ! R5    R(2,4)                  1.572                                          !
 ! R6    R(4,5)                  1.3458                                         !
 ! R7    R(4,6)                  1.365                                          !
 ! R8    R(4,7)                  1.365                                          !
 ! A1    A(2,1,8)              122.6403                                         !
 ! A2    A(2,1,9)              119.2533                                         !
 ! A3    A(8,1,9)              118.1064                                         !
 ! A4    A(1,2,3)              126.7289                                         !
 ! A5    A(1,2,4)              112.9099                                         !
 ! A6    A(3,2,4)              120.3611                                         !
 ! A7    A(2,4,5)              110.9566                                         !
 ! A8    A(2,4,6)              111.1043                                         !
 ! A9    A(2,4,7)              111.1073                                         !
 ! A10   A(5,4,6)              108.128                                          !
 ! A11   A(5,4,7)              108.1296                                         !
 ! A12   A(6,4,7)              107.2647                                         !
 ! D1    D(8,1,2,3)            179.9633                                         !
 ! D2    D(8,1,2,4)              0.0547                                         !
 ! D3    D(9,1,2,3)             -0.0519                                         !
 ! D4    D(9,1,2,4)           -179.9605                                         !
 ! D5    D(1,2,4,5)            179.9727                                         !
 ! D6    D(1,2,4,6)            -59.6991                                         !
 ! D7    D(1,2,4,7)             59.6405                                         !
 ! D8    D(3,2,4,5)              0.0576                                         !
 ! D9    D(3,2,4,6)            120.3857                                         !
 ! D10   D(3,2,4,7)           -120.2746                                         !
 --------------------------------------------------------------------------------
                          Input orientation:                          
 ---------------------------------------------------------------------
 Center     Atomic      Atomic             Coordinates (Angstroms)
 Number     Number       Type             X           Y           Z
 ---------------------------------------------------------------------
      1          7           0       -0.263398   -0.226173   -1.173618
      2          6           0        0.003393    0.474287   -0.055144
      3          8           0       -0.809394    1.047091    0.663014
      4          6           0        1.536185    0.512960    0.291687
      5          9           0        1.758040    1.222039    1.413773
      6          9           0        2.029338   -0.745778    0.480254
      7          9           0        2.254792    1.082313   -0.719607
      8          1           0        0.462186   -0.677360   -1.724034
      9          1           0       -1.226903   -0.312839   -1.487865
 ---------------------------------------------------------------------
                    Distance matrix (angstroms):
                    1          2          3          4          5
     1  N    0.000000
     2  C    1.346405   0.000000
     3  O    2.300549   1.226571   0.000000
     4  C    2.435556   1.572016   2.434115   0.000000
     5  F    3.588610   2.407412   2.680664   1.345767   0.000000
     6  F    2.874355   2.424801   3.362466   1.364983   2.194850
     7  F    2.873942   2.424872   3.361862   1.365018   2.194902
     8  H    1.016366   2.078937   3.207592   2.575552   3.890089
     9  H    1.017155   2.045943   2.578759   3.388716   4.436804
                    6          7          8          9
     6  F    0.000000
     7  F    2.198275   0.000000
     8  H    2.705463   2.705321   0.000000
     9  H    3.829364   3.828690   1.744039   0.000000
 Stoichiometry    C2H2F3NO
 Framework group  C1[X(C2H2F3NO)]
 Deg. of freedom    21
 Full point group                 C1      NOp   1
 Largest Abelian subgroup         C1      NOp   1
 Largest concise Abelian subgroup C1      NOp   1
                         Standard orientation:                         
 ---------------------------------------------------------------------
 Center     Atomic      Atomic             Coordinates (Angstroms)
 Number     Number       Type             X           Y           Z
 ---------------------------------------------------------------------
      1          7           0        1.636866   -0.977885   -0.000053
      2          6           0        0.965265    0.189059   -0.000632
      3          8           0        1.451408    1.315177    0.000032
      4          6           0       -0.594995   -0.002832   -0.000029
      5          9           0       -1.226130    1.185763   -0.000036
      6          9           0       -1.004711   -0.701256   -1.098899
      7          9           0       -1.003983   -0.700911    1.099376
      8          1           0        1.168530   -1.879917   -0.000122
      9          1           0        2.653951   -0.966027    0.000241
 ---------------------------------------------------------------------
 Rotational constants (GHZ):           3.6918306           2.4319923           1.9984338
 Standard basis: TZVP (5D, 7F)
 There are   152 symmetry adapted cartesian basis functions of A   symmetry.
 There are   145 symmetry adapted basis functions of A   symmetry.
   145 basis functions,   261 primitive gaussians,   152 cartesian basis functions
    28 alpha electrons       28 beta electrons
       nuclear repulsion energy       332.3463800842 Hartrees.
 NAtoms=    9 NActive=    9 NUniq=    9 SFac= 1.00D+00 NAtFMM=   60 NAOKFM=F Big=F
 Integral buffers will be    131072 words long.
 Raffenetti 2 integral format.
 Two-electron integral symmetry is turned on.
 Warning! Using old PCM defaults because the COSMOthermo output has been requested.
 These settings can be overridden by following keywords.
 ------------------------------------------------------------------------------
 Polarizable Continuum Model (PCM)
 =================================
 Model                : C-PCM.
 Atomic radii         : Klamt.
 XCosmo               : -1.000 (infinite dielectric limit)
 Polarization charges : Electronic and nuclear charges.
 Charge compensation  : Type 3 (Electronic density weighted correction).
 Solution method      : On-the-fly selection.
 Cavity type          : VdW (van der Waals Surface) (Alpha=1.000).
 Cavity algorithm     : GePol (No added spheres)
                        Default sphere list used, NSphG=    9.
                        Tesserae with average area of 0.200 Ang**2.
                        Smoothing algorithm: None.
                        Polarization charges: point-like.
                        Self-potential: constant (ISelfS= 1).
                        Self-field    : global E.n sum rule (ISelfD= 3).
 Solvent              : Water, Eps=  78.355300 Eps(inf)=   1.777849
 ------------------------------------------------------------------------------
 Spheres list:
 ISph  on   Nord     Re0    Alpha      Xe            Ye            Ze
    1   N      1    1.8300  1.000      1.636866     -0.977885     -0.000053
    2   C      2    2.0000  1.000      0.965265      0.189059     -0.000632
    3   O      3    1.7200  1.000      1.451408      1.315177      0.000032
    4   C      4    2.0000  1.000     -0.594995     -0.002832     -0.000029
    5   F      5    1.7200  1.000     -1.226130      1.185763     -0.000036
    6   F      6    1.7200  1.000     -1.004711     -0.701256     -1.098899
    7   F      7    1.7200  1.000     -1.003983     -0.700911      1.099376
    8   H      8    1.3000  1.000      1.168530     -1.879917     -0.000122
    9   H      9    1.3000  1.000      2.653951     -0.966027      0.000241
 ------------------------------------------------------------------------------
 One-electron integrals computed using PRISM.
 PrsmSu:  requested number of processors reduced to:  30 ShMem   1 Linda.
 NBasis=   145 RedAO= T EigKep=  7.65D-04  NBF=   145
 NBsUse=   145 1.00D-06 EigRej= -1.00D+00 NBFU=   145
 Initial guess from the checkpoint file:  "NRKYWOKHZRQRJR-UHFFFAOYSA-N.chk"
 B after Tr=     0.000000   -0.000000   -0.000000
         Rot=    1.000000   -0.000000   -0.000000   -0.000000 Ang=   0.00 deg.
 Keep J ints in memory in canonical form, NReq=87408775.
 Requested convergence on RMS density matrix=1.00D-08 within 128 cycles.
 Requested convergence on MAX density matrix=1.00D-06.
 Requested convergence on             energy=1.00D-06.
 No special actions if energy rises.
 Inv3:  Mode=1 IEnd=     1806528.
 Iteration    1 A*A^-1 deviation from unit magnitude is 7.11D-15 for    253.
 Iteration    1 A*A^-1 deviation from orthogonality  is 4.64D-15 for    253    168.
 Iteration    1 A^-1*A deviation from unit magnitude is 7.55D-15 for    253.
 Iteration    1 A^-1*A deviation from orthogonality  is 4.70D-15 for    253    168.
 Error on nuclear    polarization charges =  0.01029
 Error on electronic polarization charges = -0.02413
 SCF Done:  E(RB-P86) =  -507.159295133     A.U. after   10 cycles
            NFock= 10  Conv=0.80D-08     -V/T= 2.0036
 --------------------------------------------------------------------
 Variational C-PCM results
 =========================
 <psi(f)|   H    |psi(f)>                     (a.u.) =    -507.138475
 <psi(f)|H+V(f)/2|psi(f)>                     (a.u.) =    -507.159295
 Total free energy in solution:
 - with all non electrostatic terms           (a.u.) =    -507.150703
 --------------------------------------------------------------------
 (Polarized solute)-Solvent               (kcal/mol) =     -13.06
 --------------------------------------------------------------------
 Cavitation energy                        (kcal/mol) =      15.27
 Dispersion energy                        (kcal/mol) =     -10.78
 Repulsion energy                         (kcal/mol) =       0.90
 Total non electrostatic                  (kcal/mol) =       5.39
 --------------------------------------------------------------------
 Partition over spheres:
 Sphere  on Atom  Surface  Charge   GEl     GCav    GDR
    1      N1      13.43  -0.044   -1.16    1.63   -1.10
    2      C2       9.71  -0.038   -0.17    1.14   -0.54
    3      O3      19.79   0.238   -4.17    2.46   -1.70
    4      C4       2.46  -0.029   -0.13    0.29   -0.01
    5      F5      20.11   0.051   -0.56    2.50   -1.64
    6      F6      20.36   0.045   -0.06    2.53   -1.65
    7      F7      20.36   0.043   -0.12    2.53   -1.65
    8      H8       7.44  -0.135   -3.65    1.05   -0.68
    9      H9       8.11  -0.130   -3.04    1.14   -0.91
 --------------------------------------------------------------------
 - cavitation energy not included in the total energy.
 - dispersion energy not included in the total energy.
 - repulsion  energy not included in the total energy.
 After PCM corrections, the energy is  -507.159295133     a.u.
 --------------------------------------------------------------------
 Writing COSMO formatted file "NRKYWOKHZRQRJR-UHFFFAOYSA-N.cosmo"
 Recomputed dielectric energy= -0.020829 old= -0.020820 diff=-9.59D-06

 **********************************************************************

            Population analysis using the SCF Density.

 **********************************************************************

 Orbital symmetries:
       Occupied  (A) (A) (A) (A) (A) (A) (A) (A) (A) (A) (A) (A)
                 (A) (A) (A) (A) (A) (A) (A) (A) (A) (A) (A) (A)
                 (A) (A) (A) (A)
       Virtual   (A) (A) (A) (A) (A) (A) (A) (A) (A) (A) (A) (A)
                 (A) (A) (A) (A) (A) (A) (A) (A) (A) (A) (A) (A)
                 (A) (A) (A) (A) (A) (A) (A) (A) (A) (A) (A) (A)
                 (A) (A) (A) (A) (A) (A) (A) (A) (A) (A) (A) (A)
                 (A) (A) (A) (A) (A) (A) (A) (A) (A) (A) (A) (A)
                 (A) (A) (A) (A) (A) (A) (A) (A) (A) (A) (A) (A)
                 (A) (A) (A) (A) (A) (A) (A) (A) (A) (A) (A) (A)
                 (A) (A) (A) (A) (A) (A) (A) (A) (A) (A) (A) (A)
                 (A) (A) (A) (A) (A) (A) (A) (A) (A) (A) (A) (A)
                 (A) (A) (A) (A) (A) (A) (A) (A) (A)
 The electronic state is 1-A.
 Alpha  occ. eigenvalues --  -24.33185 -24.32836 -24.32832 -18.77293 -14.04652
 Alpha  occ. eigenvalues --  -10.15867 -10.03361  -1.22640  -1.14616  -1.14100
 Alpha  occ. eigenvalues --   -0.98511  -0.85851  -0.68517  -0.59625  -0.55375
 Alpha  occ. eigenvalues --   -0.55186  -0.53789  -0.48268  -0.42707  -0.42664
 Alpha  occ. eigenvalues --   -0.42166  -0.40705  -0.39147  -0.37593  -0.37001
 Alpha  occ. eigenvalues --   -0.36979  -0.26623  -0.25523
 Alpha virt. eigenvalues --   -0.06589   0.03052   0.05309   0.07209   0.09351
 Alpha virt. eigenvalues --    0.10813   0.12780   0.15490   0.17516   0.19901
 Alpha virt. eigenvalues --    0.21710   0.22332   0.25910   0.26311   0.29586
 Alpha virt. eigenvalues --    0.31676   0.34293   0.37721   0.38712   0.40479
 Alpha virt. eigenvalues --    0.44259   0.46133   0.48202   0.48432   0.49445
 Alpha virt. eigenvalues --    0.50282   0.54787   0.57865   0.64234   0.65915
 Alpha virt. eigenvalues --    0.67291   0.70246   0.71066   0.76872   0.79927
 Alpha virt. eigenvalues --    0.82630   0.88306   0.98484   0.99752   1.14611
 Alpha virt. eigenvalues --    1.19993   1.21912   1.23530   1.27899   1.29751
 Alpha virt. eigenvalues --    1.33302   1.36849   1.40889   1.41973   1.46955
 Alpha virt. eigenvalues --    1.53083   1.55774   1.65906   1.73569   1.79953
 Alpha virt. eigenvalues --    1.84778   1.86313   1.89778   1.97457   2.07439
 Alpha virt. eigenvalues --    2.09217   2.11050   2.20764   2.22163   2.38325
 Alpha virt. eigenvalues --    2.45332   2.46390   2.46666   2.52414   2.55340
 Alpha virt. eigenvalues --    2.56125   2.64655   2.65878   2.71763   2.75225
 Alpha virt. eigenvalues --    2.81012   2.81579   2.88598   2.91388   2.91824
 Alpha virt. eigenvalues --    2.92461   2.93384   2.99125   3.03261   3.04462
 Alpha virt. eigenvalues --    3.06201   3.07377   3.07902   3.12349   3.13566
 Alpha virt. eigenvalues --    3.13907   3.14985   3.16391   3.21110   3.23516
 Alpha virt. eigenvalues --    3.26143   3.29094   3.32286   3.47563   3.49885
 Alpha virt. eigenvalues --    3.50485   3.63075   3.71540   3.75472   3.82665
 Alpha virt. eigenvalues --    3.87918   4.11818   4.13186   4.39890   4.49556
 Alpha virt. eigenvalues --   21.50149  21.72355  31.34324  43.09406  56.30491
 Alpha virt. eigenvalues --   56.42493  56.52262
          Condensed to atoms (all electrons):
               1          2          3          4          5          6
     1  N    6.524983   0.330819  -0.115597  -0.091505   0.004507   0.001566
     2  C    0.330819   4.876483   0.622521   0.193526  -0.076277  -0.044505
     3  O   -0.115597   0.622521   7.937453  -0.085583   0.006293   0.001775
     4  C   -0.091505   0.193526  -0.085583   4.798475   0.310036   0.261195
     5  F    0.004507  -0.076277   0.006293   0.310036   9.001013  -0.058902
     6  F    0.001566  -0.044505   0.001775   0.261195  -0.058902   9.040885
     7  F    0.001572  -0.044508   0.001761   0.261261  -0.058908  -0.061330
     8  H    0.344447  -0.017422   0.003461   0.009178   0.000198   0.001026
     9  H    0.350562  -0.013422   0.003465   0.004161  -0.000172  -0.000441
               7          8          9
     1  N    0.001572   0.344447   0.350562
     2  C   -0.044508  -0.017422  -0.013422
     3  O    0.001761   0.003461   0.003465
     4  C    0.261261   0.009178   0.004161
     5  F   -0.058908   0.000198  -0.000172
     6  F   -0.061330   0.001026  -0.000441
     7  F    9.040754   0.001018  -0.000442
     8  H    0.001018   0.353769  -0.013093
     9  H   -0.000442  -0.013093   0.361704
 Mulliken charges:
               1
     1  N   -0.351354
     2  C    0.172785
     3  O   -0.375549
     4  C    0.339256
     5  F   -0.127787
     6  F   -0.141268
     7  F   -0.141178
     8  H    0.317418
     9  H    0.307677
 Sum of Mulliken charges =  -0.00000
 Mulliken charges with hydrogens summed into heavy atoms:
               1
     1  N    0.273741
     2  C    0.172785
     3  O   -0.375549
     4  C    0.339256
     5  F   -0.127787
     6  F   -0.141268
     7  F   -0.141178
 Electronic spatial extent (au):  <R**2>=            626.0713
 Charge=             -0.0000 electrons
 Dipole moment (field-independent basis, Debye):
    X=              2.0549    Y=             -5.0451    Z=             -0.0006  Tot=              5.4476
 Quadrupole moment (field-independent basis, Debye-Ang):
   XX=            -34.5979   YY=            -38.5270   ZZ=            -39.4542
   XY=             -8.5682   XZ=              0.0003   YZ=             -0.0013
 Traceless Quadrupole moment (field-independent basis, Debye-Ang):
   XX=              2.9285   YY=             -1.0006   ZZ=             -1.9278
   XY=             -8.5682   XZ=              0.0003   YZ=             -0.0013
 Octapole moment (field-independent basis, Debye-Ang**2):
  XXX=              4.6146  YYY=            -20.2349  ZZZ=              0.0031  XYY=             -2.9224
  XXY=            -17.1568  XXZ=              0.0062  XZZ=             -4.2979  YZZ=              1.6845
  YYZ=              0.0031  XYZ=             -0.0008
 Hexadecapole moment (field-independent basis, Debye-Ang**3):
 XXXX=           -300.1044 YYYY=           -195.1560 ZZZZ=           -103.3301 XXXY=            -38.9588
 XXXZ=              0.0146 YYYX=            -24.2749 YYYZ=             -0.0006 ZZZX=              0.0052
 ZZZY=             -0.0013 XXYY=            -94.0699 XXZZ=            -80.7630 YYZZ=            -53.0434
 XXYZ=             -0.0058 YYXZ=              0.0039 ZZXY=             -0.0279
 N-N= 3.323463800842D+02 E-N=-1.865417813795D+03  KE= 5.053595220954D+02
 Unable to Open any file for archive entry.
 1\1\GINC-TCN1681\SP\RBP86\TZVP\C2H2F3N1O1\ELENAA\22-Feb-2021\0\\# BP86
 /TZVP SCRF=COSMORS geom=CHECKPOINT guess=CHECKPOINT\\COSMO-file for #N
 RKYWOKHZRQRJR-UHFFFAOYSA-N\\0,1\N,0,-0.2633975664,-0.2261726977,-1.173
 6181001\C,0,0.0033934676,0.4742869432,-0.0551437333\O,0,-0.8093935498,
 1.0470907457,0.6630136768\C,0,1.5361845501,0.5129599872,0.2916872719\F
 ,0,1.7580400009,1.2220390715,1.4137728181\F,0,2.029337513,-0.745778463
 ,0.4802535914\F,0,2.2547921989,1.0823134583,-0.7196065403\H,0,0.462185
 9429,-0.6773602839,-1.724034289\H,0,-1.226902557,-0.3128387613,-1.4878
 646953\\Version=ES64L-G16RevC.01\State=1-A\HF=-507.1592951\RMSD=8.021e
 -09\Dipole=-0.1388122,-1.1617924,-1.7956681\Quadrupole=-1.9302366,-0.5
 558905,2.4861271,3.3034262,4.9386608,1.9605469\PG=C01 [X(C2H2F3N1O1)]\
 \@
 The archive entry for this job was punched.


 ACCORDING TO HEN3RY, LIFE IS MUCH LIKE A SEWER........
 YOU GET OUT OF IT JUST WHAT YOU PUT INTO IT...........
                         TOM LEHRER - (THE 3 IS SILENT)
 Job cpu time:       0 days  0 hours  1 minutes 31.5 seconds.
 Elapsed time:       0 days  0 hours  0 minutes  4.0 seconds.
 File lengths (MBytes):  RWF=     16 Int=      0 D2E=      0 Chk=      5 Scr=      1
 Normal termination of Gaussian 16 at Mon Feb 22 21:16:12 2021.
