 Entering Gaussian System, Link 0=g16
 Input=NWXMGUDVXFXRIG-WESIUVDSSA-N.gjf
 Output=NWXMGUDVXFXRIG-WESIUVDSSA-N.log
 Initial command:
 /sw/arch/RedHatEnterpriseServer7/EB_production/2019/software/Gaussian/g16.c01/l1.exe "/scratch-local/elenaa.9716246/Gau-31176.inp" -scrdir="/scratch-local/elenaa.9716246/"
 Entering Link 1 = /sw/arch/RedHatEnterpriseServer7/EB_production/2019/software/Gaussian/g16.c01/l1.exe PID=     31180.
  
 Copyright (c) 1988-2019, Gaussian, Inc.  All Rights Reserved.
  
 This is part of the Gaussian(R) 16 program.  It is based on
 the Gaussian(R) 09 system (copyright 2009, Gaussian, Inc.),
 the Gaussian(R) 03 system (copyright 2003, Gaussian, Inc.),
 the Gaussian(R) 98 system (copyright 1998, Gaussian, Inc.),
 the Gaussian(R) 94 system (copyright 1995, Gaussian, Inc.),
 the Gaussian 92(TM) system (copyright 1992, Gaussian, Inc.),
 the Gaussian 90(TM) system (copyright 1990, Gaussian, Inc.),
 the Gaussian 88(TM) system (copyright 1988, Gaussian, Inc.),
 the Gaussian 86(TM) system (copyright 1986, Carnegie Mellon
 University), and the Gaussian 82(TM) system (copyright 1983,
 Carnegie Mellon University). Gaussian is a federally registered
 trademark of Gaussian, Inc.
  
 This software contains proprietary and confidential information,
 including trade secrets, belonging to Gaussian, Inc.
  
 This software is provided under written license and may be
 used, copied, transmitted, or stored only in accord with that
 written license.
  
 The following legend is applicable only to US Government
 contracts under FAR:
  
                    RESTRICTED RIGHTS LEGEND
  
 Use, reproduction and disclosure by the US Government is
 subject to restrictions as set forth in subparagraphs (a)
 and (c) of the Commercial Computer Software - Restricted
 Rights clause in FAR 52.227-19.
  
 Gaussian, Inc.
 340 Quinnipiac St., Bldg. 40, Wallingford CT 06492
  
  
 ---------------------------------------------------------------
 Warning -- This program may not be used in any manner that
 competes with the business of Gaussian, Inc. or will provide
 assistance to any competitor of Gaussian, Inc.  The licensee
 of this program is prohibited from giving any competitor of
 Gaussian, Inc. access to this program.  By using this program,
 the user acknowledges that Gaussian, Inc. is engaged in the
 business of creating and licensing software in the field of
 computational chemistry and represents and warrants to the
 licensee that it is not a competitor of Gaussian, Inc. and that
 it will not use this program in any manner prohibited above.
 ---------------------------------------------------------------
  

 Cite this work as:
 Gaussian 16, Revision C.01,
 M. J. Frisch, G. W. Trucks, H. B. Schlegel, G. E. Scuseria, 
 M. A. Robb, J. R. Cheeseman, G. Scalmani, V. Barone, 
 G. A. Petersson, H. Nakatsuji, X. Li, M. Caricato, A. V. Marenich, 
 J. Bloino, B. G. Janesko, R. Gomperts, B. Mennucci, H. P. Hratchian, 
 J. V. Ortiz, A. F. Izmaylov, J. L. Sonnenberg, D. Williams-Young, 
 F. Ding, F. Lipparini, F. Egidi, J. Goings, B. Peng, A. Petrone, 
 T. Henderson, D. Ranasinghe, V. G. Zakrzewski, J. Gao, N. Rega, 
 G. Zheng, W. Liang, M. Hada, M. Ehara, K. Toyota, R. Fukuda, 
 J. Hasegawa, M. Ishida, T. Nakajima, Y. Honda, O. Kitao, H. Nakai, 
 T. Vreven, K. Throssell, J. A. Montgomery, Jr., J. E. Peralta, 
 F. Ogliaro, M. J. Bearpark, J. J. Heyd, E. N. Brothers, K. N. Kudin, 
 V. N. Staroverov, T. A. Keith, R. Kobayashi, J. Normand, 
 K. Raghavachari, A. P. Rendell, J. C. Burant, S. S. Iyengar, 
 J. Tomasi, M. Cossi, J. M. Millam, M. Klene, C. Adamo, R. Cammi, 
 J. W. Ochterski, R. L. Martin, K. Morokuma, O. Farkas, 
 J. B. Foresman, and D. J. Fox, Gaussian, Inc., Wallingford CT, 2019.
 
 ******************************************
 Gaussian 16:  ES64L-G16RevC.01  3-Jul-2019
                23-Feb-2021 
 ******************************************
 %chk=NWXMGUDVXFXRIG-WESIUVDSSA-N.chk
 %NProcShared=32
 Will use up to   32 processors via shared memory.
 -------------------------------------------------------------
 #P BP86/TZVP EmpiricalDispersion=GD3 SCRF=(Solvent=Water) Opt
 -------------------------------------------------------------
 1/18=20,19=15,26=3,38=1/1,3;
 2/9=110,12=2,17=6,18=5,40=1/2;
 3/5=19,7=101,11=2,25=1,30=1,70=2201,71=1,72=1,74=404,124=31/1,2,3;
 4//1;
 5/5=2,38=5,53=1/2;
 6/7=2,8=2,9=2,10=2,28=1/1;
 7//1,2,3,16;
 1/18=20,19=15,26=3/3(2);
 2/9=110/2;
 99//99;
 2/9=110/2;
 3/5=19,7=101,11=2,25=1,30=1,70=2205,71=1,72=1,74=404,124=31/1,2,3;
 4/5=5,16=3,69=1/1;
 5/5=2,38=5,53=1/2;
 7//1,2,3,16;
 1/18=20,19=15,26=3/3(-5);
 2/9=110/2;
 6/7=2,8=2,9=2,10=2,19=2,28=1/1;
 99/9=1/99;
 Leave Link    1 at Tue Feb 23 02:35:35 2021, MaxMem=           0 cpu:               1.7 elap:               0.1
 (Enter /sw/arch/RedHatEnterpriseServer7/EB_production/2019/software/Gaussian/g16.c01/l101.exe)
 -------------------------------------
 Particle #NWXMGUDVXFXRIG-WESIUVDSSA-N
 -------------------------------------
 Symbolic Z-matrix:
 Charge =  0 Multiplicity = 1
 C                    -3.53171  -1.35866  -2.96793 
 N                    -3.82285  -0.96123  -1.60479 
 C                    -5.1191   -1.43485  -1.16031 
 C                    -2.75032  -1.32154  -0.67041 
 C                    -3.07897  -0.85506   0.75702 
 O                    -3.52566  -1.68364   1.56151 
 C                    -2.82409   0.55183   1.06479 
 C                    -3.44607   1.17033   2.26635 
 N                    -3.70368   0.42072   3.37835 
 O                    -3.7011    2.40363   2.29392 
 C                    -2.04962   1.31458   0.23121 
 O                    -1.7915    2.63044   0.37037 
 C                    -1.33835   0.77228  -1.00969 
 O                    -1.94054   1.29824  -2.18687 
 C                     0.09751   1.33457  -1.05484 
 O                     0.24921   2.48331  -1.49685 
 C                     1.23385   0.52503  -0.60997 
 C                     2.45463   1.09698  -0.37322 
 O                     2.70524   2.43926  -0.37495 
 C                     3.64632   0.3126   -0.04959 
 C                     4.95691   0.831    -0.12471 
 O                     5.30301   2.06705  -0.59598 
 C                     6.05951   0.06488   0.31325 
 C                     5.85201  -1.21249   0.80356 
 C                     4.56489  -1.75591   0.8307 
 C                     3.46983  -1.01703   0.38469 
 C                     2.09883  -1.6563    0.4072 
 C                     2.21804  -3.12547  -0.02283 
 O                     1.56408  -1.59809   1.73105 
 C                     1.07852  -0.9543   -0.52262 
 C                    -0.33215  -1.3263   -0.08771 
 C                    -1.36559  -0.75809  -1.04337 
 H                    -3.20801  -2.43128  -3.05825 
 H                    -4.44721  -1.21012  -3.59897 
 H                    -2.71829  -0.69648  -3.36925 
 H                    -5.17978  -2.555    -1.08901 
 H                    -5.34635  -1.00233  -0.15043 
 H                    -5.89754  -1.07627  -1.88379 
 H                    -2.64453  -2.4529   -0.62444 
 H                    -4.17515   0.8496    4.13715 
 H                    -3.61705  -0.56696   3.36442 
 H                    -2.30251   3.03087   1.1033 
 H                    -2.89977   1.27626  -2.06743 
 H                     1.8951    2.95634  -0.52719 
 H                     4.55886   2.47639  -1.06192 
 H                     7.06545   0.50651   0.25916 
 H                     6.70466  -1.8088    1.16364 
 H                     4.42809  -2.78105   1.20559 
 H                     2.62359  -3.74245   0.81448 
 H                     2.8944   -3.21381  -0.9051 
 H                     1.2183   -3.53962  -0.29328 
 H                     2.25355  -1.91439   2.32825 
 H                     1.26125  -1.36978  -1.55902 
 H                    -0.43211  -2.44241  -0.04994 
 H                    -0.51491  -0.94356   0.95291 
 H                    -1.10556  -1.07526  -2.09291 
 
 ITRead=  0  0  0  0  0  0  0  0  0  0  0  0  0  0  0  0  0  0  0  0
 ITRead=  0  0  0  0  0  0  0  0  0  0  0  0  0  0  0  0  0  0  0  0
 ITRead=  0  0  0  0  0  0  0  0  0  0  0  0  0  0  0  0
 MicOpt= -1 -1 -1 -1 -1 -1 -1 -1 -1 -1 -1 -1 -1 -1 -1 -1 -1 -1 -1 -1
 MicOpt= -1 -1 -1 -1 -1 -1 -1 -1 -1 -1 -1 -1 -1 -1 -1 -1 -1 -1 -1 -1
 MicOpt= -1 -1 -1 -1 -1 -1 -1 -1 -1 -1 -1 -1 -1 -1 -1 -1
 NAtoms=     56 NQM=       56 NQMF=       0 NMMI=      0 NMMIF=      0
                NMic=       0 NMicF=      0.
                    Isotopes and Nuclear Properties:
 (Nuclear quadrupole moments (NQMom) in fm**2, nuclear magnetic moments (NMagM)
  in nuclear magnetons)

  Atom         1           2           3           4           5           6           7           8           9          10
 IAtWgt=          12          14          12          12          12          16          12          12          14          16
 AtmWgt=  12.0000000  14.0030740  12.0000000  12.0000000  12.0000000  15.9949146  12.0000000  12.0000000  14.0030740  15.9949146
 NucSpn=           0           2           0           0           0           0           0           0           2           0
 AtZEff=  -0.0000000  -0.0000000  -0.0000000  -0.0000000  -0.0000000  -0.0000000  -0.0000000  -0.0000000  -0.0000000  -0.0000000
 NQMom=    0.0000000   2.0440000   0.0000000   0.0000000   0.0000000   0.0000000   0.0000000   0.0000000   2.0440000   0.0000000
 NMagM=    0.0000000   0.4037610   0.0000000   0.0000000   0.0000000   0.0000000   0.0000000   0.0000000   0.4037610   0.0000000
 AtZNuc=   6.0000000   7.0000000   6.0000000   6.0000000   6.0000000   8.0000000   6.0000000   6.0000000   7.0000000   8.0000000

  Atom        11          12          13          14          15          16          17          18          19          20
 IAtWgt=          12          16          12          16          12          16          12          12          16          12
 AtmWgt=  12.0000000  15.9949146  12.0000000  15.9949146  12.0000000  15.9949146  12.0000000  12.0000000  15.9949146  12.0000000
 NucSpn=           0           0           0           0           0           0           0           0           0           0
 AtZEff=  -0.0000000  -0.0000000  -0.0000000  -0.0000000  -0.0000000  -0.0000000  -0.0000000  -0.0000000  -0.0000000  -0.0000000
 NQMom=    0.0000000   0.0000000   0.0000000   0.0000000   0.0000000   0.0000000   0.0000000   0.0000000   0.0000000   0.0000000
 NMagM=    0.0000000   0.0000000   0.0000000   0.0000000   0.0000000   0.0000000   0.0000000   0.0000000   0.0000000   0.0000000
 AtZNuc=   6.0000000   8.0000000   6.0000000   8.0000000   6.0000000   8.0000000   6.0000000   6.0000000   8.0000000   6.0000000

  Atom        21          22          23          24          25          26          27          28          29          30
 IAtWgt=          12          16          12          12          12          12          12          12          16          12
 AtmWgt=  12.0000000  15.9949146  12.0000000  12.0000000  12.0000000  12.0000000  12.0000000  12.0000000  15.9949146  12.0000000
 NucSpn=           0           0           0           0           0           0           0           0           0           0
 AtZEff=  -0.0000000  -0.0000000  -0.0000000  -0.0000000  -0.0000000  -0.0000000  -0.0000000  -0.0000000  -0.0000000  -0.0000000
 NQMom=    0.0000000   0.0000000   0.0000000   0.0000000   0.0000000   0.0000000   0.0000000   0.0000000   0.0000000   0.0000000
 NMagM=    0.0000000   0.0000000   0.0000000   0.0000000   0.0000000   0.0000000   0.0000000   0.0000000   0.0000000   0.0000000
 AtZNuc=   6.0000000   8.0000000   6.0000000   6.0000000   6.0000000   6.0000000   6.0000000   6.0000000   8.0000000   6.0000000

  Atom        31          32          33          34          35          36          37          38          39          40
 IAtWgt=          12          12           1           1           1           1           1           1           1           1
 AtmWgt=  12.0000000  12.0000000   1.0078250   1.0078250   1.0078250   1.0078250   1.0078250   1.0078250   1.0078250   1.0078250
 NucSpn=           0           0           1           1           1           1           1           1           1           1
 AtZEff=  -0.0000000  -0.0000000  -0.0000000  -0.0000000  -0.0000000  -0.0000000  -0.0000000  -0.0000000  -0.0000000  -0.0000000
 NQMom=    0.0000000   0.0000000   0.0000000   0.0000000   0.0000000   0.0000000   0.0000000   0.0000000   0.0000000   0.0000000
 NMagM=    0.0000000   0.0000000   2.7928460   2.7928460   2.7928460   2.7928460   2.7928460   2.7928460   2.7928460   2.7928460
 AtZNuc=   6.0000000   6.0000000   1.0000000   1.0000000   1.0000000   1.0000000   1.0000000   1.0000000   1.0000000   1.0000000

  Atom        41          42          43          44          45          46          47          48          49          50
 IAtWgt=           1           1           1           1           1           1           1           1           1           1
 AtmWgt=   1.0078250   1.0078250   1.0078250   1.0078250   1.0078250   1.0078250   1.0078250   1.0078250   1.0078250   1.0078250
 NucSpn=           1           1           1           1           1           1           1           1           1           1
 AtZEff=  -0.0000000  -0.0000000  -0.0000000  -0.0000000  -0.0000000  -0.0000000  -0.0000000  -0.0000000  -0.0000000  -0.0000000
 NQMom=    0.0000000   0.0000000   0.0000000   0.0000000   0.0000000   0.0000000   0.0000000   0.0000000   0.0000000   0.0000000
 NMagM=    2.7928460   2.7928460   2.7928460   2.7928460   2.7928460   2.7928460   2.7928460   2.7928460   2.7928460   2.7928460
 AtZNuc=   1.0000000   1.0000000   1.0000000   1.0000000   1.0000000   1.0000000   1.0000000   1.0000000   1.0000000   1.0000000

  Atom        51          52          53          54          55          56
 IAtWgt=           1           1           1           1           1           1
 AtmWgt=   1.0078250   1.0078250   1.0078250   1.0078250   1.0078250   1.0078250
 NucSpn=           1           1           1           1           1           1
 AtZEff=  -0.0000000  -0.0000000  -0.0000000  -0.0000000  -0.0000000  -0.0000000
 NQMom=    0.0000000   0.0000000   0.0000000   0.0000000   0.0000000   0.0000000
 NMagM=    2.7928460   2.7928460   2.7928460   2.7928460   2.7928460   2.7928460
 AtZNuc=   1.0000000   1.0000000   1.0000000   1.0000000   1.0000000   1.0000000
 Leave Link  101 at Tue Feb 23 02:35:35 2021, MaxMem=   104857600 cpu:               3.2 elap:               0.2
 (Enter /sw/arch/RedHatEnterpriseServer7/EB_production/2019/software/Gaussian/g16.c01/l103.exe)

 GradGradGradGradGradGradGradGradGradGradGradGradGradGradGradGradGradGrad
 Berny optimization.
 Initialization pass.
                           ----------------------------
                           !    Initial Parameters    !
                           ! (Angstroms and Degrees)  !
 --------------------------                            --------------------------
 ! Name  Definition              Value          Derivative Info.                !
 --------------------------------------------------------------------------------
 ! R1    R(1,2)                  1.4494         estimate D2E/DX2                !
 ! R2    R(1,33)                 1.124          estimate D2E/DX2                !
 ! R3    R(1,34)                 1.1218         estimate D2E/DX2                !
 ! R4    R(1,35)                 1.123          estimate D2E/DX2                !
 ! R5    R(2,3)                  1.4499         estimate D2E/DX2                !
 ! R6    R(2,4)                  1.4674         estimate D2E/DX2                !
 ! R7    R(3,36)                 1.1241         estimate D2E/DX2                !
 ! R8    R(3,37)                 1.1219         estimate D2E/DX2                !
 ! R9    R(3,38)                 1.1216         estimate D2E/DX2                !
 ! R10   R(4,5)                  1.5373         estimate D2E/DX2                !
 ! R11   R(4,32)                 1.5408         estimate D2E/DX2                !
 ! R12   R(4,39)                 1.1372         estimate D2E/DX2                !
 ! R13   R(5,6)                  1.2383         estimate D2E/DX2                !
 ! R14   R(5,7)                  1.4625         estimate D2E/DX2                !
 ! R15   R(7,8)                  1.4877         estimate D2E/DX2                !
 ! R16   R(7,11)                 1.3698         estimate D2E/DX2                !
 ! R17   R(8,9)                  1.3656         estimate D2E/DX2                !
 ! R18   R(8,10)                 1.2597         estimate D2E/DX2                !
 ! R19   R(9,40)                 0.991          estimate D2E/DX2                !
 ! R20   R(9,41)                 0.9916         estimate D2E/DX2                !
 ! R21   R(11,12)                1.3481         estimate D2E/DX2                !
 ! R22   R(11,13)                1.5296         estimate D2E/DX2                !
 ! R23   R(12,42)                0.9791         estimate D2E/DX2                !
 ! R24   R(13,14)                1.423          estimate D2E/DX2                !
 ! R25   R(13,15)                1.5427         estimate D2E/DX2                !
 ! R26   R(13,32)                1.531          estimate D2E/DX2                !
 ! R27   R(14,43)                0.9669         estimate D2E/DX2                !
 ! R28   R(15,16)                1.2402         estimate D2E/DX2                !
 ! R29   R(15,17)                1.4644         estimate D2E/DX2                !
 ! R30   R(17,18)                1.3688         estimate D2E/DX2                !
 ! R31   R(17,30)                1.49           estimate D2E/DX2                !
 ! R32   R(18,19)                1.3655         estimate D2E/DX2                !
 ! R33   R(18,20)                1.4629         estimate D2E/DX2                !
 ! R34   R(19,44)                0.9731         estimate D2E/DX2                !
 ! R35   R(20,21)                1.4114         estimate D2E/DX2                !
 ! R36   R(20,26)                1.4098         estimate D2E/DX2                !
 ! R37   R(21,22)                1.3674         estimate D2E/DX2                !
 ! R38   R(21,23)                1.4123         estimate D2E/DX2                !
 ! R39   R(22,45)                0.9687         estimate D2E/DX2                !
 ! R40   R(23,24)                1.3839         estimate D2E/DX2                !
 ! R41   R(23,46)                1.0999         estimate D2E/DX2                !
 ! R42   R(24,25)                1.3974         estimate D2E/DX2                !
 ! R43   R(24,47)                1.101          estimate D2E/DX2                !
 ! R44   R(25,26)                1.3943         estimate D2E/DX2                !
 ! R45   R(25,48)                1.1001         estimate D2E/DX2                !
 ! R46   R(26,27)                1.5129         estimate D2E/DX2                !
 ! R47   R(27,28)                1.5355         estimate D2E/DX2                !
 ! R48   R(27,29)                1.429          estimate D2E/DX2                !
 ! R49   R(27,30)                1.5487         estimate D2E/DX2                !
 ! R50   R(28,49)                1.1163         estimate D2E/DX2                !
 ! R51   R(28,50)                1.1152         estimate D2E/DX2                !
 ! R52   R(28,51)                1.1154         estimate D2E/DX2                !
 ! R53   R(29,52)                0.9654         estimate D2E/DX2                !
 ! R54   R(30,31)                1.5223         estimate D2E/DX2                !
 ! R55   R(30,53)                1.1314         estimate D2E/DX2                !
 ! R56   R(31,32)                1.5179         estimate D2E/DX2                !
 ! R57   R(31,54)                1.1212         estimate D2E/DX2                !
 ! R58   R(31,55)                1.1237         estimate D2E/DX2                !
 ! R59   R(32,56)                1.1268         estimate D2E/DX2                !
 ! A1    A(2,1,33)             113.2705         estimate D2E/DX2                !
 ! A2    A(2,1,34)             109.1964         estimate D2E/DX2                !
 ! A3    A(2,1,35)             108.6567         estimate D2E/DX2                !
 ! A4    A(33,1,34)            108.4317         estimate D2E/DX2                !
 ! A5    A(33,1,35)            108.9873         estimate D2E/DX2                !
 ! A6    A(34,1,35)            108.1805         estimate D2E/DX2                !
 ! A7    A(1,2,3)              112.2301         estimate D2E/DX2                !
 ! A8    A(1,2,4)              112.6257         estimate D2E/DX2                !
 ! A9    A(3,2,4)              112.213          estimate D2E/DX2                !
 ! A10   A(2,3,36)             113.1559         estimate D2E/DX2                !
 ! A11   A(2,3,37)             109.3371         estimate D2E/DX2                !
 ! A12   A(2,3,38)             108.5615         estimate D2E/DX2                !
 ! A13   A(36,3,37)            108.4311         estimate D2E/DX2                !
 ! A14   A(36,3,38)            108.7866         estimate D2E/DX2                !
 ! A15   A(37,3,38)            108.4703         estimate D2E/DX2                !
 ! A16   A(2,4,5)              111.1309         estimate D2E/DX2                !
 ! A17   A(2,4,32)             114.391          estimate D2E/DX2                !
 ! A18   A(2,4,39)             109.7556         estimate D2E/DX2                !
 ! A19   A(5,4,32)             107.8139         estimate D2E/DX2                !
 ! A20   A(5,4,39)             106.513          estimate D2E/DX2                !
 ! A21   A(32,4,39)            106.8572         estimate D2E/DX2                !
 ! A22   A(4,5,6)              118.5129         estimate D2E/DX2                !
 ! A23   A(4,5,7)              116.7466         estimate D2E/DX2                !
 ! A24   A(6,5,7)              124.7382         estimate D2E/DX2                !
 ! A25   A(5,7,8)              119.8044         estimate D2E/DX2                !
 ! A26   A(5,7,11)             120.4048         estimate D2E/DX2                !
 ! A27   A(8,7,11)             119.7601         estimate D2E/DX2                !
 ! A28   A(7,8,9)              120.5539         estimate D2E/DX2                !
 ! A29   A(7,8,10)             120.6216         estimate D2E/DX2                !
 ! A30   A(9,8,10)             118.7777         estimate D2E/DX2                !
 ! A31   A(8,9,40)             118.4055         estimate D2E/DX2                !
 ! A32   A(8,9,41)             121.2553         estimate D2E/DX2                !
 ! A33   A(40,9,41)            118.9093         estimate D2E/DX2                !
 ! A34   A(7,11,12)            126.0806         estimate D2E/DX2                !
 ! A35   A(7,11,13)            123.9959         estimate D2E/DX2                !
 ! A36   A(12,11,13)           109.9228         estimate D2E/DX2                !
 ! A37   A(11,12,42)           112.1186         estimate D2E/DX2                !
 ! A38   A(11,13,14)           110.0763         estimate D2E/DX2                !
 ! A39   A(11,13,15)           109.1053         estimate D2E/DX2                !
 ! A40   A(11,13,32)           111.3437         estimate D2E/DX2                !
 ! A41   A(14,13,15)           103.588          estimate D2E/DX2                !
 ! A42   A(14,13,32)           110.1046         estimate D2E/DX2                !
 ! A43   A(15,13,32)           112.3496         estimate D2E/DX2                !
 ! A44   A(13,14,43)           108.0129         estimate D2E/DX2                !
 ! A45   A(13,15,16)           117.51           estimate D2E/DX2                !
 ! A46   A(13,15,17)           120.787          estimate D2E/DX2                !
 ! A47   A(16,15,17)           121.6957         estimate D2E/DX2                !
 ! A48   A(15,17,18)           120.9058         estimate D2E/DX2                !
 ! A49   A(15,17,30)           119.0617         estimate D2E/DX2                !
 ! A50   A(18,17,30)           119.8481         estimate D2E/DX2                !
 ! A51   A(17,18,19)           125.0463         estimate D2E/DX2                !
 ! A52   A(17,18,20)           122.7351         estimate D2E/DX2                !
 ! A53   A(19,18,20)           112.1998         estimate D2E/DX2                !
 ! A54   A(18,19,44)           111.7007         estimate D2E/DX2                !
 ! A55   A(18,20,21)           123.2104         estimate D2E/DX2                !
 ! A56   A(18,20,26)           118.1535         estimate D2E/DX2                !
 ! A57   A(21,20,26)           118.6226         estimate D2E/DX2                !
 ! A58   A(20,21,22)           125.8314         estimate D2E/DX2                !
 ! A59   A(20,21,23)           120.6122         estimate D2E/DX2                !
 ! A60   A(22,21,23)           113.5557         estimate D2E/DX2                !
 ! A61   A(21,22,45)           110.6896         estimate D2E/DX2                !
 ! A62   A(21,23,24)           119.5729         estimate D2E/DX2                !
 ! A63   A(21,23,46)           118.7484         estimate D2E/DX2                !
 ! A64   A(24,23,46)           121.6778         estimate D2E/DX2                !
 ! A65   A(23,24,25)           120.2611         estimate D2E/DX2                !
 ! A66   A(23,24,47)           119.9783         estimate D2E/DX2                !
 ! A67   A(25,24,47)           119.757          estimate D2E/DX2                !
 ! A68   A(24,25,26)           120.738          estimate D2E/DX2                !
 ! A69   A(24,25,48)           118.9183         estimate D2E/DX2                !
 ! A70   A(26,25,48)           120.343          estimate D2E/DX2                !
 ! A71   A(20,26,25)           120.0001         estimate D2E/DX2                !
 ! A72   A(20,26,27)           121.1003         estimate D2E/DX2                !
 ! A73   A(25,26,27)           118.8848         estimate D2E/DX2                !
 ! A74   A(26,27,28)           109.256          estimate D2E/DX2                !
 ! A75   A(26,27,29)           109.6154         estimate D2E/DX2                !
 ! A76   A(26,27,30)           113.364          estimate D2E/DX2                !
 ! A77   A(28,27,29)           109.1168         estimate D2E/DX2                !
 ! A78   A(28,27,30)           108.4645         estimate D2E/DX2                !
 ! A79   A(29,27,30)           106.931          estimate D2E/DX2                !
 ! A80   A(27,28,49)           110.3015         estimate D2E/DX2                !
 ! A81   A(27,28,50)           110.1484         estimate D2E/DX2                !
 ! A82   A(27,28,51)           110.7072         estimate D2E/DX2                !
 ! A83   A(49,28,50)           109.2249         estimate D2E/DX2                !
 ! A84   A(49,28,51)           107.5934         estimate D2E/DX2                !
 ! A85   A(50,28,51)           108.8063         estimate D2E/DX2                !
 ! A86   A(27,29,52)           107.0064         estimate D2E/DX2                !
 ! A87   A(17,30,27)           114.6168         estimate D2E/DX2                !
 ! A88   A(17,30,31)           110.8524         estimate D2E/DX2                !
 ! A89   A(17,30,53)           107.1004         estimate D2E/DX2                !
 ! A90   A(27,30,31)           109.16           estimate D2E/DX2                !
 ! A91   A(27,30,53)           106.0875         estimate D2E/DX2                !
 ! A92   A(31,30,53)           108.7605         estimate D2E/DX2                !
 ! A93   A(30,31,32)           111.0719         estimate D2E/DX2                !
 ! A94   A(30,31,54)           109.6022         estimate D2E/DX2                !
 ! A95   A(30,31,55)           109.392          estimate D2E/DX2                !
 ! A96   A(32,31,54)           109.46           estimate D2E/DX2                !
 ! A97   A(32,31,55)           110.1689         estimate D2E/DX2                !
 ! A98   A(54,31,55)           107.0586         estimate D2E/DX2                !
 ! A99   A(4,32,13)            112.0989         estimate D2E/DX2                !
 ! A100  A(4,32,31)            108.8189         estimate D2E/DX2                !
 ! A101  A(4,32,56)            109.263          estimate D2E/DX2                !
 ! A102  A(13,32,31)           110.3787         estimate D2E/DX2                !
 ! A103  A(13,32,56)           107.3221         estimate D2E/DX2                !
 ! A104  A(31,32,56)           108.9002         estimate D2E/DX2                !
 ! D1    D(33,1,2,3)           -77.8429         estimate D2E/DX2                !
 ! D2    D(33,1,2,4)            49.9495         estimate D2E/DX2                !
 ! D3    D(34,1,2,3)            43.099          estimate D2E/DX2                !
 ! D4    D(34,1,2,4)           170.8914         estimate D2E/DX2                !
 ! D5    D(35,1,2,3)           160.8907         estimate D2E/DX2                !
 ! D6    D(35,1,2,4)           -71.3169         estimate D2E/DX2                !
 ! D7    D(1,2,3,36)            65.6056         estimate D2E/DX2                !
 ! D8    D(1,2,3,37)          -173.4297         estimate D2E/DX2                !
 ! D9    D(1,2,3,38)           -55.2646         estimate D2E/DX2                !
 ! D10   D(4,2,3,36)           -62.4055         estimate D2E/DX2                !
 ! D11   D(4,2,3,37)            58.5592         estimate D2E/DX2                !
 ! D12   D(4,2,3,38)           176.7243         estimate D2E/DX2                !
 ! D13   D(1,2,4,5)            178.6419         estimate D2E/DX2                !
 ! D14   D(1,2,4,32)            56.2731         estimate D2E/DX2                !
 ! D15   D(1,2,4,39)           -63.8041         estimate D2E/DX2                !
 ! D16   D(3,2,4,5)            -53.5568         estimate D2E/DX2                !
 ! D17   D(3,2,4,32)          -175.9255         estimate D2E/DX2                !
 ! D18   D(3,2,4,39)            63.9973         estimate D2E/DX2                !
 ! D19   D(2,4,5,6)             99.9944         estimate D2E/DX2                !
 ! D20   D(2,4,5,7)            -80.5288         estimate D2E/DX2                !
 ! D21   D(32,4,5,6)          -133.9041         estimate D2E/DX2                !
 ! D22   D(32,4,5,7)            45.5727         estimate D2E/DX2                !
 ! D23   D(39,4,5,6)           -19.5135         estimate D2E/DX2                !
 ! D24   D(39,4,5,7)           159.9633         estimate D2E/DX2                !
 ! D25   D(2,4,32,13)           63.7067         estimate D2E/DX2                !
 ! D26   D(2,4,32,31)         -173.9199         estimate D2E/DX2                !
 ! D27   D(2,4,32,56)          -55.1295         estimate D2E/DX2                !
 ! D28   D(5,4,32,13)          -60.4504         estimate D2E/DX2                !
 ! D29   D(5,4,32,31)           61.923          estimate D2E/DX2                !
 ! D30   D(5,4,32,56)         -179.2866         estimate D2E/DX2                !
 ! D31   D(39,4,32,13)        -174.6123         estimate D2E/DX2                !
 ! D32   D(39,4,32,31)         -52.2389         estimate D2E/DX2                !
 ! D33   D(39,4,32,56)          66.5515         estimate D2E/DX2                !
 ! D34   D(4,5,7,8)            163.2038         estimate D2E/DX2                !
 ! D35   D(4,5,7,11)           -14.7755         estimate D2E/DX2                !
 ! D36   D(6,5,7,8)            -17.3557         estimate D2E/DX2                !
 ! D37   D(6,5,7,11)           164.6651         estimate D2E/DX2                !
 ! D38   D(5,7,8,9)             30.7438         estimate D2E/DX2                !
 ! D39   D(5,7,8,10)          -151.7756         estimate D2E/DX2                !
 ! D40   D(11,7,8,9)          -151.2638         estimate D2E/DX2                !
 ! D41   D(11,7,8,10)           26.2167         estimate D2E/DX2                !
 ! D42   D(5,7,11,12)          176.7923         estimate D2E/DX2                !
 ! D43   D(5,7,11,13)           -3.5256         estimate D2E/DX2                !
 ! D44   D(8,7,11,12)           -1.1878         estimate D2E/DX2                !
 ! D45   D(8,7,11,13)          178.4943         estimate D2E/DX2                !
 ! D46   D(7,8,9,40)          -175.8501         estimate D2E/DX2                !
 ! D47   D(7,8,9,41)            -9.6461         estimate D2E/DX2                !
 ! D48   D(10,8,9,40)            6.6235         estimate D2E/DX2                !
 ! D49   D(10,8,9,41)          172.8275         estimate D2E/DX2                !
 ! D50   D(7,11,12,42)          -5.9969         estimate D2E/DX2                !
 ! D51   D(13,11,12,42)        174.2834         estimate D2E/DX2                !
 ! D52   D(7,11,13,14)         110.9172         estimate D2E/DX2                !
 ! D53   D(7,11,13,15)        -136.0465         estimate D2E/DX2                !
 ! D54   D(7,11,13,32)         -11.4767         estimate D2E/DX2                !
 ! D55   D(12,11,13,14)        -69.3561         estimate D2E/DX2                !
 ! D56   D(12,11,13,15)         43.6803         estimate D2E/DX2                !
 ! D57   D(12,11,13,32)        168.25           estimate D2E/DX2                !
 ! D58   D(11,13,14,43)        -42.3985         estimate D2E/DX2                !
 ! D59   D(15,13,14,43)       -158.9404         estimate D2E/DX2                !
 ! D60   D(32,13,14,43)         80.724          estimate D2E/DX2                !
 ! D61   D(11,13,15,16)        -80.8298         estimate D2E/DX2                !
 ! D62   D(11,13,15,17)        100.1341         estimate D2E/DX2                !
 ! D63   D(14,13,15,16)         36.3938         estimate D2E/DX2                !
 ! D64   D(14,13,15,17)       -142.6423         estimate D2E/DX2                !
 ! D65   D(32,13,15,16)        155.1923         estimate D2E/DX2                !
 ! D66   D(32,13,15,17)        -23.8439         estimate D2E/DX2                !
 ! D67   D(11,13,32,4)          43.929          estimate D2E/DX2                !
 ! D68   D(11,13,32,31)        -77.553          estimate D2E/DX2                !
 ! D69   D(11,13,32,56)        163.9037         estimate D2E/DX2                !
 ! D70   D(14,13,32,4)         -78.4485         estimate D2E/DX2                !
 ! D71   D(14,13,32,31)        160.0694         estimate D2E/DX2                !
 ! D72   D(14,13,32,56)         41.5261         estimate D2E/DX2                !
 ! D73   D(15,13,32,4)         166.6539         estimate D2E/DX2                !
 ! D74   D(15,13,32,31)         45.1719         estimate D2E/DX2                !
 ! D75   D(15,13,32,56)        -73.3715         estimate D2E/DX2                !
 ! D76   D(13,15,17,18)       -165.7666         estimate D2E/DX2                !
 ! D77   D(13,15,17,30)         19.1767         estimate D2E/DX2                !
 ! D78   D(16,15,17,18)         15.2382         estimate D2E/DX2                !
 ! D79   D(16,15,17,30)       -159.8186         estimate D2E/DX2                !
 ! D80   D(15,17,18,19)          7.5681         estimate D2E/DX2                !
 ! D81   D(15,17,18,20)       -174.1311         estimate D2E/DX2                !
 ! D82   D(30,17,18,19)       -177.4136         estimate D2E/DX2                !
 ! D83   D(30,17,18,20)          0.8871         estimate D2E/DX2                !
 ! D84   D(15,17,30,27)       -158.9971         estimate D2E/DX2                !
 ! D85   D(15,17,30,31)        -34.8823         estimate D2E/DX2                !
 ! D86   D(15,17,30,53)         83.6243         estimate D2E/DX2                !
 ! D87   D(18,17,30,27)         25.8927         estimate D2E/DX2                !
 ! D88   D(18,17,30,31)        150.0076         estimate D2E/DX2                !
 ! D89   D(18,17,30,53)        -91.4858         estimate D2E/DX2                !
 ! D90   D(17,18,19,44)          2.5845         estimate D2E/DX2                !
 ! D91   D(20,18,19,44)       -175.8717         estimate D2E/DX2                !
 ! D92   D(17,18,20,21)        163.9303         estimate D2E/DX2                !
 ! D93   D(17,18,20,26)        -17.4291         estimate D2E/DX2                !
 ! D94   D(19,18,20,21)        -17.5722         estimate D2E/DX2                !
 ! D95   D(19,18,20,26)        161.0684         estimate D2E/DX2                !
 ! D96   D(18,20,21,22)         -5.3436         estimate D2E/DX2                !
 ! D97   D(18,20,21,23)        174.3357         estimate D2E/DX2                !
 ! D98   D(26,20,21,22)        176.0218         estimate D2E/DX2                !
 ! D99   D(26,20,21,23)         -4.2988         estimate D2E/DX2                !
 ! D100  D(18,20,26,25)       -173.5764         estimate D2E/DX2                !
 ! D101  D(18,20,26,27)          5.0079         estimate D2E/DX2                !
 ! D102  D(21,20,26,25)          5.1279         estimate D2E/DX2                !
 ! D103  D(21,20,26,27)       -176.2878         estimate D2E/DX2                !
 ! D104  D(20,21,22,45)        -12.8899         estimate D2E/DX2                !
 ! D105  D(23,21,22,45)        167.4112         estimate D2E/DX2                !
 ! D106  D(20,21,23,24)          0.8676         estimate D2E/DX2                !
 ! D107  D(20,21,23,46)       -178.81           estimate D2E/DX2                !
 ! D108  D(22,21,23,24)       -179.416          estimate D2E/DX2                !
 ! D109  D(22,21,23,46)          0.9063         estimate D2E/DX2                !
 ! D110  D(21,23,24,25)          1.7894         estimate D2E/DX2                !
 ! D111  D(21,23,24,47)       -178.9008         estimate D2E/DX2                !
 ! D112  D(46,23,24,25)       -178.5427         estimate D2E/DX2                !
 ! D113  D(46,23,24,47)          0.7671         estimate D2E/DX2                !
 ! D114  D(23,24,25,26)         -0.9433         estimate D2E/DX2                !
 ! D115  D(23,24,25,48)        178.7393         estimate D2E/DX2                !
 ! D116  D(47,24,25,26)        179.7454         estimate D2E/DX2                !
 ! D117  D(47,24,25,48)         -0.572          estimate D2E/DX2                !
 ! D118  D(24,25,26,20)         -2.5825         estimate D2E/DX2                !
 ! D119  D(24,25,26,27)        178.802          estimate D2E/DX2                !
 ! D120  D(48,25,26,20)        177.7394         estimate D2E/DX2                !
 ! D121  D(48,25,26,27)         -0.8761         estimate D2E/DX2                !
 ! D122  D(20,26,27,28)        141.8918         estimate D2E/DX2                !
 ! D123  D(20,26,27,29)        -98.5853         estimate D2E/DX2                !
 ! D124  D(20,26,27,30)         20.8033         estimate D2E/DX2                !
 ! D125  D(25,26,27,28)        -39.5085         estimate D2E/DX2                !
 ! D126  D(25,26,27,29)         80.0145         estimate D2E/DX2                !
 ! D127  D(25,26,27,30)       -160.5969         estimate D2E/DX2                !
 ! D128  D(26,27,28,49)         77.0154         estimate D2E/DX2                !
 ! D129  D(26,27,28,50)        -43.6289         estimate D2E/DX2                !
 ! D130  D(26,27,28,51)       -164.0129         estimate D2E/DX2                !
 ! D131  D(29,27,28,49)        -42.8151         estimate D2E/DX2                !
 ! D132  D(29,27,28,50)       -163.4593         estimate D2E/DX2                !
 ! D133  D(29,27,28,51)         76.1567         estimate D2E/DX2                !
 ! D134  D(30,27,28,49)       -158.9623         estimate D2E/DX2                !
 ! D135  D(30,27,28,50)         80.3934         estimate D2E/DX2                !
 ! D136  D(30,27,28,51)        -39.9906         estimate D2E/DX2                !
 ! D137  D(26,27,29,52)        -48.4275         estimate D2E/DX2                !
 ! D138  D(28,27,29,52)         71.1808         estimate D2E/DX2                !
 ! D139  D(30,27,29,52)       -171.6962         estimate D2E/DX2                !
 ! D140  D(26,27,30,17)        -35.4269         estimate D2E/DX2                !
 ! D141  D(26,27,30,31)       -160.4363         estimate D2E/DX2                !
 ! D142  D(26,27,30,53)         82.5274         estimate D2E/DX2                !
 ! D143  D(28,27,30,17)       -156.9598         estimate D2E/DX2                !
 ! D144  D(28,27,30,31)         78.0308         estimate D2E/DX2                !
 ! D145  D(28,27,30,53)        -39.0055         estimate D2E/DX2                !
 ! D146  D(29,27,30,17)         85.4879         estimate D2E/DX2                !
 ! D147  D(29,27,30,31)        -39.5215         estimate D2E/DX2                !
 ! D148  D(29,27,30,53)       -156.5579         estimate D2E/DX2                !
 ! D149  D(17,30,31,32)         57.7309         estimate D2E/DX2                !
 ! D150  D(17,30,31,54)        178.8088         estimate D2E/DX2                !
 ! D151  D(17,30,31,55)        -64.0953         estimate D2E/DX2                !
 ! D152  D(27,30,31,32)       -175.0954         estimate D2E/DX2                !
 ! D153  D(27,30,31,54)        -54.0175         estimate D2E/DX2                !
 ! D154  D(27,30,31,55)         63.0784         estimate D2E/DX2                !
 ! D155  D(53,30,31,32)        -59.7654         estimate D2E/DX2                !
 ! D156  D(53,30,31,54)         61.3125         estimate D2E/DX2                !
 ! D157  D(53,30,31,55)        178.4084         estimate D2E/DX2                !
 ! D158  D(30,31,32,4)         172.3171         estimate D2E/DX2                !
 ! D159  D(30,31,32,13)        -64.2756         estimate D2E/DX2                !
 ! D160  D(30,31,32,56)         53.2994         estimate D2E/DX2                !
 ! D161  D(54,31,32,4)          51.1557         estimate D2E/DX2                !
 ! D162  D(54,31,32,13)        174.563          estimate D2E/DX2                !
 ! D163  D(54,31,32,56)        -67.862          estimate D2E/DX2                !
 ! D164  D(55,31,32,4)         -66.3108         estimate D2E/DX2                !
 ! D165  D(55,31,32,13)         57.0965         estimate D2E/DX2                !
 ! D166  D(55,31,32,56)        174.6715         estimate D2E/DX2                !
 --------------------------------------------------------------------------------
 Trust Radius=3.00D-01 FncErr=1.00D-07 GrdErr=1.00D-06 EigMax=2.50D+02 EigMin=1.00D-04
 Number of steps in this run=    336 maximum allowed number of steps=    336.
 GradGradGradGradGradGradGradGradGradGradGradGradGradGradGradGradGradGrad

 Leave Link  103 at Tue Feb 23 02:35:36 2021, MaxMem=   104857600 cpu:               0.8 elap:               0.1
 (Enter /sw/arch/RedHatEnterpriseServer7/EB_production/2019/software/Gaussian/g16.c01/l202.exe)
 Stoichiometry    C22H24N2O8
 Framework group  C1[X(C22H24N2O8)]
 Deg. of freedom   162
 Full point group                 C1      NOp   1
 Largest Abelian subgroup         C1      NOp   1
 Largest concise Abelian subgroup C1      NOp   1
                         Standard orientation:                         
 ---------------------------------------------------------------------
 Center     Atomic      Atomic             Coordinates (Angstroms)
 Number     Number       Type             X           Y           Z
 ---------------------------------------------------------------------
      1          6           0       -3.531710   -1.358660   -2.967927
      2          7           0       -3.822852   -0.961232   -1.604789
      3          6           0       -5.119101   -1.434850   -1.160308
      4          6           0       -2.750320   -1.321538   -0.670414
      5          6           0       -3.078968   -0.855064    0.757015
      6          8           0       -3.525664   -1.683635    1.561510
      7          6           0       -2.824089    0.551828    1.064790
      8          6           0       -3.446066    1.170330    2.266346
      9          7           0       -3.703683    0.420718    3.378347
     10          8           0       -3.701104    2.403632    2.293915
     11          6           0       -2.049615    1.314583    0.231213
     12          8           0       -1.791498    2.630442    0.370373
     13          6           0       -1.338351    0.772276   -1.009687
     14          8           0       -1.940540    1.298242   -2.186867
     15          6           0        0.097505    1.334567   -1.054837
     16          8           0        0.249206    2.483309   -1.496852
     17          6           0        1.233850    0.525026   -0.609971
     18          6           0        2.454628    1.096976   -0.373216
     19          8           0        2.705241    2.439256   -0.374945
     20          6           0        3.646322    0.312599   -0.049587
     21          6           0        4.956911    0.830995   -0.124711
     22          8           0        5.303014    2.067052   -0.595983
     23          6           0        6.059512    0.064883    0.313245
     24          6           0        5.852013   -1.212485    0.803559
     25          6           0        4.564893   -1.755912    0.830701
     26          6           0        3.469830   -1.017026    0.384692
     27          6           0        2.098834   -1.656295    0.407203
     28          6           0        2.218041   -3.125470   -0.022832
     29          8           0        1.564080   -1.598093    1.731053
     30          6           0        1.078516   -0.954296   -0.522621
     31          6           0       -0.332154   -1.326304   -0.087710
     32          6           0       -1.365589   -0.758087   -1.043365
     33          1           0       -3.208008   -2.431278   -3.058252
     34          1           0       -4.447205   -1.210123   -3.598971
     35          1           0       -2.718287   -0.696481   -3.369252
     36          1           0       -5.179781   -2.554999   -1.089009
     37          1           0       -5.346349   -1.002331   -0.150429
     38          1           0       -5.897543   -1.076268   -1.883793
     39          1           0       -2.644533   -2.452896   -0.624444
     40          1           0       -4.175151    0.849600    4.137147
     41          1           0       -3.617046   -0.566960    3.364416
     42          1           0       -2.302508    3.030873    1.103304
     43          1           0       -2.899772    1.276262   -2.067427
     44          1           0        1.895103    2.956339   -0.527187
     45          1           0        4.558859    2.476388   -1.061916
     46          1           0        7.065448    0.506505    0.259159
     47          1           0        6.704659   -1.808803    1.163636
     48          1           0        4.428085   -2.781045    1.205586
     49          1           0        2.623592   -3.742451    0.814480
     50          1           0        2.894400   -3.213808   -0.905097
     51          1           0        1.218295   -3.539622   -0.293277
     52          1           0        2.253553   -1.914392    2.328251
     53          1           0        1.261251   -1.369780   -1.559020
     54          1           0       -0.432108   -2.442409   -0.049936
     55          1           0       -0.514912   -0.943562    0.952913
     56          1           0       -1.105559   -1.075262   -2.092913
 ---------------------------------------------------------------------
 Rotational constants (GHZ):           0.2533965           0.0893137           0.0851827
 Leave Link  202 at Tue Feb 23 02:35:36 2021, MaxMem=   104857600 cpu:               1.7 elap:               0.1
 (Enter /sw/arch/RedHatEnterpriseServer7/EB_production/2019/software/Gaussian/g16.c01/l301.exe)
 Standard basis: TZVP (5D, 7F)
 Ernie: Thresh=  0.10000D-02 Tol=  0.10000D-05 Strict=F.
 There are   784 symmetry adapted cartesian basis functions of A   symmetry.
 There are   752 symmetry adapted basis functions of A   symmetry.
   752 basis functions,  1312 primitive gaussians,   784 cartesian basis functions
   117 alpha electrons      117 beta electrons
       nuclear repulsion energy      3528.9294793361 Hartrees.
 IExCor=  404 DFT=T Ex=B Corr=P86 ExCW=0 ScaHFX=  0.000000
 ScaDFX=  1.000000  1.000000  1.000000  1.000000 ScalE2=  1.000000  1.000000
 IRadAn=      5 IRanWt=     -1 IRanGd=            0 ICorTp=0 IEmpDi=131
 NAtoms=   56 NActive=   56 NUniq=   56 SFac= 1.00D+00 NAtFMM=   60 NAOKFM=F Big=F
 Integral buffers will be    131072 words long.
 Raffenetti 2 integral format.
 Two-electron integral symmetry is turned on.
 R6Disp:  Grimme-D3 Dispersion energy=       -0.0875140413 Hartrees.
 Nuclear repulsion after empirical dispersion term =     3528.8419652948 Hartrees.
 ------------------------------------------------------------------------------
 Polarizable Continuum Model (PCM)
 =================================
 Model                : PCM.
 Atomic radii         : UFF (Universal Force Field).
 Polarization charges : Total charges.
 Charge compensation  : None.
 Solution method      : On-the-fly selection.
 Cavity type          : Scaled VdW (van der Waals Surface) (Alpha=1.100).
 Cavity algorithm     : GePol (No added spheres)
                        Default sphere list used, NSphG=   56.
                        Lebedev-Laikov grids with approx.  5.0 points / Ang**2.
                        Smoothing algorithm: York/Karplus (Gamma=1.0000).
                        Polarization charges: spherical gaussians, with
                                              point-specific exponents (IZeta= 3).
                        Self-potential: point-specific (ISelfS= 7).
                        Self-field    : sphere-specific E.n sum rule (ISelfD= 2).
 1st derivatives      : Analytical E(r).r(x)/FMM algorithm (CHGder, D1EAlg=3).
                        Cavity 1st derivative terms included.
 Solvent              : Water, Eps=  78.355300 Eps(inf)=   1.777849
 ------------------------------------------------------------------------------
 GePol: Number of generator spheres                  =      56
 GePol: Total number of spheres                      =      56
 GePol: Number of exposed spheres                    =      56 (100.00%)
 GePol: Number of points                             =    3554
 GePol: Average weight of points                     =       0.13
 GePol: Minimum weight of points                     =   0.52D-11
 GePol: Maximum weight of points                     =    0.20577
 GePol: Number of points with low weight             =     207
 GePol: Fraction of low-weight points (<1% of avg)   =       5.82%
 GePol: Cavity surface area                          =    457.652 Ang**2
 GePol: Cavity volume                                =    547.710 Ang**3
 Leave Link  301 at Tue Feb 23 02:35:36 2021, MaxMem=   104857600 cpu:               2.9 elap:               0.2
 (Enter /sw/arch/RedHatEnterpriseServer7/EB_production/2019/software/Gaussian/g16.c01/l302.exe)
 NPDir=0 NMtPBC=     1 NCelOv=     1 NCel=       1 NClECP=     1 NCelD=      1
         NCelK=      1 NCelE2=     1 NClLst=     1 CellRange=     0.0.
 One-electron integrals computed using PRISM.
 One-electron integral symmetry used in STVInt
 PrsmSu:  requested number of processors reduced to:  20 ShMem   1 Linda.
 NBasis=   752 RedAO= T EigKep=  7.13D-06  NBF=   752
 NBsUse=   752 1.00D-06 EigRej= -1.00D+00 NBFU=   752
 Precomputing XC quadrature grid using
 IXCGrd= 4 IRadAn=           5 IRanWt=          -1 IRanGd=           0 AccXCQ= 0.00D+00.
 Generated NRdTot=       0 NPtTot=           0 NUsed=           0 NTot=          32
 NSgBfM=   755   755   755   755   755 MxSgAt=    56 MxSgA2=    56.
 Leave Link  302 at Tue Feb 23 02:35:37 2021, MaxMem=   104857600 cpu:              31.2 elap:               1.0
 (Enter /sw/arch/RedHatEnterpriseServer7/EB_production/2019/software/Gaussian/g16.c01/l303.exe)
 DipDrv:  MaxL=1.
 Leave Link  303 at Tue Feb 23 02:35:37 2021, MaxMem=   104857600 cpu:               5.1 elap:               0.2
 (Enter /sw/arch/RedHatEnterpriseServer7/EB_production/2019/software/Gaussian/g16.c01/l401.exe)
 ExpMin= 9.52D-02 ExpMax= 2.70D+04 ExpMxC= 9.22D+02 IAcc=3 IRadAn=         5 AccDes= 0.00D+00
 Harris functional with IExCor=  404 and IRadAn=       5 diagonalized for initial guess.
 HarFok:  IExCor=  404 AccDes= 0.00D+00 IRadAn=         5 IDoV= 1 UseB2=F ITyADJ=14
 ICtDFT=  3500011 ScaDFX=  1.000000  1.000000  1.000000  1.000000
 FoFCou: FMM=F IPFlag=           0 FMFlag=      100000 FMFlg1=           0
         NFxFlg=           0 DoJE=T BraDBF=F KetDBF=T FulRan=T
         wScrn=  0.000000 ICntrl=       500 IOpCl=  0 I1Cent=   200000004 NGrid=           0
         NMat0=    1 NMatS0=      1 NMatT0=    0 NMatD0=    1 NMtDS0=    0 NMtDT0=    0
 Petite list used in FoFCou.
 Harris En= -1565.10788973017    
 JPrj=0 DoOrth=F DoCkMO=F.
 Leave Link  401 at Tue Feb 23 02:35:40 2021, MaxMem=   104857600 cpu:              78.8 elap:               2.6
 (Enter /sw/arch/RedHatEnterpriseServer7/EB_production/2019/software/Gaussian/g16.c01/l502.exe)
 Integral symmetry usage will be decided dynamically.
 Closed shell SCF:
 Using DIIS extrapolation, IDIIS=  1040.
 NGot=   104857600 LenX=   103594170 LenY=   102978730
 Requested convergence on RMS density matrix=1.00D-08 within 128 cycles.
 Requested convergence on MAX density matrix=1.00D-06.
 Requested convergence on             energy=1.00D-06.
 No special actions if energy rises.
 Fock matrices will be formed incrementally for  20 cycles.

 Cycle   1  Pass 1  IDiag  1:
 FoFJK:  IHMeth= 1 ICntrl=     500 DoSepK=F KAlg= 0 I1Cent=           0 FoldK=F
 IRaf= 730000000 NMat=       1 IRICut=       1 DoRegI=T DoRafI=F ISym2E= 0 IDoP0=0 IntGTp=1.
 FoFCou: FMM=F IPFlag=           0 FMFlag=      100000 FMFlg1=           0
         NFxFlg=           0 DoJE=T BraDBF=F KetDBF=F FulRan=T
         wScrn=  0.000000 ICntrl=       500 IOpCl=  0 I1Cent=           0 NGrid=           0
         NMat0=    1 NMatS0=      1 NMatT0=    0 NMatD0=    1 NMtDS0=    0 NMtDT0=    0
 Symmetry not used in FoFCou.
 CoulSu:  requested number of processors reduced to:  31 ShMem   1 Linda.
 Inv3:  Mode=1 IEnd=    37892748.
 Iteration    1 A*A^-1 deviation from unit magnitude is 2.89D-15 for    197.
 Iteration    1 A*A^-1 deviation from orthogonality  is 2.92D-15 for   1516   1199.
 Iteration    1 A^-1*A deviation from unit magnitude is 3.00D-15 for   1058.
 Iteration    1 A^-1*A deviation from orthogonality  is 6.31D-15 for   3254   3235.
 CoulSu:  requested number of processors reduced to:  31 ShMem   1 Linda.
 CoulSu:  requested number of processors reduced to:  31 ShMem   1 Linda.
 E= -1564.05175609095    
 DIIS: error= 1.50D-02 at cycle   1 NSaved=   1.
 NSaved= 1 IEnMin= 1 EnMin= -1564.05175609095     IErMin= 1 ErrMin= 1.50D-02
 ErrMax= 1.50D-02  0.00D+00 EMaxC= 1.00D-01 BMatC= 8.28D-01 BMatP= 8.28D-01
 IDIUse=3 WtCom= 8.50D-01 WtEn= 1.50D-01
 Coeff-Com:  0.100D+01
 Coeff-En:   0.100D+01
 Coeff:      0.100D+01
 Gap=     0.037 Goal=   None    Shift=    0.000
 GapD=    0.037 DampG=0.250 DampE=0.500 DampFc=0.2500 IDamp=-1.
 Damping current iteration by 2.50D-01
 RMSDP=1.48D-02 MaxDP=1.98D+00              OVMax= 2.91D-01

 Cycle   2  Pass 1  IDiag  1:
 RMSU=  3.41D-03    CP:  1.11D+00
 E= -1564.27888923656     Delta-E=       -0.227133145618 Rises=F Damp=T
 DIIS: error= 5.11D-03 at cycle   2 NSaved=   2.
 NSaved= 2 IEnMin= 2 EnMin= -1564.27888923656     IErMin= 2 ErrMin= 5.11D-03
 ErrMax= 5.11D-03  0.00D+00 EMaxC= 1.00D-01 BMatC= 1.23D-01 BMatP= 8.28D-01
 IDIUse=3 WtCom= 9.49D-01 WtEn= 5.11D-02
 Coeff-Com: -0.308D+00 0.131D+01
 Coeff-En:   0.198D-01 0.980D+00
 Coeff:     -0.292D+00 0.129D+01
 Gap=     0.107 Goal=   None    Shift=    0.000
 RMSDP=3.16D-03 MaxDP=5.79D-01 DE=-2.27D-01 OVMax= 3.15D-01

 Cycle   3  Pass 1  IDiag  1:
 RMSU=  2.94D-03    CP:  1.03D+00  8.97D-01
 E= -1564.48091362398     Delta-E=       -0.202024387419 Rises=F Damp=F
 DIIS: error= 1.24D-02 at cycle   3 NSaved=   3.
 NSaved= 3 IEnMin= 3 EnMin= -1564.48091362398     IErMin= 2 ErrMin= 5.11D-03
 ErrMax= 1.24D-02  0.00D+00 EMaxC= 1.00D-01 BMatC= 2.92D-01 BMatP= 1.23D-01
 IDIUse=2 WtCom= 0.00D+00 WtEn= 1.00D+00
 Coeff-En:   0.000D+00 0.201D+00 0.799D+00
 Coeff:      0.000D+00 0.201D+00 0.799D+00
 Gap=     0.066 Goal=   None    Shift=    0.000
 RMSDP=9.85D-03 MaxDP=2.02D+00 DE=-2.02D-01 OVMax= 5.66D-01

 Cycle   4  Pass 1  IDiag  1:
 RMSU=  4.90D-03    CP:  1.32D+00  2.07D+00 -1.20D+00
 E= -1562.37790385096     Delta-E=        2.103009773020 Rises=F Damp=F
 DIIS: error= 3.37D-02 at cycle   4 NSaved=   4.
 NSaved= 4 IEnMin= 3 EnMin= -1564.48091362398     IErMin= 2 ErrMin= 5.11D-03
 ErrMax= 3.37D-02  0.00D+00 EMaxC= 1.00D-01 BMatC= 2.50D+00 BMatP= 1.23D-01
 IDIUse=2 WtCom= 0.00D+00 WtEn= 1.00D+00
 Coeff-En:   0.000D+00 0.000D+00 0.832D+00 0.168D+00
 Coeff:      0.000D+00 0.000D+00 0.832D+00 0.168D+00
 Gap=     0.017 Goal=   None    Shift=    0.000
 RMSDP=6.16D-03 MaxDP=1.16D+00 DE= 2.10D+00 OVMax= 5.18D-01

 Cycle   5  Pass 1  IDiag  1:
 RMSU=  1.80D-03    CP:  1.14D+00  1.19D+00 -2.33D-01  2.82D-01
 E= -1564.47179021993     Delta-E=       -2.093886368965 Rises=F Damp=F
 DIIS: error= 1.35D-02 at cycle   5 NSaved=   5.
 NSaved= 5 IEnMin= 3 EnMin= -1564.48091362398     IErMin= 2 ErrMin= 5.11D-03
 ErrMax= 1.35D-02  0.00D+00 EMaxC= 1.00D-01 BMatC= 3.14D-01 BMatP= 1.23D-01
 IDIUse=2 WtCom= 0.00D+00 WtEn= 1.00D+00
 Coeff-En:   0.000D+00 0.000D+00 0.506D+00 0.000D+00 0.494D+00
 Coeff:      0.000D+00 0.000D+00 0.506D+00 0.000D+00 0.494D+00
 Gap=     0.141 Goal=   None    Shift=    0.000
 RMSDP=2.80D-03 MaxDP=5.65D-01 DE=-2.09D+00 OVMax= 1.52D-01

 Cycle   6  Pass 1  IDiag  1:
 RMSU=  1.40D-03    CP:  1.08D+00  1.04D+00  2.79D-01  1.73D-01  1.80D-01
 E= -1564.67743939590     Delta-E=       -0.205649175975 Rises=F Damp=F
 DIIS: error= 7.73D-03 at cycle   6 NSaved=   6.
 NSaved= 6 IEnMin= 6 EnMin= -1564.67743939590     IErMin= 2 ErrMin= 5.11D-03
 ErrMax= 7.73D-03  0.00D+00 EMaxC= 1.00D-01 BMatC= 7.52D-02 BMatP= 1.23D-01
 IDIUse=3 WtCom= 9.23D-01 WtEn= 7.73D-02
 EnCoef did     4 forward-backward iterations
 Coeff-Com: -0.350D-01 0.111D+00 0.349D+00-0.154D-01 0.343D+00 0.248D+00
 Coeff-En:   0.000D+00 0.000D+00 0.207D+00 0.000D+00 0.200D+00 0.593D+00
 Coeff:     -0.323D-01 0.102D+00 0.338D+00-0.142D-01 0.332D+00 0.275D+00
 Gap=     0.098 Goal=   None    Shift=    0.000
 RMSDP=1.02D-03 MaxDP=8.22D-02 DE=-2.06D-01 OVMax= 9.84D-02

 Cycle   7  Pass 1  IDiag  1:
 RMSU=  4.77D-04    CP:  1.07D+00  9.89D-01  3.32D-01  1.62D-01  3.89D-01
                    CP:  4.39D-01
 E= -1564.73718105898     Delta-E=       -0.059741663077 Rises=F Damp=F
 DIIS: error= 1.78D-03 at cycle   7 NSaved=   7.
 NSaved= 7 IEnMin= 7 EnMin= -1564.73718105898     IErMin= 7 ErrMin= 1.78D-03
 ErrMax= 1.78D-03  0.00D+00 EMaxC= 1.00D-01 BMatC= 2.45D-03 BMatP= 7.52D-02
 IDIUse=3 WtCom= 9.82D-01 WtEn= 1.78D-02
 Coeff-Com: -0.165D-01 0.368D-01 0.127D+00-0.137D-01 0.142D+00 0.175D+00
 Coeff-Com:  0.551D+00
 Coeff-En:   0.000D+00 0.000D+00 0.000D+00 0.000D+00 0.000D+00 0.000D+00
 Coeff-En:   0.100D+01
 Coeff:     -0.162D-01 0.361D-01 0.124D+00-0.134D-01 0.139D+00 0.171D+00
 Coeff:      0.559D+00
 Gap=     0.071 Goal=   None    Shift=    0.000
 RMSDP=3.62D-04 MaxDP=5.55D-02 DE=-5.97D-02 OVMax= 2.18D-02

 Cycle   8  Pass 1  IDiag  1:
 RMSU=  2.00D-04    CP:  1.07D+00  1.00D+00  3.55D-01  1.48D-01  4.15D-01
                    CP:  4.56D-01  4.43D-01
 E= -1564.73856479060     Delta-E=       -0.001383731617 Rises=F Damp=F
 DIIS: error= 9.71D-04 at cycle   8 NSaved=   8.
 NSaved= 8 IEnMin= 8 EnMin= -1564.73856479060     IErMin= 8 ErrMin= 9.71D-04
 ErrMax= 9.71D-04  0.00D+00 EMaxC= 1.00D-01 BMatC= 7.78D-04 BMatP= 2.45D-03
 IDIUse=3 WtCom= 9.90D-01 WtEn= 9.71D-03
 Coeff-Com: -0.554D-02 0.121D-01 0.196D-01-0.310D-02 0.157D-01 0.355D-01
 Coeff-Com:  0.389D+00 0.537D+00
 Coeff-En:   0.000D+00 0.000D+00 0.000D+00 0.000D+00 0.000D+00 0.000D+00
 Coeff-En:   0.313D+00 0.687D+00
 Coeff:     -0.549D-02 0.119D-01 0.194D-01-0.307D-02 0.155D-01 0.351D-01
 Coeff:      0.388D+00 0.538D+00
 Gap=     0.070 Goal=   None    Shift=    0.000
 RMSDP=1.65D-04 MaxDP=3.12D-02 DE=-1.38D-03 OVMax= 1.06D-02

 Cycle   9  Pass 1  IDiag  1:
 RMSU=  7.08D-05    CP:  1.07D+00  1.00D+00  3.45D-01  1.53D-01  4.14D-01
                    CP:  4.38D-01  6.49D-01  5.73D-01
 E= -1564.73921204065     Delta-E=       -0.000647250054 Rises=F Damp=F
 DIIS: error= 2.54D-04 at cycle   9 NSaved=   9.
 NSaved= 9 IEnMin= 9 EnMin= -1564.73921204065     IErMin= 9 ErrMin= 2.54D-04
 ErrMax= 2.54D-04  0.00D+00 EMaxC= 1.00D-01 BMatC= 9.76D-05 BMatP= 7.78D-04
 IDIUse=3 WtCom= 9.97D-01 WtEn= 2.54D-03
 Coeff-Com: -0.768D-03 0.199D-02 0.440D-02-0.606D-03-0.337D-03 0.100D-01
 Coeff-Com:  0.227D+00 0.374D+00 0.384D+00
 Coeff-En:   0.000D+00 0.000D+00 0.000D+00 0.000D+00 0.000D+00 0.000D+00
 Coeff-En:   0.000D+00 0.672D-01 0.933D+00
 Coeff:     -0.766D-03 0.198D-02 0.439D-02-0.605D-03-0.336D-03 0.997D-02
 Coeff:      0.227D+00 0.373D+00 0.385D+00
 Gap=     0.070 Goal=   None    Shift=    0.000
 RMSDP=5.34D-05 MaxDP=8.37D-03 DE=-6.47D-04 OVMax= 2.93D-03

 Cycle  10  Pass 1  IDiag  1:
 RMSU=  2.45D-05    CP:  1.07D+00  1.00D+00  3.48D-01  1.51D-01  4.11D-01
                    CP:  4.43D-01  6.25D-01  6.10D-01  4.60D-01
 E= -1564.73929694637     Delta-E=       -0.000084905724 Rises=F Damp=F
 DIIS: error= 6.62D-05 at cycle  10 NSaved=  10.
 NSaved=10 IEnMin=10 EnMin= -1564.73929694637     IErMin=10 ErrMin= 6.62D-05
 ErrMax= 6.62D-05  0.00D+00 EMaxC= 1.00D-01 BMatC= 6.58D-06 BMatP= 9.76D-05
 IDIUse=1 WtCom= 1.00D+00 WtEn= 0.00D+00
 Coeff-Com:  0.312D-03-0.242D-03 0.221D-02-0.179D-03-0.101D-02 0.538D-02
 Coeff-Com:  0.125D+00 0.209D+00 0.252D+00 0.407D+00
 Coeff:      0.312D-03-0.242D-03 0.221D-02-0.179D-03-0.101D-02 0.538D-02
 Coeff:      0.125D+00 0.209D+00 0.252D+00 0.407D+00
 Gap=     0.070 Goal=   None    Shift=    0.000
 RMSDP=1.77D-05 MaxDP=1.60D-03 DE=-8.49D-05 OVMax= 1.33D-03

 Cycle  11  Pass 1  IDiag  1:
 RMSU=  7.17D-06    CP:  1.07D+00  1.00D+00  3.48D-01  1.52D-01  4.10D-01
                    CP:  4.42D-01  6.38D-01  6.09D-01  5.10D-01  4.76D-01
 E= -1564.73930290004     Delta-E=       -0.000005953664 Rises=F Damp=F
 DIIS: error= 2.35D-05 at cycle  11 NSaved=  11.
 NSaved=11 IEnMin=11 EnMin= -1564.73930290004     IErMin=11 ErrMin= 2.35D-05
 ErrMax= 2.35D-05  0.00D+00 EMaxC= 1.00D-01 BMatC= 1.03D-06 BMatP= 6.58D-06
 IDIUse=1 WtCom= 1.00D+00 WtEn= 0.00D+00
 Coeff-Com:  0.481D-03-0.622D-03 0.602D-03-0.256D-04-0.925D-03 0.201D-02
 Coeff-Com:  0.368D-01 0.640D-01 0.877D-01 0.275D+00 0.535D+00
 Coeff:      0.481D-03-0.622D-03 0.602D-03-0.256D-04-0.925D-03 0.201D-02
 Coeff:      0.368D-01 0.640D-01 0.877D-01 0.275D+00 0.535D+00
 Gap=     0.070 Goal=   None    Shift=    0.000
 RMSDP=6.65D-06 MaxDP=1.30D-03 DE=-5.95D-06 OVMax= 4.95D-04

 Cycle  12  Pass 1  IDiag  1:
 RMSU=  3.27D-06    CP:  1.07D+00  1.00D+00  3.49D-01  1.52D-01  4.09D-01
                    CP:  4.44D-01  6.37D-01  6.12D-01  4.81D-01  5.25D-01
                    CP:  6.26D-01
 E= -1564.73930381011     Delta-E=       -0.000000910070 Rises=F Damp=F
 DIIS: error= 8.76D-06 at cycle  12 NSaved=  12.
 NSaved=12 IEnMin=12 EnMin= -1564.73930381011     IErMin=12 ErrMin= 8.76D-06
 ErrMax= 8.76D-06  0.00D+00 EMaxC= 1.00D-01 BMatC= 1.36D-07 BMatP= 1.03D-06
 IDIUse=1 WtCom= 1.00D+00 WtEn= 0.00D+00
 Coeff-Com:  0.293D-03-0.346D-03 0.264D-03-0.154D-04-0.556D-03 0.996D-03
 Coeff-Com:  0.141D-01 0.252D-01 0.364D-01 0.153D+00 0.372D+00 0.398D+00
 Coeff:      0.293D-03-0.346D-03 0.264D-03-0.154D-04-0.556D-03 0.996D-03
 Coeff:      0.141D-01 0.252D-01 0.364D-01 0.153D+00 0.372D+00 0.398D+00
 Gap=     0.070 Goal=   None    Shift=    0.000
 RMSDP=1.81D-06 MaxDP=1.74D-04 DE=-9.10D-07 OVMax= 1.10D-04

 Cycle  13  Pass 1  IDiag  1:
 RMSU=  1.22D-06    CP:  1.07D+00  1.00D+00  3.49D-01  1.52D-01  4.09D-01
                    CP:  4.44D-01  6.36D-01  6.12D-01  4.87D-01  5.29D-01
                    CP:  6.29D-01  6.34D-01
 E= -1564.73930391936     Delta-E=       -0.000000109254 Rises=F Damp=F
 DIIS: error= 2.37D-06 at cycle  13 NSaved=  13.
 NSaved=13 IEnMin=13 EnMin= -1564.73930391936     IErMin=13 ErrMin= 2.37D-06
 ErrMax= 2.37D-06  0.00D+00 EMaxC= 1.00D-01 BMatC= 1.34D-08 BMatP= 1.36D-07
 IDIUse=1 WtCom= 1.00D+00 WtEn= 0.00D+00
 Coeff-Com:  0.153D-03-0.177D-03 0.112D-03-0.559D-05-0.256D-03 0.378D-03
 Coeff-Com:  0.454D-02 0.842D-02 0.127D-01 0.681D-01 0.181D+00 0.268D+00
 Coeff-Com:  0.456D+00
 Coeff:      0.153D-03-0.177D-03 0.112D-03-0.559D-05-0.256D-03 0.378D-03
 Coeff:      0.454D-02 0.842D-02 0.127D-01 0.681D-01 0.181D+00 0.268D+00
 Coeff:      0.456D+00
 Gap=     0.070 Goal=   None    Shift=    0.000
 RMSDP=5.97D-07 MaxDP=7.15D-05 DE=-1.09D-07 OVMax= 3.92D-05

 Cycle  14  Pass 1  IDiag  1:
 RMSU=  3.72D-07    CP:  1.07D+00  1.00D+00  3.49D-01  1.52D-01  4.09D-01
                    CP:  4.44D-01  6.36D-01  6.11D-01  4.89D-01  5.34D-01
                    CP:  6.46D-01  6.14D-01  7.03D-01
 E= -1564.73930392937     Delta-E=       -0.000000010001 Rises=F Damp=F
 DIIS: error= 9.92D-07 at cycle  14 NSaved=  14.
 NSaved=14 IEnMin=14 EnMin= -1564.73930392937     IErMin=14 ErrMin= 9.92D-07
 ErrMax= 9.92D-07  0.00D+00 EMaxC= 1.00D-01 BMatC= 2.33D-09 BMatP= 1.34D-08
 IDIUse=1 WtCom= 1.00D+00 WtEn= 0.00D+00
 Coeff-Com:  0.640D-04-0.760D-04 0.441D-04-0.171D-05-0.870D-04 0.971D-04
 Coeff-Com:  0.118D-02 0.228D-02 0.341D-02 0.232D-01 0.652D-01 0.121D+00
 Coeff-Com:  0.324D+00 0.460D+00
 Coeff:      0.640D-04-0.760D-04 0.441D-04-0.171D-05-0.870D-04 0.971D-04
 Coeff:      0.118D-02 0.228D-02 0.341D-02 0.232D-01 0.652D-01 0.121D+00
 Coeff:      0.324D+00 0.460D+00
 Gap=     0.070 Goal=   None    Shift=    0.000
 RMSDP=2.58D-07 MaxDP=3.05D-05 DE=-1.00D-08 OVMax= 1.53D-05

 Cycle  15  Pass 1  IDiag  1:
 RMSU=  1.46D-07    CP:  1.07D+00  1.00D+00  3.49D-01  1.52D-01  4.09D-01
                    CP:  4.44D-01  6.36D-01  6.11D-01  4.89D-01  5.37D-01
                    CP:  6.55D-01  6.14D-01  6.96D-01  5.83D-01
 E= -1564.73930393125     Delta-E=       -0.000000001885 Rises=F Damp=F
 DIIS: error= 3.45D-07 at cycle  15 NSaved=  15.
 NSaved=15 IEnMin=15 EnMin= -1564.73930393125     IErMin=15 ErrMin= 3.45D-07
 ErrMax= 3.45D-07  0.00D+00 EMaxC= 1.00D-01 BMatC= 3.44D-10 BMatP= 2.33D-09
 IDIUse=1 WtCom= 1.00D+00 WtEn= 0.00D+00
 Coeff-Com:  0.281D-04-0.333D-04 0.198D-04-0.771D-06-0.319D-04 0.201D-04
 Coeff-Com:  0.291D-03 0.612D-03 0.970D-03 0.894D-02 0.259D-01 0.552D-01
 Coeff-Com:  0.175D+00 0.318D+00 0.415D+00
 Coeff:      0.281D-04-0.333D-04 0.198D-04-0.771D-06-0.319D-04 0.201D-04
 Coeff:      0.291D-03 0.612D-03 0.970D-03 0.894D-02 0.259D-01 0.552D-01
 Coeff:      0.175D+00 0.318D+00 0.415D+00
 Gap=     0.070 Goal=   None    Shift=    0.000
 RMSDP=9.37D-08 MaxDP=1.64D-05 DE=-1.88D-09 OVMax= 5.18D-06

 Cycle  16  Pass 1  IDiag  1:
 RMSU=  4.46D-08    CP:  1.07D+00  1.00D+00  3.49D-01  1.52D-01  4.09D-01
                    CP:  4.44D-01  6.36D-01  6.11D-01  4.88D-01  5.37D-01
                    CP:  6.52D-01  6.18D-01  7.13D-01  6.27D-01  6.84D-01
 E= -1564.73930393153     Delta-E=       -0.000000000277 Rises=F Damp=F
 DIIS: error= 1.33D-07 at cycle  16 NSaved=  16.
 NSaved=16 IEnMin=16 EnMin= -1564.73930393153     IErMin=16 ErrMin= 1.33D-07
 ErrMax= 1.33D-07  0.00D+00 EMaxC= 1.00D-01 BMatC= 4.36D-11 BMatP= 3.44D-10
 IDIUse=1 WtCom= 1.00D+00 WtEn= 0.00D+00
 Coeff-Com:  0.730D-05-0.855D-05 0.599D-05-0.442D-07-0.583D-05-0.821D-05
 Coeff-Com:  0.114D-04 0.523D-04 0.121D-03 0.175D-02 0.508D-02 0.141D-01
 Coeff-Com:  0.585D-01 0.131D+00 0.281D+00 0.508D+00
 Coeff:      0.730D-05-0.855D-05 0.599D-05-0.442D-07-0.583D-05-0.821D-05
 Coeff:      0.114D-04 0.523D-04 0.121D-03 0.175D-02 0.508D-02 0.141D-01
 Coeff:      0.585D-01 0.131D+00 0.281D+00 0.508D+00
 Gap=     0.070 Goal=   None    Shift=    0.000
 RMSDP=2.94D-08 MaxDP=2.49D-06 DE=-2.77D-10 OVMax= 1.59D-06

 Cycle  17  Pass 1  IDiag  1:
 RMSU=  1.85D-08    CP:  1.07D+00  1.00D+00  3.49D-01  1.52D-01  4.09D-01
                    CP:  4.44D-01  6.36D-01  6.11D-01  4.88D-01  5.36D-01
                    CP:  6.53D-01  6.21D-01  7.19D-01  6.26D-01  7.06D-01
                    CP:  6.53D-01
 E= -1564.73930393154     Delta-E=       -0.000000000011 Rises=F Damp=F
 DIIS: error= 4.11D-08 at cycle  17 NSaved=  17.
 NSaved=17 IEnMin=17 EnMin= -1564.73930393154     IErMin=17 ErrMin= 4.11D-08
 ErrMax= 4.11D-08  0.00D+00 EMaxC= 1.00D-01 BMatC= 4.46D-12 BMatP= 4.36D-11
 IDIUse=1 WtCom= 1.00D+00 WtEn= 0.00D+00
 Coeff-Com:  0.308D-05-0.357D-05 0.275D-05 0.478D-07-0.202D-05-0.684D-05
 Coeff-Com: -0.924D-05-0.173D-05 0.296D-04 0.611D-03 0.170D-02 0.569D-02
 Coeff-Com:  0.271D-01 0.661D-01 0.157D+00 0.344D+00 0.398D+00
 Coeff:      0.308D-05-0.357D-05 0.275D-05 0.478D-07-0.202D-05-0.684D-05
 Coeff:     -0.924D-05-0.173D-05 0.296D-04 0.611D-03 0.170D-02 0.569D-02
 Coeff:      0.271D-01 0.661D-01 0.157D+00 0.344D+00 0.398D+00
 Gap=     0.070 Goal=   None    Shift=    0.000
 RMSDP=9.52D-09 MaxDP=8.57D-07 DE=-1.09D-11 OVMax= 7.37D-07

 Error on total polarization charges =  0.01804
 SCF Done:  E(RB-P86) =  -1564.73930393     A.U. after   17 cycles
            NFock= 17  Conv=0.95D-08     -V/T= 2.0043
 KE= 1.557992100129D+03 PE=-1.071508738837D+04 EE= 4.063514019012D+03
 Leave Link  502 at Tue Feb 23 02:39:40 2021, MaxMem=   104857600 cpu:            7620.1 elap:             240.0
 (Enter /sw/arch/RedHatEnterpriseServer7/EB_production/2019/software/Gaussian/g16.c01/l601.exe)
 Copying SCF densities to generalized density rwf, IOpCl= 0 IROHF=0.

 **********************************************************************

            Population analysis using the SCF Density.

 **********************************************************************

 Orbital symmetries:
       Occupied  (A) (A) (A) (A) (A) (A) (A) (A) (A) (A) (A) (A)
                 (A) (A) (A) (A) (A) (A) (A) (A) (A) (A) (A) (A)
                 (A) (A) (A) (A) (A) (A) (A) (A) (A) (A) (A) (A)
                 (A) (A) (A) (A) (A) (A) (A) (A) (A) (A) (A) (A)
                 (A) (A) (A) (A) (A) (A) (A) (A) (A) (A) (A) (A)
                 (A) (A) (A) (A) (A) (A) (A) (A) (A) (A) (A) (A)
                 (A) (A) (A) (A) (A) (A) (A) (A) (A) (A) (A) (A)
                 (A) (A) (A) (A) (A) (A) (A) (A) (A) (A) (A) (A)
                 (A) (A) (A) (A) (A) (A) (A) (A) (A) (A) (A) (A)
                 (A) (A) (A) (A) (A) (A) (A) (A) (A)
       Virtual   (A) (A) (A) (A) (A) (A) (A) (A) (A) (A) (A) (A)
                 (A) (A) (A) (A) (A) (A) (A) (A) (A) (A) (A) (A)
                 (A) (A) (A) (A) (A) (A) (A) (A) (A) (A) (A) (A)
                 (A) (A) (A) (A) (A) (A) (A) (A) (A) (A) (A) (A)
                 (A) (A) (A) (A) (A) (A) (A) (A) (A) (A) (A) (A)
                 (A) (A) (A) (A) (A) (A) (A) (A) (A) (A) (A) (A)
                 (A) (A) (A) (A) (A) (A) (A) (A) (A) (A) (A) (A)
                 (A) (A) (A) (A) (A) (A) (A) (A) (A) (A) (A) (A)
                 (A) (A) (A) (A) (A) (A) (A) (A) (A) (A) (A) (A)
                 (A) (A) (A) (A) (A) (A) (A) (A) (A) (A) (A) (A)
                 (A) (A) (A) (A) (A) (A) (A) (A) (A) (A) (A) (A)
                 (A) (A) (A) (A) (A) (A) (A) (A) (A) (A) (A) (A)
                 (A) (A) (A) (A) (A) (A) (A) (A) (A) (A) (A) (A)
                 (A) (A) (A) (A) (A) (A) (A) (A) (A) (A) (A) (A)
                 (A) (A) (A) (A) (A) (A) (A) (A) (A) (A) (A) (A)
                 (A) (A) (A) (A) (A) (A) (A) (A) (A) (A) (A) (A)
                 (A) (A) (A) (A) (A) (A) (A) (A) (A) (A) (A) (A)
                 (A) (A) (A) (A) (A) (A) (A) (A) (A) (A) (A) (A)
                 (A) (A) (A) (A) (A) (A) (A) (A) (A) (A) (A) (A)
                 (A) (A) (A) (A) (A) (A) (A) (A) (A) (A) (A) (A)
                 (A) (A) (A) (A) (A) (A) (A) (A) (A) (A) (A) (A)
                 (A) (A) (A) (A) (A) (A) (A) (A) (A) (A) (A) (A)
                 (A) (A) (A) (A) (A) (A) (A) (A) (A) (A) (A) (A)
                 (A) (A) (A) (A) (A) (A) (A) (A) (A) (A) (A) (A)
                 (A) (A) (A) (A) (A) (A) (A) (A) (A) (A) (A) (A)
                 (A) (A) (A) (A) (A) (A) (A) (A) (A) (A) (A) (A)
                 (A) (A) (A) (A) (A) (A) (A) (A) (A) (A) (A) (A)
                 (A) (A) (A) (A) (A) (A) (A) (A) (A) (A) (A) (A)
                 (A) (A) (A) (A) (A) (A) (A) (A) (A) (A) (A) (A)
                 (A) (A) (A) (A) (A) (A) (A) (A) (A) (A) (A) (A)
                 (A) (A) (A) (A) (A) (A) (A) (A) (A) (A) (A) (A)
                 (A) (A) (A) (A) (A) (A) (A) (A) (A) (A) (A) (A)
                 (A) (A) (A) (A) (A) (A) (A) (A) (A) (A) (A) (A)
                 (A) (A) (A) (A) (A) (A) (A) (A) (A) (A) (A) (A)
                 (A) (A) (A) (A) (A) (A) (A) (A) (A) (A) (A) (A)
                 (A) (A) (A) (A) (A) (A) (A) (A) (A) (A) (A) (A)
                 (A) (A) (A) (A) (A) (A) (A) (A) (A) (A) (A) (A)
                 (A) (A) (A) (A) (A) (A) (A) (A) (A) (A) (A) (A)
                 (A) (A) (A) (A) (A) (A) (A) (A) (A) (A) (A) (A)
                 (A) (A) (A) (A) (A) (A) (A) (A) (A) (A) (A) (A)
                 (A) (A) (A) (A) (A) (A) (A) (A) (A) (A) (A) (A)
                 (A) (A) (A) (A) (A) (A) (A) (A) (A) (A) (A) (A)
                 (A) (A) (A) (A) (A) (A) (A) (A) (A) (A) (A) (A)
                 (A) (A) (A) (A) (A) (A) (A) (A) (A) (A) (A) (A)
                 (A) (A) (A) (A) (A) (A) (A) (A) (A) (A) (A) (A)
                 (A) (A) (A) (A) (A) (A) (A) (A) (A) (A) (A) (A)
                 (A) (A) (A) (A) (A) (A) (A) (A) (A) (A) (A) (A)
                 (A) (A) (A) (A) (A) (A) (A) (A) (A) (A) (A) (A)
                 (A) (A) (A) (A) (A) (A) (A) (A) (A) (A) (A) (A)
                 (A) (A) (A) (A) (A) (A) (A) (A) (A) (A) (A) (A)
                 (A) (A) (A) (A) (A) (A) (A) (A) (A) (A) (A) (A)
                 (A) (A) (A) (A) (A) (A) (A) (A) (A) (A) (A) (A)
                 (A) (A) (A) (A) (A) (A) (A) (A) (A) (A) (A)
 The electronic state is 1-A.
 Alpha  occ. eigenvalues --  -18.83473 -18.82755 -18.80962 -18.78773 -18.78032
 Alpha  occ. eigenvalues --  -18.77691 -18.76960 -18.75783 -14.02834 -14.01626
 Alpha  occ. eigenvalues --  -10.02181 -10.01760 -10.00269  -9.99890  -9.99610
 Alpha  occ. eigenvalues --   -9.99135  -9.98425  -9.97432  -9.94845  -9.93869
 Alpha  occ. eigenvalues --   -9.93392  -9.92911  -9.92692  -9.92639  -9.92356
 Alpha  occ. eigenvalues --   -9.92216  -9.92040  -9.91879  -9.91287  -9.91133
 Alpha  occ. eigenvalues --   -9.91054  -9.89864  -1.01931  -1.01035  -0.98647
 Alpha  occ. eigenvalues --   -0.97623  -0.97363  -0.96143  -0.95920  -0.95093
 Alpha  occ. eigenvalues --   -0.86655  -0.84084  -0.81372  -0.79577  -0.76933
 Alpha  occ. eigenvalues --   -0.73742  -0.72368  -0.70677  -0.69373  -0.67961
 Alpha  occ. eigenvalues --   -0.65729  -0.64806  -0.62574  -0.62293  -0.59586
 Alpha  occ. eigenvalues --   -0.58978  -0.57964  -0.56646  -0.56171  -0.54928
 Alpha  occ. eigenvalues --   -0.53573  -0.52919  -0.52205  -0.51491  -0.50627
 Alpha  occ. eigenvalues --   -0.49599  -0.47389  -0.46952  -0.45751  -0.45717
 Alpha  occ. eigenvalues --   -0.45159  -0.44428  -0.43734  -0.43315  -0.42384
 Alpha  occ. eigenvalues --   -0.42136  -0.41422  -0.41164  -0.40618  -0.40347
 Alpha  occ. eigenvalues --   -0.39620  -0.39441  -0.39207  -0.38416  -0.37928
 Alpha  occ. eigenvalues --   -0.37715  -0.37336  -0.37044  -0.36601  -0.36157
 Alpha  occ. eigenvalues --   -0.35989  -0.35475  -0.35325  -0.34987  -0.34824
 Alpha  occ. eigenvalues --   -0.34644  -0.34106  -0.33720  -0.32958  -0.32806
 Alpha  occ. eigenvalues --   -0.32561  -0.32034  -0.31082  -0.31046  -0.30304
 Alpha  occ. eigenvalues --   -0.28906  -0.26435  -0.25498  -0.25370  -0.25217
 Alpha  occ. eigenvalues --   -0.24406  -0.24145  -0.23084  -0.22566  -0.22263
 Alpha  occ. eigenvalues --   -0.21043  -0.19639
 Alpha virt. eigenvalues --   -0.12601  -0.10575  -0.06672  -0.06095  -0.04495
 Alpha virt. eigenvalues --   -0.00023   0.00877   0.01571   0.01851   0.02226
 Alpha virt. eigenvalues --    0.03052   0.03906   0.03943   0.04577   0.05080
 Alpha virt. eigenvalues --    0.05911   0.06033   0.06331   0.06669   0.06910
 Alpha virt. eigenvalues --    0.07122   0.07478   0.07943   0.08377   0.08497
 Alpha virt. eigenvalues --    0.08904   0.09392   0.09604   0.10316   0.10720
 Alpha virt. eigenvalues --    0.10766   0.11184   0.11397   0.11733   0.12242
 Alpha virt. eigenvalues --    0.12365   0.13053   0.13336   0.14100   0.14360
 Alpha virt. eigenvalues --    0.14607   0.15193   0.15380   0.15921   0.16263
 Alpha virt. eigenvalues --    0.16719   0.16858   0.17172   0.17502   0.17756
 Alpha virt. eigenvalues --    0.18047   0.18778   0.18931   0.19357   0.19533
 Alpha virt. eigenvalues --    0.20290   0.20456   0.20639   0.21233   0.21721
 Alpha virt. eigenvalues --    0.22099   0.22399   0.22714   0.23168   0.23639
 Alpha virt. eigenvalues --    0.23908   0.24163   0.24695   0.25187   0.25427
 Alpha virt. eigenvalues --    0.25882   0.26274   0.26728   0.27100   0.27223
 Alpha virt. eigenvalues --    0.27362   0.27932   0.28389   0.28525   0.28965
 Alpha virt. eigenvalues --    0.29365   0.29714   0.29837   0.30094   0.30475
 Alpha virt. eigenvalues --    0.30717   0.31008   0.31100   0.31731   0.32355
 Alpha virt. eigenvalues --    0.32757   0.32854   0.33187   0.33508   0.33529
 Alpha virt. eigenvalues --    0.34081   0.34219   0.34596   0.35714   0.36036
 Alpha virt. eigenvalues --    0.36408   0.36615   0.36932   0.37252   0.37331
 Alpha virt. eigenvalues --    0.37694   0.37849   0.38008   0.38510   0.38646
 Alpha virt. eigenvalues --    0.39427   0.39450   0.39798   0.39992   0.40412
 Alpha virt. eigenvalues --    0.40637   0.40985   0.41172   0.41579   0.42045
 Alpha virt. eigenvalues --    0.42454   0.42700   0.42977   0.43159   0.43635
 Alpha virt. eigenvalues --    0.43963   0.44244   0.44364   0.44893   0.45329
 Alpha virt. eigenvalues --    0.45511   0.45815   0.46111   0.46469   0.46857
 Alpha virt. eigenvalues --    0.47147   0.47517   0.47934   0.48142   0.48329
 Alpha virt. eigenvalues --    0.48587   0.48866   0.49596   0.50254   0.50694
 Alpha virt. eigenvalues --    0.51035   0.51694   0.52013   0.52319   0.52664
 Alpha virt. eigenvalues --    0.53157   0.53423   0.53736   0.54282   0.54357
 Alpha virt. eigenvalues --    0.54821   0.55471   0.56222   0.56496   0.56736
 Alpha virt. eigenvalues --    0.57838   0.58314   0.58574   0.58767   0.59330
 Alpha virt. eigenvalues --    0.59928   0.60843   0.61081   0.61433   0.61795
 Alpha virt. eigenvalues --    0.62125   0.62312   0.63268   0.63445   0.63792
 Alpha virt. eigenvalues --    0.64250   0.64920   0.65002   0.65799   0.66638
 Alpha virt. eigenvalues --    0.67121   0.67424   0.67995   0.68336   0.69301
 Alpha virt. eigenvalues --    0.69809   0.70454   0.70943   0.71519   0.72265
 Alpha virt. eigenvalues --    0.72475   0.72927   0.73616   0.74589   0.75271
 Alpha virt. eigenvalues --    0.75717   0.77214   0.77586   0.78386   0.80120
 Alpha virt. eigenvalues --    0.80832   0.82343   0.83285   0.83695   0.84467
 Alpha virt. eigenvalues --    0.84852   0.85647   0.86352   0.86904   0.89048
 Alpha virt. eigenvalues --    0.89707   0.91477   0.92535   0.95385   0.96033
 Alpha virt. eigenvalues --    0.97112   0.97823   0.99382   1.05410   1.12798
 Alpha virt. eigenvalues --    1.13961   1.15702   1.16494   1.17061   1.18972
 Alpha virt. eigenvalues --    1.19180   1.19390   1.20488   1.20981   1.21905
 Alpha virt. eigenvalues --    1.22160   1.22532   1.22797   1.23967   1.24867
 Alpha virt. eigenvalues --    1.25078   1.25323   1.25642   1.25999   1.26276
 Alpha virt. eigenvalues --    1.27048   1.28126   1.28585   1.28986   1.29016
 Alpha virt. eigenvalues --    1.29890   1.30172   1.30629   1.31257   1.31411
 Alpha virt. eigenvalues --    1.32138   1.32304   1.32757   1.32976   1.33345
 Alpha virt. eigenvalues --    1.33664   1.34391   1.35082   1.35274   1.35749
 Alpha virt. eigenvalues --    1.36667   1.36857   1.37279   1.37557   1.37710
 Alpha virt. eigenvalues --    1.38032   1.38367   1.38805   1.39367   1.39879
 Alpha virt. eigenvalues --    1.40191   1.40654   1.41109   1.41560   1.42153
 Alpha virt. eigenvalues --    1.42304   1.42849   1.43367   1.43708   1.43876
[...]
                 (A) (A) (A) (A) (A) (A) (A) (A) (A) (A) (A) (A)
                 (A) (A) (A) (A) (A) (A) (A) (A) (A) (A) (A) (A)
                 (A) (A) (A) (A) (A) (A) (A) (A) (A) (A) (A) (A)
                 (A) (A) (A) (A) (A) (A) (A) (A) (A) (A) (A) (A)
                 (A) (A) (A) (A) (A) (A) (A) (A) (A) (A) (A) (A)
                 (A) (A) (A) (A) (A) (A) (A) (A) (A) (A) (A) (A)
                 (A) (A) (A) (A) (A) (A) (A) (A) (A) (A) (A) (A)
                 (A) (A) (A) (A) (A) (A) (A) (A) (A) (A) (A) (A)
                 (A) (A) (A) (A) (A) (A) (A) (A) (A) (A) (A) (A)
                 (A) (A) (A) (A) (A) (A) (A) (A) (A) (A) (A) (A)
                 (A) (A) (A) (A) (A) (A) (A) (A) (A) (A) (A) (A)
                 (A) (A) (A) (A) (A) (A) (A) (A) (A) (A) (A) (A)
                 (A) (A) (A) (A) (A) (A) (A) (A) (A) (A) (A) (A)
                 (A) (A) (A) (A) (A) (A) (A) (A) (A) (A) (A) (A)
                 (A) (A) (A) (A) (A) (A) (A) (A) (A) (A) (A)
 The electronic state is 1-A.
 Alpha  occ. eigenvalues --  -18.81175 -18.81066 -18.80041 -18.78594 -18.78486
 Alpha  occ. eigenvalues --  -18.77688 -18.76892 -18.76850 -14.04103 -14.03095
 Alpha  occ. eigenvalues --  -10.03532 -10.00286  -9.99632  -9.99534  -9.99182
 Alpha  occ. eigenvalues --   -9.98297  -9.98053  -9.97316  -9.94766  -9.92870
 Alpha  occ. eigenvalues --   -9.92581  -9.92518  -9.92294  -9.92252  -9.91873
 Alpha  occ. eigenvalues --   -9.91832  -9.91826  -9.91806  -9.90864  -9.90654
 Alpha  occ. eigenvalues --   -9.90523  -9.88965  -1.01818  -1.00529  -0.98689
 Alpha  occ. eigenvalues --   -0.97013  -0.96246  -0.95257  -0.94334  -0.93707
 Alpha  occ. eigenvalues --   -0.86430  -0.86019  -0.80296  -0.78550  -0.75413
 Alpha  occ. eigenvalues --   -0.72508  -0.71642  -0.70024  -0.68681  -0.66829
 Alpha  occ. eigenvalues --   -0.65586  -0.64847  -0.61387  -0.60470  -0.59452
 Alpha  occ. eigenvalues --   -0.58952  -0.57637  -0.57142  -0.55022  -0.54606
 Alpha  occ. eigenvalues --   -0.53442  -0.52457  -0.51698  -0.49407  -0.48548
 Alpha  occ. eigenvalues --   -0.47852  -0.47203  -0.46730  -0.45916  -0.45420
 Alpha  occ. eigenvalues --   -0.44422  -0.44062  -0.43379  -0.43255  -0.42679
 Alpha  occ. eigenvalues --   -0.41924  -0.41451  -0.40836  -0.40666  -0.40374
 Alpha  occ. eigenvalues --   -0.40085  -0.39834  -0.39258  -0.38425  -0.37909
 Alpha  occ. eigenvalues --   -0.37340  -0.37134  -0.36667  -0.36232  -0.35618
 Alpha  occ. eigenvalues --   -0.35431  -0.35096  -0.34970  -0.34751  -0.34304
 Alpha  occ. eigenvalues --   -0.34166  -0.33939  -0.33669  -0.33152  -0.32462
 Alpha  occ. eigenvalues --   -0.32135  -0.31427  -0.31082  -0.30685  -0.29850
 Alpha  occ. eigenvalues --   -0.28841  -0.27932  -0.27019  -0.25763  -0.24392
 Alpha  occ. eigenvalues --   -0.23907  -0.23350  -0.23166  -0.22881  -0.22039
 Alpha  occ. eigenvalues --   -0.21164  -0.20720
 Alpha virt. eigenvalues --   -0.11826  -0.09340  -0.07838  -0.05603  -0.03968
 Alpha virt. eigenvalues --    0.00958   0.02280   0.02347   0.03154   0.03319
 Alpha virt. eigenvalues --    0.03973   0.05147   0.05243   0.05489   0.06122
 Alpha virt. eigenvalues --    0.06948   0.07160   0.07243   0.07698   0.07850
 Alpha virt. eigenvalues --    0.08057   0.08857   0.09033   0.09101   0.09686
 Alpha virt. eigenvalues --    0.09789   0.10322   0.10646   0.10717   0.11032
 Alpha virt. eigenvalues --    0.11624   0.12120   0.12164   0.12725   0.13281
 Alpha virt. eigenvalues --    0.13625   0.13925   0.14133   0.14781   0.14985
 Alpha virt. eigenvalues --    0.15388   0.15684   0.15769   0.16215   0.16644
 Alpha virt. eigenvalues --    0.16744   0.17222   0.17484   0.17911   0.18549
 Alpha virt. eigenvalues --    0.18623   0.18935   0.19573   0.19934   0.20364
 Alpha virt. eigenvalues --    0.20572   0.20671   0.21196   0.21478   0.21876
 Alpha virt. eigenvalues --    0.22303   0.22647   0.23249   0.23527   0.23688
 Alpha virt. eigenvalues --    0.24207   0.24656   0.25040   0.25549   0.25821
 Alpha virt. eigenvalues --    0.26002   0.26452   0.26872   0.27177   0.27341
 Alpha virt. eigenvalues --    0.27502   0.27861   0.28196   0.28584   0.28817
 Alpha virt. eigenvalues --    0.29079   0.29929   0.30151   0.30548   0.30643
 Alpha virt. eigenvalues --    0.30856   0.31264   0.31573   0.31628   0.31918
 Alpha virt. eigenvalues --    0.32342   0.32692   0.32824   0.33309   0.33772
 Alpha virt. eigenvalues --    0.34191   0.34351   0.34811   0.34970   0.35196
 Alpha virt. eigenvalues --    0.36116   0.36657   0.37354   0.37560   0.37871
 Alpha virt. eigenvalues --    0.38265   0.38378   0.38831   0.39238   0.39557
 Alpha virt. eigenvalues --    0.39634   0.39795   0.39894   0.40158   0.40778
 Alpha virt. eigenvalues --    0.41045   0.41396   0.41469   0.41690   0.42126
 Alpha virt. eigenvalues --    0.42262   0.42667   0.43093   0.43548   0.43764
 Alpha virt. eigenvalues --    0.43941   0.44613   0.44921   0.44956   0.45431
 Alpha virt. eigenvalues --    0.45907   0.46216   0.46521   0.46996   0.47283
 Alpha virt. eigenvalues --    0.47594   0.47867   0.48038   0.48526   0.48745
 Alpha virt. eigenvalues --    0.49250   0.50042   0.50288   0.50742   0.51468
 Alpha virt. eigenvalues --    0.51880   0.52387   0.52541   0.52812   0.53152
 Alpha virt. eigenvalues --    0.53721   0.53997   0.54825   0.55156   0.55397
 Alpha virt. eigenvalues --    0.55895   0.56196   0.56593   0.57313   0.57815
 Alpha virt. eigenvalues --    0.58187   0.58862   0.59638   0.60004   0.60401
 Alpha virt. eigenvalues --    0.60855   0.61728   0.62611   0.62720   0.63021
 Alpha virt. eigenvalues --    0.63376   0.63825   0.64304   0.64423   0.65144
 Alpha virt. eigenvalues --    0.65798   0.66158   0.67017   0.67134   0.67612
 Alpha virt. eigenvalues --    0.67880   0.68877   0.69336   0.69672   0.69918
 Alpha virt. eigenvalues --    0.70470   0.71720   0.71925   0.73300   0.73796
 Alpha virt. eigenvalues --    0.74781   0.75119   0.76425   0.76843   0.77437
 Alpha virt. eigenvalues --    0.78744   0.79533   0.79576   0.81021   0.81614
 Alpha virt. eigenvalues --    0.82632   0.83325   0.83993   0.84782   0.86010
 Alpha virt. eigenvalues --    0.86533   0.88722   0.89252   0.90407   0.91044
 Alpha virt. eigenvalues --    0.91269   0.93075   0.94507   0.96656   0.97883
 Alpha virt. eigenvalues --    0.98924   1.00121   1.01810   1.05669   1.12850
 Alpha virt. eigenvalues --    1.14322   1.15135   1.15583   1.16514   1.18110
 Alpha virt. eigenvalues --    1.18555   1.19150   1.19422   1.20120   1.21045
 Alpha virt. eigenvalues --    1.21405   1.21680   1.22306   1.22905   1.23555
 Alpha virt. eigenvalues --    1.24138   1.25050   1.25910   1.26405   1.27195
 Alpha virt. eigenvalues --    1.27413   1.28026   1.28239   1.28847   1.29348
 Alpha virt. eigenvalues --    1.29869   1.30124   1.30906   1.31326   1.31515
 Alpha virt. eigenvalues --    1.31899   1.32441   1.32747   1.33967   1.34109
 Alpha virt. eigenvalues --    1.34617   1.34976   1.35306   1.35814   1.36134
 Alpha virt. eigenvalues --    1.36633   1.36826   1.37186   1.37796   1.38361
 Alpha virt. eigenvalues --    1.38482   1.38772   1.39196   1.39904   1.40168
 Alpha virt. eigenvalues --    1.40328   1.40642   1.41175   1.41521   1.41906
 Alpha virt. eigenvalues --    1.42196   1.42675   1.43164   1.43489   1.43938
 Alpha virt. eigenvalues --    1.44390   1.44729   1.45232   1.45484   1.45552
 Alpha virt. eigenvalues --    1.45904   1.46580   1.47013   1.47415   1.47792
 Alpha virt. eigenvalues --    1.48293   1.48497   1.48851   1.49626   1.50168
 Alpha virt. eigenvalues --    1.50536   1.51367   1.52011   1.52431   1.52908
 Alpha virt. eigenvalues --    1.53905   1.53990   1.54873   1.55050   1.55813
 Alpha virt. eigenvalues --    1.56223   1.56939   1.57377   1.58315   1.58699
 Alpha virt. eigenvalues --    1.59333   1.59830   1.60883   1.61171   1.62150
 Alpha virt. eigenvalues --    1.62863   1.63134   1.63696   1.64214   1.64842
 Alpha virt. eigenvalues --    1.65226   1.66393   1.66771   1.67694   1.68040
 Alpha virt. eigenvalues --    1.68708   1.69290   1.69775   1.70039   1.70519
 Alpha virt. eigenvalues --    1.70994   1.71941   1.72003   1.72123   1.72842
 Alpha virt. eigenvalues --    1.72978   1.73725   1.74550   1.74941   1.75469
 Alpha virt. eigenvalues --    1.76302   1.76929   1.77064   1.77850   1.78120
 Alpha virt. eigenvalues --    1.78999   1.79662   1.79990   1.80635   1.81457
 Alpha virt. eigenvalues --    1.81500   1.82985   1.83122   1.83418   1.85000
 Alpha virt. eigenvalues --    1.85478   1.86045   1.86359   1.87291   1.87831
 Alpha virt. eigenvalues --    1.88153   1.89136   1.89554   1.90247   1.90902
 Alpha virt. eigenvalues --    1.92155   1.92944   1.93437   1.94420   1.94838
 Alpha virt. eigenvalues --    1.94877   1.95661   1.96463   1.97453   1.97902
 Alpha virt. eigenvalues --    1.98755   1.99360   1.99961   2.00160   2.00571
 Alpha virt. eigenvalues --    2.02695   2.03381   2.04042   2.04628   2.06177
 Alpha virt. eigenvalues --    2.06246   2.06689   2.07225   2.08491   2.08932
 Alpha virt. eigenvalues --    2.10007   2.10575   2.12486   2.12580   2.13272
 Alpha virt. eigenvalues --    2.13588   2.14052   2.14986   2.15984   2.16491
 Alpha virt. eigenvalues --    2.17133   2.17714   2.18218   2.18738   2.19136
 Alpha virt. eigenvalues --    2.19435   2.20290   2.20858   2.21734   2.21889
 Alpha virt. eigenvalues --    2.22072   2.22270   2.23166   2.23813   2.24710
 Alpha virt. eigenvalues --    2.25537   2.26053   2.26467   2.26740   2.27454
 Alpha virt. eigenvalues --    2.27861   2.28177   2.28914   2.29817   2.30141
 Alpha virt. eigenvalues --    2.31287   2.32067   2.32890   2.33386   2.34349
 Alpha virt. eigenvalues --    2.35111   2.35566   2.36958   2.37592   2.39022
 Alpha virt. eigenvalues --    2.39468   2.39844   2.40315   2.42297   2.43378
 Alpha virt. eigenvalues --    2.43525   2.44188   2.44475   2.45258   2.45911
 Alpha virt. eigenvalues --    2.47238   2.47708   2.48560   2.48858   2.49342
 Alpha virt. eigenvalues --    2.49940   2.50972   2.51448   2.51778   2.52027
 Alpha virt. eigenvalues --    2.52211   2.53140   2.54280   2.55265   2.55789
 Alpha virt. eigenvalues --    2.56105   2.56490   2.56878   2.57742   2.57947
 Alpha virt. eigenvalues --    2.58993   2.59498   2.59927   2.60174   2.60755
 Alpha virt. eigenvalues --    2.61420   2.62234   2.63081   2.63429   2.63907
 Alpha virt. eigenvalues --    2.64355   2.64924   2.65026   2.65583   2.66101
 Alpha virt. eigenvalues --    2.66442   2.67300   2.67567   2.68430   2.68997
 Alpha virt. eigenvalues --    2.69259   2.70078   2.70519   2.70912   2.72427
 Alpha virt. eigenvalues --    2.72608   2.73154   2.74169   2.75136   2.75915
 Alpha virt. eigenvalues --    2.77444   2.78004   2.78593   2.80283   2.81033
 Alpha virt. eigenvalues --    2.82239   2.83259   2.83865   2.84009   2.84514
 Alpha virt. eigenvalues --    2.85159   2.85677   2.86505   2.87139   2.88633
 Alpha virt. eigenvalues --    2.89003   2.89780   2.89937   2.90836   2.91858
 Alpha virt. eigenvalues --    2.92893   2.93490   2.93719   2.94280   2.94561
 Alpha virt. eigenvalues --    2.94828   2.95493   2.97231   2.97862   2.98030
 Alpha virt. eigenvalues --    2.98527   2.99667   3.00697   3.01088   3.01384
 Alpha virt. eigenvalues --    3.03071   3.03985   3.05281   3.05488   3.05859
 Alpha virt. eigenvalues --    3.06927   3.07654   3.08141   3.09401   3.09725
 Alpha virt. eigenvalues --    3.11402   3.11875   3.12575   3.12960   3.14056
 Alpha virt. eigenvalues --    3.14680   3.15156   3.16934   3.17087   3.18397
 Alpha virt. eigenvalues --    3.19219   3.19599   3.20364   3.21414   3.22274
 Alpha virt. eigenvalues --    3.23269   3.24074   3.24585   3.25677   3.26197
 Alpha virt. eigenvalues --    3.27472   3.28075   3.28187   3.29636   3.30065
 Alpha virt. eigenvalues --    3.31619   3.32441   3.33502   3.35083   3.35381
 Alpha virt. eigenvalues --    3.36705   3.36862   3.38070   3.39129   3.40190
 Alpha virt. eigenvalues --    3.40766   3.43242   3.44495   3.45695   3.47223
 Alpha virt. eigenvalues --    3.48089   3.50915   3.51728   3.53235   3.56588
 Alpha virt. eigenvalues --    3.58721   3.67537   3.68268   3.71099   3.75428
 Alpha virt. eigenvalues --    3.93256   3.94832   3.98299   4.00124   4.00974
 Alpha virt. eigenvalues --    4.05418   4.07860   4.17791   4.19237   4.24039
 Alpha virt. eigenvalues --    4.25096   4.30469   4.37863  21.17227  21.57446
 Alpha virt. eigenvalues --   21.59059  21.61208  21.69279  21.77763  21.80762
 Alpha virt. eigenvalues --   21.81196  21.83657  21.86010  21.88112  21.90582
 Alpha virt. eigenvalues --   21.94136  21.94824  21.98450  22.00831  22.02193
 Alpha virt. eigenvalues --   22.03192  22.04527  22.07530  22.10144  22.15145
 Alpha virt. eigenvalues --   31.45244  31.76697  43.17490  43.18731  43.27193
 Alpha virt. eigenvalues --   43.32189  43.35963  43.38765  43.46287  43.48474
          Condensed to atoms (all electrons):
 Mulliken charges:
               1
     1  C   -0.310786
     2  N   -0.246535
     3  C   -0.314219
     4  C   -0.074124
     5  C    0.135994
     6  O   -0.375107
     7  C   -0.092297
     8  C    0.131014
     9  N   -0.293912
    10  O   -0.260533
    11  C    0.035132
    12  O   -0.328462
    13  C    0.052463
    14  O   -0.333749
    15  C    0.072109
    16  O   -0.207141
    17  C   -0.187795
    18  C    0.106367
    19  O   -0.461316
    20  C   -0.199779
    21  C    0.143712
    22  O   -0.278352
    23  C   -0.223182
    24  C   -0.084551
    25  C   -0.142274
    26  C    0.092236
    27  C   -0.013133
    28  C   -0.474470
    29  O   -0.329881
    30  C    0.154732
    31  C   -0.400046
    32  C   -0.394601
    33  H    0.145457
    34  H    0.168399
    35  H    0.162313
    36  H    0.145912
    37  H    0.174955
    38  H    0.167328
    39  H    0.218229
    40  H    0.298556
    41  H    0.302242
    42  H    0.282630
    43  H    0.297631
    44  H    0.296139
    45  H    0.309246
    46  H    0.147711
    47  H    0.146247
    48  H    0.150886
    49  H    0.176852
    50  H    0.169429
    51  H    0.184513
    52  H    0.309466
    53  H    0.221924
    54  H    0.179009
    55  H    0.201536
    56  H    0.245873
 Sum of Mulliken charges =  -0.00000
 Mulliken charges with hydrogens summed into heavy atoms:
               1
     1  C    0.165383
     2  N   -0.246535
     3  C    0.173976
     4  C    0.144105
     5  C    0.135994
     6  O   -0.375107
     7  C   -0.092297
     8  C    0.131014
     9  N    0.306885
    10  O    0.022097
    11  C    0.035132
    12  O   -0.328462
    13  C    0.052463
    14  O   -0.036118
    15  C    0.072109
    16  O    0.088999
    17  C   -0.187795
    18  C    0.106367
    19  O   -0.461316
    20  C   -0.199779
    21  C    0.143712
    22  O    0.030894
    23  C   -0.075471
    24  C    0.061695
    25  C    0.008613
    26  C    0.092236
    27  C   -0.013133
    28  C    0.056324
    29  O   -0.020415
    30  C    0.376656
    31  C   -0.019501
    32  C   -0.148728
 Electronic spatial extent (au):  <R**2>=          13532.1789
 Charge=              0.0000 electrons
 Dipole moment (field-independent basis, Debye):
    X=             -3.4034    Y=             -9.6361    Z=             -6.7368  Tot=             12.2402
 Quadrupole moment (field-independent basis, Debye-Ang):
   XX=           -158.4955   YY=           -191.4380   ZZ=           -179.3859
   XY=            -14.0727   XZ=             -5.9072   YZ=            -15.1168
 Traceless Quadrupole moment (field-independent basis, Debye-Ang):
   XX=             17.9443   YY=            -14.9982   ZZ=             -2.9461
   XY=            -14.0727   XZ=             -5.9072   YZ=            -15.1168
 Octapole moment (field-independent basis, Debye-Ang**2):
  XXX=           -142.3744  YYY=            -78.3145  ZZZ=            -21.4215  XYY=              4.1262
  XXY=           -117.9743  XXZ=              3.9386  XZZ=            -65.6319  YZZ=            -15.3007
  YYZ=             12.1110  XYZ=             65.7903
 Hexadecapole moment (field-independent basis, Debye-Ang**3):
 XXXX=         -11535.4566 YYYY=          -2688.6575 ZZZZ=          -2434.5586 XXXY=           -414.4304
 XXXZ=           -413.2807 YYYX=              6.9803 YYYZ=            -95.8088 ZZZX=             70.1234
 ZZZY=           -103.2393 XXYY=          -2413.2285 XXZZ=          -2348.3210 YYZZ=           -780.1262
 XXYZ=           -296.6559 YYXZ=           -114.8719 ZZXY=             63.7880
 N-N= 3.536638438438D+03 E-N=-1.073153185276D+04  KE= 1.557806701774D+03
 Unable to Open any file for archive entry.
 1\1\GINC-TCN1650\SP\RBP86\TZVP\C22H24N2O8\ELENAA\23-Feb-2021\0\\# BP86
 /TZVP SCRF=COSMORS geom=CHECKPOINT guess=CHECKPOINT\\COSMO-file for #N
 WXMGUDVXFXRIG-WESIUVDSSA-N\\0,1\C,0,-3.4403854669,-1.4296451318,-3.171
 3875282\N,0,-3.6028168232,-0.7113067715,-1.8919969693\C,0,-5.027098270
 7,-0.661684632,-1.5116905451\C,0,-2.7013063675,-1.3011999729,-0.841618
 681\C,0,-3.2342450683,-1.0007204243,0.5653682208\O,0,-3.9785537577,-1.
 8465190873,1.1120546221\C,0,-2.860512541,0.255314147,1.1726542641\C,0,
 -3.416550794,0.6558141993,2.4537335569\N,0,-4.2731504934,-0.1136697072
 ,3.1139552511\O,0,-3.0785929773,1.8064774543,2.9881763607\C,0,-1.89250
 20404,1.1318775207,0.5832270745\O,0,-1.5560040705,2.2274642735,1.13243
 73144\C,0,-1.2740326191,0.7746136548,-0.7956673611\O,0,-2.072881893,1.
 4476312566,-1.7768029311\C,0,0.1505634727,1.2994907186,-0.8635469833\O
 ,0,0.2559276021,2.5840220188,-1.184493963\C,0,1.2546487273,0.503440717
 ,-0.6001321874\C,0,2.5593184592,1.1053186902,-0.6193357521\O,0,2.71650
 05288,2.3477753095,-0.9564430046\C,0,3.7290287638,0.3016108872,-0.2771
 216106\C,0,5.0378708911,0.8056562613,-0.5441781281\O,0,5.2381826011,2.
 0405632043,-1.057539556\C,0,6.163779608,0.0058234639,-0.2815481937\C,0
 ,5.9923867935,-1.256833749,0.2712619494\C,0,4.7106153995,-1.7496805838
 ,0.579351949\C,0,3.57708328,-0.9846668589,0.3142325649\C,0,2.167987756
 5,-1.433187521,0.7316326299\C,0,2.0720557306,-2.9377975922,1.000862967
 7\O,0,1.7908075917,-0.6999223863,1.935233902\C,0,1.1615761727,-0.99302
 71842,-0.3604591036\C,0,-0.2765668102,-1.4431498488,-0.0739431097\C,0,
 -1.2721833297,-0.7527872389,-1.0130642869\H,0,-3.799431869,-2.47474846
 3,-3.1026049198\H,0,-4.0126084487,-0.9059315974,-3.9491862187\H,0,-2.3
 850967291,-1.4385459866,-3.4729553722\H,0,-5.4384171068,-1.6621735043,
 -1.2815124408\H,0,-5.1616740337,-0.0138452889,-0.6353885125\H,0,-5.589
 9972718,-0.2273053799,-2.3485770485\H,0,-2.69743988,-2.4044452164,-0.9
 266872948\H,0,-4.6540732983,0.1906777843,4.0062697909\H,0,-4.506401346
 9,-1.0194581723,2.6820229863\H,0,-2.366351607,2.2133507991,2.287821024
 4\H,0,-2.8255682484,0.7763612304,-1.9581592603\H,0,1.2733416554,2.7708
 666309,-1.1777393589\H,0,4.3186309595,2.4582798763,-1.1181735498\H,0,7
 .15467547,0.4038607785,-0.5056125652\H,0,6.868454848,-1.8748969669,0.4
 789123671\H,0,4.6220143344,-2.7368981429,1.0300773281\H,0,2.771474057,
 -3.2412039626,1.7924402788\H,0,2.2929332796,-3.523644203,0.0965032445\
 H,0,1.0628198464,-3.1873532505,1.3501678758\H,0,2.4357586881,-0.936227
 3903,2.6275982876\H,0,1.4967630779,-1.4953498552,-1.2886609815\H,0,-0.
 3638877697,-2.5307536433,-0.2083620305\H,0,-0.5228277298,-1.2236872672
 ,0.9770235712\H,0,-0.9484659327,-0.9227598956,-2.0531209335\\Version=E
 S64L-G16RevC.01\State=1-A\HF=-1564.7301527\RMSD=3.509e-09\Dipole=-1.19
 61374,-4.6067323,0.7333433\Quadrupole=14.1467154,-18.6424315,4.4957162
 ,-9.6488297,3.5455921,4.3614414\PG=C01 [X(C22H24N2O8)]\\@
 The archive entry for this job was punched.


 RESEARCH IS WHAT I AM DOING WHEN I DON'T KNOW WHAT I AM DOING.
     -- WERNER VON BRAUN
 Job cpu time:       0 days  1 hours 35 minutes 15.6 seconds.
 Elapsed time:       0 days  0 hours  3 minutes  0.6 seconds.
 File lengths (MBytes):  RWF=    381 Int=      0 D2E=      0 Chk=     48 Scr=      1
 Normal termination of Gaussian 16 at Tue Feb 23 05:41:03 2021.
