 Entering Gaussian System, Link 0=g16
 Input=OFOBLEOULBTSOW-UHFFFAOYSA-N.gjf
 Output=OFOBLEOULBTSOW-UHFFFAOYSA-N.log
 Initial command:
 /sw/arch/RedHatEnterpriseServer7/EB_production/2019/software/Gaussian/g16.c01/l1.exe "/scratch-local/elenaa.9715252/Gau-21122.inp" -scrdir="/scratch-local/elenaa.9715252/"
 Entering Link 1 = /sw/arch/RedHatEnterpriseServer7/EB_production/2019/software/Gaussian/g16.c01/l1.exe PID=     21123.
  
 Copyright (c) 1988-2019, Gaussian, Inc.  All Rights Reserved.
  
 This is part of the Gaussian(R) 16 program.  It is based on
 the Gaussian(R) 09 system (copyright 2009, Gaussian, Inc.),
 the Gaussian(R) 03 system (copyright 2003, Gaussian, Inc.),
 the Gaussian(R) 98 system (copyright 1998, Gaussian, Inc.),
 the Gaussian(R) 94 system (copyright 1995, Gaussian, Inc.),
 the Gaussian 92(TM) system (copyright 1992, Gaussian, Inc.),
 the Gaussian 90(TM) system (copyright 1990, Gaussian, Inc.),
 the Gaussian 88(TM) system (copyright 1988, Gaussian, Inc.),
 the Gaussian 86(TM) system (copyright 1986, Carnegie Mellon
 University), and the Gaussian 82(TM) system (copyright 1983,
 Carnegie Mellon University). Gaussian is a federally registered
 trademark of Gaussian, Inc.
  
 This software contains proprietary and confidential information,
 including trade secrets, belonging to Gaussian, Inc.
  
 This software is provided under written license and may be
 used, copied, transmitted, or stored only in accord with that
 written license.
  
 The following legend is applicable only to US Government
 contracts under FAR:
  
                    RESTRICTED RIGHTS LEGEND
  
 Use, reproduction and disclosure by the US Government is
 subject to restrictions as set forth in subparagraphs (a)
 and (c) of the Commercial Computer Software - Restricted
 Rights clause in FAR 52.227-19.
  
 Gaussian, Inc.
 340 Quinnipiac St., Bldg. 40, Wallingford CT 06492
  
  
 ---------------------------------------------------------------
 Warning -- This program may not be used in any manner that
 competes with the business of Gaussian, Inc. or will provide
 assistance to any competitor of Gaussian, Inc.  The licensee
 of this program is prohibited from giving any competitor of
 Gaussian, Inc. access to this program.  By using this program,
 the user acknowledges that Gaussian, Inc. is engaged in the
 business of creating and licensing software in the field of
 computational chemistry and represents and warrants to the
 licensee that it is not a competitor of Gaussian, Inc. and that
 it will not use this program in any manner prohibited above.
 ---------------------------------------------------------------
  

 Cite this work as:
 Gaussian 16, Revision C.01,
 M. J. Frisch, G. W. Trucks, H. B. Schlegel, G. E. Scuseria, 
 M. A. Robb, J. R. Cheeseman, G. Scalmani, V. Barone, 
 G. A. Petersson, H. Nakatsuji, X. Li, M. Caricato, A. V. Marenich, 
 J. Bloino, B. G. Janesko, R. Gomperts, B. Mennucci, H. P. Hratchian, 
 J. V. Ortiz, A. F. Izmaylov, J. L. Sonnenberg, D. Williams-Young, 
 F. Ding, F. Lipparini, F. Egidi, J. Goings, B. Peng, A. Petrone, 
 T. Henderson, D. Ranasinghe, V. G. Zakrzewski, J. Gao, N. Rega, 
 G. Zheng, W. Liang, M. Hada, M. Ehara, K. Toyota, R. Fukuda, 
 J. Hasegawa, M. Ishida, T. Nakajima, Y. Honda, O. Kitao, H. Nakai, 
 T. Vreven, K. Throssell, J. A. Montgomery, Jr., J. E. Peralta, 
 F. Ogliaro, M. J. Bearpark, J. J. Heyd, E. N. Brothers, K. N. Kudin, 
 V. N. Staroverov, T. A. Keith, R. Kobayashi, J. Normand, 
 K. Raghavachari, A. P. Rendell, J. C. Burant, S. S. Iyengar, 
 J. Tomasi, M. Cossi, J. M. Millam, M. Klene, C. Adamo, R. Cammi, 
 J. W. Ochterski, R. L. Martin, K. Morokuma, O. Farkas, 
 J. B. Foresman, and D. J. Fox, Gaussian, Inc., Wallingford CT, 2019.
 
 ******************************************
 Gaussian 16:  ES64L-G16RevC.01  3-Jul-2019
                22-Feb-2021 
 ******************************************
 %chk=OFOBLEOULBTSOW-UHFFFAOYSA-N.chk
 %NProcShared=32
 Will use up to   32 processors via shared memory.
 -------------------------------------------------------------
 #P BP86/TZVP EmpiricalDispersion=GD3 SCRF=(Solvent=Water) Opt
 -------------------------------------------------------------
 1/18=20,19=15,26=3,38=1/1,3;
 2/9=110,12=2,17=6,18=5,40=1/2;
 3/5=19,7=101,11=2,25=1,30=1,70=2201,71=1,72=1,74=404,124=31/1,2,3;
 4//1;
 5/5=2,38=5,53=1/2;
 6/7=2,8=2,9=2,10=2,28=1/1;
 7//1,2,3,16;
 1/18=20,19=15,26=3/3(2);
 2/9=110/2;
 99//99;
 2/9=110/2;
 3/5=19,7=101,11=2,25=1,30=1,70=2205,71=1,72=1,74=404,124=31/1,2,3;
 4/5=5,16=3,69=1/1;
 5/5=2,38=5,53=1/2;
 7//1,2,3,16;
 1/18=20,19=15,26=3/3(-5);
 2/9=110/2;
 6/7=2,8=2,9=2,10=2,19=2,28=1/1;
 99/9=1/99;
 Leave Link    1 at Mon Feb 22 21:16:19 2021, MaxMem=           0 cpu:               2.2 elap:               0.1
 (Enter /sw/arch/RedHatEnterpriseServer7/EB_production/2019/software/Gaussian/g16.c01/l101.exe)
 -------------------------------------
 Particle #OFOBLEOULBTSOW-UHFFFAOYSA-N
 -------------------------------------
 Symbolic Z-matrix:
 Charge =  0 Multiplicity = 1
 O                    -1.52931  -0.311     1.65921 
 C                    -0.64756   0.54491   1.41726 
 O                    -0.9758    1.85542   1.48659 
 C                     0.72957   0.14169   1.08006 
 C                     1.09089   0.56033  -0.28455 
 O                     2.02052   1.37336  -0.4845 
 O                     0.42271   0.05983  -1.34906 
 H                    -1.88561   2.11934   1.73691 
 H                     1.41098   0.58481   1.81002 
 H                     0.83492  -0.94427   1.1422 
 H                     0.66603   0.32969  -2.25975 
 
 ITRead=  0  0  0  0  0  0  0  0  0  0  0
 MicOpt= -1 -1 -1 -1 -1 -1 -1 -1 -1 -1 -1
 NAtoms=     11 NQM=       11 NQMF=       0 NMMI=      0 NMMIF=      0
                NMic=       0 NMicF=      0.
                    Isotopes and Nuclear Properties:
 (Nuclear quadrupole moments (NQMom) in fm**2, nuclear magnetic moments (NMagM)
  in nuclear magnetons)

  Atom         1           2           3           4           5           6           7           8           9          10
 IAtWgt=          16          12          16          12          12          16          16           1           1           1
 AtmWgt=  15.9949146  12.0000000  15.9949146  12.0000000  12.0000000  15.9949146  15.9949146   1.0078250   1.0078250   1.0078250
 NucSpn=           0           0           0           0           0           0           0           1           1           1
 AtZEff=  -0.0000000  -0.0000000  -0.0000000  -0.0000000  -0.0000000  -0.0000000  -0.0000000  -0.0000000  -0.0000000  -0.0000000
 NQMom=    0.0000000   0.0000000   0.0000000   0.0000000   0.0000000   0.0000000   0.0000000   0.0000000   0.0000000   0.0000000
 NMagM=    0.0000000   0.0000000   0.0000000   0.0000000   0.0000000   0.0000000   0.0000000   2.7928460   2.7928460   2.7928460
 AtZNuc=   8.0000000   6.0000000   8.0000000   6.0000000   6.0000000   8.0000000   8.0000000   1.0000000   1.0000000   1.0000000

  Atom        11
 IAtWgt=           1
 AtmWgt=   1.0078250
 NucSpn=           1
 AtZEff=  -0.0000000
 NQMom=    0.0000000
 NMagM=    2.7928460
 AtZNuc=   1.0000000
 Leave Link  101 at Mon Feb 22 21:16:20 2021, MaxMem=   104857600 cpu:               3.0 elap:               0.1
 (Enter /sw/arch/RedHatEnterpriseServer7/EB_production/2019/software/Gaussian/g16.c01/l103.exe)

 GradGradGradGradGradGradGradGradGradGradGradGradGradGradGradGradGradGrad
 Berny optimization.
 Initialization pass.
                           ----------------------------
                           !    Initial Parameters    !
                           ! (Angstroms and Degrees)  !
 --------------------------                            --------------------------
 ! Name  Definition              Value          Derivative Info.                !
 --------------------------------------------------------------------------------
 ! R1    R(1,2)                  1.2524         estimate D2E/DX2                !
 ! R2    R(2,3)                  1.3528         estimate D2E/DX2                !
 ! R3    R(2,4)                  1.474          estimate D2E/DX2                !
 ! R4    R(3,8)                  0.9798         estimate D2E/DX2                !
 ! R5    R(4,5)                  1.4724         estimate D2E/DX2                !
 ! R6    R(4,9)                  1.0925         estimate D2E/DX2                !
 ! R7    R(4,10)                 1.0928         estimate D2E/DX2                !
 ! R8    R(5,6)                  1.2511         estimate D2E/DX2                !
 ! R9    R(5,7)                  1.3528         estimate D2E/DX2                !
 ! R10   R(7,11)                 0.9805         estimate D2E/DX2                !
 ! A1    A(1,2,3)              118.7715         estimate D2E/DX2                !
 ! A2    A(1,2,4)              120.997          estimate D2E/DX2                !
 ! A3    A(3,2,4)              120.2264         estimate D2E/DX2                !
 ! A4    A(2,3,8)              119.956          estimate D2E/DX2                !
 ! A5    A(2,4,5)              111.3152         estimate D2E/DX2                !
 ! A6    A(2,4,9)              108.5976         estimate D2E/DX2                !
 ! A7    A(2,4,10)             110.4192         estimate D2E/DX2                !
 ! A8    A(5,4,9)              110.5404         estimate D2E/DX2                !
 ! A9    A(5,4,10)             108.1545         estimate D2E/DX2                !
 ! A10   A(9,4,10)             107.7545         estimate D2E/DX2                !
 ! A11   A(4,5,6)              121.0132         estimate D2E/DX2                !
 ! A12   A(4,5,7)              120.1905         estimate D2E/DX2                !
 ! A13   A(6,5,7)              118.7947         estimate D2E/DX2                !
 ! A14   A(5,7,11)             120.4282         estimate D2E/DX2                !
 ! D1    D(1,2,3,8)              0.9971         estimate D2E/DX2                !
 ! D2    D(4,2,3,8)           -178.1965         estimate D2E/DX2                !
 ! D3    D(1,2,4,5)            116.7083         estimate D2E/DX2                !
 ! D4    D(1,2,4,9)           -121.3757         estimate D2E/DX2                !
 ! D5    D(1,2,4,10)            -3.4335         estimate D2E/DX2                !
 ! D6    D(3,2,4,5)            -64.1163         estimate D2E/DX2                !
 ! D7    D(3,2,4,9)             57.7997         estimate D2E/DX2                !
 ! D8    D(3,2,4,10)           175.7418         estimate D2E/DX2                !
 ! D9    D(2,4,5,6)            117.2612         estimate D2E/DX2                !
 ! D10   D(2,4,5,7)            -63.2026         estimate D2E/DX2                !
 ! D11   D(9,4,5,6)             -3.5211         estimate D2E/DX2                !
 ! D12   D(9,4,5,7)            176.0151         estimate D2E/DX2                !
 ! D13   D(10,4,5,6)          -121.2677         estimate D2E/DX2                !
 ! D14   D(10,4,5,7)            58.2685         estimate D2E/DX2                !
 ! D15   D(4,5,7,11)          -179.4167         estimate D2E/DX2                !
 ! D16   D(6,5,7,11)             0.1297         estimate D2E/DX2                !
 --------------------------------------------------------------------------------
 Trust Radius=3.00D-01 FncErr=1.00D-07 GrdErr=1.00D-06 EigMax=2.50D+02 EigMin=1.00D-04
 Number of steps in this run=     50 maximum allowed number of steps=    100.
 GradGradGradGradGradGradGradGradGradGradGradGradGradGradGradGradGradGrad

 Leave Link  103 at Mon Feb 22 21:16:20 2021, MaxMem=   104857600 cpu:               0.4 elap:               0.0
 (Enter /sw/arch/RedHatEnterpriseServer7/EB_production/2019/software/Gaussian/g16.c01/l202.exe)
                          Input orientation:                          
 ---------------------------------------------------------------------
 Center     Atomic      Atomic             Coordinates (Angstroms)
 Number     Number       Type             X           Y           Z
 ---------------------------------------------------------------------
      1          8           0       -1.529310   -0.311000    1.659210
      2          6           0       -0.647560    0.544910    1.417260
      3          8           0       -0.975800    1.855420    1.486590
      4          6           0        0.729570    0.141690    1.080060
      5          6           0        1.090890    0.560330   -0.284550
      6          8           0        2.020520    1.373360   -0.484500
      7          8           0        0.422710    0.059830   -1.349060
      8          1           0       -1.885610    2.119340    1.736910
      9          1           0        1.410980    0.584810    1.810020
     10          1           0        0.834920   -0.944270    1.142200
     11          1           0        0.666030    0.329690   -2.259750
 ---------------------------------------------------------------------
                    Distance matrix (angstroms):
                    1          2          3          4          5
     1  O    0.000000
     2  C    1.252440   0.000000
     3  O    2.242665   1.352769   0.000000
     4  C    2.375475   1.474034   2.451617   0.000000
     5  C    3.376813   2.432818   3.014200   1.472403   0.000000
     6  O    4.475919   3.379596   3.618772   2.373059   1.251083
     7  O    3.605216   3.005546   3.636053   2.449793   1.352829
     8  H    2.457547   2.028244   0.979831   3.343908   3.921271
     9  H    3.077422   2.096053   2.723192   1.092482   2.119028
    10  H    2.501582   2.119213   3.351951   1.092826   2.089248
    11  H    4.537428   3.910529   4.365607   3.345701   2.033498
                    6          7          8          9         10
     6  O    0.000000
     7  O    2.241834   0.000000
     8  H    4.555107   4.369569   0.000000
     9  H    2.501634   3.351428   3.636981   0.000000
    10  H    3.069725   2.717446   4.140129   1.765195   0.000000
    11  H    2.464833   0.980503   5.068235   4.145246   3.636587
                   11
    11  H    0.000000
 Stoichiometry    C3H4O4
 Framework group  C1[X(C3H4O4)]
 Deg. of freedom    27
 Full point group                 C1      NOp   1
 Largest Abelian subgroup         C1      NOp   1
 Largest concise Abelian subgroup C1      NOp   1
                         Standard orientation:                         
 ---------------------------------------------------------------------
 Center     Atomic      Atomic             Coordinates (Angstroms)
 Number     Number       Type             X           Y           Z
 ---------------------------------------------------------------------
      1          8           0        2.031722    0.932834    0.175939
      2          6           0        1.215250   -0.015878    0.132075
      3          8           0        1.476924   -1.062933   -0.683516
      4          6           0       -0.001903   -0.008973    0.963501
      5          6           0       -1.217385    0.013968    0.132809
      6          8           0       -2.038332   -0.929531    0.165417
      7          8           0       -1.468713    1.068745   -0.676157
      8          1           0        2.300237   -1.075600   -1.214613
      9          1           0        0.008320   -0.894290    1.603521
     10          1           0       -0.015845    0.870721    1.611740
     11          1           0       -2.281291    1.091545   -1.224412
 ---------------------------------------------------------------------
 Rotational constants (GHZ):           4.8891314           1.7821758           1.5993981
 Leave Link  202 at Mon Feb 22 21:16:20 2021, MaxMem=   104857600 cpu:               0.5 elap:               0.0
 (Enter /sw/arch/RedHatEnterpriseServer7/EB_production/2019/software/Gaussian/g16.c01/l301.exe)
 Standard basis: TZVP (5D, 7F)
 Ernie: Thresh=  0.10000D-02 Tol=  0.10000D-05 Strict=F.
 There are   164 symmetry adapted cartesian basis functions of A   symmetry.
 There are   157 symmetry adapted basis functions of A   symmetry.
   157 basis functions,   277 primitive gaussians,   164 cartesian basis functions
    27 alpha electrons       27 beta electrons
       nuclear repulsion energy       298.8101647409 Hartrees.
 IExCor=  404 DFT=T Ex=B Corr=P86 ExCW=0 ScaHFX=  0.000000
 ScaDFX=  1.000000  1.000000  1.000000  1.000000 ScalE2=  1.000000  1.000000
 IRadAn=      5 IRanWt=     -1 IRanGd=            0 ICorTp=0 IEmpDi=131
 NAtoms=   11 NActive=   11 NUniq=   11 SFac= 1.00D+00 NAtFMM=   60 NAOKFM=F Big=F
 Integral buffers will be    131072 words long.
 Raffenetti 2 integral format.
 Two-electron integral symmetry is turned on.
 R6Disp:  Grimme-D3 Dispersion energy=       -0.0079527214 Hartrees.
 Nuclear repulsion after empirical dispersion term =      298.8022120196 Hartrees.
 ------------------------------------------------------------------------------
 Polarizable Continuum Model (PCM)
 =================================
 Model                : PCM.
 Atomic radii         : UFF (Universal Force Field).
 Polarization charges : Total charges.
 Charge compensation  : None.
 Solution method      : On-the-fly selection.
 Cavity type          : Scaled VdW (van der Waals Surface) (Alpha=1.100).
 Cavity algorithm     : GePol (No added spheres)
                        Default sphere list used, NSphG=   11.
                        Lebedev-Laikov grids with approx.  5.0 points / Ang**2.
                        Smoothing algorithm: York/Karplus (Gamma=1.0000).
                        Polarization charges: spherical gaussians, with
                                              point-specific exponents (IZeta= 3).
                        Self-potential: point-specific (ISelfS= 7).
                        Self-field    : sphere-specific E.n sum rule (ISelfD= 2).
 1st derivatives      : Analytical E(r).r(x)/FMM algorithm (CHGder, D1EAlg=3).
                        Cavity 1st derivative terms included.
 Solvent              : Water, Eps=  78.355300 Eps(inf)=   1.777849
 ------------------------------------------------------------------------------
 Spheres list:
 ISph  on   Nord     Re0    Alpha      Xe            Ye            Ze
    1   O      1    1.7500  1.100      2.031722      0.932834      0.175939
    2   C      2    1.9255  1.100      1.215250     -0.015878      0.132075
    3   O      3    1.7500  1.100      1.476924     -1.062933     -0.683516
    4   C      4    1.9255  1.100     -0.001903     -0.008973      0.963501
    5   C      5    1.9255  1.100     -1.217385      0.013968      0.132809
    6   O      6    1.7500  1.100     -2.038332     -0.929531      0.165417
    7   O      7    1.7500  1.100     -1.468713      1.068745     -0.676157
    8   H      8    1.4430  1.100      2.300237     -1.075600     -1.214613
    9   H      9    1.4430  1.100      0.008320     -0.894290      1.603521
   10   H     10    1.4430  1.100     -0.015845      0.870721      1.611740
   11   H     11    1.4430  1.100     -2.281291      1.091545     -1.224412
 ------------------------------------------------------------------------------
 GePol: Number of generator spheres                  =      11
 GePol: Total number of spheres                      =      11
 GePol: Number of exposed spheres                    =      11 (100.00%)
 GePol: Number of points                             =    1133
 GePol: Average weight of points                     =       0.14
 GePol: Minimum weight of points                     =   0.30D-10
 GePol: Maximum weight of points                     =    0.20577
 GePol: Number of points with low weight             =      48
 GePol: Fraction of low-weight points (<1% of avg)   =       4.24%
 GePol: Cavity surface area                          =    153.797 Ang**2
 GePol: Cavity volume                                =    138.491 Ang**3
 Leave Link  301 at Mon Feb 22 21:16:20 2021, MaxMem=   104857600 cpu:               1.6 elap:               0.1
 (Enter /sw/arch/RedHatEnterpriseServer7/EB_production/2019/software/Gaussian/g16.c01/l302.exe)
 NPDir=0 NMtPBC=     1 NCelOv=     1 NCel=       1 NClECP=     1 NCelD=      1
         NCelK=      1 NCelE2=     1 NClLst=     1 CellRange=     0.0.
 One-electron integrals computed using PRISM.
 One-electron integral symmetry used in STVInt
 PrsmSu:  requested number of processors reduced to:  30 ShMem   1 Linda.
 NBasis=   157 RedAO= T EigKep=  2.99D-04  NBF=   157
 NBsUse=   157 1.00D-06 EigRej= -1.00D+00 NBFU=   157
 Precomputing XC quadrature grid using
 IXCGrd= 4 IRadAn=           5 IRanWt=          -1 IRanGd=           0 AccXCQ= 0.00D+00.
 Generated NRdTot=       0 NPtTot=           0 NUsed=           0 NTot=          32
 NSgBfM=   163   163   163   163   163 MxSgAt=    11 MxSgA2=    11.
 Leave Link  302 at Mon Feb 22 21:16:20 2021, MaxMem=   104857600 cpu:               8.3 elap:               0.3
 (Enter /sw/arch/RedHatEnterpriseServer7/EB_production/2019/software/Gaussian/g16.c01/l303.exe)
 DipDrv:  MaxL=1.
 Leave Link  303 at Mon Feb 22 21:16:21 2021, MaxMem=   104857600 cpu:               1.7 elap:               0.1
 (Enter /sw/arch/RedHatEnterpriseServer7/EB_production/2019/software/Gaussian/g16.c01/l401.exe)
 ExpMin= 9.52D-02 ExpMax= 2.70D+04 ExpMxC= 9.22D+02 IAcc=3 IRadAn=         5 AccDes= 0.00D+00
 Harris functional with IExCor=  404 and IRadAn=       5 diagonalized for initial guess.
 HarFok:  IExCor=  404 AccDes= 0.00D+00 IRadAn=         5 IDoV= 1 UseB2=F ITyADJ=14
 ICtDFT=  3500011 ScaDFX=  1.000000  1.000000  1.000000  1.000000
 FoFCou: FMM=F IPFlag=           0 FMFlag=      100000 FMFlg1=           0
         NFxFlg=           0 DoJE=T BraDBF=F KetDBF=T FulRan=T
         wScrn=  0.000000 ICntrl=       500 IOpCl=  0 I1Cent=   200000004 NGrid=           0
         NMat0=    1 NMatS0=      1 NMatT0=    0 NMatD0=    1 NMtDS0=    0 NMtDT0=    0
 Petite list used in FoFCou.
 Harris En= -417.909945075298    
 JPrj=0 DoOrth=F DoCkMO=F.
 Leave Link  401 at Mon Feb 22 21:16:21 2021, MaxMem=   104857600 cpu:               9.1 elap:               0.3
 (Enter /sw/arch/RedHatEnterpriseServer7/EB_production/2019/software/Gaussian/g16.c01/l502.exe)
 Integral symmetry usage will be decided dynamically.
 Closed shell SCF:
 Using DIIS extrapolation, IDIIS=  1040.
 NGot=   104857600 LenX=   104796580 LenY=   104769243
 Requested convergence on RMS density matrix=1.00D-08 within 128 cycles.
 Requested convergence on MAX density matrix=1.00D-06.
 Requested convergence on             energy=1.00D-06.
 No special actions if energy rises.
 Fock matrices will be formed incrementally for  20 cycles.

 Cycle   1  Pass 1  IDiag  1:
 FoFJK:  IHMeth= 1 ICntrl=     500 DoSepK=F KAlg= 0 I1Cent=           0 FoldK=F
 IRaf= 950000000 NMat=       1 IRICut=       1 DoRegI=T DoRafI=F ISym2E= 0 IDoP0=0 IntGTp=1.
 FoFCou: FMM=F IPFlag=           0 FMFlag=      100000 FMFlg1=           0
         NFxFlg=           0 DoJE=T BraDBF=F KetDBF=F FulRan=T
         wScrn=  0.000000 ICntrl=       500 IOpCl=  0 I1Cent=           0 NGrid=           0
         NMat0=    1 NMatS0=      1 NMatT0=    0 NMatD0=    1 NMtDS0=    0 NMtDT0=    0
 Symmetry not used in FoFCou.
 Inv3:  Mode=1 IEnd=     3851067.
 Iteration    1 A*A^-1 deviation from unit magnitude is 2.78D-15 for    403.
 Iteration    1 A*A^-1 deviation from orthogonality  is 2.65D-15 for    552    264.
 Iteration    1 A^-1*A deviation from unit magnitude is 2.55D-15 for    415.
 Iteration    1 A^-1*A deviation from orthogonality  is 1.10D-14 for    821    716.
 E= -417.593015954459    
 DIIS: error= 3.80D-02 at cycle   1 NSaved=   1.
 NSaved= 1 IEnMin= 1 EnMin= -417.593015954459     IErMin= 1 ErrMin= 3.80D-02
 ErrMax= 3.80D-02  0.00D+00 EMaxC= 1.00D-01 BMatC= 3.12D-01 BMatP= 3.12D-01
 IDIUse=3 WtCom= 6.20D-01 WtEn= 3.80D-01
 Coeff-Com:  0.100D+01
 Coeff-En:   0.100D+01
 Coeff:      0.100D+01
 Gap=     0.020 Goal=   None    Shift=    0.000
 GapD=    0.020 DampG=0.250 DampE=0.500 DampFc=0.2500 IDamp=-1.
 Damping current iteration by 2.50D-01
 RMSDP=1.13D-02 MaxDP=5.92D-01              OVMax= 3.55D-01

 Cycle   2  Pass 1  IDiag  1:
 RMSU=  2.82D-03    CP:  1.00D+00
 E= -417.661165378614     Delta-E=       -0.068149424156 Rises=F Damp=T
 DIIS: error= 9.92D-03 at cycle   2 NSaved=   2.
 NSaved= 2 IEnMin= 2 EnMin= -417.661165378614     IErMin= 2 ErrMin= 9.92D-03
 ErrMax= 9.92D-03  0.00D+00 EMaxC= 1.00D-01 BMatC= 2.94D-02 BMatP= 3.12D-01
 IDIUse=3 WtCom= 9.01D-01 WtEn= 9.92D-02
 Coeff-Com: -0.162D+00 0.116D+01
 Coeff-En:   0.201D+00 0.799D+00
 Coeff:     -0.126D+00 0.113D+01
 Gap=     0.128 Goal=   None    Shift=    0.000
 RMSDP=2.13D-03 MaxDP=3.15D-02 DE=-6.81D-02 OVMax= 3.15D-01

 Cycle   3  Pass 1  IDiag  1:
 RMSU=  2.11D-03    CP:  9.96D-01  9.09D-01
 E= -417.742821926374     Delta-E=       -0.081656547759 Rises=F Damp=F
 DIIS: error= 2.23D-02 at cycle   3 NSaved=   3.
 NSaved= 3 IEnMin= 3 EnMin= -417.742821926374     IErMin= 2 ErrMin= 9.92D-03
 ErrMax= 2.23D-02  0.00D+00 EMaxC= 1.00D-01 BMatC= 1.01D-01 BMatP= 2.94D-02
 IDIUse=2 WtCom= 0.00D+00 WtEn= 1.00D+00
 EnCoef did     5 forward-backward iterations
 Coeff-En:   0.696D-01 0.653D-01 0.865D+00
 Coeff:      0.696D-01 0.653D-01 0.865D+00
 Gap=     0.099 Goal=   None    Shift=    0.000
 RMSDP=4.93D-03 MaxDP=7.49D-02 DE=-8.17D-02 OVMax= 3.59D-01

 Cycle   4  Pass 1  IDiag  1:
 RMSU=  2.11D-03    CP:  1.01D+00  1.89D+00 -6.47D-01
 E= -417.236425753077     Delta-E=        0.506396173297 Rises=F Damp=F
 DIIS: error= 6.96D-02 at cycle   4 NSaved=   4.
 NSaved= 4 IEnMin= 3 EnMin= -417.742821926374     IErMin= 2 ErrMin= 9.92D-03
 ErrMax= 6.96D-02  0.00D+00 EMaxC= 1.00D-01 BMatC= 7.66D-01 BMatP= 2.94D-02
 IDIUse=2 WtCom= 0.00D+00 WtEn= 1.00D+00
 EnCoef did     2 forward-backward iterations
 Coeff-En:   0.244D-01 0.000D+00 0.793D+00 0.182D+00
 Coeff:      0.244D-01 0.000D+00 0.793D+00 0.182D+00
 Gap=     0.136 Goal=   None    Shift=    0.000
 RMSDP=3.05D-03 MaxDP=8.93D-02 DE= 5.06D-01 OVMax= 2.08D-01

 Cycle   5  Pass 1  IDiag  1:
 RMSU=  4.82D-04    CP:  1.01D+00  1.04D+00  5.49D-02  5.14D-01
 E= -417.770945841506     Delta-E=       -0.534520088429 Rises=F Damp=F
 DIIS: error= 1.88D-02 at cycle   5 NSaved=   5.
 NSaved= 5 IEnMin= 5 EnMin= -417.770945841506     IErMin= 2 ErrMin= 9.92D-03
 ErrMax= 1.88D-02  0.00D+00 EMaxC= 1.00D-01 BMatC= 7.09D-02 BMatP= 2.94D-02
 IDIUse=2 WtCom= 0.00D+00 WtEn= 1.00D+00
 Coeff-En:   0.000D+00 0.000D+00 0.423D+00 0.000D+00 0.577D+00
 Coeff:      0.000D+00 0.000D+00 0.423D+00 0.000D+00 0.577D+00
 Gap=     0.153 Goal=   None    Shift=    0.000
 RMSDP=1.15D-03 MaxDP=2.21D-02 DE=-5.35D-01 OVMax= 8.37D-02

 Cycle   6  Pass 1  IDiag  1:
 RMSU=  2.91D-04    CP:  1.00D+00  1.01D+00  4.95D-01  2.28D-01  9.12D-01
 E= -417.819910030713     Delta-E=       -0.048964189206 Rises=F Damp=F
 DIIS: error= 3.72D-03 at cycle   6 NSaved=   6.
 NSaved= 6 IEnMin= 6 EnMin= -417.819910030713     IErMin= 6 ErrMin= 3.72D-03
 ErrMax= 3.72D-03  0.00D+00 EMaxC= 1.00D-01 BMatC= 4.03D-03 BMatP= 2.94D-02
 IDIUse=3 WtCom= 9.63D-01 WtEn= 3.72D-02
 Coeff-Com: -0.487D-01 0.850D-01 0.256D+00-0.454D-01 0.453D+00 0.300D+00
 Coeff-En:   0.000D+00 0.000D+00 0.000D+00 0.000D+00 0.000D+00 0.100D+01
 Coeff:     -0.469D-01 0.819D-01 0.246D+00-0.437D-01 0.436D+00 0.326D+00
 Gap=     0.155 Goal=   None    Shift=    0.000
 RMSDP=2.79D-04 MaxDP=5.31D-03 DE=-4.90D-02 OVMax= 1.36D-02

 Cycle   7  Pass 1  IDiag  1:
 RMSU=  7.99D-05    CP:  1.00D+00  9.84D-01  4.46D-01  2.88D-01  8.18D-01
                    CP:  3.23D-01
 E= -417.822639600880     Delta-E=       -0.002729570167 Rises=F Damp=F
 DIIS: error= 7.28D-04 at cycle   7 NSaved=   7.
 NSaved= 7 IEnMin= 7 EnMin= -417.822639600880     IErMin= 7 ErrMin= 7.28D-04
 ErrMax= 7.28D-04  0.00D+00 EMaxC= 1.00D-01 BMatC= 1.27D-04 BMatP= 4.03D-03
 IDIUse=3 WtCom= 9.93D-01 WtEn= 7.28D-03
 Coeff-Com: -0.117D-01 0.189D-01 0.623D-01-0.186D-01 0.135D+00 0.200D+00
 Coeff-Com:  0.614D+00
 Coeff-En:   0.000D+00 0.000D+00 0.000D+00 0.000D+00 0.000D+00 0.000D+00
 Coeff-En:   0.100D+01
 Coeff:     -0.116D-01 0.187D-01 0.618D-01-0.184D-01 0.134D+00 0.199D+00
 Coeff:      0.617D+00
 Gap=     0.155 Goal=   None    Shift=    0.000
 RMSDP=4.98D-05 MaxDP=7.99D-04 DE=-2.73D-03 OVMax= 2.34D-03

 Cycle   8  Pass 1  IDiag  1:
 RMSU=  2.17D-05    CP:  1.00D+00  9.87D-01  4.54D-01  2.77D-01  8.40D-01
                    CP:  3.88D-01  6.77D-01
 E= -417.822730616476     Delta-E=       -0.000091015597 Rises=F Damp=F
 DIIS: error= 1.74D-04 at cycle   8 NSaved=   8.
 NSaved= 8 IEnMin= 8 EnMin= -417.822730616476     IErMin= 8 ErrMin= 1.74D-04
 ErrMax= 1.74D-04  0.00D+00 EMaxC= 1.00D-01 BMatC= 5.51D-06 BMatP= 1.27D-04
 IDIUse=3 WtCom= 9.98D-01 WtEn= 1.74D-03
 Coeff-Com:  0.314D-02-0.540D-02 0.664D-02-0.208D-02 0.177D-01 0.808D-01
 Coeff-Com:  0.318D+00 0.581D+00
 Coeff-En:   0.000D+00 0.000D+00 0.000D+00 0.000D+00 0.000D+00 0.000D+00
 Coeff-En:   0.000D+00 0.100D+01
 Coeff:      0.314D-02-0.539D-02 0.662D-02-0.208D-02 0.177D-01 0.807D-01
 Coeff:      0.318D+00 0.582D+00
 Gap=     0.155 Goal=   None    Shift=    0.000
 RMSDP=1.61D-05 MaxDP=6.05D-04 DE=-9.10D-05 OVMax= 3.94D-04

 Cycle   9  Pass 1  IDiag  1:
 RMSU=  6.62D-06    CP:  1.00D+00  9.84D-01  4.54D-01  2.77D-01  8.37D-01
                    CP:  4.09D-01  7.29D-01  6.27D-01
 E= -417.822735059144     Delta-E=       -0.000004442668 Rises=F Damp=F
 DIIS: error= 3.11D-05 at cycle   9 NSaved=   9.
 NSaved= 9 IEnMin= 9 EnMin= -417.822735059144     IErMin= 9 ErrMin= 3.11D-05
 ErrMax= 3.11D-05  0.00D+00 EMaxC= 1.00D-01 BMatC= 1.95D-07 BMatP= 5.51D-06
 IDIUse=1 WtCom= 1.00D+00 WtEn= 0.00D+00
 Coeff-Com:  0.163D-02-0.248D-02 0.246D-02-0.805D-03 0.650D-02 0.348D-01
 Coeff-Com:  0.143D+00 0.281D+00 0.534D+00
 Coeff:      0.163D-02-0.248D-02 0.246D-02-0.805D-03 0.650D-02 0.348D-01
 Coeff:      0.143D+00 0.281D+00 0.534D+00
 Gap=     0.155 Goal=   None    Shift=    0.000
 RMSDP=3.92D-06 MaxDP=7.06D-05 DE=-4.44D-06 OVMax= 2.50D-04

 Cycle  10  Pass 1  IDiag  1:
 RMSU=  3.39D-06    CP:  1.00D+00  9.84D-01  4.54D-01  2.77D-01  8.37D-01
                    CP:  4.09D-01  7.30D-01  6.53D-01  7.29D-01
 E= -417.822735076923     Delta-E=       -0.000000017779 Rises=F Damp=F
 DIIS: error= 3.48D-05 at cycle  10 NSaved=  10.
 NSaved=10 IEnMin=10 EnMin= -417.822735076923     IErMin= 9 ErrMin= 3.11D-05
 ErrMax= 3.48D-05  0.00D+00 EMaxC= 1.00D-01 BMatC= 1.97D-07 BMatP= 1.95D-07
 IDIUse=1 WtCom= 1.00D+00 WtEn= 0.00D+00
 Coeff-Com:  0.575D-03-0.664D-03 0.680D-03-0.240D-03 0.154D-02 0.979D-02
 Coeff-Com:  0.436D-01 0.929D-01 0.477D+00 0.375D+00
 Coeff:      0.575D-03-0.664D-03 0.680D-03-0.240D-03 0.154D-02 0.979D-02
 Coeff:      0.436D-01 0.929D-01 0.477D+00 0.375D+00
 Gap=     0.155 Goal=   None    Shift=    0.000
 RMSDP=2.15D-06 MaxDP=3.73D-05 DE=-1.78D-08 OVMax= 1.41D-04

 Cycle  11  Pass 1  IDiag  1:
 RMSU=  5.98D-07    CP:  1.00D+00  9.84D-01  4.54D-01  2.77D-01  8.37D-01
                    CP:  4.09D-01  7.31D-01  6.53D-01  8.12D-01  4.17D-01
 E= -417.822735212481     Delta-E=       -0.000000135558 Rises=F Damp=F
 DIIS: error= 2.83D-06 at cycle  11 NSaved=  11.
 NSaved=11 IEnMin=11 EnMin= -417.822735212481     IErMin=11 ErrMin= 2.83D-06
 ErrMax= 2.83D-06  0.00D+00 EMaxC= 1.00D-01 BMatC= 2.02D-09 BMatP= 1.95D-07
 IDIUse=1 WtCom= 1.00D+00 WtEn= 0.00D+00
 Coeff-Com:  0.147D-03-0.151D-03 0.132D-03-0.424D-04 0.235D-03 0.149D-02
 Coeff-Com:  0.797D-02 0.153D-01 0.144D+00 0.141D+00 0.690D+00
 Coeff:      0.147D-03-0.151D-03 0.132D-03-0.424D-04 0.235D-03 0.149D-02
 Coeff:      0.797D-02 0.153D-01 0.144D+00 0.141D+00 0.690D+00
 Gap=     0.155 Goal=   None    Shift=    0.000
 RMSDP=3.10D-07 MaxDP=7.59D-06 DE=-1.36D-07 OVMax= 1.03D-05

 Cycle  12  Pass 1  IDiag  1:
 RMSU=  1.65D-07    CP:  1.00D+00  9.84D-01  4.54D-01  2.77D-01  8.37D-01
                    CP:  4.09D-01  7.31D-01  6.50D-01  8.24D-01  4.40D-01
                    CP:  7.00D-01
 E= -417.822735213703     Delta-E=       -0.000000001221 Rises=F Damp=F
 DIIS: error= 1.68D-06 at cycle  12 NSaved=  12.
 NSaved=12 IEnMin=12 EnMin= -417.822735213703     IErMin=12 ErrMin= 1.68D-06
 ErrMax= 1.68D-06  0.00D+00 EMaxC= 1.00D-01 BMatC= 5.54D-10 BMatP= 2.02D-09
 IDIUse=1 WtCom= 1.00D+00 WtEn= 0.00D+00
 Coeff-Com:  0.569D-04-0.535D-04 0.461D-04-0.121D-04 0.536D-04 0.250D-03
 Coeff-Com:  0.207D-02 0.307D-02 0.599D-01 0.662D-01 0.459D+00 0.409D+00
 Coeff:      0.569D-04-0.535D-04 0.461D-04-0.121D-04 0.536D-04 0.250D-03
 Coeff:      0.207D-02 0.307D-02 0.599D-01 0.662D-01 0.459D+00 0.409D+00
 Gap=     0.155 Goal=   None    Shift=    0.000
 RMSDP=9.74D-08 MaxDP=1.98D-06 DE=-1.22D-09 OVMax= 4.75D-06

 Cycle  13  Pass 1  IDiag  1:
 RMSU=  6.33D-08    CP:  1.00D+00  9.84D-01  4.54D-01  2.77D-01  8.37D-01
                    CP:  4.09D-01  7.31D-01  6.50D-01  8.25D-01  4.42D-01
                    CP:  7.19D-01  5.78D-01
 E= -417.822735214071     Delta-E=       -0.000000000368 Rises=F Damp=F
 DIIS: error= 3.16D-07 at cycle  13 NSaved=  13.
 NSaved=13 IEnMin=13 EnMin= -417.822735214071     IErMin=13 ErrMin= 3.16D-07
 ErrMax= 3.16D-07  0.00D+00 EMaxC= 1.00D-01 BMatC= 2.23D-11 BMatP= 5.54D-10
 IDIUse=1 WtCom= 1.00D+00 WtEn= 0.00D+00
 Coeff-Com:  0.574D-05-0.226D-05 0.122D-04-0.209D-05 0.431D-05-0.946D-04
 Coeff-Com: -0.137D-03-0.680D-03 0.798D-02 0.113D-01 0.119D+00 0.188D+00
 Coeff-Com:  0.675D+00
 Coeff:      0.574D-05-0.226D-05 0.122D-04-0.209D-05 0.431D-05-0.946D-04
 Coeff:     -0.137D-03-0.680D-03 0.798D-02 0.113D-01 0.119D+00 0.188D+00
 Coeff:      0.675D+00
 Gap=     0.155 Goal=   None    Shift=    0.000
 RMSDP=2.79D-08 MaxDP=4.53D-07 DE=-3.68D-10 OVMax= 8.31D-07

 Cycle  14  Pass 1  IDiag  1:
 RMSU=  1.20D-08    CP:  1.00D+00  9.84D-01  4.54D-01  2.77D-01  8.37D-01
                    CP:  4.09D-01  7.31D-01  6.50D-01  8.24D-01  4.42D-01
                    CP:  7.38D-01  5.86D-01  7.09D-01
 E= -417.822735214087     Delta-E=       -0.000000000015 Rises=F Damp=F
 DIIS: error= 5.06D-08 at cycle  14 NSaved=  14.
 NSaved=14 IEnMin=14 EnMin= -417.822735214087     IErMin=14 ErrMin= 5.06D-08
 ErrMax= 5.06D-08  0.00D+00 EMaxC= 1.00D-01 BMatC= 4.57D-13 BMatP= 2.23D-11
 IDIUse=1 WtCom= 1.00D+00 WtEn= 0.00D+00
 Coeff-Com: -0.262D-06 0.882D-06 0.217D-05-0.252D-06-0.238D-06-0.223D-04
 Coeff-Com: -0.794D-04-0.184D-03-0.362D-03 0.627D-04 0.858D-02 0.249D-01
 Coeff-Com:  0.144D+00 0.823D+00
 Coeff:     -0.262D-06 0.882D-06 0.217D-05-0.252D-06-0.238D-06-0.223D-04
 Coeff:     -0.794D-04-0.184D-03-0.362D-03 0.627D-04 0.858D-02 0.249D-01
 Coeff:      0.144D+00 0.823D+00
 Gap=     0.155 Goal=   None    Shift=    0.000
 RMSDP=4.51D-09 MaxDP=1.65D-07 DE=-1.55D-11 OVMax= 2.18D-07

 Error on total polarization charges =  0.00763
 SCF Done:  E(RB-P86) =  -417.822735214     A.U. after   14 cycles
            NFock= 14  Conv=0.45D-08     -V/T= 2.0042
 KE= 4.160957246864D+02 PE=-1.580110711738D+03 EE= 4.473900398184D+02
 Leave Link  502 at Mon Feb 22 21:16:27 2021, MaxMem=   104857600 cpu:             198.9 elap:               6.4
 (Enter /sw/arch/RedHatEnterpriseServer7/EB_production/2019/software/Gaussian/g16.c01/l601.exe)
 Copying SCF densities to generalized density rwf, IOpCl= 0 IROHF=0.

 **********************************************************************

            Population analysis using the SCF Density.

 **********************************************************************

 Orbital symmetries:
       Occupied  (A) (A) (A) (A) (A) (A) (A) (A) (A) (A) (A) (A)
                 (A) (A) (A) (A) (A) (A) (A) (A) (A) (A) (A) (A)
                 (A) (A) (A)
       Virtual   (A) (A) (A) (A) (A) (A) (A) (A) (A) (A) (A) (A)
                 (A) (A) (A) (A) (A) (A) (A) (A) (A) (A) (A) (A)
                 (A) (A) (A) (A) (A) (A) (A) (A) (A) (A) (A) (A)
                 (A) (A) (A) (A) (A) (A) (A) (A) (A) (A) (A) (A)
                 (A) (A) (A) (A) (A) (A) (A) (A) (A) (A) (A) (A)
                 (A) (A) (A) (A) (A) (A) (A) (A) (A) (A) (A) (A)
                 (A) (A) (A) (A) (A) (A) (A) (A) (A) (A) (A) (A)
                 (A) (A) (A) (A) (A) (A) (A) (A) (A) (A) (A) (A)
                 (A) (A) (A) (A) (A) (A) (A) (A) (A) (A) (A) (A)
                 (A) (A) (A) (A) (A) (A) (A) (A) (A) (A) (A) (A)
                 (A) (A) (A) (A) (A) (A) (A) (A) (A) (A)
 The electronic state is 1-A.
 Alpha  occ. eigenvalues --  -18.83321 -18.83283 -18.77146 -18.77129 -10.05439
 Alpha  occ. eigenvalues --  -10.05413  -9.94708  -1.03217  -1.02584  -0.93528
 Alpha  occ. eigenvalues --   -0.93459  -0.75430  -0.62329  -0.59023  -0.50288
 Alpha  occ. eigenvalues --   -0.46657  -0.44811  -0.43732  -0.41782  -0.39539
 Alpha  occ. eigenvalues --   -0.37581  -0.35827  -0.34619  -0.29737  -0.29525
 Alpha  occ. eigenvalues --   -0.25598  -0.23749
 Alpha virt. eigenvalues --   -0.08242  -0.05385   0.00271   0.01665   0.06362
 Alpha virt. eigenvalues --    0.07101   0.11065   0.11516   0.14912   0.15590
 Alpha virt. eigenvalues --    0.17117   0.17966   0.22518   0.24455   0.24633
 Alpha virt. eigenvalues --    0.27541   0.28500   0.28942   0.31546   0.32793
 Alpha virt. eigenvalues --    0.33922   0.36357   0.38981   0.39370   0.40580
 Alpha virt. eigenvalues --    0.42122   0.43266   0.43750   0.44669   0.46416
 Alpha virt. eigenvalues --    0.48225   0.49015   0.52687   0.53157   0.53999
 Alpha virt. eigenvalues --    0.57261   0.59196   0.60482   0.68637   0.69577
 Alpha virt. eigenvalues --    0.76261   0.82445   0.86915   0.87276   1.07461
 Alpha virt. eigenvalues --    1.11081   1.20346   1.21993   1.25122   1.27555
 Alpha virt. eigenvalues --    1.28239   1.32030   1.32881   1.34627   1.37424
 Alpha virt. eigenvalues --    1.38537   1.44322   1.48611   1.49533   1.51838
 Alpha virt. eigenvalues --    1.52288   1.55035   1.55897   1.58394   1.58614
 Alpha virt. eigenvalues --    1.70838   1.82104   1.88601   1.89751   1.91141
 Alpha virt. eigenvalues --    2.02310   2.03009   2.04977   2.07680   2.14704
 Alpha virt. eigenvalues --    2.19327   2.19773   2.24989   2.29077   2.34942
 Alpha virt. eigenvalues --    2.35589   2.43703   2.46581   2.49428   2.51866
 Alpha virt. eigenvalues --    2.51991   2.53272   2.54225   2.54392   2.55747
 Alpha virt. eigenvalues --    2.58125   2.58661   2.60378   2.60558   2.62820
 Alpha virt. eigenvalues --    2.65926   2.66069   2.75182   2.75772   2.76382
 Alpha virt. eigenvalues --    2.79605   2.86231   2.87167   2.89893   2.90076
 Alpha virt. eigenvalues --    2.95531   3.01926   3.03809   3.05421   3.08261
 Alpha virt. eigenvalues --    3.11409   3.12610   3.14319   3.18427   3.28987
 Alpha virt. eigenvalues --    3.44003   3.44406   3.79526   3.81173   3.98418
 Alpha virt. eigenvalues --    4.00568   4.16276   4.18265  21.55258  21.74724
 Alpha virt. eigenvalues --   21.79204  43.01551  43.02524  43.10889  43.11699
          Condensed to atoms (all electrons):
               1          2          3          4          5          6
     1  O    7.974093   0.597909  -0.126156  -0.095151  -0.017024  -0.000059
     2  C    0.597909   4.939085   0.327240   0.078968  -0.076099  -0.016877
     3  O   -0.126156   0.327240   7.863582  -0.112253   0.019569   0.000564
     4  C   -0.095151   0.078968  -0.112253   5.738914   0.079754  -0.095897
     5  C   -0.017024  -0.076099   0.019569   0.079754   4.936113   0.599202
     6  O   -0.000059  -0.016877   0.000564  -0.095897   0.599202   7.973072
     7  O    0.000529   0.020111  -0.000080  -0.113779   0.328223  -0.126551
     8  H    0.001919  -0.016981   0.294529   0.008975  -0.000041  -0.000021
     9  H    0.003522   0.008763   0.005728   0.389673  -0.068708   0.003276
    10  H    0.003325  -0.069202   0.003569   0.390447   0.008277   0.003533
    11  H   -0.000022  -0.000037   0.000007   0.008992  -0.017080   0.001830
               7          8          9         10         11
     1  O    0.000529   0.001919   0.003522   0.003325  -0.000022
     2  C    0.020111  -0.016981   0.008763  -0.069202  -0.000037
     3  O   -0.000080   0.294529   0.005728   0.003569   0.000007
     4  C   -0.113779   0.008975   0.389673   0.390447   0.008992
     5  C    0.328223  -0.000041  -0.068708   0.008277  -0.017080
     6  O   -0.126551  -0.000021   0.003276   0.003533   0.001830
     7  O    7.865808   0.000007   0.003574   0.005736   0.294642
     8  H    0.000007   0.367932  -0.000412  -0.000238  -0.000003
     9  H    0.003574  -0.000412   0.462013  -0.014362  -0.000233
    10  H    0.005736  -0.000238  -0.014362   0.462612  -0.000416
    11  H    0.294642  -0.000003  -0.000233  -0.000416   0.367353
 Mulliken charges:
               1
     1  O   -0.342886
     2  C    0.207121
     3  O   -0.276299
     4  C   -0.278643
     5  C    0.207813
     6  O   -0.342071
     7  O   -0.278219
     8  H    0.344334
     9  H    0.207165
    10  H    0.206719
    11  H    0.344966
 Sum of Mulliken charges =  -0.00000
 Mulliken charges with hydrogens summed into heavy atoms:
               1
     1  O   -0.342886
     2  C    0.207121
     3  O    0.068035
     4  C    0.135241
     5  C    0.207813
     6  O   -0.342071
     7  O    0.066747
 Electronic spatial extent (au):  <R**2>=            755.6289
 Charge=             -0.0000 electrons
 Dipole moment (field-independent basis, Debye):
    X=              0.0242    Y=             -0.0094    Z=             -0.7290  Tot=              0.7294
 Quadrupole moment (field-independent basis, Debye-Ang):
   XX=            -40.8433   YY=            -44.8015   ZZ=            -32.6815
   XY=            -13.4806   XZ=             -0.0240   YZ=             -0.1214
 Traceless Quadrupole moment (field-independent basis, Debye-Ang):
   XX=             -1.4012   YY=             -5.3594   ZZ=              6.7606
   XY=            -13.4806   XZ=             -0.0240   YZ=             -0.1214
 Octapole moment (field-independent basis, Debye-Ang**2):
  XXX=              0.7635  YYY=              0.0248  ZZZ=             -6.6664  XYY=             -0.1162
  XXY=              0.0380  XXZ=            -25.4142  XZZ=             -0.1555  YZZ=              0.1177
  YYZ=             -2.9970  XYZ=              6.2846
 Hexadecapole moment (field-independent basis, Debye-Ang**3):
 XXXX=           -563.3803 YYYY=           -195.4902 ZZZZ=           -108.3070 XXXY=            -93.8401
 XXXZ=             -0.6511 YYYX=            -19.2254 YYYZ=             -0.3219 ZZZX=              0.1525
 ZZZY=             -0.2691 XXYY=           -131.7337 XXZZ=            -86.6604 YYZZ=            -43.2228
 XXYZ=             -0.2590 YYXZ=              0.2076 ZZXY=            -18.1272
 N-N= 2.988022120196D+02 E-N=-1.580110708127D+03  KE= 4.160957246864D+02
 No NMR shielding tensors so no spin-rotation constants.
 Leave Link  601 at Mon Feb 22 21:16:28 2021, MaxMem=   104857600 cpu:               4.6 elap:               0.2
 (Enter /sw/arch/RedHatEnterpriseServer7/EB_production/2019/software/Gaussian/g16.c01/l701.exe)
 ... and contract with generalized density number  0.
 Compute integral first derivatives.
 R6Disp: Adding Grimme-D3 dispersion energy 1st derivatives to the gradient.
 PrsmSu:  requested number of processors reduced to:  30 ShMem   1 Linda.
 D1PCM: PCM CHGder 1st derivatives, ID1Alg=3 FixD1E=F DoIter=F DoCFld=F I1PDM=0.
 GePol: Maximum number of non-zero 1st derivatives   =     224
 CoulSu:  requested number of processors reduced to:  29 ShMem   1 Linda.
 CoulSu:  requested number of processors reduced to:  30 ShMem   1 Linda.
 Leave Link  701 at Mon Feb 22 21:16:29 2021, MaxMem=   104857600 cpu:              21.0 elap:               0.8
 (Enter /sw/arch/RedHatEnterpriseServer7/EB_production/2019/software/Gaussian/g16.c01/l702.exe)
 L702 exits ... SP integral derivatives will be done elsewhere.
 Leave Link  702 at Mon Feb 22 21:16:29 2021, MaxMem=   104857600 cpu:               0.8 elap:               0.1
 (Enter /sw/arch/RedHatEnterpriseServer7/EB_production/2019/software/Gaussian/g16.c01/l703.exe)
 Integral derivatives from FoFJK, PRISM(SPDF).
 Compute integral first derivatives, UseDBF=F ICtDFT=           0.
 Calling FoFJK, ICntrl=      2527 FMM=F ISym2X=0 I1Cent= 0 IOpClX= 0 NMat=1 NMatS=1 NMatT=0.
 FoFJK:  IHMeth= 1 ICntrl=    2527 DoSepK=F KAlg= 0 I1Cent=           0 FoldK=F
 IRaf=         0 NMat=       1 IRICut=       1 DoRegI=T DoRafI=F ISym2E= 0 IDoP0=0 IntGTp=1.
 FoFCou: FMM=F IPFlag=           0 FMFlag=      100000 FMFlg1=         800
         NFxFlg=           0 DoJE=F BraDBF=F KetDBF=F FulRan=T
         wScrn=  0.000000 ICntrl=      2527 IOpCl=  0 I1Cent=           0 NGrid=           0
         NMat0=    1 NMatS0=      1 NMatT0=    0 NMatD0=    1 NMtDS0=    0 NMtDT0=    0
 Symmetry not used in FoFCou.
 Leave Link  703 at Mon Feb 22 21:16:29 2021, MaxMem=   104857600 cpu:              19.7 elap:               0.7
 (Enter /sw/arch/RedHatEnterpriseServer7/EB_production/2019/software/Gaussian/g16.c01/l716.exe)
 Dipole        = 9.52353074D-03-3.69499780D-03-2.86797380D-01
 ***** Axes restored to original set *****
 -------------------------------------------------------------------
 Center     Atomic                   Forces (Hartrees/Bohr)
 Number     Number              X              Y              Z
 -------------------------------------------------------------------
      1        8           0.024268411    0.016206281   -0.006841605
      2        6          -0.089855258   -0.030660404    0.026271890
      3        8           0.039983519    0.015680364   -0.010761361
      4        6           0.003526537   -0.003997227    0.004212621
      5        6           0.060161969    0.054285376   -0.056206520
      6        8          -0.019818851   -0.017719858    0.009746313
      7        8          -0.028289603   -0.025824444    0.022680852
      8        1          -0.001267411   -0.018720573   -0.000063386
      9        1           0.006141202    0.004265628   -0.003656777
     10        1          -0.006982199   -0.003617603    0.003391755
     11        1           0.012131684    0.010102460    0.011226219
 -------------------------------------------------------------------
 Cartesian Forces:  Max     0.089855258 RMS     0.028062734
 Leave Link  716 at Mon Feb 22 21:16:29 2021, MaxMem=   104857600 cpu:               0.8 elap:               0.1
 (Enter /sw/arch/RedHatEnterpriseServer7/EB_production/2019/software/Gaussian/g16.c01/l103.exe)

 GradGradGradGradGradGradGradGradGradGradGradGradGradGradGradGradGradGrad
 Berny optimization.
 FormGI is forming the generalized inverse of G from B-inverse, IUseBI=4.
 Internal  Forces:  Max     0.038300336 RMS     0.016073173
 Search for a local minimum.
 Step number   1 out of a maximum of   50
 All quantities printed in internal units (Hartrees-Bohrs-Radians)
 RMS Force = .16073D-01 SwitMx=.10000D-02 MixMth= 1
 Mixed Optimization -- RFO/linear search
 Second derivative matrix not updated -- first step.
 ITU=  0
     Eigenvalues ---    0.01109   0.01131   0.01402   0.01418   0.02316
     Eigenvalues ---    0.02317   0.05418   0.06806   0.09950   0.13232
     Eigenvalues ---    0.16000   0.16000   0.21993   0.24999   0.25000
     Eigenvalues ---    0.25000   0.25000   0.34488   0.34527   0.35262
     Eigenvalues ---    0.35454   0.51287   0.51418   0.54424   0.54436
     Eigenvalues ---    0.82342   0.82838
 RFO step:  Lambda=-3.52820748D-02 EMin= 1.10942338D-02
 Linear search not attempted -- first point.
 Maximum step size (   0.300) exceeded in Quadratic search.
    -- Step size scaled by   0.810
 Iteration  1 RMS(Cart)=  0.05652827 RMS(Int)=  0.00217938
 Iteration  2 RMS(Cart)=  0.00292138 RMS(Int)=  0.00013297
 Iteration  3 RMS(Cart)=  0.00000195 RMS(Int)=  0.00013296
 Iteration  4 RMS(Cart)=  0.00000000 RMS(Int)=  0.00013296
 ITry= 1 IFail=0 DXMaxC= 1.71D-01 DCOld= 1.00D+10 DXMaxT= 3.00D-01 DXLimC= 3.00D+00 Rises=F
 Variable       Old X    -DE/DX   Delta X   Delta X   Delta X     New X
                                 (Linear)    (Quad)   (Total)
    R1        2.36677  -0.02948   0.00000  -0.02780  -0.02780   2.33897
    R2        2.55636  -0.01291   0.00000  -0.01803  -0.01803   2.53833
    R3        2.78552   0.02229   0.00000   0.04654   0.04654   2.83206
    R4        1.85161  -0.00388   0.00000  -0.00572  -0.00572   1.84590
    R5        2.78244   0.02350   0.00000   0.04882   0.04882   2.83126
    R6        2.06449   0.00312   0.00000   0.00663   0.00663   2.07112
    R7        2.06514   0.00311   0.00000   0.00664   0.00664   2.07178
    R8        2.36421  -0.02780   0.00000  -0.02606  -0.02606   2.33814
    R9        2.55648  -0.01290   0.00000  -0.01802  -0.01802   2.53845
   R10        1.85288  -0.00463   0.00000  -0.00684  -0.00684   1.84604
    A1        2.07295   0.02545   0.00000   0.07229   0.07227   2.14523
    A2        2.11180   0.01268   0.00000   0.03602   0.03600   2.14780
    A3        2.09835  -0.03812   0.00000  -0.10817  -0.10819   1.99015
    A4        2.09363  -0.03399   0.00000  -0.14094  -0.14094   1.95268
    A5        1.94282   0.00719   0.00000   0.02159   0.02165   1.96447
    A6        1.89538   0.00432   0.00000   0.02367   0.02393   1.91932
    A7        1.92718  -0.00972   0.00000  -0.04364  -0.04366   1.88352
    A8        1.92929  -0.00967   0.00000  -0.04373  -0.04369   1.88561
    A9        1.88765   0.00481   0.00000   0.02727   0.02756   1.91521
   A10        1.88067   0.00275   0.00000   0.01371   0.01410   1.89477
   A11        2.11208   0.01278   0.00000   0.03630   0.03630   2.14837
   A12        2.09772  -0.03830   0.00000  -0.10872  -0.10872   1.98900
   A13        2.07336   0.02552   0.00000   0.07246   0.07245   2.14581
   A14        2.10187  -0.03487   0.00000  -0.14460  -0.14460   1.95727
    D1        0.01740  -0.00024   0.00000  -0.00194  -0.00186   0.01555
    D2       -3.11012  -0.00091   0.00000  -0.01398  -0.01406  -3.12418
    D3        2.03694   0.00275   0.00000   0.01166   0.01145   2.04839
    D4       -2.11840  -0.00185   0.00000  -0.01333  -0.01314  -2.13154
    D5       -0.05993  -0.00153   0.00000  -0.00772  -0.00762  -0.06755
    D6       -1.11904   0.00353   0.00000   0.02423   0.02397  -1.09507
    D7        1.00880  -0.00106   0.00000  -0.00075  -0.00062   1.00818
    D8        3.06727  -0.00075   0.00000   0.00485   0.00490   3.07217
    D9        2.04659   0.00271   0.00000   0.01264   0.01241   2.05901
   D10       -1.10309   0.00311   0.00000   0.01911   0.01886  -1.08424
   D11       -0.06145  -0.00101   0.00000  -0.00212  -0.00207  -0.06352
   D12        3.07204  -0.00061   0.00000   0.00436   0.00438   3.07642
   D13       -2.11652  -0.00172   0.00000  -0.01013  -0.00991  -2.12643
   D14        1.01698  -0.00131   0.00000  -0.00365  -0.00346   1.01352
   D15       -3.13141  -0.00046   0.00000  -0.00706  -0.00710  -3.13851
   D16        0.00226  -0.00011   0.00000  -0.00087  -0.00083   0.00143
         Item               Value     Threshold  Converged?
 Maximum Force            0.038300     0.000450     NO 
 RMS     Force            0.016073     0.000300     NO 
 Maximum Displacement     0.170557     0.001800     NO 
 RMS     Displacement     0.058449     0.001200     NO 
 Predicted change in Energy=-1.862083D-02
 Lowest energy point so far.  Saving SCF results.
 GradGradGradGradGradGradGradGradGradGradGradGradGradGradGradGradGradGrad

 Leave Link  103 at Mon Feb 22 21:16:30 2021, MaxMem=   104857600 cpu:               1.0 elap:               0.1
 (Enter /sw/arch/RedHatEnterpriseServer7/EB_production/2019/software/Gaussian/g16.c01/l202.exe)
                          Input orientation:                          
 ---------------------------------------------------------------------
 Center     Atomic      Atomic             Coordinates (Angstroms)
 Number     Number       Type             X           Y           Z
 ---------------------------------------------------------------------
      1          8           0       -1.569687   -0.312944    1.656212
      2          6           0       -0.687665    0.522312    1.418819
      3          8           0       -0.908878    1.846790    1.451691
      4          6           0        0.721273    0.147384    1.071957
      5          6           0        1.113792    0.596705   -0.302365
      6          8           0        2.029128    1.401802   -0.514186
      7          8           0        0.383679    0.045300   -1.285890
      8          1           0       -1.831328    2.055848    1.695680
      9          1           0        1.416242    0.600066    1.788404
     10          1           0        0.807452   -0.943213    1.143562
     11          1           0        0.663332    0.354061   -2.169495
 ---------------------------------------------------------------------
                    Distance matrix (angstroms):
                    1          2          3          4          5
     1  O    0.000000
     2  C    1.237727   0.000000
     3  O    2.267807   1.343227   0.000000
     4  C    2.408683   1.498663   2.385282   0.000000
     5  C    3.444495   2.492641   2.954762   1.498239   0.000000
     6  O    4.538992   3.448329   3.562943   2.408298   1.237291
     7  O    3.549640   2.948011   3.522842   2.384079   1.343292
     8  H    2.383525   1.932964   0.976806   3.247621   3.846429
     9  H    3.125193   2.137538   2.659677   1.095992   2.112534
    10  H    2.512138   2.111612   3.290114   1.096338   2.134455
    11  H    4.479655   3.837903   4.220554   3.248551   1.935966
                    6          7          8          9         10
     6  O    0.000000
     7  O    2.267846   0.000000
     8  H    4.496043   4.223544   0.000000
     9  H    2.514026   3.290172   3.560143   0.000000
    10  H    3.120852   2.656874   4.032662   1.779932   0.000000
    11  H    2.388139   0.976881   4.904996   4.036379   3.560904
                   11
    11  H    0.000000
 Stoichiometry    C3H4O4
 Framework group  C1[X(C3H4O4)]
 Deg. of freedom    27
 Full point group                 C1      NOp   1
 RotChk:  IX=0 Diff= 4.66D-02
 Largest Abelian subgroup         C1      NOp   1
 Largest concise Abelian subgroup C1      NOp   1
                         Standard orientation:                         
 ---------------------------------------------------------------------
 Center     Atomic      Atomic             Coordinates (Angstroms)
 Number     Number       Type             X           Y           Z
 ---------------------------------------------------------------------
      1          8           0        2.088881    0.881142    0.152439
      2          6           0        1.245451   -0.024270    0.123737
      3          8           0        1.368338   -1.111790   -0.655017
      4          6           0       -0.001269   -0.006865    0.955228
      5          6           0       -1.246750    0.022515    0.122982
      6          8           0       -2.095612   -0.877385    0.145401
      7          8           0       -1.361035    1.115520   -0.649490
      8          1           0        2.197793   -1.098382   -1.170744
      9          1           0       -0.039263   -0.898416    1.591539
     10          1           0        0.034899    0.879955    1.598811
     11          1           0       -2.182606    1.108661   -1.177951
 ---------------------------------------------------------------------
 Rotational constants (GHZ):           4.9605426           1.8035512           1.6042761
 Leave Link  202 at Mon Feb 22 21:16:30 2021, MaxMem=   104857600 cpu:               1.1 elap:               0.1
 (Enter /sw/arch/RedHatEnterpriseServer7/EB_production/2019/software/Gaussian/g16.c01/l301.exe)
 Standard basis: TZVP (5D, 7F)
 Ernie: Thresh=  0.10000D-02 Tol=  0.10000D-05 Strict=F.
 There are   164 symmetry adapted cartesian basis functions of A   symmetry.
 There are   157 symmetry adapted basis functions of A   symmetry.
   157 basis functions,   277 primitive gaussians,   164 cartesian basis functions
    27 alpha electrons       27 beta electrons
       nuclear repulsion energy       299.8520441160 Hartrees.
 IExCor=  404 DFT=T Ex=B Corr=P86 ExCW=0 ScaHFX=  0.000000
 ScaDFX=  1.000000  1.000000  1.000000  1.000000 ScalE2=  1.000000  1.000000
 IRadAn=      5 IRanWt=     -1 IRanGd=            0 ICorTp=0 IEmpDi=131
 NAtoms=   11 NActive=   11 NUniq=   11 SFac= 1.00D+00 NAtFMM=   60 NAOKFM=F Big=F
 Integral buffers will be    131072 words long.
 Raffenetti 2 integral format.
 Two-electron integral symmetry is turned on.
 R6Disp:  Grimme-D3 Dispersion energy=       -0.0080567004 Hartrees.
 Nuclear repulsion after empirical dispersion term =      299.8439874156 Hartrees.
 ------------------------------------------------------------------------------
 Polarizable Continuum Model (PCM)
 =================================
 Model                : PCM.
 Atomic radii         : UFF (Universal Force Field).
 Polarization charges : Total charges.
 Charge compensation  : None.
 Solution method      : On-the-fly selection.
 Cavity type          : Scaled VdW (van der Waals Surface) (Alpha=1.100).
 Cavity algorithm     : GePol (No added spheres)
                        Default sphere list used, NSphG=   11.
                        Lebedev-Laikov grids with approx.  5.0 points / Ang**2.
                        Smoothing algorithm: York/Karplus (Gamma=1.0000).
                        Polarization charges: spherical gaussians, with
                                              point-specific exponents (IZeta= 3).
                        Self-potential: point-specific (ISelfS= 7).
                        Self-field    : sphere-specific E.n sum rule (ISelfD= 2).
 1st derivatives      : Analytical E(r).r(x)/FMM algorithm (CHGder, D1EAlg=3).
                        Cavity 1st derivative terms included.
 Solvent              : Water, Eps=  78.355300 Eps(inf)=   1.777849
 ------------------------------------------------------------------------------
 Spheres list:
 ISph  on   Nord     Re0    Alpha      Xe            Ye            Ze
    1   O      1    1.7500  1.100      2.088881      0.881142      0.152439
    2   C      2    1.9255  1.100      1.245451     -0.024270      0.123737
    3   O      3    1.7500  1.100      1.368338     -1.111790     -0.655017
    4   C      4    1.9255  1.100     -0.001269     -0.006865      0.955228
    5   C      5    1.9255  1.100     -1.246750      0.022515      0.122982
    6   O      6    1.7500  1.100     -2.095612     -0.877385      0.145401
    7   O      7    1.7500  1.100     -1.361035      1.115520     -0.649490
    8   H      8    1.4430  1.100      2.197793     -1.098382     -1.170744
    9   H      9    1.4430  1.100     -0.039263     -0.898416      1.591539
   10   H     10    1.4430  1.100      0.034899      0.879955      1.598811
   11   H     11    1.4430  1.100     -2.182606      1.108661     -1.177951
 ------------------------------------------------------------------------------
 GePol: Number of generator spheres                  =      11
 GePol: Total number of spheres                      =      11
 GePol: Number of exposed spheres                    =      11 (100.00%)
 GePol: Number of points                             =    1133
 GePol: Average weight of points                     =       0.13
 GePol: Minimum weight of points                     =   0.46D-09
 GePol: Maximum weight of points                     =    0.20577
 GePol: Number of points with low weight             =      56
 GePol: Fraction of low-weight points (<1% of avg)   =       4.94%
 GePol: Cavity surface area                          =    152.416 Ang**2
 GePol: Cavity volume                                =    137.772 Ang**3
 Leave Link  301 at Mon Feb 22 21:16:30 2021, MaxMem=   104857600 cpu:               1.7 elap:               0.1
 (Enter /sw/arch/RedHatEnterpriseServer7/EB_production/2019/software/Gaussian/g16.c01/l302.exe)
 NPDir=0 NMtPBC=     1 NCelOv=     1 NCel=       1 NClECP=     1 NCelD=      1
         NCelK=      1 NCelE2=     1 NClLst=     1 CellRange=     0.0.
 One-electron integrals computed using PRISM.
 One-electron integral symmetry used in STVInt
 PrsmSu:  requested number of processors reduced to:  30 ShMem   1 Linda.
 NBasis=   157 RedAO= T EigKep=  3.26D-04  NBF=   157
 NBsUse=   157 1.00D-06 EigRej= -1.00D+00 NBFU=   157
 Precomputing XC quadrature grid using
 IXCGrd= 4 IRadAn=           5 IRanWt=          -1 IRanGd=           0 AccXCQ= 0.00D+00.
 Generated NRdTot=       0 NPtTot=           0 NUsed=           0 NTot=          32
 NSgBfM=   163   163   163   163   163 MxSgAt=    11 MxSgA2=    11.
 Leave Link  302 at Mon Feb 22 21:16:30 2021, MaxMem=   104857600 cpu:               5.1 elap:               0.2
 (Enter /sw/arch/RedHatEnterpriseServer7/EB_production/2019/software/Gaussian/g16.c01/l303.exe)
 DipDrv:  MaxL=1.
 Leave Link  303 at Mon Feb 22 21:16:30 2021, MaxMem=   104857600 cpu:               1.2 elap:               0.1
 (Enter /sw/arch/RedHatEnterpriseServer7/EB_production/2019/software/Gaussian/g16.c01/l401.exe)
 Initial guess from the checkpoint file:  "OFOBLEOULBTSOW-UHFFFAOYSA-N.chk"
 B after Tr=    -0.000000   -0.000000    0.000000
         Rot=    0.999832    0.000656   -0.000185    0.018307 Ang=   2.10 deg.
 Guess basis will be translated and rotated to current coordinates.
 JPrj=2 DoOrth=T DoCkMO=T.
 Generating alternative initial guess.
 ExpMin= 9.52D-02 ExpMax= 2.70D+04 ExpMxC= 9.22D+02 IAcc=3 IRadAn=         5 AccDes= 0.00D+00
 Harris functional with IExCor=  404 and IRadAn=       5 diagonalized for initial guess.
 HarFok:  IExCor=  404 AccDes= 0.00D+00 IRadAn=         5 IDoV= 1 UseB2=F ITyADJ=14
 ICtDFT=  3500011 ScaDFX=  1.000000  1.000000  1.000000  1.000000
 FoFCou: FMM=F IPFlag=           0 FMFlag=      100000 FMFlg1=           0
         NFxFlg=           0 DoJE=T BraDBF=F KetDBF=T FulRan=T
         wScrn=  0.000000 ICntrl=       500 IOpCl=  0 I1Cent=   200000004 NGrid=           0
         NMat0=    1 NMatS0=      1 NMatT0=    0 NMatD0=    1 NMtDS0=    0 NMtDT0=    0
 Petite list used in FoFCou.
 Harris En= -417.922798830554    
 Leave Link  401 at Mon Feb 22 21:16:31 2021, MaxMem=   104857600 cpu:              15.0 elap:               0.6
 (Enter /sw/arch/RedHatEnterpriseServer7/EB_production/2019/software/Gaussian/g16.c01/l502.exe)
 Integral symmetry usage will be decided dynamically.
 Closed shell SCF:
 Using DIIS extrapolation, IDIIS=  1040.
 NGot=   104857600 LenX=   104796580 LenY=   104769243
 Requested convergence on RMS density matrix=1.00D-08 within 128 cycles.
 Requested convergence on MAX density matrix=1.00D-06.
 Requested convergence on             energy=1.00D-06.
 No special actions if energy rises.
 Fock matrices will be formed incrementally for  20 cycles.

 Cycle   1  Pass 1  IDiag  1:
 FoFJK:  IHMeth= 1 ICntrl=     500 DoSepK=F KAlg= 0 I1Cent=           0 FoldK=F
 IRaf= 950000000 NMat=       1 IRICut=       1 DoRegI=T DoRafI=F ISym2E= 0 IDoP0=0 IntGTp=1.
 FoFCou: FMM=F IPFlag=           0 FMFlag=      100000 FMFlg1=           0
         NFxFlg=           0 DoJE=T BraDBF=F KetDBF=F FulRan=T
         wScrn=  0.000000 ICntrl=       500 IOpCl=  0 I1Cent=           0 NGrid=           0
         NMat0=    1 NMatS0=      1 NMatT0=    0 NMatD0=    1 NMtDS0=    0 NMtDT0=    0
 Symmetry not used in FoFCou.
 Inv3:  Mode=1 IEnd=     3851067.
 Iteration    1 A*A^-1 deviation from unit magnitude is 2.66D-15 for    206.
 Iteration    1 A*A^-1 deviation from orthogonality  is 2.01D-15 for    708     80.
 Iteration    1 A^-1*A deviation from unit magnitude is 3.11D-15 for    743.
 Iteration    1 A^-1*A deviation from orthogonality  is 2.37D-14 for    617    569.
 E= -417.835654860152    
 DIIS: error= 3.87D-03 at cycle   1 NSaved=   1.
 NSaved= 1 IEnMin= 1 EnMin= -417.835654860152     IErMin= 1 ErrMin= 3.87D-03
 ErrMax= 3.87D-03  0.00D+00 EMaxC= 1.00D-01 BMatC= 4.90D-03 BMatP= 4.90D-03
 IDIUse=3 WtCom= 9.61D-01 WtEn= 3.87D-02
 Coeff-Com:  0.100D+01
 Coeff-En:   0.100D+01
 Coeff:      0.100D+01
 Gap=     0.628 Goal=   None    Shift=    0.000
 GapD=    0.628 DampG=2.000 DampE=1.000 DampFc=2.0000 IDamp=-1.
 RMSDP=1.06D-03 MaxDP=1.96D-02              OVMax= 2.44D-02

 Cycle   2  Pass 1  IDiag  1:
 RMSU=  1.05D-03    CP:  9.96D-01
 E= -417.839256030732     Delta-E=       -0.003601170580 Rises=F Damp=F
 DIIS: error= 5.07D-03 at cycle   2 NSaved=   2.
 NSaved= 2 IEnMin= 2 EnMin= -417.839256030732     IErMin= 1 ErrMin= 3.87D-03
 ErrMax= 5.07D-03  0.00D+00 EMaxC= 1.00D-01 BMatC= 3.46D-03 BMatP= 4.90D-03
 IDIUse=3 WtCom= 9.49D-01 WtEn= 5.07D-02
 Coeff-Com:  0.434D+00 0.566D+00
 Coeff-En:   0.000D+00 0.100D+01
 Coeff:      0.412D+00 0.588D+00
 Gap=     0.164 Goal=   None    Shift=    0.000
 RMSDP=6.31D-04 MaxDP=2.46D-02 DE=-3.60D-03 OVMax= 3.91D-02

 Cycle   3  Pass 1  IDiag  1:
 RMSU=  6.02D-04    CP:  1.00D+00  8.44D-01
 E= -417.837176284413     Delta-E=        0.002079746319 Rises=F Damp=F
 DIIS: error= 6.24D-03 at cycle   3 NSaved=   3.
 NSaved= 3 IEnMin= 2 EnMin= -417.839256030732     IErMin= 1 ErrMin= 3.87D-03
 ErrMax= 6.24D-03  0.00D+00 EMaxC= 1.00D-01 BMatC= 6.16D-03 BMatP= 3.46D-03
 IDIUse=3 WtCom= 1.12D-01 WtEn= 8.88D-01
 Coeff-Com:  0.404D-01 0.555D+00 0.404D+00
 Coeff-En:   0.000D+00 0.602D+00 0.398D+00
 Coeff:      0.454D-02 0.597D+00 0.399D+00
 Gap=     0.170 Goal=   None    Shift=    0.000
 RMSDP=3.34D-04 MaxDP=1.15D-02 DE= 2.08D-03 OVMax= 2.22D-02

 Cycle   4  Pass 1  IDiag  1:
 RMSU=  7.97D-05    CP:  9.99D-01  9.17D-01  4.84D-01
 E= -417.841642466307     Delta-E=       -0.004466181893 Rises=F Damp=F
 DIIS: error= 9.31D-04 at cycle   4 NSaved=   4.
 NSaved= 4 IEnMin= 4 EnMin= -417.841642466307     IErMin= 4 ErrMin= 9.31D-04
 ErrMax= 9.31D-04  0.00D+00 EMaxC= 1.00D-01 BMatC= 1.39D-04 BMatP= 3.46D-03
 IDIUse=3 WtCom= 9.91D-01 WtEn= 9.31D-03
 Coeff-Com:  0.224D-02 0.328D+00 0.206D+00 0.463D+00
 Coeff-En:   0.000D+00 0.000D+00 0.000D+00 0.100D+01
 Coeff:      0.222D-02 0.325D+00 0.205D+00 0.468D+00
 Gap=     0.170 Goal=   None    Shift=    0.000
 RMSDP=6.83D-05 MaxDP=2.66D-03 DE=-4.47D-03 OVMax= 2.04D-03

 Cycle   5  Pass 1  IDiag  1:
 RMSU=  2.23D-05    CP:  9.98D-01  9.33D-01  4.10D-01  4.51D-01
 E= -417.841746588233     Delta-E=       -0.000104121926 Rises=F Damp=F
 DIIS: error= 1.23D-04 at cycle   5 NSaved=   5.
 NSaved= 5 IEnMin= 5 EnMin= -417.841746588233     IErMin= 5 ErrMin= 1.23D-04
 ErrMax= 1.23D-04  0.00D+00 EMaxC= 1.00D-01 BMatC= 4.55D-06 BMatP= 1.39D-04
 IDIUse=3 WtCom= 9.99D-01 WtEn= 1.23D-03
 Coeff-Com:  0.264D-04 0.141D+00 0.895D-01 0.254D+00 0.515D+00
 Coeff-En:   0.000D+00 0.000D+00 0.000D+00 0.000D+00 0.100D+01
 Coeff:      0.264D-04 0.141D+00 0.894D-01 0.253D+00 0.516D+00
 Gap=     0.170 Goal=   None    Shift=    0.000
 RMSDP=1.28D-05 MaxDP=3.25D-04 DE=-1.04D-04 OVMax= 5.56D-04

 Cycle   6  Pass 1  IDiag  1:
 RMSU=  8.39D-06    CP:  9.98D-01  9.31D-01  4.18D-01  4.86D-01  6.64D-01
 E= -417.841749461969     Delta-E=       -0.000002873736 Rises=F Damp=F
 DIIS: error= 5.15D-05 at cycle   6 NSaved=   6.
 NSaved= 6 IEnMin= 6 EnMin= -417.841749461969     IErMin= 6 ErrMin= 5.15D-05
 ErrMax= 5.15D-05  0.00D+00 EMaxC= 1.00D-01 BMatC= 8.09D-07 BMatP= 4.55D-06
 IDIUse=1 WtCom= 1.00D+00 WtEn= 0.00D+00
 Coeff-Com: -0.177D-03 0.492D-01 0.317D-01 0.108D+00 0.345D+00 0.467D+00
 Coeff:     -0.177D-03 0.492D-01 0.317D-01 0.108D+00 0.345D+00 0.467D+00
 Gap=     0.170 Goal=   None    Shift=    0.000
 RMSDP=4.20D-06 MaxDP=6.26D-05 DE=-2.87D-06 OVMax= 1.67D-04

 Cycle   7  Pass 1  IDiag  1:
 RMSU=  2.34D-06    CP:  9.98D-01  9.32D-01  4.21D-01  4.92D-01  6.92D-01
                    CP:  6.39D-01
 E= -417.841750101248     Delta-E=       -0.000000639279 Rises=F Damp=F
 DIIS: error= 7.76D-06 at cycle   7 NSaved=   7.
 NSaved= 7 IEnMin= 7 EnMin= -417.841750101248     IErMin= 7 ErrMin= 7.76D-06
 ErrMax= 7.76D-06  0.00D+00 EMaxC= 1.00D-01 BMatC= 1.74D-08 BMatP= 8.09D-07
 IDIUse=1 WtCom= 1.00D+00 WtEn= 0.00D+00
 Coeff-Com: -0.653D-04 0.101D-01 0.631D-02 0.270D-01 0.107D+00 0.200D+00
 Coeff-Com:  0.650D+00
 Coeff:     -0.653D-04 0.101D-01 0.631D-02 0.270D-01 0.107D+00 0.200D+00
 Coeff:      0.650D+00
 Gap=     0.170 Goal=   None    Shift=    0.000
 RMSDP=7.32D-07 MaxDP=1.50D-05 DE=-6.39D-07 OVMax= 2.40D-05

 Cycle   8  Pass 1  IDiag  1:
 RMSU=  5.83D-07    CP:  9.98D-01  9.32D-01  4.21D-01  4.93D-01  7.00D-01
                    CP:  6.39D-01  8.33D-01
 E= -417.841750094274     Delta-E=        0.000000006974 Rises=F Damp=F
 DIIS: error= 3.07D-06 at cycle   8 NSaved=   8.
 NSaved= 8 IEnMin= 7 EnMin= -417.841750101248     IErMin= 8 ErrMin= 3.07D-06
 ErrMax= 3.07D-06  0.00D+00 EMaxC= 1.00D-01 BMatC= 2.37D-09 BMatP= 1.74D-08
 IDIUse=1 WtCom= 1.00D+00 WtEn= 0.00D+00
 Coeff-Com: -0.257D-04 0.303D-02 0.170D-02 0.906D-02 0.379D-01 0.844D-01
 Coeff-Com:  0.352D+00 0.512D+00
 Coeff:     -0.257D-04 0.303D-02 0.170D-02 0.906D-02 0.379D-01 0.844D-01
 Coeff:      0.352D+00 0.512D+00
 Gap=     0.170 Goal=   None    Shift=    0.000
 RMSDP=3.64D-07 MaxDP=1.26D-05 DE= 6.97D-09 OVMax= 1.35D-05

 Cycle   9  Pass 1  IDiag  1:
 RMSU=  2.06D-07    CP:  9.98D-01  9.32D-01  4.21D-01  4.92D-01  7.03D-01
                    CP:  6.55D-01  8.35D-01  6.49D-01
 E= -417.841750095999     Delta-E=       -0.000000001725 Rises=F Damp=F
 DIIS: error= 1.58D-06 at cycle   9 NSaved=   9.
 NSaved= 9 IEnMin= 7 EnMin= -417.841750101248     IErMin= 9 ErrMin= 1.58D-06
 ErrMax= 1.58D-06  0.00D+00 EMaxC= 1.00D-01 BMatC= 4.74D-10 BMatP= 2.37D-09
 IDIUse=1 WtCom= 1.00D+00 WtEn= 0.00D+00
 Coeff-Com: -0.132D-04 0.134D-02 0.668D-03 0.428D-02 0.181D-01 0.437D-01
 Coeff-Com:  0.196D+00 0.349D+00 0.386D+00
 Coeff:     -0.132D-04 0.134D-02 0.668D-03 0.428D-02 0.181D-01 0.437D-01
 Coeff:      0.196D+00 0.349D+00 0.386D+00
 Gap=     0.170 Goal=   None    Shift=    0.000
 RMSDP=1.36D-07 MaxDP=2.49D-06 DE=-1.72D-09 OVMax= 8.69D-06

 Cycle  10  Pass 1  IDiag  1:
 RMSU=  9.27D-08    CP:  9.98D-01  9.32D-01  4.21D-01  4.93D-01  7.03D-01
                    CP:  6.56D-01  8.37D-01  6.85D-01  5.49D-01
 E= -417.841750096286     Delta-E=       -0.000000000286 Rises=F Damp=F
 DIIS: error= 6.77D-07 at cycle  10 NSaved=  10.
 NSaved=10 IEnMin= 7 EnMin= -417.841750101248     IErMin=10 ErrMin= 6.77D-07
 ErrMax= 6.77D-07  0.00D+00 EMaxC= 1.00D-01 BMatC= 9.29D-11 BMatP= 4.74D-10
 IDIUse=1 WtCom= 1.00D+00 WtEn= 0.00D+00
 Coeff-Com: -0.269D-05 0.120D-03-0.193D-04 0.631D-03 0.288D-02 0.897D-02
 Coeff-Com:  0.491D-01 0.114D+00 0.306D+00 0.519D+00
 Coeff:     -0.269D-05 0.120D-03-0.193D-04 0.631D-03 0.288D-02 0.897D-02
 Coeff:      0.491D-01 0.114D+00 0.306D+00 0.519D+00
 Gap=     0.170 Goal=   None    Shift=    0.000
 RMSDP=5.18D-08 MaxDP=8.21D-07 DE=-2.86D-10 OVMax= 2.84D-06

 Cycle  11  Pass 1  IDiag  1:
 RMSU=  2.14D-08    CP:  9.98D-01  9.32D-01  4.21D-01  4.93D-01  7.02D-01
                    CP:  6.55D-01  8.42D-01  6.86D-01  6.19D-01  5.71D-01
 E= -417.841750096356     Delta-E=       -0.000000000071 Rises=F Damp=F
 DIIS: error= 4.13D-08 at cycle  11 NSaved=  11.
 NSaved=11 IEnMin= 7 EnMin= -417.841750101248     IErMin=11 ErrMin= 4.13D-08
 ErrMax= 4.13D-08  0.00D+00 EMaxC= 1.00D-01 BMatC= 6.14D-13 BMatP= 9.29D-11
 IDIUse=1 WtCom= 1.00D+00 WtEn= 0.00D+00
 Coeff-Com: -0.178D-06-0.231D-04-0.325D-04 0.178D-05 0.959D-04 0.680D-03
 Coeff-Com:  0.649D-02 0.181D-01 0.749D-01 0.158D+00 0.742D+00
 Coeff:     -0.178D-06-0.231D-04-0.325D-04 0.178D-05 0.959D-04 0.680D-03
 Coeff:      0.649D-02 0.181D-01 0.749D-01 0.158D+00 0.742D+00
 Gap=     0.170 Goal=   None    Shift=    0.000
 RMSDP=6.40D-09 MaxDP=1.22D-07 DE=-7.08D-11 OVMax= 1.62D-07

 Error on total polarization charges =  0.00765
 SCF Done:  E(RB-P86) =  -417.841750096     A.U. after   11 cycles
            NFock= 11  Conv=0.64D-08     -V/T= 2.0040
 KE= 4.161850402367D+02 PE=-1.582138086973D+03 EE= 4.482673092247D+02
 Leave Link  502 at Mon Feb 22 21:16:36 2021, MaxMem=   104857600 cpu:             161.0 elap:               5.2
 (Enter /sw/arch/RedHatEnterpriseServer7/EB_production/2019/software/Gaussian/g16.c01/l701.exe)
 ... and contract with generalized density number  0.
 Compute integral first derivatives.
 R6Disp: Adding Grimme-D3 dispersion energy 1st derivatives to the gradient.
 PrsmSu:  requested number of processors reduced to:  30 ShMem   1 Linda.
 D1PCM: PCM CHGder 1st derivatives, ID1Alg=3 FixD1E=F DoIter=F DoCFld=F I1PDM=0.
 GePol: Maximum number of non-zero 1st derivatives   =     226
 CoulSu:  requested number of processors reduced to:  29 ShMem   1 Linda.
 CoulSu:  requested number of processors reduced to:  30 ShMem   1 Linda.
 Leave Link  701 at Mon Feb 22 21:16:36 2021, MaxMem=   104857600 cpu:              14.3 elap:               0.5
 (Enter /sw/arch/RedHatEnterpriseServer7/EB_production/2019/software/Gaussian/g16.c01/l702.exe)
 L702 exits ... SP integral derivatives will be done elsewhere.
 Leave Link  702 at Mon Feb 22 21:16:36 2021, MaxMem=   104857600 cpu:               0.5 elap:               0.0
 (Enter /sw/arch/RedHatEnterpriseServer7/EB_production/2019/software/Gaussian/g16.c01/l703.exe)
 Integral derivatives from FoFJK, PRISM(SPDF).
 Compute integral first derivatives, UseDBF=F ICtDFT=           0.
 Calling FoFJK, ICntrl=      2527 FMM=F ISym2X=0 I1Cent= 0 IOpClX= 0 NMat=1 NMatS=1 NMatT=0.
 FoFJK:  IHMeth= 1 ICntrl=    2527 DoSepK=F KAlg= 0 I1Cent=           0 FoldK=F
 IRaf=         0 NMat=       1 IRICut=       1 DoRegI=T DoRafI=F ISym2E= 0 IDoP0=0 IntGTp=1.
 FoFCou: FMM=F IPFlag=           0 FMFlag=      100000 FMFlg1=         800
         NFxFlg=           0 DoJE=F BraDBF=F KetDBF=F FulRan=T
         wScrn=  0.000000 ICntrl=      2527 IOpCl=  0 I1Cent=           0 NGrid=           0
         NMat0=    1 NMatS0=      1 NMatT0=    0 NMatD0=    1 NMtDS0=    0 NMtDT0=    0
 Symmetry not used in FoFCou.
 Leave Link  703 at Mon Feb 22 21:16:37 2021, MaxMem=   104857600 cpu:              18.1 elap:               0.6
 (Enter /sw/arch/RedHatEnterpriseServer7/EB_production/2019/software/Gaussian/g16.c01/l716.exe)
 Dipole        = 8.38615327D-03-3.64188565D-03-3.12963915D-01
 ***** Axes restored to original set *****
 -------------------------------------------------------------------
 Center     Atomic                   Forces (Hartrees/Bohr)
 Number     Number              X              Y              Z
 -------------------------------------------------------------------
      1        8           0.014329011    0.014593362   -0.003550177
      2        6          -0.035600085   -0.022933448    0.009364835
      3        8           0.013642229    0.009673615   -0.003260666
      4        6           0.004731654   -0.004359326    0.004864249
      5        6           0.029869581    0.027338327   -0.015422006
      6        8          -0.014941802   -0.013422061    0.002669894
      7        8          -0.012257767   -0.011110949    0.005106633
      8        1          -0.004108625   -0.005222589    0.000597671
      9        1           0.000604019    0.001561269   -0.000354532
     10        1          -0.001320758   -0.000814739   -0.000220082
     11        1           0.005052544    0.004696539    0.000204180
 -------------------------------------------------------------------
 Cartesian Forces:  Max     0.035600085 RMS     0.012735699
 Leave Link  716 at Mon Feb 22 21:16:37 2021, MaxMem=   104857600 cpu:               0.6 elap:               0.0
 (Enter /sw/arch/RedHatEnterpriseServer7/EB_production/2019/software/Gaussian/g16.c01/l103.exe)

 GradGradGradGradGradGradGradGradGradGradGradGradGradGradGradGradGradGrad
 Berny optimization.
 Using GEDIIS/GDIIS optimizer.
 FormGI is forming the generalized inverse of G from B-inverse, IUseBI=4.
 Internal  Forces:  Max     0.020741038 RMS     0.006598846
 Search for a local minimum.
 Step number   2 out of a maximum of   50
 All quantities printed in internal units (Hartrees-Bohrs-Radians)
 RMS Force = .65988D-02 SwitMx=.10000D-02 MixMth= 1
 Mixed Optimization -- RFO/linear search
 Update second derivatives using D2CorX and points    1    2
 DE= -1.90D-02 DEPred=-1.86D-02 R= 1.02D+00
 TightC=F SS=  1.41D+00  RLast= 3.03D-01 DXNew= 5.0454D-01 9.0934D-01
 Trust test= 1.02D+00 RLast= 3.03D-01 DXMaxT set to 5.05D-01
 ITU=  1  0
 Use linear search instead of GDIIS.
     Eigenvalues ---    0.01109   0.01131   0.01412   0.01427   0.02316
     Eigenvalues ---    0.02316   0.05327   0.06798   0.10103   0.13541
     Eigenvalues ---    0.15890   0.16018   0.22133   0.23682   0.25000
     Eigenvalues ---    0.25000   0.26510   0.34189   0.34502   0.34560
     Eigenvalues ---    0.35362   0.51343   0.51672   0.54430   0.56330
     Eigenvalues ---    0.79076   0.82622
 RFO step:  Lambda=-1.84934040D-03 EMin= 1.10943099D-02
 Quartic linear search produced a step of  0.41537.
 Iteration  1 RMS(Cart)=  0.02827234 RMS(Int)=  0.00057594
 Iteration  2 RMS(Cart)=  0.00082264 RMS(Int)=  0.00005655
 Iteration  3 RMS(Cart)=  0.00000017 RMS(Int)=  0.00005655
 ITry= 1 IFail=0 DXMaxC= 6.99D-02 DCOld= 1.00D+10 DXMaxT= 5.05D-01 DXLimC= 3.00D+00 Rises=F
 Variable       Old X    -DE/DX   Delta X   Delta X   Delta X     New X
                                 (Linear)    (Quad)   (Total)
    R1        2.33897  -0.02074  -0.01155  -0.02236  -0.03391   2.30505
    R2        2.53833   0.00276  -0.00749   0.01600   0.00851   2.54684
    R3        2.83206   0.01079   0.01933   0.01900   0.03833   2.87039
    R4        1.84590   0.00291  -0.00237   0.01081   0.00843   1.85433
    R5        2.83126   0.01110   0.02028   0.01882   0.03910   2.87036
    R6        2.07112   0.00080   0.00276  -0.00020   0.00256   2.07368
    R7        2.07178   0.00069   0.00276  -0.00062   0.00214   2.07392
    R8        2.33814  -0.02025  -0.01083  -0.02214  -0.03296   2.30518
    R9        2.53845   0.00266  -0.00749   0.01575   0.00827   2.54672
   R10        1.84604   0.00275  -0.00284   0.01093   0.00809   1.85412
    A1        2.14523   0.00458   0.03002  -0.01385   0.01615   2.16138
    A2        2.14780   0.00646   0.01495   0.01659   0.03153   2.17933
    A3        1.99015  -0.01104  -0.04494  -0.00276  -0.04772   1.94243
    A4        1.95268  -0.01102  -0.05854  -0.01090  -0.06945   1.88324
    A5        1.96447   0.00045   0.00899  -0.01140  -0.00239   1.96207
    A6        1.91932   0.00044   0.00994  -0.01216  -0.00213   1.91719
    A7        1.88352  -0.00118  -0.01814   0.01514  -0.00300   1.88051
    A8        1.88561  -0.00122  -0.01815   0.01365  -0.00449   1.88111
    A9        1.91521   0.00063   0.01145  -0.01117   0.00039   1.91560
   A10        1.89477   0.00093   0.00585   0.00624   0.01226   1.90702
   A11        2.14837   0.00639   0.01508   0.01603   0.03110   2.17947
   A12        1.98900  -0.01092  -0.04516  -0.00181  -0.04698   1.94202
   A13        2.14581   0.00453   0.03010  -0.01423   0.01587   2.16168
   A14        1.95727  -0.01167  -0.06006  -0.01437  -0.07443   1.88284
    D1        0.01555  -0.00043  -0.00077  -0.02309  -0.02379  -0.00824
    D2       -3.12418  -0.00058  -0.00584  -0.01033  -0.01624  -3.14042
    D3        2.04839   0.00047   0.00476   0.00995   0.01464   2.06303
    D4       -2.13154  -0.00047  -0.00546   0.01125   0.00589  -2.12565
    D5       -0.06755   0.00020  -0.00317   0.02080   0.01768  -0.04987
    D6       -1.09507   0.00062   0.00996  -0.00287   0.00697  -1.08810
    D7        1.00818  -0.00032  -0.00026  -0.00157  -0.00177   1.00641
    D8        3.07217   0.00035   0.00203   0.00798   0.01002   3.08219
    D9        2.05901   0.00036   0.00516   0.00491   0.00998   2.06899
   D10       -1.08424   0.00044   0.00783  -0.00171   0.00602  -1.07822
   D11       -0.06352   0.00036  -0.00086   0.01806   0.01722  -0.04630
   D12        3.07642   0.00043   0.00182   0.01144   0.01326   3.08968
   D13       -2.12643  -0.00040  -0.00411   0.00890   0.00488  -2.12154
   D14        1.01352  -0.00032  -0.00144   0.00228   0.00092   1.01444
   D15       -3.13851  -0.00028  -0.00295  -0.00424  -0.00723   3.13744
   D16        0.00143  -0.00020  -0.00035  -0.01082  -0.01113  -0.00970
         Item               Value     Threshold  Converged?
 Maximum Force            0.020741     0.000450     NO 
 RMS     Force            0.006599     0.000300     NO 
 Maximum Displacement     0.069862     0.001800     NO 
 RMS     Displacement     0.028702     0.001200     NO 
 Predicted change in Energy=-3.005602D-03
 Lowest energy point so far.  Saving SCF results.
[...]
 ! D4    D(1,2,4,9)           -113.0321                                         !
 ! D5    D(1,2,4,10)             5.6124                                         !
 ! D6    D(3,2,4,5)            -54.2774                                         !
 ! D7    D(3,2,4,9)             66.0475                                         !
 ! D8    D(3,2,4,10)          -175.308                                          !
 ! D9    D(2,4,5,6)            126.7462                                         !
 ! D10   D(2,4,5,7)            -54.1803                                         !
 ! D11   D(9,4,5,6)              5.7066                                         !
 ! D12   D(9,4,5,7)           -175.2199                                         !
 ! D13   D(10,4,5,6)          -112.9327                                         !
 ! D14   D(10,4,5,7)            66.1408                                         !
 ! D15   D(4,5,7,11)          -179.8388                                         !
 ! D16   D(6,5,7,11)            -0.7495                                         !
 --------------------------------------------------------------------------------
                          Input orientation:                          
 ---------------------------------------------------------------------
 Center     Atomic      Atomic             Coordinates (Angstroms)
 Number     Number       Type             X           Y           Z
 ---------------------------------------------------------------------
      1          8           0       -1.546088   -0.305326    1.813067
      2          6           0       -0.698662    0.483743    1.438527
      3          8           0       -0.916535    1.817013    1.295397
      4          6           0        0.739475    0.129678    1.090480
      5          6           0        1.150442    0.612633   -0.292504
      6          8           0        2.127949    1.295025   -0.537155
      7          8           0        0.285818    0.162300   -1.238641
      8          1           0       -1.851881    1.999033    1.531756
      9          1           0        1.414145    0.587583    1.825276
     10          1           0        0.842552   -0.962019    1.139149
     11          1           0        0.590125    0.494448   -2.110963
 ---------------------------------------------------------------------
                    Distance matrix (angstroms):
                    1          2          3          4          5
     1  O    0.000000
     2  C    1.216980   0.000000
     3  O    2.273465   1.358516   0.000000
     4  C    2.436218   1.521426   2.373070   0.000000
     5  C    3.542224   2.536191   2.871299   1.521441   0.000000
     6  O    4.645774   3.542771   3.591602   2.436204   1.216977
     7  O    3.589913   2.870497   3.256544   2.373115   1.358511
     8  H    2.341521   1.906492   0.981769   3.225576   3.776768
     9  H    3.091992   2.150421   2.687813   1.097625   2.134281
    10  H    2.567296   2.134290   3.292692   1.097632   2.150338
    11  H    4.538838   3.776236   3.952530   3.225616   1.906493
                    6          7          8          9         10
     6  O    0.000000
     7  O    2.273455   0.000000
     8  H    4.540382   3.952018   0.000000
     9  H    2.567307   3.292655   3.570053   0.000000
    10  H    3.091357   2.688481   4.022679   1.788507   0.000000
    11  H    2.341516   0.981769   4.636440   4.022643   3.570468
                   11
    11  H    0.000000
 Stoichiometry    C3H4O4
 Framework group  C1[X(C3H4O4)]
 Deg. of freedom    27
 Full point group                 C1      NOp   1
 Largest Abelian subgroup         C1      NOp   1
 Largest concise Abelian subgroup C1      NOp   1
                         Standard orientation:                         
 ---------------------------------------------------------------------
 Center     Atomic      Atomic             Coordinates (Angstroms)
 Number     Number       Type             X           Y           Z
 ---------------------------------------------------------------------
      1          8           0        2.203935    0.732739    0.241796
      2          6           0        1.267507   -0.037136    0.134854
      3          8           0        1.230954   -1.065847   -0.751702
      4          6           0       -0.000138   -0.001447    0.975413
      5          6           0       -1.267605    0.036832    0.134672
      6          8           0       -2.204792   -0.732300    0.240265
      7          8           0       -1.229978    1.066966   -0.750179
      8          1           0        2.065784   -1.051549   -1.268155
      9          1           0       -0.039926   -0.895756    1.610558
     10          1           0        0.039407    0.890989    1.613214
     11          1           0       -2.064796    1.054366   -1.266695
 ---------------------------------------------------------------------
 Rotational constants (GHZ):           5.1807317           1.7345785           1.6383812
 Standard basis: TZVP (5D, 7F)
 There are   164 symmetry adapted cartesian basis functions of A   symmetry.
 There are   157 symmetry adapted basis functions of A   symmetry.
   157 basis functions,   277 primitive gaussians,   164 cartesian basis functions
    27 alpha electrons       27 beta electrons
       nuclear repulsion energy       300.0035277414 Hartrees.
 NAtoms=   11 NActive=   11 NUniq=   11 SFac= 1.00D+00 NAtFMM=   60 NAOKFM=F Big=F
 Integral buffers will be    131072 words long.
 Raffenetti 2 integral format.
 Two-electron integral symmetry is turned on.
 Warning! Using old PCM defaults because the COSMOthermo output has been requested.
 These settings can be overridden by following keywords.
 ------------------------------------------------------------------------------
 Polarizable Continuum Model (PCM)
 =================================
 Model                : C-PCM.
 Atomic radii         : Klamt.
 XCosmo               : -1.000 (infinite dielectric limit)
 Polarization charges : Electronic and nuclear charges.
 Charge compensation  : Type 3 (Electronic density weighted correction).
 Solution method      : On-the-fly selection.
 Cavity type          : VdW (van der Waals Surface) (Alpha=1.000).
 Cavity algorithm     : GePol (No added spheres)
                        Default sphere list used, NSphG=   11.
                        Tesserae with average area of 0.200 Ang**2.
                        Smoothing algorithm: None.
                        Polarization charges: point-like.
                        Self-potential: constant (ISelfS= 1).
                        Self-field    : global E.n sum rule (ISelfD= 3).
 Solvent              : Water, Eps=  78.355300 Eps(inf)=   1.777849
 ------------------------------------------------------------------------------
 Spheres list:
 ISph  on   Nord     Re0    Alpha      Xe            Ye            Ze
    1   O      1    1.7200  1.000      2.203935      0.732739      0.241796
    2   C      2    2.0000  1.000      1.267507     -0.037136      0.134854
    3   O      3    1.7200  1.000      1.230954     -1.065847     -0.751702
    4   C      4    2.0000  1.000     -0.000138     -0.001447      0.975413
    5   C      5    2.0000  1.000     -1.267605      0.036832      0.134672
    6   O      6    1.7200  1.000     -2.204792     -0.732300      0.240265
    7   O      7    1.7200  1.000     -1.229978      1.066966     -0.750179
    8   H      8    1.3000  1.000      2.065784     -1.051549     -1.268155
    9   H      9    1.3000  1.000     -0.039926     -0.895756      1.610558
   10   H     10    1.3000  1.000      0.039407      0.890989      1.613214
   11   H     11    1.3000  1.000     -2.064796      1.054366     -1.266695
 ------------------------------------------------------------------------------
 One-electron integrals computed using PRISM.
 PrsmSu:  requested number of processors reduced to:  30 ShMem   1 Linda.
 NBasis=   157 RedAO= T EigKep=  3.19D-04  NBF=   157
 NBsUse=   157 1.00D-06 EigRej= -1.00D+00 NBFU=   157
 Initial guess from the checkpoint file:  "OFOBLEOULBTSOW-UHFFFAOYSA-N.chk"
 B after Tr=    -0.000000   -0.000000   -0.000000
         Rot=    1.000000    0.000000    0.000000   -0.000000 Ang=   0.00 deg.
 Requested convergence on RMS density matrix=1.00D-08 within 128 cycles.
 Requested convergence on MAX density matrix=1.00D-06.
 Requested convergence on             energy=1.00D-06.
 No special actions if energy rises.
 Inv3:  Mode=1 IEnd=     2249868.
 Iteration    1 A*A^-1 deviation from unit magnitude is 3.00D-15 for    517.
 Iteration    1 A*A^-1 deviation from orthogonality  is 3.72D-15 for    734    517.
 Iteration    1 A^-1*A deviation from unit magnitude is 2.66D-15 for    111.
 Iteration    1 A^-1*A deviation from orthogonality  is 1.59D-15 for    749    120.
 Error on nuclear    polarization charges =  0.01827
 Error on electronic polarization charges = -0.03856
 SCF Done:  E(RB-P86) =  -417.846091664     A.U. after   10 cycles
            NFock= 10  Conv=0.65D-08     -V/T= 2.0040
 --------------------------------------------------------------------
 Variational C-PCM results
 =========================
 <psi(f)|   H    |psi(f)>                     (a.u.) =    -417.820922
 <psi(f)|H+V(f)/2|psi(f)>                     (a.u.) =    -417.846092
 Total free energy in solution:
 - with all non electrostatic terms           (a.u.) =    -417.837087
 --------------------------------------------------------------------
 (Polarized solute)-Solvent               (kcal/mol) =     -15.79
 --------------------------------------------------------------------
 Cavitation energy                        (kcal/mol) =      16.49
 Dispersion energy                        (kcal/mol) =     -11.90
 Repulsion energy                         (kcal/mol) =       1.06
 Total non electrostatic                  (kcal/mol) =       5.65
 --------------------------------------------------------------------
 Partition over spheres:
 Sphere  on Atom  Surface  Charge   GEl     GCav    GDR
    1      O1      20.46   0.224   -2.87    2.54   -1.78
    2      C2       9.58  -0.039   -0.26    1.13   -0.46
    3      O3      14.95   0.065   -0.63    1.86   -1.26
    4      C4      10.17  -0.058   -0.43    1.19   -0.53
    5      C5       9.59  -0.039   -0.26    1.13   -0.46
    6      O6      20.46   0.224   -2.86    2.54   -1.78
    7      O7      14.94   0.064   -0.62    1.86   -1.26
    8      H8       8.52  -0.159   -3.29    1.20   -0.91
    9      H9       6.50  -0.061   -0.64    0.92   -0.75
   10      H10      6.51  -0.061   -0.64    0.92   -0.75
   11      H11      8.52  -0.160   -3.30    1.20   -0.91
 --------------------------------------------------------------------
 - cavitation energy not included in the total energy.
 - dispersion energy not included in the total energy.
 - repulsion  energy not included in the total energy.
 After PCM corrections, the energy is  -417.846091664     a.u.
 --------------------------------------------------------------------
 Writing COSMO formatted file "OFOBLEOULBTSOW-UHFFFAOYSA-N.cosmo"
 Recomputed dielectric energy= -0.025223 old= -0.025169 diff=-5.35D-05

 **********************************************************************

            Population analysis using the SCF Density.

 **********************************************************************

 Orbital symmetries:
       Occupied  (A) (A) (A) (A) (A) (A) (A) (A) (A) (A) (A) (A)
                 (A) (A) (A) (A) (A) (A) (A) (A) (A) (A) (A) (A)
                 (A) (A) (A)
       Virtual   (A) (A) (A) (A) (A) (A) (A) (A) (A) (A) (A) (A)
                 (A) (A) (A) (A) (A) (A) (A) (A) (A) (A) (A) (A)
                 (A) (A) (A) (A) (A) (A) (A) (A) (A) (A) (A) (A)
                 (A) (A) (A) (A) (A) (A) (A) (A) (A) (A) (A) (A)
                 (A) (A) (A) (A) (A) (A) (A) (A) (A) (A) (A) (A)
                 (A) (A) (A) (A) (A) (A) (A) (A) (A) (A) (A) (A)
                 (A) (A) (A) (A) (A) (A) (A) (A) (A) (A) (A) (A)
                 (A) (A) (A) (A) (A) (A) (A) (A) (A) (A) (A) (A)
                 (A) (A) (A) (A) (A) (A) (A) (A) (A) (A) (A) (A)
                 (A) (A) (A) (A) (A) (A) (A) (A) (A) (A) (A) (A)
                 (A) (A) (A) (A) (A) (A) (A) (A) (A) (A)
 The electronic state is 1-A.
 Alpha  occ. eigenvalues --  -18.82939 -18.82938 -18.77995 -18.77993 -10.04767
 Alpha  occ. eigenvalues --  -10.04765  -9.93411  -1.03567  -1.02912  -0.95172
 Alpha  occ. eigenvalues --   -0.95100  -0.72964  -0.59893  -0.56195  -0.48246
 Alpha  occ. eigenvalues --   -0.45234  -0.45174  -0.43954  -0.42061  -0.39901
 Alpha  occ. eigenvalues --   -0.36673  -0.36127  -0.36071  -0.30337  -0.30055
 Alpha  occ. eigenvalues --   -0.27091  -0.24846
 Alpha virt. eigenvalues --   -0.06495  -0.05213   0.01612   0.03817   0.07263
 Alpha virt. eigenvalues --    0.09067   0.11372   0.11984   0.14814   0.15938
 Alpha virt. eigenvalues --    0.17114   0.18770   0.22641   0.24719   0.25346
 Alpha virt. eigenvalues --    0.26982   0.28093   0.30653   0.30963   0.32137
 Alpha virt. eigenvalues --    0.34342   0.35722   0.38830   0.40253   0.41068
 Alpha virt. eigenvalues --    0.41203   0.41460   0.44572   0.45858   0.47524
 Alpha virt. eigenvalues --    0.48725   0.49859   0.53113   0.55332   0.56464
 Alpha virt. eigenvalues --    0.56967   0.57970   0.62446   0.68594   0.70819
 Alpha virt. eigenvalues --    0.76392   0.84570   0.84838   0.86829   1.09889
 Alpha virt. eigenvalues --    1.12061   1.21436   1.23039   1.23563   1.27038
 Alpha virt. eigenvalues --    1.29291   1.30763   1.33211   1.34644   1.35687
 Alpha virt. eigenvalues --    1.37463   1.45214   1.49411   1.50729   1.50968
 Alpha virt. eigenvalues --    1.52251   1.53436   1.54851   1.64624   1.65502
 Alpha virt. eigenvalues --    1.73199   1.77920   1.85047   1.89126   1.89790
 Alpha virt. eigenvalues --    1.99027   1.99164   2.05962   2.06418   2.14787
 Alpha virt. eigenvalues --    2.18225   2.18874   2.23120   2.29863   2.33460
 Alpha virt. eigenvalues --    2.36198   2.40717   2.48105   2.48645   2.50802
 Alpha virt. eigenvalues --    2.51470   2.52925   2.54284   2.54785   2.55989
 Alpha virt. eigenvalues --    2.57742   2.58255   2.60477   2.61492   2.62842
 Alpha virt. eigenvalues --    2.64246   2.67720   2.76598   2.78581   2.79616
 Alpha virt. eigenvalues --    2.80605   2.85080   2.85120   2.88624   2.96672
 Alpha virt. eigenvalues --    3.00313   3.00730   3.03175   3.09848   3.10014
 Alpha virt. eigenvalues --    3.12878   3.13484   3.16267   3.20697   3.27813
 Alpha virt. eigenvalues --    3.41098   3.41781   3.74775   3.83108   4.06605
 Alpha virt. eigenvalues --    4.11593   4.16639   4.19463  21.62746  21.76099
 Alpha virt. eigenvalues --   21.76460  42.99982  43.03712  43.10084  43.13017
          Condensed to atoms (all electrons):
               1          2          3          4          5          6
     1  O    7.939340   0.601422  -0.106207  -0.098237  -0.004549  -0.000131
     2  C    0.601422   4.818018   0.304772   0.112070  -0.002273  -0.004518
     3  O   -0.106207   0.304772   7.900704  -0.143449   0.025573  -0.000705
     4  C   -0.098237   0.112070  -0.143449   5.751993   0.112314  -0.098278
     5  C   -0.004549  -0.002273   0.025573   0.112314   4.817855   0.601429
     6  O   -0.000131  -0.004518  -0.000705  -0.098278   0.601429   7.939357
     7  O   -0.000711   0.025595  -0.001808  -0.143479   0.304782  -0.106211
     8  H    0.001590  -0.011876   0.284912   0.011433  -0.001128  -0.000049
     9  H    0.001283  -0.004374   0.003755   0.389116  -0.049946   0.006474
    10  H    0.006468  -0.049935   0.004668   0.389147  -0.004363   0.001274
    11  H   -0.000050  -0.001132   0.000056   0.011441  -0.011889   0.001591
               7          8          9         10         11
     1  O   -0.000711   0.001590   0.001283   0.006468  -0.000050
     2  C    0.025595  -0.011876  -0.004374  -0.049935  -0.001132
     3  O   -0.001808   0.284912   0.003755   0.004668   0.000056
     4  C   -0.143479   0.011433   0.389116   0.389147   0.011441
     5  C    0.304782  -0.001128  -0.049946  -0.004363  -0.011889
     6  O   -0.106211  -0.000049   0.006474   0.001274   0.001591
     7  O    7.900670   0.000057   0.004670   0.003748   0.284926
     8  H    0.000057   0.376639  -0.000359  -0.000497   0.000026
     9  H    0.004670  -0.000359   0.449382  -0.007516  -0.000497
    10  H    0.003748  -0.000497  -0.007516   0.449281  -0.000359
    11  H    0.284926   0.000026  -0.000497  -0.000359   0.376630
 Mulliken charges:
               1
     1  O   -0.340218
     2  C    0.212232
     3  O   -0.272269
     4  C   -0.294073
     5  C    0.212195
     6  O   -0.340234
     7  O   -0.272239
     8  H    0.339252
     9  H    0.208011
    10  H    0.208085
    11  H    0.339256
 Sum of Mulliken charges =  -0.00000
 Mulliken charges with hydrogens summed into heavy atoms:
               1
     1  O   -0.340218
     2  C    0.212232
     3  O    0.066983
     4  C    0.122024
     5  C    0.212195
     6  O   -0.340234
     7  O    0.067017
 Electronic spatial extent (au):  <R**2>=            749.3523
 Charge=             -0.0000 electrons
 Dipole moment (field-independent basis, Debye):
    X=              0.0012    Y=              0.0001    Z=             -1.0861  Tot=              1.0861
 Quadrupole moment (field-independent basis, Debye-Ang):
   XX=            -44.8152   YY=            -42.7281   ZZ=            -33.2795
   XY=            -11.8830   XZ=             -0.0102   YZ=             -0.0119
 Traceless Quadrupole moment (field-independent basis, Debye-Ang):
   XX=             -4.5410   YY=             -2.4538   ZZ=              6.9948
   XY=            -11.8830   XZ=             -0.0102   YZ=             -0.0119
 Octapole moment (field-independent basis, Debye-Ang**2):
  XXX=              0.0489  YYY=              0.0085  ZZZ=             -8.2475  XYY=             -0.0238
  XXY=              0.0227  XXZ=            -24.7183  XZZ=              0.0076  YZZ=              0.0075
  YYZ=             -2.5583  XYZ=              4.9425
 Hexadecapole moment (field-independent basis, Debye-Ang**3):
 XXXX=           -631.7853 YYYY=           -167.6936 ZZZZ=           -120.1936 XXXY=            -81.1076
 XXXZ=             -0.0891 YYYX=            -13.3225 YYYZ=             -0.0418 ZZZX=             -0.0388
 ZZZY=              0.0057 XXYY=           -126.3870 XXZZ=            -95.0303 YYZZ=            -41.2702
 XXYZ=             -0.0276 YYXZ=              0.0232 ZZXY=            -16.1520
 N-N= 3.000035277414D+02 E-N=-1.582451761454D+03  KE= 4.161830967047D+02
 Unable to Open any file for archive entry.
 1\1\GINC-TCN1649\SP\RBP86\TZVP\C3H4O4\ELENAA\22-Feb-2021\0\\# BP86/TZV
 P SCRF=COSMORS geom=CHECKPOINT guess=CHECKPOINT\\COSMO-file for #OFOBL
 EOULBTSOW-UHFFFAOYSA-N\\0,1\O,0,-1.5460877427,-0.305326236,1.813067415
 6\C,0,-0.6986619059,0.4837426328,1.4385268557\O,0,-0.9165351299,1.8170
 129777,1.2953973227\C,0,0.7394753062,0.1296781187,1.0904801141\C,0,1.1
 504421509,0.6126325128,-0.2925036692\O,0,2.1279492379,1.2950247705,-0.
 5371546501\O,0,0.2858175641,0.1623000652,-1.2386412183\H,0,-1.85188132
 52,1.9990334359,1.5317560777\H,0,1.4141453191,0.5875834017,1.825275763
 6\H,0,0.8425516565,-0.9620194013,1.1391486283\H,0,0.5901248691,0.49444
 77222,-2.1109626401\\Version=ES64L-G16RevC.01\State=1-A\HF=-417.846091
 7\RMSD=6.470e-09\Dipole=-0.2611808,0.2132116,-0.2624899\Quadrupole=-3.
 7971523,-1.2500789,5.0472312,-8.0465708,2.4126432,2.7643312\PG=C01 [X(
 C3H4O4)]\\@
 The archive entry for this job was punched.


 Just remember, when you're over the hill, you begin to pick up speed.
 -- Charles Schulz
 Job cpu time:       0 days  0 hours  2 minutes 37.5 seconds.
 Elapsed time:       0 days  0 hours  0 minutes  5.3 seconds.
 File lengths (MBytes):  RWF=     24 Int=      0 D2E=      0 Chk=      5 Scr=      1
 Normal termination of Gaussian 16 at Mon Feb 22 21:18:01 2021.
