 Entering Gaussian System, Link 0=g16
 Input=OIPILFWXSMYKGL-UHFFFAOYSA-N.gjf
 Output=OIPILFWXSMYKGL-UHFFFAOYSA-N.log
 Initial command:
 /sw/arch/RedHatEnterpriseServer7/EB_production/2019/software/Gaussian/g16.c01/l1.exe "/scratch-local/elenaa.9715944/Gau-9616.inp" -scrdir="/scratch-local/elenaa.9715944/"
 Entering Link 1 = /sw/arch/RedHatEnterpriseServer7/EB_production/2019/software/Gaussian/g16.c01/l1.exe PID=      9618.
  
 Copyright (c) 1988-2019, Gaussian, Inc.  All Rights Reserved.
  
 This is part of the Gaussian(R) 16 program.  It is based on
 the Gaussian(R) 09 system (copyright 2009, Gaussian, Inc.),
 the Gaussian(R) 03 system (copyright 2003, Gaussian, Inc.),
 the Gaussian(R) 98 system (copyright 1998, Gaussian, Inc.),
 the Gaussian(R) 94 system (copyright 1995, Gaussian, Inc.),
 the Gaussian 92(TM) system (copyright 1992, Gaussian, Inc.),
 the Gaussian 90(TM) system (copyright 1990, Gaussian, Inc.),
 the Gaussian 88(TM) system (copyright 1988, Gaussian, Inc.),
 the Gaussian 86(TM) system (copyright 1986, Carnegie Mellon
 University), and the Gaussian 82(TM) system (copyright 1983,
 Carnegie Mellon University). Gaussian is a federally registered
 trademark of Gaussian, Inc.
  
 This software contains proprietary and confidential information,
 including trade secrets, belonging to Gaussian, Inc.
  
 This software is provided under written license and may be
 used, copied, transmitted, or stored only in accord with that
 written license.
  
 The following legend is applicable only to US Government
 contracts under FAR:
  
                    RESTRICTED RIGHTS LEGEND
  
 Use, reproduction and disclosure by the US Government is
 subject to restrictions as set forth in subparagraphs (a)
 and (c) of the Commercial Computer Software - Restricted
 Rights clause in FAR 52.227-19.
  
 Gaussian, Inc.
 340 Quinnipiac St., Bldg. 40, Wallingford CT 06492
  
  
 ---------------------------------------------------------------
 Warning -- This program may not be used in any manner that
 competes with the business of Gaussian, Inc. or will provide
 assistance to any competitor of Gaussian, Inc.  The licensee
 of this program is prohibited from giving any competitor of
 Gaussian, Inc. access to this program.  By using this program,
 the user acknowledges that Gaussian, Inc. is engaged in the
 business of creating and licensing software in the field of
 computational chemistry and represents and warrants to the
 licensee that it is not a competitor of Gaussian, Inc. and that
 it will not use this program in any manner prohibited above.
 ---------------------------------------------------------------
  

 Cite this work as:
 Gaussian 16, Revision C.01,
 M. J. Frisch, G. W. Trucks, H. B. Schlegel, G. E. Scuseria, 
 M. A. Robb, J. R. Cheeseman, G. Scalmani, V. Barone, 
 G. A. Petersson, H. Nakatsuji, X. Li, M. Caricato, A. V. Marenich, 
 J. Bloino, B. G. Janesko, R. Gomperts, B. Mennucci, H. P. Hratchian, 
 J. V. Ortiz, A. F. Izmaylov, J. L. Sonnenberg, D. Williams-Young, 
 F. Ding, F. Lipparini, F. Egidi, J. Goings, B. Peng, A. Petrone, 
 T. Henderson, D. Ranasinghe, V. G. Zakrzewski, J. Gao, N. Rega, 
 G. Zheng, W. Liang, M. Hada, M. Ehara, K. Toyota, R. Fukuda, 
 J. Hasegawa, M. Ishida, T. Nakajima, Y. Honda, O. Kitao, H. Nakai, 
 T. Vreven, K. Throssell, J. A. Montgomery, Jr., J. E. Peralta, 
 F. Ogliaro, M. J. Bearpark, J. J. Heyd, E. N. Brothers, K. N. Kudin, 
 V. N. Staroverov, T. A. Keith, R. Kobayashi, J. Normand, 
 K. Raghavachari, A. P. Rendell, J. C. Burant, S. S. Iyengar, 
 J. Tomasi, M. Cossi, J. M. Millam, M. Klene, C. Adamo, R. Cammi, 
 J. W. Ochterski, R. L. Martin, K. Morokuma, O. Farkas, 
 J. B. Foresman, and D. J. Fox, Gaussian, Inc., Wallingford CT, 2019.
 
 ******************************************
 Gaussian 16:  ES64L-G16RevC.01  3-Jul-2019
                23-Feb-2021 
 ******************************************
 %chk=OIPILFWXSMYKGL-UHFFFAOYSA-N.chk
 %NProcShared=32
 Will use up to   32 processors via shared memory.
 -------------------------------------------------------------
 #P BP86/TZVP EmpiricalDispersion=GD3 SCRF=(Solvent=Water) Opt
 -------------------------------------------------------------
 1/18=20,19=15,26=3,38=1/1,3;
 2/9=110,12=2,17=6,18=5,40=1/2;
 3/5=19,7=101,11=2,25=1,30=1,70=2201,71=1,72=1,74=404,124=31/1,2,3;
 4//1;
 5/5=2,38=5,53=1/2;
 6/7=2,8=2,9=2,10=2,28=1/1;
 7//1,2,3,16;
 1/18=20,19=15,26=3/3(2);
 2/9=110/2;
 99//99;
 2/9=110/2;
 3/5=19,7=101,11=2,25=1,30=1,70=2205,71=1,72=1,74=404,124=31/1,2,3;
 4/5=5,16=3,69=1/1;
 5/5=2,38=5,53=1/2;
 7//1,2,3,16;
 1/18=20,19=15,26=3/3(-5);
 2/9=110/2;
 6/7=2,8=2,9=2,10=2,19=2,28=1/1;
 99/9=1/99;
 Leave Link    1 at Tue Feb 23 00:11:10 2021, MaxMem=           0 cpu:              23.5 elap:               1.0
 (Enter /sw/arch/RedHatEnterpriseServer7/EB_production/2019/software/Gaussian/g16.c01/l101.exe)
 -------------------------------------
 Particle #OIPILFWXSMYKGL-UHFFFAOYSA-N
 -------------------------------------
 Symbolic Z-matrix:
 Charge =  1 Multiplicity = 1
 C                     2.71321   1.05914   0.51954 
 C                     1.50023   0.52328   1.14903 
 O                     0.95233   1.14019   2.09147 
 O                     1.00961  -0.6648    0.69303 
 C                    -0.14133  -1.37748   1.16624 
 C                    -1.48482  -0.68169   0.78803 
 N                    -2.78553  -1.32985   1.24742 
 C                    -3.94907  -0.526     0.70564 
 C                    -2.8826   -1.33339   2.7545 
 C                    -2.91251  -2.74251   0.72517 
 H                     3.54169   0.36447   0.66879 
 H                     2.54333   1.18435  -0.55075 
 H                     2.98491   2.02586   0.94656 
 H                    -0.10045  -2.36105   0.69633 
 H                    -0.04668  -1.51111   2.24561 
 H                    -1.44268   0.34421   1.16601 
 H                    -1.48436  -0.60003  -0.30362 
 H                    -4.91103  -0.94369   1.01903 
 H                    -3.91816   0.51004   1.05386 
 H                    -3.94788  -0.50323  -0.3879 
 H                    -2.10911  -1.95319   3.21023 
 H                    -3.84333  -1.72943   3.09488 
 H                    -2.77992  -0.32269   3.15981 
 H                    -2.14376  -3.39983   1.13764 
 H                    -2.82578  -2.77251  -0.36589 
 H                    -3.87706  -3.18548   0.99177 
 
 ITRead=  0  0  0  0  0  0  0  0  0  0  0  0  0  0  0  0  0  0  0  0
 ITRead=  0  0  0  0  0  0
 MicOpt= -1 -1 -1 -1 -1 -1 -1 -1 -1 -1 -1 -1 -1 -1 -1 -1 -1 -1 -1 -1
 MicOpt= -1 -1 -1 -1 -1 -1
 NAtoms=     26 NQM=       26 NQMF=       0 NMMI=      0 NMMIF=      0
                NMic=       0 NMicF=      0.
                    Isotopes and Nuclear Properties:
 (Nuclear quadrupole moments (NQMom) in fm**2, nuclear magnetic moments (NMagM)
  in nuclear magnetons)

  Atom         1           2           3           4           5           6           7           8           9          10
 IAtWgt=          12          12          16          16          12          12          14          12          12          12
 AtmWgt=  12.0000000  12.0000000  15.9949146  15.9949146  12.0000000  12.0000000  14.0030740  12.0000000  12.0000000  12.0000000
 NucSpn=           0           0           0           0           0           0           2           0           0           0
 AtZEff=  -0.0000000  -0.0000000  -0.0000000  -0.0000000  -0.0000000  -0.0000000  -0.0000000  -0.0000000  -0.0000000  -0.0000000
 NQMom=    0.0000000   0.0000000   0.0000000   0.0000000   0.0000000   0.0000000   2.0440000   0.0000000   0.0000000   0.0000000
 NMagM=    0.0000000   0.0000000   0.0000000   0.0000000   0.0000000   0.0000000   0.4037610   0.0000000   0.0000000   0.0000000
 AtZNuc=   6.0000000   6.0000000   8.0000000   8.0000000   6.0000000   6.0000000   7.0000000   6.0000000   6.0000000   6.0000000

  Atom        11          12          13          14          15          16          17          18          19          20
 IAtWgt=           1           1           1           1           1           1           1           1           1           1
 AtmWgt=   1.0078250   1.0078250   1.0078250   1.0078250   1.0078250   1.0078250   1.0078250   1.0078250   1.0078250   1.0078250
 NucSpn=           1           1           1           1           1           1           1           1           1           1
 AtZEff=  -0.0000000  -0.0000000  -0.0000000  -0.0000000  -0.0000000  -0.0000000  -0.0000000  -0.0000000  -0.0000000  -0.0000000
 NQMom=    0.0000000   0.0000000   0.0000000   0.0000000   0.0000000   0.0000000   0.0000000   0.0000000   0.0000000   0.0000000
 NMagM=    2.7928460   2.7928460   2.7928460   2.7928460   2.7928460   2.7928460   2.7928460   2.7928460   2.7928460   2.7928460
 AtZNuc=   1.0000000   1.0000000   1.0000000   1.0000000   1.0000000   1.0000000   1.0000000   1.0000000   1.0000000   1.0000000

  Atom        21          22          23          24          25          26
 IAtWgt=           1           1           1           1           1           1
 AtmWgt=   1.0078250   1.0078250   1.0078250   1.0078250   1.0078250   1.0078250
 NucSpn=           1           1           1           1           1           1
 AtZEff=  -0.0000000  -0.0000000  -0.0000000  -0.0000000  -0.0000000  -0.0000000
 NQMom=    0.0000000   0.0000000   0.0000000   0.0000000   0.0000000   0.0000000
 NMagM=    2.7928460   2.7928460   2.7928460   2.7928460   2.7928460   2.7928460
 AtZNuc=   1.0000000   1.0000000   1.0000000   1.0000000   1.0000000   1.0000000
 Leave Link  101 at Tue Feb 23 00:11:10 2021, MaxMem=   104857600 cpu:               3.0 elap:               0.1
 (Enter /sw/arch/RedHatEnterpriseServer7/EB_production/2019/software/Gaussian/g16.c01/l103.exe)

 GradGradGradGradGradGradGradGradGradGradGradGradGradGradGradGradGradGrad
 Berny optimization.
 Initialization pass.
                           ----------------------------
                           !    Initial Parameters    !
                           ! (Angstroms and Degrees)  !
 --------------------------                            --------------------------
 ! Name  Definition              Value          Derivative Info.                !
 --------------------------------------------------------------------------------
 ! R1    R(1,2)                  1.4679         estimate D2E/DX2                !
 ! R2    R(1,11)                 1.0914         estimate D2E/DX2                !
 ! R3    R(1,12)                 1.0909         estimate D2E/DX2                !
 ! R4    R(1,13)                 1.0912         estimate D2E/DX2                !
 ! R5    R(2,3)                  1.2526         estimate D2E/DX2                !
 ! R6    R(2,4)                  1.3639         estimate D2E/DX2                !
 ! R7    R(4,5)                  1.4341         estimate D2E/DX2                !
 ! R8    R(5,6)                  1.5595         estimate D2E/DX2                !
 ! R9    R(5,14)                 1.0908         estimate D2E/DX2                !
 ! R10   R(5,15)                 1.0917         estimate D2E/DX2                !
 ! R11   R(6,7)                  1.5241         estimate D2E/DX2                !
 ! R12   R(6,16)                 1.0941         estimate D2E/DX2                !
 ! R13   R(6,17)                 1.0947         estimate D2E/DX2                !
 ! R14   R(7,8)                  1.5144         estimate D2E/DX2                !
 ! R15   R(7,9)                  1.5102         estimate D2E/DX2                !
 ! R16   R(7,10)                 1.5114         estimate D2E/DX2                !
 ! R17   R(8,18)                 1.0946         estimate D2E/DX2                !
 ! R18   R(8,19)                 1.0934         estimate D2E/DX2                !
 ! R19   R(8,20)                 1.0938         estimate D2E/DX2                !
 ! R20   R(9,21)                 1.0909         estimate D2E/DX2                !
 ! R21   R(9,22)                 1.0935         estimate D2E/DX2                !
 ! R22   R(9,23)                 1.0938         estimate D2E/DX2                !
 ! R23   R(10,24)                1.0923         estimate D2E/DX2                !
 ! R24   R(10,25)                1.0949         estimate D2E/DX2                !
 ! R25   R(10,26)                1.0944         estimate D2E/DX2                !
 ! A1    A(2,1,11)             109.6495         estimate D2E/DX2                !
 ! A2    A(2,1,12)             109.509          estimate D2E/DX2                !
 ! A3    A(2,1,13)             111.1827         estimate D2E/DX2                !
 ! A4    A(11,1,12)            108.9913         estimate D2E/DX2                !
 ! A5    A(11,1,13)            108.7447         estimate D2E/DX2                !
 ! A6    A(12,1,13)            108.7252         estimate D2E/DX2                !
 ! A7    A(1,2,3)              120.2861         estimate D2E/DX2                !
 ! A8    A(1,2,4)              118.1559         estimate D2E/DX2                !
 ! A9    A(3,2,4)              121.5494         estimate D2E/DX2                !
 ! A10   A(2,4,5)              127.6829         estimate D2E/DX2                !
 ! A11   A(4,5,6)              112.9326         estimate D2E/DX2                !
 ! A12   A(4,5,14)             106.0143         estimate D2E/DX2                !
 ! A13   A(4,5,15)             108.5116         estimate D2E/DX2                !
 ! A14   A(6,5,14)             109.2748         estimate D2E/DX2                !
 ! A15   A(6,5,15)             111.6583         estimate D2E/DX2                !
 ! A16   A(14,5,15)            108.1975         estimate D2E/DX2                !
 ! A17   A(5,6,7)              118.1874         estimate D2E/DX2                !
 ! A18   A(5,6,16)             107.5401         estimate D2E/DX2                !
 ! A19   A(5,6,17)             105.9477         estimate D2E/DX2                !
 ! A20   A(7,6,16)             109.1164         estimate D2E/DX2                !
 ! A21   A(7,6,17)             109.4298         estimate D2E/DX2                !
 ! A22   A(16,6,17)            105.9346         estimate D2E/DX2                !
 ! A23   A(6,7,8)              108.791          estimate D2E/DX2                !
 ! A24   A(6,7,9)              110.8937         estimate D2E/DX2                !
 ! A25   A(6,7,10)             111.4087         estimate D2E/DX2                !
 ! A26   A(8,7,9)              107.9907         estimate D2E/DX2                !
 ! A27   A(8,7,10)             107.9352         estimate D2E/DX2                !
 ! A28   A(9,7,10)             109.7078         estimate D2E/DX2                !
 ! A29   A(7,8,18)             111.7307         estimate D2E/DX2                !
 ! A30   A(7,8,19)             111.5482         estimate D2E/DX2                !
 ! A31   A(7,8,20)             111.5849         estimate D2E/DX2                !
 ! A32   A(18,8,19)            107.172          estimate D2E/DX2                !
 ! A33   A(18,8,20)            107.1669         estimate D2E/DX2                !
 ! A34   A(19,8,20)            107.376          estimate D2E/DX2                !
 ! A35   A(7,9,21)             111.8784         estimate D2E/DX2                !
 ! A36   A(7,9,22)             111.5897         estimate D2E/DX2                !
 ! A37   A(7,9,23)             111.1982         estimate D2E/DX2                !
 ! A38   A(21,9,22)            106.6865         estimate D2E/DX2                !
 ! A39   A(21,9,23)            107.6757         estimate D2E/DX2                !
 ! A40   A(22,9,23)            107.5661         estimate D2E/DX2                !
 ! A41   A(7,10,24)            111.8903         estimate D2E/DX2                !
 ! A42   A(7,10,25)            111.301          estimate D2E/DX2                !
 ! A43   A(7,10,26)            111.6038         estimate D2E/DX2                !
 ! A44   A(24,10,25)           107.7006         estimate D2E/DX2                !
 ! A45   A(24,10,26)           106.5422         estimate D2E/DX2                !
 ! A46   A(25,10,26)           107.5463         estimate D2E/DX2                !
 ! D1    D(11,1,2,3)           117.3033         estimate D2E/DX2                !
 ! D2    D(11,1,2,4)           -61.6463         estimate D2E/DX2                !
 ! D3    D(12,1,2,3)          -123.1524         estimate D2E/DX2                !
 ! D4    D(12,1,2,4)            57.898          estimate D2E/DX2                !
 ! D5    D(13,1,2,3)            -2.9828         estimate D2E/DX2                !
 ! D6    D(13,1,2,4)           178.0676         estimate D2E/DX2                !
 ! D7    D(1,2,4,5)            179.1465         estimate D2E/DX2                !
 ! D8    D(3,2,4,5)              0.2109         estimate D2E/DX2                !
 ! D9    D(2,4,5,6)             71.119          estimate D2E/DX2                !
 ! D10   D(2,4,5,14)          -169.2553         estimate D2E/DX2                !
 ! D11   D(2,4,5,15)           -53.2325         estimate D2E/DX2                !
 ! D12   D(4,5,6,7)           -179.2574         estimate D2E/DX2                !
 ! D13   D(4,5,6,16)           -55.2671         estimate D2E/DX2                !
 ! D14   D(4,5,6,17)            57.6731         estimate D2E/DX2                !
 ! D15   D(14,5,6,7)            63.0133         estimate D2E/DX2                !
 ! D16   D(14,5,6,16)         -172.9964         estimate D2E/DX2                !
 ! D17   D(14,5,6,17)          -60.0563         estimate D2E/DX2                !
 ! D18   D(15,5,6,7)           -56.6458         estimate D2E/DX2                !
 ! D19   D(15,5,6,16)           67.3445         estimate D2E/DX2                !
 ! D20   D(15,5,6,17)         -179.7153         estimate D2E/DX2                !
 ! D21   D(5,6,7,8)           -176.9998         estimate D2E/DX2                !
 ! D22   D(5,6,7,9)             64.3733         estimate D2E/DX2                !
 ! D23   D(5,6,7,10)           -58.1321         estimate D2E/DX2                !
 ! D24   D(16,6,7,8)            59.7959         estimate D2E/DX2                !
 ! D25   D(16,6,7,9)           -58.8309         estimate D2E/DX2                !
 ! D26   D(16,6,7,10)          178.6637         estimate D2E/DX2                !
 ! D27   D(17,6,7,8)           -55.6951         estimate D2E/DX2                !
 ! D28   D(17,6,7,9)          -174.3219         estimate D2E/DX2                !
 ! D29   D(17,6,7,10)           63.1727         estimate D2E/DX2                !
 ! D30   D(6,7,8,18)          -179.2527         estimate D2E/DX2                !
 ! D31   D(6,7,8,19)           -59.3124         estimate D2E/DX2                !
 ! D32   D(6,7,8,20)            60.7882         estimate D2E/DX2                !
 ! D33   D(9,7,8,18)           -58.8167         estimate D2E/DX2                !
 ! D34   D(9,7,8,19)            61.1236         estimate D2E/DX2                !
 ! D35   D(9,7,8,20)          -178.7758         estimate D2E/DX2                !
 ! D36   D(10,7,8,18)           59.7236         estimate D2E/DX2                !
 ! D37   D(10,7,8,19)          179.6639         estimate D2E/DX2                !
 ! D38   D(10,7,8,20)          -60.2355         estimate D2E/DX2                !
 ! D39   D(6,7,9,21)           -64.7032         estimate D2E/DX2                !
 ! D40   D(6,7,9,22)           175.8463         estimate D2E/DX2                !
 ! D41   D(6,7,9,23)            55.7398         estimate D2E/DX2                !
 ! D42   D(8,7,9,21)           176.1873         estimate D2E/DX2                !
 ! D43   D(8,7,9,22)            56.7368         estimate D2E/DX2                !
 ! D44   D(8,7,9,23)           -63.3697         estimate D2E/DX2                !
 ! D45   D(10,7,9,21)           58.7847         estimate D2E/DX2                !
 ! D46   D(10,7,9,22)          -60.6658         estimate D2E/DX2                !
 ! D47   D(10,7,9,23)          179.2277         estimate D2E/DX2                !
 ! D48   D(6,7,10,24)           64.862          estimate D2E/DX2                !
 ! D49   D(6,7,10,25)          -55.6924         estimate D2E/DX2                !
 ! D50   D(6,7,10,26)         -175.8536         estimate D2E/DX2                !
 ! D51   D(8,7,10,24)         -175.7603         estimate D2E/DX2                !
 ! D52   D(8,7,10,25)           63.6852         estimate D2E/DX2                !
 ! D53   D(8,7,10,26)          -56.4759         estimate D2E/DX2                !
 ! D54   D(9,7,10,24)          -58.3229         estimate D2E/DX2                !
 ! D55   D(9,7,10,25)         -178.8774         estimate D2E/DX2                !
 ! D56   D(9,7,10,26)           60.9614         estimate D2E/DX2                !
 --------------------------------------------------------------------------------
 Trust Radius=3.00D-01 FncErr=1.00D-07 GrdErr=1.00D-06 EigMax=2.50D+02 EigMin=1.00D-04
 Number of steps in this run=    137 maximum allowed number of steps=    156.
 GradGradGradGradGradGradGradGradGradGradGradGradGradGradGradGradGradGrad

 Leave Link  103 at Tue Feb 23 00:11:10 2021, MaxMem=   104857600 cpu:               0.4 elap:               0.0
 (Enter /sw/arch/RedHatEnterpriseServer7/EB_production/2019/software/Gaussian/g16.c01/l202.exe)
                          Input orientation:                          
 ---------------------------------------------------------------------
 Center     Atomic      Atomic             Coordinates (Angstroms)
 Number     Number       Type             X           Y           Z
 ---------------------------------------------------------------------
      1          6           0        2.713210    1.059140    0.519540
      2          6           0        1.500230    0.523280    1.149030
      3          8           0        0.952330    1.140190    2.091470
      4          8           0        1.009610   -0.664800    0.693030
      5          6           0       -0.141330   -1.377480    1.166240
      6          6           0       -1.484820   -0.681690    0.788030
      7          7           0       -2.785530   -1.329850    1.247420
      8          6           0       -3.949070   -0.526000    0.705640
      9          6           0       -2.882600   -1.333390    2.754500
     10          6           0       -2.912510   -2.742510    0.725170
     11          1           0        3.541690    0.364470    0.668790
     12          1           0        2.543330    1.184350   -0.550750
     13          1           0        2.984910    2.025860    0.946560
     14          1           0       -0.100450   -2.361050    0.696330
     15          1           0       -0.046680   -1.511110    2.245610
     16          1           0       -1.442680    0.344210    1.166010
     17          1           0       -1.484360   -0.600030   -0.303620
     18          1           0       -4.911030   -0.943690    1.019030
     19          1           0       -3.918160    0.510040    1.053860
     20          1           0       -3.947880   -0.503230   -0.387900
     21          1           0       -2.109110   -1.953190    3.210230
     22          1           0       -3.843330   -1.729430    3.094880
     23          1           0       -2.779920   -0.322690    3.159810
     24          1           0       -2.143760   -3.399830    1.137640
     25          1           0       -2.825780   -2.772510   -0.365890
     26          1           0       -3.877060   -3.185480    0.991770
 ---------------------------------------------------------------------
                    Distance matrix (angstroms):
                    1          2          3          4          5
     1  C    0.000000
     2  C    1.467898   0.000000
     3  O    2.361828   1.252584   0.000000
     4  O    2.429881   1.363883   2.284054   0.000000
     5  C    3.808377   2.511554   2.896689   1.434051   0.000000
     6  C    4.552585   3.239259   3.310272   2.496296   1.559529
     7  N    6.039307   4.670279   4.559070   3.892650   2.645875
     8  C    6.850787   5.567087   5.359145   4.960638   3.928874
     9  C    6.483235   5.023341   4.611388   4.454882   3.168450
    10  C    6.792905   5.506116   5.646160   4.438574   3.120463
    11  H    1.091431   2.103190   3.054594   2.733389   4.104447
    12  H    1.090898   2.101029   3.084568   2.705299   4.088817
    13  H    1.091199   2.122031   2.495318   3.347497   4.626485
    14  H    4.432340   3.329636   3.913239   2.027192   1.090824
    15  H    4.147589   2.781036   2.837459   2.059731   1.091721
    16  H    4.266201   2.948402   2.688147   2.693610   2.158177
    17  H    4.588031   3.504254   3.834355   2.686521   2.137439
    18  H    7.898725   6.578233   6.314402   5.936163   4.791647
    19  H    6.675483   5.419242   5.019502   5.078717   4.223719
    20  H    6.901780   5.753067   5.732378   5.076536   4.203509
    21  H    6.290367   4.838263   4.493667   4.209829   2.895081
    22  H    7.576062   6.116753   5.678019   5.518455   4.189072
    23  H    6.249397   4.804018   4.148621   4.534598   3.471176
    24  H    6.622282   5.354399   5.577396   4.197834   2.846128
    25  H    6.793080   5.645492   5.968413   4.502662   3.391136
    26  H    7.853118   6.534132   6.575999   5.506598   4.153912
                    6          7          8          9         10
     6  C    0.000000
     7  N    1.524138   0.000000
     8  C    2.470538   1.514439   0.000000
     9  C    2.499101   1.510207   2.446848   0.000000
    10  C    2.507834   1.511449   2.446989   2.470768   0.000000
    11  H    5.135608   6.575656   7.543592   6.964511   7.163323
    12  H    4.636856   6.160468   6.830452   6.834062   6.842104
    13  H    5.228235   6.682012   7.392571   6.998634   7.587221
    14  H    2.178334   2.928605   4.263727   3.610056   2.837961
    15  H    2.209236   2.920708   4.309362   2.886693   3.470024
    16  H    1.094128   2.147638   2.692805   2.722317   3.447112
    17  H    1.094700   2.152070   2.664373   3.441655   2.772768
    18  H    3.443969   2.172333   1.094553   2.697823   2.704846
    19  H    2.722504   2.169219   1.093431   2.713447   3.420300
    20  H    2.735201   2.169938   1.093778   3.420331   2.706527
    21  H    2.805976   2.167653   3.419838   1.090930   2.728370
    22  H    3.461486   2.166036   2.677292   1.093485   2.740125
    23  H    2.726079   2.161397   2.726022   1.093770   3.435197
    24  H    2.818637   2.169963   3.421208   2.725857   1.092327
    25  H    2.738838   2.164638   2.730708   3.436732   1.094913
    26  H    3.468903   2.167985   2.675797   2.743429   1.094374
                   11         12         13         14         15
    11  H    0.000000
    12  H    1.776571   0.000000
    13  H    1.774085   1.773434   0.000000
    14  H    4.549110   4.595067   5.369082   0.000000
    15  H    4.345177   4.668328   4.836137   1.767925   0.000000
    16  H    5.009150   4.420563   4.741272   3.056242   2.560579
    17  H    5.209320   4.412184   5.332225   2.452814   3.065218
    18  H    8.560516   7.909504   8.436193   5.025408   5.048600
    19  H    7.471200   6.691810   7.068352   4.790187   4.526994
    20  H    7.613354   6.708968   7.499377   4.407921   4.813581
    21  H    6.615286   6.755318   6.848801   3.243572   2.319384
    22  H    8.050394   7.910130   8.083461   4.490115   3.896598
    23  H    6.829357   6.661563   6.606620   4.171715   3.117484
    24  H    6.834773   6.770095   7.468459   2.334295   3.031931
    25  H    7.173275   6.672200   7.649248   2.953817   4.016772
    26  H    8.230693   7.918093   8.616655   3.876823   4.364337
                   16         17         18         19         20
    16  H    0.000000
    17  H    1.747323   0.000000
    18  H    3.702667   3.689115   0.000000
    19  H    2.483562   2.999732   1.760777   0.000000
    20  H    3.067380   2.466861   1.760998   1.762462   0.000000
    21  H    3.146587   3.816870   3.697459   3.740334   4.293017
    22  H    3.712633   4.288366   2.463031   3.030938   3.693813
    23  H    2.491627   3.708199   3.083863   2.534572   3.739381
    24  H    3.809220   3.217284   3.701956   4.294485   3.737969
    25  H    3.738131   2.554008   3.100138   3.739535   2.531645
    26  H    4.291302   3.753345   2.468898   3.696270   3.017113
                   21         22         23         24         25
    21  H    0.000000
    22  H    1.752396   0.000000
    23  H    1.763819   1.764646   0.000000
    24  H    2.527765   3.083758   3.736665   0.000000
    25  H    3.738119   3.755044   4.293516   1.766150   0.000000
    26  H    3.092855   2.558181   3.754954   1.752585   1.766062
                   26
    26  H    0.000000
 Stoichiometry    C7H16NO2(1+)
 Framework group  C1[X(C7H16NO2)]
 Deg. of freedom    72
 Full point group                 C1      NOp   1
 Largest Abelian subgroup         C1      NOp   1
 Largest concise Abelian subgroup C1      NOp   1
                         Standard orientation:                         
 ---------------------------------------------------------------------
 Center     Atomic      Atomic             Coordinates (Angstroms)
 Number     Number       Type             X           Y           Z
 ---------------------------------------------------------------------
      1          6           0        3.992989    0.131217    0.465312
      2          6           0        2.637462   -0.154927   -0.019860
      3          8           0        2.330594   -1.310939   -0.391929
      4          8           0        1.742142    0.872643   -0.071622
      5          6           0        0.381726    0.828108   -0.523048
      6          6           0       -0.559072    0.062595    0.457269
      7          7           0       -2.030904   -0.071986    0.084984
      8          6           0       -2.755890   -0.780438    1.210158
      9          6           0       -2.196011   -0.897355   -1.168903
     10          6           0       -2.677497    1.280703   -0.106393
     11          1           0        4.472787    0.857480   -0.193139
     12          1           0        3.939293    0.546474    1.472653
     13          1           0        4.601672   -0.774062    0.491577
     14          1           0        0.055481    1.866280   -0.598280
     15          1           0        0.362598    0.391376   -1.523426
     16          1           0       -0.135408   -0.934591    0.609733
     17          1           0       -0.472477    0.576343    1.420042
     18          1           0       -3.818835   -0.914705    0.986182
     19          1           0       -2.337072   -1.773351    1.395376
     20          1           0       -2.691704   -0.218961    2.146626
     21          1           0       -1.752404   -0.409552   -2.038035
     22          1           0       -3.250644   -1.062629   -1.405847
     23          1           0       -1.724106   -1.878248   -1.061720
     24          1           0       -2.250864    1.819573   -0.955382
     25          1           0       -2.555674    1.909047    0.781964
     26          1           0       -3.750451    1.190373   -0.302006
 ---------------------------------------------------------------------
 Rotational constants (GHZ):           2.8356329           0.5587304           0.5351320
 Leave Link  202 at Tue Feb 23 00:11:11 2021, MaxMem=   104857600 cpu:               1.0 elap:               0.1
 (Enter /sw/arch/RedHatEnterpriseServer7/EB_production/2019/software/Gaussian/g16.c01/l301.exe)
 Standard basis: TZVP (5D, 7F)
 Ernie: Thresh=  0.10000D-02 Tol=  0.10000D-05 Strict=F.
 There are   296 symmetry adapted cartesian basis functions of A   symmetry.
 There are   286 symmetry adapted basis functions of A   symmetry.
   286 basis functions,   478 primitive gaussians,   296 cartesian basis functions
    40 alpha electrons       40 beta electrons
       nuclear repulsion energy       578.1172671970 Hartrees.
 IExCor=  404 DFT=T Ex=B Corr=P86 ExCW=0 ScaHFX=  0.000000
 ScaDFX=  1.000000  1.000000  1.000000  1.000000 ScalE2=  1.000000  1.000000
 IRadAn=      5 IRanWt=     -1 IRanGd=            0 ICorTp=0 IEmpDi=131
 NAtoms=   26 NActive=   26 NUniq=   26 SFac= 1.00D+00 NAtFMM=   60 NAOKFM=F Big=F
 Integral buffers will be    131072 words long.
 Raffenetti 2 integral format.
 Two-electron integral symmetry is turned on.
 R6Disp:  Grimme-D3 Dispersion energy=       -0.0269118577 Hartrees.
 Nuclear repulsion after empirical dispersion term =      578.0903553393 Hartrees.
 ------------------------------------------------------------------------------
 Polarizable Continuum Model (PCM)
 =================================
 Model                : PCM.
 Atomic radii         : UFF (Universal Force Field).
 Polarization charges : Total charges.
 Charge compensation  : None.
 Solution method      : On-the-fly selection.
 Cavity type          : Scaled VdW (van der Waals Surface) (Alpha=1.100).
 Cavity algorithm     : GePol (No added spheres)
                        Default sphere list used, NSphG=   26.
                        Lebedev-Laikov grids with approx.  5.0 points / Ang**2.
                        Smoothing algorithm: York/Karplus (Gamma=1.0000).
                        Polarization charges: spherical gaussians, with
                                              point-specific exponents (IZeta= 3).
                        Self-potential: point-specific (ISelfS= 7).
                        Self-field    : sphere-specific E.n sum rule (ISelfD= 2).
 1st derivatives      : Analytical E(r).r(x)/FMM algorithm (CHGder, D1EAlg=3).
                        Cavity 1st derivative terms included.
 Solvent              : Water, Eps=  78.355300 Eps(inf)=   1.777849
 ------------------------------------------------------------------------------
 GePol: Number of generator spheres                  =      26
 GePol: Total number of spheres                      =      26
 GePol: Number of exposed spheres                    =      26 (100.00%)
 GePol: Number of points                             =    1813
 GePol: Average weight of points                     =       0.13
 GePol: Minimum weight of points                     =   0.17D-11
 GePol: Maximum weight of points                     =    0.20577
 GePol: Number of points with low weight             =     115
 GePol: Fraction of low-weight points (<1% of avg)   =       6.34%
 GePol: Cavity surface area                          =    243.674 Ang**2
 GePol: Cavity volume                                =    246.003 Ang**3
 Leave Link  301 at Tue Feb 23 00:11:11 2021, MaxMem=   104857600 cpu:               1.7 elap:               0.1
 (Enter /sw/arch/RedHatEnterpriseServer7/EB_production/2019/software/Gaussian/g16.c01/l302.exe)
 NPDir=0 NMtPBC=     1 NCelOv=     1 NCel=       1 NClECP=     1 NCelD=      1
         NCelK=      1 NCelE2=     1 NClLst=     1 CellRange=     0.0.
 One-electron integrals computed using PRISM.
 One-electron integral symmetry used in STVInt
 PrsmSu:  requested number of processors reduced to:  28 ShMem   1 Linda.
 NBasis=   286 RedAO= T EigKep=  2.40D-04  NBF=   286
 NBsUse=   286 1.00D-06 EigRej= -1.00D+00 NBFU=   286
 Precomputing XC quadrature grid using
 IXCGrd= 4 IRadAn=           5 IRanWt=          -1 IRanGd=           0 AccXCQ= 0.00D+00.
 Generated NRdTot=       0 NPtTot=           0 NUsed=           0 NTot=          32
 NSgBfM=   294   294   294   294   294 MxSgAt=    26 MxSgA2=    26.
 Leave Link  302 at Tue Feb 23 00:11:11 2021, MaxMem=   104857600 cpu:               7.9 elap:               0.3
 (Enter /sw/arch/RedHatEnterpriseServer7/EB_production/2019/software/Gaussian/g16.c01/l303.exe)
 DipDrv:  MaxL=1.
 Leave Link  303 at Tue Feb 23 00:11:11 2021, MaxMem=   104857600 cpu:               2.5 elap:               0.1
 (Enter /sw/arch/RedHatEnterpriseServer7/EB_production/2019/software/Gaussian/g16.c01/l401.exe)
 ExpMin= 9.52D-02 ExpMax= 2.70D+04 ExpMxC= 9.22D+02 IAcc=3 IRadAn=         5 AccDes= 0.00D+00
 Harris functional with IExCor=  404 and IRadAn=       5 diagonalized for initial guess.
 HarFok:  IExCor=  404 AccDes= 0.00D+00 IRadAn=         5 IDoV= 1 UseB2=F ITyADJ=14
 ICtDFT=  3500011 ScaDFX=  1.000000  1.000000  1.000000  1.000000
 FoFCou: FMM=F IPFlag=           0 FMFlag=      100000 FMFlg1=           0
         NFxFlg=           0 DoJE=T BraDBF=F KetDBF=T FulRan=T
         wScrn=  0.000000 ICntrl=       500 IOpCl=  0 I1Cent=   200000004 NGrid=           0
         NMat0=    1 NMatS0=      1 NMatT0=    0 NMatD0=    1 NMtDS0=    0 NMtDT0=    0
 Petite list used in FoFCou.
 Harris En= -481.744558638019    
 JPrj=0 DoOrth=F DoCkMO=F.
 Leave Link  401 at Tue Feb 23 00:11:12 2021, MaxMem=   104857600 cpu:              15.4 elap:               0.5
 (Enter /sw/arch/RedHatEnterpriseServer7/EB_production/2019/software/Gaussian/g16.c01/l502.exe)
 Integral symmetry usage will be decided dynamically.
 Closed shell SCF:
 Using DIIS extrapolation, IDIIS=  1040.
 NGot=   104857600 LenX=   104669110 LenY=   104581053
 Requested convergence on RMS density matrix=1.00D-08 within 128 cycles.
 Requested convergence on MAX density matrix=1.00D-06.
 Requested convergence on             energy=1.00D-06.
 No special actions if energy rises.
 Fock matrices will be formed incrementally for  20 cycles.

 Cycle   1  Pass 1  IDiag  1:
 FoFJK:  IHMeth= 1 ICntrl=     500 DoSepK=F KAlg= 0 I1Cent=           0 FoldK=F
 IRaf= 890000000 NMat=       1 IRICut=       1 DoRegI=T DoRafI=F ISym2E= 0 IDoP0=0 IntGTp=1.
 FoFCou: FMM=F IPFlag=           0 FMFlag=      100000 FMFlg1=           0
         NFxFlg=           0 DoJE=T BraDBF=F KetDBF=F FulRan=T
         wScrn=  0.000000 ICntrl=       500 IOpCl=  0 I1Cent=           0 NGrid=           0
         NMat0=    1 NMatS0=      1 NMatT0=    0 NMatD0=    1 NMtDS0=    0 NMtDT0=    0
 Symmetry not used in FoFCou.
 Inv3:  Mode=1 IEnd=     9860907.
 Iteration    1 A*A^-1 deviation from unit magnitude is 3.55D-15 for    732.
 Iteration    1 A*A^-1 deviation from orthogonality  is 2.18D-15 for   1588    286.
 Iteration    1 A^-1*A deviation from unit magnitude is 4.00D-15 for    732.
 Iteration    1 A^-1*A deviation from orthogonality  is 2.20D-15 for   1536    370.
 E= -481.326422736687    
 DIIS: error= 2.51D-02 at cycle   1 NSaved=   1.
 NSaved= 1 IEnMin= 1 EnMin= -481.326422736687     IErMin= 1 ErrMin= 2.51D-02
 ErrMax= 2.51D-02  0.00D+00 EMaxC= 1.00D-01 BMatC= 3.22D-01 BMatP= 3.22D-01
 IDIUse=3 WtCom= 7.49D-01 WtEn= 2.51D-01
 Coeff-Com:  0.100D+01
 Coeff-En:   0.100D+01
 Coeff:      0.100D+01
 Gap=     0.071 Goal=   None    Shift=    0.000
 GapD=    0.071 DampG=0.500 DampE=0.500 DampFc=0.2500 IDamp=-1.
 Damping current iteration by 2.50D-01
 RMSDP=4.87D-03 MaxDP=2.50D-01              OVMax= 3.71D-01

 Cycle   2  Pass 1  IDiag  1:
 RMSU=  1.22D-03    CP:  9.97D-01
 E= -481.418506458503     Delta-E=       -0.092083721816 Rises=F Damp=T
 DIIS: error= 1.16D-02 at cycle   2 NSaved=   2.
 NSaved= 2 IEnMin= 2 EnMin= -481.418506458503     IErMin= 2 ErrMin= 1.16D-02
 ErrMax= 1.16D-02  0.00D+00 EMaxC= 1.00D-01 BMatC= 4.80D-02 BMatP= 3.22D-01
 IDIUse=3 WtCom= 8.84D-01 WtEn= 1.16D-01
 Coeff-Com: -0.320D+00 0.132D+01
 Coeff-En:   0.000D+00 0.100D+01
 Coeff:     -0.283D+00 0.128D+01
 Gap=     0.231 Goal=   None    Shift=    0.000
 RMSDP=1.26D-03 MaxDP=3.47D-02 DE=-9.21D-02 OVMax= 2.75D-01

 Cycle   3  Pass 1  IDiag  1:
 RMSU=  1.24D-03    CP:  9.89D-01  7.97D-01
 E= -481.516821200912     Delta-E=       -0.098314742409 Rises=F Damp=F
 DIIS: error= 2.28D-02 at cycle   3 NSaved=   3.
 NSaved= 3 IEnMin= 3 EnMin= -481.516821200912     IErMin= 2 ErrMin= 1.16D-02
 ErrMax= 2.28D-02  0.00D+00 EMaxC= 1.00D-01 BMatC= 9.71D-02 BMatP= 4.80D-02
 IDIUse=2 WtCom= 0.00D+00 WtEn= 1.00D+00
 EnCoef did     7 forward-backward iterations
 Coeff-En:   0.178D-01 0.416D-01 0.941D+00
 Coeff:      0.178D-01 0.416D-01 0.941D+00
 Gap=     0.147 Goal=   None    Shift=    0.000
 RMSDP=3.44D-03 MaxDP=1.31D-01 DE=-9.83D-02 OVMax= 4.69D-01

 Cycle   4  Pass 1  IDiag  1:
 RMSU=  1.16D-03    CP:  1.00D+00  2.70D+00 -8.32D-01
 E= -480.917108640175     Delta-E=        0.599712560737 Rises=F Damp=F
 DIIS: error= 7.64D-02 at cycle   4 NSaved=   4.
 NSaved= 4 IEnMin= 3 EnMin= -481.516821200912     IErMin= 2 ErrMin= 1.16D-02
 ErrMax= 7.64D-02  0.00D+00 EMaxC= 1.00D-01 BMatC= 8.45D-01 BMatP= 4.80D-02
 IDIUse=2 WtCom= 0.00D+00 WtEn= 1.00D+00
 Coeff-En:   0.000D+00 0.000D+00 0.832D+00 0.168D+00
 Coeff:      0.000D+00 0.000D+00 0.832D+00 0.168D+00
 Gap=     0.177 Goal=   None    Shift=    0.000
 RMSDP=2.21D-03 MaxDP=9.97D-02 DE= 6.00D-01 OVMax= 2.55D-01

 Cycle   5  Pass 1  IDiag  1:
 RMSU=  4.18D-04    CP:  1.00D+00  1.29D+00  1.06D-01  4.55D-01
 E= -481.533752426351     Delta-E=       -0.616643786176 Rises=F Damp=F
 DIIS: error= 2.20D-02 at cycle   5 NSaved=   5.
 NSaved= 5 IEnMin= 5 EnMin= -481.533752426351     IErMin= 2 ErrMin= 1.16D-02
 ErrMax= 2.20D-02  0.00D+00 EMaxC= 1.00D-01 BMatC= 7.96D-02 BMatP= 4.80D-02
 IDIUse=2 WtCom= 0.00D+00 WtEn= 1.00D+00
 Coeff-En:   0.000D+00 0.000D+00 0.458D+00 0.000D+00 0.542D+00
 Coeff:      0.000D+00 0.000D+00 0.458D+00 0.000D+00 0.542D+00
 Gap=     0.182 Goal=   None    Shift=    0.000
 RMSDP=7.47D-04 MaxDP=3.03D-02 DE=-6.17D-01 OVMax= 1.07D-01

 Cycle   6  Pass 1  IDiag  1:
 RMSU=  1.08D-04    CP:  9.95D-01  9.94D-01  5.39D-01  1.80D-01  6.19D-01
 E= -481.595360017132     Delta-E=       -0.061607590781 Rises=F Damp=F
 DIIS: error= 3.02D-03 at cycle   6 NSaved=   6.
 NSaved= 6 IEnMin= 6 EnMin= -481.595360017132     IErMin= 6 ErrMin= 3.02D-03
 ErrMax= 3.02D-03  0.00D+00 EMaxC= 1.00D-01 BMatC= 1.44D-03 BMatP= 4.80D-02
 IDIUse=3 WtCom= 9.70D-01 WtEn= 3.02D-02
 Coeff-Com: -0.250D-01 0.436D-01 0.230D+00-0.298D-01 0.369D+00 0.412D+00
 Coeff-En:   0.000D+00 0.000D+00 0.000D+00 0.000D+00 0.000D+00 0.100D+01
 Coeff:     -0.242D-01 0.423D-01 0.223D+00-0.289D-01 0.358D+00 0.430D+00
 Gap=     0.182 Goal=   None    Shift=    0.000
 RMSDP=1.14D-04 MaxDP=5.36D-03 DE=-6.16D-02 OVMax= 1.70D-02

 Cycle   7  Pass 1  IDiag  1:
 RMSU=  5.85D-05    CP:  9.95D-01  1.03D+00  4.96D-01  2.23D-01  6.60D-01
                    CP:  6.24D-01
 E= -481.596162739246     Delta-E=       -0.000802722114 Rises=F Damp=F
 DIIS: error= 1.12D-03 at cycle   7 NSaved=   7.
 NSaved= 7 IEnMin= 7 EnMin= -481.596162739246     IErMin= 7 ErrMin= 1.12D-03
 ErrMax= 1.12D-03  0.00D+00 EMaxC= 1.00D-01 BMatC= 3.17D-04 BMatP= 1.44D-03
 IDIUse=3 WtCom= 9.89D-01 WtEn= 1.12D-02
 Coeff-Com: -0.115D-01 0.170D-01 0.844D-01-0.201D-01 0.165D+00 0.318D+00
 Coeff-Com:  0.447D+00
 Coeff-En:   0.000D+00 0.000D+00 0.000D+00 0.000D+00 0.000D+00 0.231D+00
 Coeff-En:   0.769D+00
 Coeff:     -0.114D-01 0.168D-01 0.834D-01-0.199D-01 0.163D+00 0.317D+00
 Coeff:      0.451D+00
 Gap=     0.182 Goal=   None    Shift=    0.000
 RMSDP=4.15D-05 MaxDP=1.36D-03 DE=-8.03D-04 OVMax= 3.74D-03

 Cycle   8  Pass 1  IDiag  1:
 RMSU=  1.97D-05    CP:  9.95D-01  1.03D+00  5.07D-01  2.15D-01  6.70D-01
                    CP:  6.10D-01  4.58D-01
 E= -481.596393003714     Delta-E=       -0.000230264468 Rises=F Damp=F
 DIIS: error= 3.18D-04 at cycle   8 NSaved=   8.
 NSaved= 8 IEnMin= 8 EnMin= -481.596393003714     IErMin= 8 ErrMin= 3.18D-04
 ErrMax= 3.18D-04  0.00D+00 EMaxC= 1.00D-01 BMatC= 1.63D-05 BMatP= 3.17D-04
 IDIUse=3 WtCom= 9.97D-01 WtEn= 3.18D-03
 Coeff-Com:  0.491D-02-0.870D-02 0.655D-02-0.111D-02 0.109D-01 0.108D+00
 Coeff-Com:  0.180D+00 0.699D+00
 Coeff-En:   0.000D+00 0.000D+00 0.000D+00 0.000D+00 0.000D+00 0.000D+00
 Coeff-En:   0.000D+00 0.100D+01
 Coeff:      0.489D-02-0.867D-02 0.653D-02-0.111D-02 0.109D-01 0.108D+00
 Coeff:      0.179D+00 0.700D+00
 Gap=     0.182 Goal=   None    Shift=    0.000
 RMSDP=1.24D-05 MaxDP=3.77D-04 DE=-2.30D-04 OVMax= 1.16D-03

 Cycle   9  Pass 1  IDiag  1:
 RMSU=  3.46D-06    CP:  9.95D-01  1.03D+00  5.10D-01  2.14D-01  6.62D-01
                    CP:  6.43D-01  5.02D-01  7.43D-01
 E= -481.596406387054     Delta-E=       -0.000013383340 Rises=F Damp=F
 DIIS: error= 3.61D-05 at cycle   9 NSaved=   9.
 NSaved= 9 IEnMin= 9 EnMin= -481.596406387054     IErMin= 9 ErrMin= 3.61D-05
 ErrMax= 3.61D-05  0.00D+00 EMaxC= 1.00D-01 BMatC= 3.97D-07 BMatP= 1.63D-05
 IDIUse=1 WtCom= 1.00D+00 WtEn= 0.00D+00
 Coeff-Com:  0.209D-02-0.305D-02 0.121D-02-0.186D-03 0.975D-04 0.320D-01
 Coeff-Com:  0.605D-01 0.305D+00 0.602D+00
 Coeff:      0.209D-02-0.305D-02 0.121D-02-0.186D-03 0.975D-04 0.320D-01
 Coeff:      0.605D-01 0.305D+00 0.602D+00
 Gap=     0.183 Goal=   None    Shift=    0.000
 RMSDP=1.74D-06 MaxDP=5.38D-05 DE=-1.34D-05 OVMax= 1.35D-04

 Cycle  10  Pass 1  IDiag  1:
 RMSU=  1.05D-06    CP:  9.95D-01  1.03D+00  5.10D-01  2.13D-01  6.61D-01
                    CP:  6.43D-01  5.01D-01  7.58D-01  7.57D-01
 E= -481.596406715009     Delta-E=       -0.000000327955 Rises=F Damp=F
 DIIS: error= 8.16D-06 at cycle  10 NSaved=  10.
 NSaved=10 IEnMin=10 EnMin= -481.596406715009     IErMin=10 ErrMin= 8.16D-06
 ErrMax= 8.16D-06  0.00D+00 EMaxC= 1.00D-01 BMatC= 3.10D-08 BMatP= 3.97D-07
 IDIUse=1 WtCom= 1.00D+00 WtEn= 0.00D+00
 Coeff-Com:  0.783D-03-0.103D-02 0.552D-03-0.111D-03-0.117D-03 0.104D-01
 Coeff-Com:  0.210D-01 0.115D+00 0.326D+00 0.527D+00
 Coeff:      0.783D-03-0.103D-02 0.552D-03-0.111D-03-0.117D-03 0.104D-01
 Coeff:      0.210D-01 0.115D+00 0.326D+00 0.527D+00
 Gap=     0.183 Goal=   None    Shift=    0.000
 RMSDP=5.31D-07 MaxDP=1.40D-05 DE=-3.28D-07 OVMax= 2.67D-05

 Cycle  11  Pass 1  IDiag  1:
 RMSU=  3.34D-07    CP:  9.95D-01  1.03D+00  5.10D-01  2.13D-01  6.61D-01
                    CP:  6.43D-01  5.03D-01  7.63D-01  7.58D-01  6.58D-01
 E= -481.596406735148     Delta-E=       -0.000000020139 Rises=F Damp=F
 DIIS: error= 3.31D-06 at cycle  11 NSaved=  11.
 NSaved=11 IEnMin=11 EnMin= -481.596406735148     IErMin=11 ErrMin= 3.31D-06
 ErrMax= 3.31D-06  0.00D+00 EMaxC= 1.00D-01 BMatC= 1.82D-09 BMatP= 3.10D-08
 IDIUse=1 WtCom= 1.00D+00 WtEn= 0.00D+00
 Coeff-Com:  0.150D-03-0.169D-03 0.902D-04-0.505D-05-0.167D-03 0.889D-03
 Coeff-Com:  0.216D-02 0.161D-01 0.663D-01 0.217D+00 0.698D+00
 Coeff:      0.150D-03-0.169D-03 0.902D-04-0.505D-05-0.167D-03 0.889D-03
 Coeff:      0.216D-02 0.161D-01 0.663D-01 0.217D+00 0.698D+00
 Gap=     0.183 Goal=   None    Shift=    0.000
 RMSDP=1.83D-07 MaxDP=6.65D-06 DE=-2.01D-08 OVMax= 1.18D-05

 Cycle  12  Pass 1  IDiag  1:
 RMSU=  7.34D-08    CP:  9.95D-01  1.02D+00  5.10D-01  2.13D-01  6.61D-01
                    CP:  6.43D-01  5.02D-01  7.62D-01  7.65D-01  7.02D-01
                    CP:  7.39D-01
 E= -481.596406736514     Delta-E=       -0.000000001366 Rises=F Damp=F
 DIIS: error= 5.84D-07 at cycle  12 NSaved=  12.
 NSaved=12 IEnMin=12 EnMin= -481.596406736514     IErMin=12 ErrMin= 5.84D-07
 ErrMax= 5.84D-07  0.00D+00 EMaxC= 1.00D-01 BMatC= 1.58D-10 BMatP= 1.82D-09
 IDIUse=1 WtCom= 1.00D+00 WtEn= 0.00D+00
 Coeff-Com:  0.581D-04-0.691D-04 0.339D-04 0.203D-06-0.679D-04 0.173D-03
 Coeff-Com:  0.483D-03 0.438D-02 0.228D-01 0.984D-01 0.387D+00 0.486D+00
 Coeff:      0.581D-04-0.691D-04 0.339D-04 0.203D-06-0.679D-04 0.173D-03
 Coeff:      0.483D-03 0.438D-02 0.228D-01 0.984D-01 0.387D+00 0.486D+00
 Gap=     0.183 Goal=   None    Shift=    0.000
 RMSDP=3.70D-08 MaxDP=1.02D-06 DE=-1.37D-09 OVMax= 1.82D-06

 Cycle  13  Pass 1  IDiag  1:
 RMSU=  2.36D-08    CP:  9.95D-01  1.02D+00  5.10D-01  2.13D-01  6.61D-01
                    CP:  6.43D-01  5.02D-01  7.62D-01  7.63D-01  7.00D-01
                    CP:  7.61D-01  7.17D-01
 E= -481.596406736646     Delta-E=       -0.000000000132 Rises=F Damp=F
 DIIS: error= 1.27D-07 at cycle  13 NSaved=  13.
 NSaved=13 IEnMin=13 EnMin= -481.596406736646     IErMin=13 ErrMin= 1.27D-07
 ErrMax= 1.27D-07  0.00D+00 EMaxC= 1.00D-01 BMatC= 7.30D-12 BMatP= 1.58D-10
 IDIUse=1 WtCom= 1.00D+00 WtEn= 0.00D+00
 Coeff-Com:  0.452D-05-0.346D-05 0.870D-05-0.636D-06-0.629D-05-0.629D-04
 Coeff-Com: -0.593D-04-0.113D-03 0.181D-02 0.162D-01 0.851D-01 0.200D+00
 Coeff-Com:  0.697D+00
 Coeff:      0.452D-05-0.346D-05 0.870D-05-0.636D-06-0.629D-05-0.629D-04
 Coeff:     -0.593D-04-0.113D-03 0.181D-02 0.162D-01 0.851D-01 0.200D+00
 Coeff:      0.697D+00
 Gap=     0.183 Goal=   None    Shift=    0.000
 RMSDP=8.89D-09 MaxDP=2.27D-07 DE=-1.32D-10 OVMax= 4.65D-07

 Error on total polarization charges =  0.01041
 SCF Done:  E(RB-P86) =  -481.596406737     A.U. after   13 cycles
            NFock= 13  Conv=0.89D-08     -V/T= 2.0053
 KE= 4.790733619447D+02 PE=-2.264963382882D+03 EE= 7.262032588616D+02
 Leave Link  502 at Tue Feb 23 00:11:30 2021, MaxMem=   104857600 cpu:             558.4 elap:              17.9
 (Enter /sw/arch/RedHatEnterpriseServer7/EB_production/2019/software/Gaussian/g16.c01/l601.exe)
 Copying SCF densities to generalized density rwf, IOpCl= 0 IROHF=0.

 **********************************************************************

            Population analysis using the SCF Density.

 **********************************************************************

 Orbital symmetries:
       Occupied  (A) (A) (A) (A) (A) (A) (A) (A) (A) (A) (A) (A)
                 (A) (A) (A) (A) (A) (A) (A) (A) (A) (A) (A) (A)
                 (A) (A) (A) (A) (A) (A) (A) (A) (A) (A) (A) (A)
                 (A) (A) (A) (A)
       Virtual   (A) (A) (A) (A) (A) (A) (A) (A) (A) (A) (A) (A)
                 (A) (A) (A) (A) (A) (A) (A) (A) (A) (A) (A) (A)
                 (A) (A) (A) (A) (A) (A) (A) (A) (A) (A) (A) (A)
                 (A) (A) (A) (A) (A) (A) (A) (A) (A) (A) (A) (A)
                 (A) (A) (A) (A) (A) (A) (A) (A) (A) (A) (A) (A)
                 (A) (A) (A) (A) (A) (A) (A) (A) (A) (A) (A) (A)
                 (A) (A) (A) (A) (A) (A) (A) (A) (A) (A) (A) (A)
                 (A) (A) (A) (A) (A) (A) (A) (A) (A) (A) (A) (A)
                 (A) (A) (A) (A) (A) (A) (A) (A) (A) (A) (A) (A)
                 (A) (A) (A) (A) (A) (A) (A) (A) (A) (A) (A) (A)
                 (A) (A) (A) (A) (A) (A) (A) (A) (A) (A) (A) (A)
                 (A) (A) (A) (A) (A) (A) (A) (A) (A) (A) (A) (A)
                 (A) (A) (A) (A) (A) (A) (A) (A) (A) (A) (A) (A)
                 (A) (A) (A) (A) (A) (A) (A) (A) (A) (A) (A) (A)
                 (A) (A) (A) (A) (A) (A) (A) (A) (A) (A) (A) (A)
                 (A) (A) (A) (A) (A) (A) (A) (A) (A) (A) (A) (A)
                 (A) (A) (A) (A) (A) (A) (A) (A) (A) (A) (A) (A)
                 (A) (A) (A) (A) (A) (A) (A) (A) (A) (A) (A) (A)
                 (A) (A) (A) (A) (A) (A) (A) (A) (A) (A) (A) (A)
                 (A) (A) (A) (A) (A) (A) (A) (A) (A) (A) (A) (A)
                 (A) (A) (A) (A) (A) (A)
 The electronic state is 1-A.
 Alpha  occ. eigenvalues --  -18.83955 -18.76903 -14.17089 -10.04467  -9.99156
 Alpha  occ. eigenvalues --   -9.98110  -9.96663  -9.96578  -9.96560  -9.91367
 Alpha  occ. eigenvalues --   -1.02929  -0.96311  -0.93878  -0.74928  -0.70387
 Alpha  occ. eigenvalues --   -0.70366  -0.70132  -0.65343  -0.59562  -0.53723
 Alpha  occ. eigenvalues --   -0.50979  -0.50409  -0.48938  -0.47021  -0.45016
 Alpha  occ. eigenvalues --   -0.43814  -0.42231  -0.41223  -0.39827  -0.39042
 Alpha  occ. eigenvalues --   -0.38156  -0.37896  -0.37723  -0.37537  -0.37500
 Alpha  occ. eigenvalues --   -0.36510  -0.34138  -0.31806  -0.28590  -0.24399
 Alpha virt. eigenvalues --   -0.06147  -0.02602   0.00715   0.02259   0.03291
 Alpha virt. eigenvalues --    0.03508   0.03799   0.04068   0.04375   0.05581
 Alpha virt. eigenvalues --    0.06582   0.07090   0.07990   0.09030   0.09470
 Alpha virt. eigenvalues --    0.09660   0.10313   0.10949   0.11147   0.12040
 Alpha virt. eigenvalues --    0.12748   0.13039   0.13650   0.14361   0.16502
 Alpha virt. eigenvalues --    0.16766   0.18735   0.19803   0.20423   0.21332
 Alpha virt. eigenvalues --    0.21693   0.22107   0.23287   0.24172   0.26155
 Alpha virt. eigenvalues --    0.26379   0.26965   0.27721   0.29859   0.32148
 Alpha virt. eigenvalues --    0.33460   0.34031   0.34415   0.35130   0.36552
 Alpha virt. eigenvalues --    0.36712   0.37156   0.38045   0.38082   0.39102
 Alpha virt. eigenvalues --    0.39354   0.39618   0.39970   0.40656   0.41282
 Alpha virt. eigenvalues --    0.41600   0.41739   0.42249   0.42400   0.43093
 Alpha virt. eigenvalues --    0.43622   0.43954   0.45352   0.45541   0.46880
 Alpha virt. eigenvalues --    0.48784   0.50097   0.52423   0.52746   0.53447
 Alpha virt. eigenvalues --    0.56869   0.58991   0.62061   0.63234   0.65631
 Alpha virt. eigenvalues --    0.68487   0.69244   0.70199   0.72364   0.79015
 Alpha virt. eigenvalues --    0.83576   0.87542   0.98459   0.99976   1.07923
 Alpha virt. eigenvalues --    1.11425   1.14031   1.14721   1.15318   1.15894
 Alpha virt. eigenvalues --    1.16274   1.16846   1.18762   1.20060   1.21651
 Alpha virt. eigenvalues --    1.23032   1.23181   1.23523   1.24292   1.24633
 Alpha virt. eigenvalues --    1.25300   1.26252   1.28238   1.30621   1.31359
 Alpha virt. eigenvalues --    1.32224   1.34125   1.35569   1.37851   1.38438
 Alpha virt. eigenvalues --    1.41417   1.43483   1.44451   1.44826   1.44885
 Alpha virt. eigenvalues --    1.46385   1.47735   1.49070   1.50255   1.51361
 Alpha virt. eigenvalues --    1.52307   1.52778   1.54535   1.56830   1.57569
 Alpha virt. eigenvalues --    1.58421   1.63891   1.64048   1.64263   1.65273
 Alpha virt. eigenvalues --    1.65847   1.66945   1.67701   1.68648   1.68934
 Alpha virt. eigenvalues --    1.69427   1.70849   1.71037   1.71157   1.71568
 Alpha virt. eigenvalues --    1.72412   1.72993   1.75216   1.80741   1.82133
 Alpha virt. eigenvalues --    1.83361   1.85321   1.86312   1.86725   1.86862
 Alpha virt. eigenvalues --    1.89205   1.96174   1.96579   1.97397   2.01759
 Alpha virt. eigenvalues --    2.04699   2.10020   2.10880   2.13211   2.13971
 Alpha virt. eigenvalues --    2.14453   2.15488   2.16499   2.19255   2.21783
 Alpha virt. eigenvalues --    2.27074   2.27487   2.28493   2.31130   2.31420
 Alpha virt. eigenvalues --    2.32935   2.34171   2.34986   2.35904   2.37574
 Alpha virt. eigenvalues --    2.38137   2.39239   2.41165   2.43037   2.44817
 Alpha virt. eigenvalues --    2.46775   2.48434   2.50055   2.52164   2.52833
 Alpha virt. eigenvalues --    2.54035   2.55735   2.57650   2.57831   2.58670
 Alpha virt. eigenvalues --    2.59639   2.60516   2.61115   2.63132   2.63968
 Alpha virt. eigenvalues --    2.64980   2.66467   2.67075   2.68414   2.69712
 Alpha virt. eigenvalues --    2.78821   2.80637   2.82383   2.84430   2.86014
 Alpha virt. eigenvalues --    2.87494   2.89619   2.90871   2.94582   2.98804
 Alpha virt. eigenvalues --    3.02419   3.04496   3.05770   3.07303   3.08952
 Alpha virt. eigenvalues --    3.13007   3.14260   3.16307   3.18619   3.21572
 Alpha virt. eigenvalues --    3.21816   3.22666   3.23814   3.24496   3.25978
 Alpha virt. eigenvalues --    3.27847   3.32379   3.32685   3.34031   3.40142
 Alpha virt. eigenvalues --    3.52791   3.53271   3.55539   3.82117   3.93698
 Alpha virt. eigenvalues --    4.08813  21.61487  21.71557  21.78021  21.78699
 Alpha virt. eigenvalues --   21.79916  21.81799  21.83083  31.61062  43.10951
 Alpha virt. eigenvalues --   43.20175
          Condensed to atoms (all electrons):
               1          2          3          4          5          6
     1  C    5.275127   0.234753  -0.122966  -0.118174   0.006962  -0.003453
     2  C    0.234753   4.813779   0.577746   0.242862  -0.044834  -0.006359
     3  O   -0.122966   0.577746   7.998596  -0.122833   0.013217  -0.012978
     4  O   -0.118174   0.242862  -0.122833   8.036403   0.199454  -0.008453
     5  C    0.006962  -0.044834   0.013217   0.199454   5.050690   0.117257
     6  C   -0.003453  -0.006359  -0.012978  -0.008453   0.117257   5.578385
     7  N   -0.000010  -0.000060  -0.000318   0.004624  -0.013535   0.186676
     8  C   -0.000015  -0.000223   0.000133  -0.000106   0.014210  -0.110158
     9  C   -0.000063  -0.001145   0.000056  -0.000499   0.007873  -0.095375
    10  C    0.000012   0.000128  -0.000112  -0.000081   0.005486  -0.077911
    11  H    0.369564  -0.020812   0.001598   0.005751  -0.000708   0.000421
    12  H    0.371176  -0.025066   0.002239   0.005730   0.000535  -0.000318
    13  H    0.404894  -0.043086   0.009648   0.005719  -0.000342   0.000076
    14  H    0.001145   0.011878   0.001377  -0.033250   0.386012  -0.028629
    15  H   -0.000359  -0.010112   0.008927  -0.038082   0.432820  -0.065113
    16  H    0.002337   0.006281   0.013761  -0.007635  -0.038671   0.393933
    17  H   -0.000278  -0.000502   0.000507   0.007463  -0.021789   0.371799
    18  H    0.000000   0.000005  -0.000001   0.000008  -0.000699   0.010532
    19  H   -0.000006  -0.000052  -0.000059   0.000003   0.000576  -0.008172
    20  H    0.000001   0.000010   0.000002  -0.000023   0.000292  -0.008862
    21  H   -0.000008  -0.000053  -0.000073   0.000035   0.001903  -0.010450
    22  H    0.000000   0.000012   0.000009  -0.000004   0.000200   0.009217
    23  H    0.000025   0.000240   0.000563   0.000007  -0.003389  -0.002487
    24  H   -0.000001  -0.000055  -0.000009   0.000002   0.006072  -0.014825
    25  H   -0.000002  -0.000017   0.000003   0.000085  -0.004037  -0.001657
    26  H   -0.000000  -0.000001  -0.000001   0.000002  -0.000032   0.009533
               7          8          9         10         11         12
     1  C   -0.000010  -0.000015  -0.000063   0.000012   0.369564   0.371176
     2  C   -0.000060  -0.000223  -0.001145   0.000128  -0.020812  -0.025066
     3  O   -0.000318   0.000133   0.000056  -0.000112   0.001598   0.002239
     4  O    0.004624  -0.000106  -0.000499  -0.000081   0.005751   0.005730
     5  C   -0.013535   0.014210   0.007873   0.005486  -0.000708   0.000535
     6  C    0.186676  -0.110158  -0.095375  -0.077911   0.000421  -0.000318
     7  N    6.431105   0.275841   0.250352   0.233508   0.000001  -0.000001
     8  C    0.275841   5.118448  -0.081764  -0.087915   0.000000  -0.000002
     9  C    0.250352  -0.081764   5.164420  -0.107448   0.000000   0.000002
    10  C    0.233508  -0.087915  -0.107448   5.191437  -0.000000   0.000001
    11  H    0.000001   0.000000   0.000000  -0.000000   0.505278  -0.018670
    12  H   -0.000001  -0.000002   0.000002   0.000001  -0.018670   0.512269
    13  H   -0.000001   0.000000   0.000001   0.000000  -0.017766  -0.019118
    14  H   -0.005876  -0.000872  -0.004315   0.013462  -0.000145  -0.000119
    15  H    0.000462  -0.000518   0.013527  -0.007199  -0.000123   0.000022
    16  H   -0.014950  -0.002792  -0.014127   0.010593  -0.000052  -0.000214
    17  H   -0.010706  -0.003823   0.012655  -0.017007  -0.000020   0.000037
    18  H   -0.012656   0.390036  -0.009294  -0.008904   0.000000  -0.000000
    19  H   -0.013300   0.385438  -0.005940   0.009990   0.000000   0.000001
    20  H   -0.014255   0.386817   0.009539  -0.005234   0.000000  -0.000000
    21  H   -0.015878   0.009354   0.390548  -0.005695   0.000000   0.000000
    22  H   -0.012551  -0.006373   0.386304  -0.006907  -0.000000  -0.000000
    23  H   -0.013894  -0.006772   0.380948   0.010704  -0.000000  -0.000001
    24  H   -0.015272   0.008815  -0.004396   0.390054   0.000000   0.000000
    25  H   -0.013646  -0.005990   0.010389   0.379280   0.000000  -0.000000
    26  H   -0.012041  -0.005844  -0.006852   0.385701   0.000000   0.000000
              13         14         15         16         17         18
     1  C    0.404894   0.001145  -0.000359   0.002337  -0.000278   0.000000
     2  C   -0.043086   0.011878  -0.010112   0.006281  -0.000502   0.000005
     3  O    0.009648   0.001377   0.008927   0.013761   0.000507  -0.000001
     4  O    0.005719  -0.033250  -0.038082  -0.007635   0.007463   0.000008
     5  C   -0.000342   0.386012   0.432820  -0.038671  -0.021789  -0.000699
     6  C    0.000076  -0.028629  -0.065113   0.393933   0.371799   0.010532
     7  N   -0.000001  -0.005876   0.000462  -0.014950  -0.010706  -0.012656
     8  C    0.000000  -0.000872  -0.000518  -0.002792  -0.003823   0.390036
     9  C    0.000001  -0.004315   0.013527  -0.014127   0.012655  -0.009294
    10  C    0.000000   0.013462  -0.007199   0.010593  -0.017007  -0.008904
    11  H   -0.017766  -0.000145  -0.000123  -0.000052  -0.000020   0.000000
    12  H   -0.019118  -0.000119   0.000022  -0.000214   0.000037  -0.000000
    13  H    0.485220  -0.000018   0.000033  -0.000024   0.000007  -0.000000
    14  H   -0.000018   0.503455  -0.029451   0.003986  -0.006553   0.000013
    15  H    0.000033  -0.029451   0.513966  -0.003489   0.006276   0.000013
    16  H   -0.000024   0.003986  -0.003489   0.436475  -0.015725  -0.000162
    17  H    0.000007  -0.006553   0.006276  -0.015725   0.466585   0.000040
    18  H   -0.000000   0.000013   0.000013  -0.000162   0.000040   0.463334
    19  H    0.000000   0.000007  -0.000010   0.003761  -0.001050  -0.019391
    20  H   -0.000000   0.000045  -0.000013  -0.000385   0.003478  -0.019560
    21  H    0.000000   0.000219  -0.000844   0.000313  -0.000148   0.000111
    22  H   -0.000000   0.000012   0.000144  -0.000036  -0.000198   0.002368
    23  H   -0.000000   0.000265  -0.001079   0.003113  -0.000054   0.000248
    24  H    0.000000  -0.003753   0.000241  -0.000135   0.000879   0.000074
    25  H    0.000000  -0.001130   0.000370   0.000013   0.002461   0.000172
    26  H    0.000000   0.000053   0.000020  -0.000281  -0.000070   0.002419
              19         20         21         22         23         24
     1  C   -0.000006   0.000001  -0.000008   0.000000   0.000025  -0.000001
     2  C   -0.000052   0.000010  -0.000053   0.000012   0.000240  -0.000055
     3  O   -0.000059   0.000002  -0.000073   0.000009   0.000563  -0.000009
     4  O    0.000003  -0.000023   0.000035  -0.000004   0.000007   0.000002
     5  C    0.000576   0.000292   0.001903   0.000200  -0.003389   0.006072
     6  C   -0.008172  -0.008862  -0.010450   0.009217  -0.002487  -0.014825
     7  N   -0.013300  -0.014255  -0.015878  -0.012551  -0.013894  -0.015272
     8  C    0.385438   0.386817   0.009354  -0.006373  -0.006772   0.008815
     9  C   -0.005940   0.009539   0.390548   0.386304   0.380948  -0.004396
    10  C    0.009990  -0.005234  -0.005695  -0.006907   0.010704   0.390054
    11  H    0.000000   0.000000   0.000000  -0.000000  -0.000000   0.000000
    12  H    0.000001  -0.000000   0.000000  -0.000000  -0.000001   0.000000
    13  H    0.000000  -0.000000   0.000000  -0.000000  -0.000000   0.000000
    14  H    0.000007   0.000045   0.000219   0.000012   0.000265  -0.003753
    15  H   -0.000010  -0.000013  -0.000844   0.000144  -0.001079   0.000241
    16  H    0.003761  -0.000385   0.000313  -0.000036   0.003113  -0.000135
    17  H   -0.001050   0.003478  -0.000148  -0.000198  -0.000054   0.000879
    18  H   -0.019391  -0.019560   0.000111   0.002368   0.000248   0.000074
    19  H    0.468724  -0.019194   0.000028  -0.000080   0.001967  -0.000331
    20  H   -0.019194   0.468467  -0.000344   0.000045  -0.000002   0.000013
    21  H    0.000028  -0.000344   0.466761  -0.019456  -0.018862   0.001610
    22  H   -0.000080   0.000045  -0.019456   0.463277  -0.018296  -0.000083
    23  H    0.001967  -0.000002  -0.018862  -0.018296   0.466825  -0.000055
    24  H   -0.000331   0.000013   0.001610  -0.000083  -0.000055   0.463136
    25  H   -0.000032   0.001989   0.000034  -0.000011  -0.000365  -0.019331
    26  H    0.000071  -0.000138  -0.000083   0.002100  -0.000016  -0.018459
              25         26
     1  C   -0.000002  -0.000000
     2  C   -0.000017  -0.000001
     3  O    0.000003  -0.000001
     4  O    0.000085   0.000002
     5  C   -0.004037  -0.000032
     6  C   -0.001657   0.009533
     7  N   -0.013646  -0.012041
     8  C   -0.005990  -0.005844
     9  C    0.010389  -0.006852
    10  C    0.379280   0.385701
    11  H    0.000000   0.000000
    12  H   -0.000000   0.000000
    13  H    0.000000   0.000000
    14  H   -0.001130   0.000053
    15  H    0.000370   0.000020
    16  H    0.000013  -0.000281
    17  H    0.002461  -0.000070
    18  H    0.000172   0.002419
    19  H   -0.000032   0.000071
    20  H    0.001989  -0.000138
    21  H    0.000034  -0.000083
    22  H   -0.000011   0.002100
    23  H   -0.000365  -0.000016
    24  H   -0.019331  -0.018459
    25  H    0.465184  -0.017770
    26  H   -0.017770   0.459294
 Mulliken charges:
               1
     1  C   -0.420662
     2  C    0.264682
     3  O   -0.369032
     4  O   -0.179007
     5  C   -0.115524
     6  C   -0.222628
     7  N   -0.213618
     8  C   -0.275926
     9  C   -0.295396
    10  C   -0.305947
    11  H    0.175684
    12  H    0.171496
    13  H    0.174755
    14  H    0.192182
    15  H    0.179571
    16  H    0.224113
    17  H    0.205735
    18  H    0.201292
    19  H    0.197051
    20  H    0.197313
    21  H    0.200979
    22  H    0.200306
    23  H    0.200367
    24  H    0.205811
    25  H    0.204008
    26  H    0.202394
 Sum of Mulliken charges =   1.00000
 Mulliken charges with hydrogens summed into heavy atoms:
               1
     1  C    0.101273
     2  C    0.264682
     3  O   -0.369032
     4  O   -0.179007
     5  C    0.256230
     6  C    0.207221
     7  N   -0.213618
     8  C    0.319730
     9  C    0.306256
    10  C    0.306266
 Electronic spatial extent (au):  <R**2>=           2219.9174
 Charge=              1.0000 electrons
 Dipole moment (field-independent basis, Debye):
    X=             -9.5044    Y=              2.2776    Z=              1.1124  Tot=              9.8366
 Quadrupole moment (field-independent basis, Debye-Ang):
   XX=            -22.8974   YY=            -58.5030   ZZ=            -52.8443
   XY=              5.7152   XZ=              2.3033   YZ=             -2.1678
 Traceless Quadrupole moment (field-independent basis, Debye-Ang):
   XX=             21.8508   YY=            -13.7548   ZZ=             -8.0961
   XY=              5.7152   XZ=              2.3033   YZ=             -2.1678
 Octapole moment (field-independent basis, Debye-Ang**2):
  XXX=            -30.5929  YYY=              7.5168  ZZZ=              0.9994  XYY=            -28.4315
  XXY=             10.3648  XXZ=             13.8219  XZZ=            -13.0119  YZZ=             -0.6526
  YYZ=              0.8530  XYZ=             -3.3893
 Hexadecapole moment (field-independent basis, Debye-Ang**3):
 XXXX=          -1707.0726 YYYY=           -335.4560 ZZZZ=           -239.1152 XXXY=             37.6168
 XXXZ=             19.9449 YYYX=              5.6906 YYYZ=             -5.8504 ZZZX=             -4.6227
 ZZZY=              3.3070 XXYY=           -416.8487 XXZZ=           -373.8667 YYZZ=            -94.5019
 XXYZ=            -14.9655 YYXZ=              2.6895 ZZXY=             12.3454
 N-N= 5.780903553393D+02 E-N=-2.264963371583D+03  KE= 4.790733619447D+02
 No NMR shielding tensors so no spin-rotation constants.
 Leave Link  601 at Tue Feb 23 00:11:31 2021, MaxMem=   104857600 cpu:              11.3 elap:               0.5
 (Enter /sw/arch/RedHatEnterpriseServer7/EB_production/2019/software/Gaussian/g16.c01/l701.exe)
 ... and contract with generalized density number  0.
 Compute integral first derivatives.
 R6Disp: Adding Grimme-D3 dispersion energy 1st derivatives to the gradient.
 PrsmSu:  requested number of processors reduced to:  28 ShMem   1 Linda.
 D1PCM: PCM CHGder 1st derivatives, ID1Alg=3 FixD1E=F DoIter=F DoCFld=F I1PDM=0.
 GePol: Maximum number of non-zero 1st derivatives   =     232
 CoulSu:  requested number of processors reduced to:  28 ShMem   1 Linda.
 CoulSu:  requested number of processors reduced to:  29 ShMem   1 Linda.
 Leave Link  701 at Tue Feb 23 00:11:32 2021, MaxMem=   104857600 cpu:              26.3 elap:               0.9
 (Enter /sw/arch/RedHatEnterpriseServer7/EB_production/2019/software/Gaussian/g16.c01/l702.exe)
 L702 exits ... SP integral derivatives will be done elsewhere.
 Leave Link  702 at Tue Feb 23 00:11:32 2021, MaxMem=   104857600 cpu:               0.6 elap:               0.0
 (Enter /sw/arch/RedHatEnterpriseServer7/EB_production/2019/software/Gaussian/g16.c01/l703.exe)
 Integral derivatives from FoFJK, PRISM(SPDF).
 Compute integral first derivatives, UseDBF=F ICtDFT=           0.
 Calling FoFJK, ICntrl=      2527 FMM=F ISym2X=0 I1Cent= 0 IOpClX= 0 NMat=1 NMatS=1 NMatT=0.
 FoFJK:  IHMeth= 1 ICntrl=    2527 DoSepK=F KAlg= 0 I1Cent=           0 FoldK=F
 IRaf=         0 NMat=       1 IRICut=       1 DoRegI=T DoRafI=F ISym2E= 0 IDoP0=0 IntGTp=1.
 FoFCou: FMM=F IPFlag=           0 FMFlag=      100000 FMFlg1=         800
         NFxFlg=           0 DoJE=F BraDBF=F KetDBF=F FulRan=T
         wScrn=  0.000000 ICntrl=      2527 IOpCl=  0 I1Cent=           0 NGrid=           0
         NMat0=    1 NMatS0=      1 NMatT0=    0 NMatD0=    1 NMtDS0=    0 NMtDT0=    0
 Symmetry not used in FoFCou.
 Leave Link  703 at Tue Feb 23 00:11:35 2021, MaxMem=   104857600 cpu:              82.6 elap:               2.6
 (Enter /sw/arch/RedHatEnterpriseServer7/EB_production/2019/software/Gaussian/g16.c01/l716.exe)
 Dipole        =-3.73932067D+00 8.96079837D-01 4.37642010D-01
 ***** Axes restored to original set *****
 -------------------------------------------------------------------
 Center     Atomic                   Forces (Hartrees/Bohr)
 Number     Number              X              Y              Z
 -------------------------------------------------------------------
      1        6           0.010320724   -0.005752508   -0.014561815
      2        6          -0.046614903    0.020053133    0.058514069
      3        8           0.006111759   -0.020255018   -0.022171658
      4        8           0.017473414    0.000393116   -0.030476834
      5        6          -0.014443567    0.001763933    0.017296416
      6        6           0.019636679    0.010473129   -0.006695396
      7        7          -0.003475228   -0.002998110    0.001379786
      8        6          -0.007706849    0.009594362   -0.006648284
      9        6           0.001329358    0.000293435    0.012735480
     10        6           0.001577753   -0.011991260   -0.004821647
     11        1           0.005148833   -0.004198265   -0.002832688
     12        1           0.002476008   -0.001449262   -0.007240493
     13        1          -0.003301817    0.000693976    0.003460333
     14        1           0.005479618   -0.001733581   -0.002968469
     15        1          -0.001312452    0.000761933    0.006205242
     16        1          -0.005765043    0.000843957    0.005253986
     17        1          -0.007647426   -0.002999834   -0.002968402
     18        1           0.003347129   -0.006632598    0.004735021
     19        1           0.006391172    0.000491801    0.004292468
     20        1           0.006385716   -0.003957775   -0.001917435
     21        1           0.004851890   -0.003015231   -0.004880864
     22        1          -0.003788353   -0.001482421   -0.007239700
     23        1           0.001084062    0.003914077   -0.005724139
     24        1           0.004439031    0.003830290    0.004328935
     25        1           0.001036447    0.006886276   -0.000794630
     26        1          -0.003033956    0.006472445    0.003740717
 -------------------------------------------------------------------
 Cartesian Forces:  Max     0.058514069 RMS     0.011887976
 Leave Link  716 at Tue Feb 23 00:11:35 2021, MaxMem=   104857600 cpu:               1.1 elap:               0.1
 (Enter /sw/arch/RedHatEnterpriseServer7/EB_production/2019/software/Gaussian/g16.c01/l103.exe)

 GradGradGradGradGradGradGradGradGradGradGradGradGradGradGradGradGradGrad
 Berny optimization.
 FormGI is forming the generalized inverse of G from B-inverse, IUseBI=4.
 Internal  Forces:  Max     0.045194076 RMS     0.007586301
 Search for a local minimum.
 Step number   1 out of a maximum of  137
 All quantities printed in internal units (Hartrees-Bohrs-Radians)
 RMS Force = .75863D-02 SwitMx=.10000D-02 MixMth= 1
 Mixed Optimization -- RFO/linear search
 Second derivative matrix not updated -- first step.
 ITU=  0
     Eigenvalues ---    0.00230   0.00230   0.00230   0.00230   0.00234
     Eigenvalues ---    0.01191   0.01241   0.01441   0.02170   0.02930
     Eigenvalues ---    0.04292   0.04609   0.04643   0.04829   0.05115
     Eigenvalues ---    0.05303   0.05313   0.05314   0.05322   0.05340
     Eigenvalues ---    0.05350   0.05604   0.07562   0.07736   0.09207
     Eigenvalues ---    0.11777   0.12817   0.13988   0.14332   0.14413
     Eigenvalues ---    0.16000   0.16000   0.16000   0.16000   0.16000
     Eigenvalues ---    0.16000   0.16000   0.16000   0.16000   0.16000
     Eigenvalues ---    0.16000   0.16000   0.22003   0.22061   0.24998
     Eigenvalues ---    0.25000   0.25000   0.26857   0.29971   0.30909
     Eigenvalues ---    0.31205   0.31330   0.34251   0.34275   0.34292
     Eigenvalues ---    0.34312   0.34340   0.34380   0.34381   0.34413
     Eigenvalues ---    0.34419   0.34545   0.34614   0.34648   0.34674
     Eigenvalues ---    0.34705   0.34709   0.34718   0.35993   0.40413
     Eigenvalues ---    0.52170   0.82290
 RFO step:  Lambda=-2.72451155D-02 EMin= 2.30000000D-03
 Linear search not attempted -- first point.
 Maximum step size (   0.300) exceeded in Quadratic search.
    -- Step size scaled by   0.924
 Iteration  1 RMS(Cart)=  0.11831746 RMS(Int)=  0.00285604
 Iteration  2 RMS(Cart)=  0.00459482 RMS(Int)=  0.00046493
 Iteration  3 RMS(Cart)=  0.00000749 RMS(Int)=  0.00046490
 Iteration  4 RMS(Cart)=  0.00000001 RMS(Int)=  0.00046490
 ITry= 1 IFail=0 DXMaxC= 5.39D-01 DCOld= 1.00D+10 DXMaxT= 3.00D-01 DXLimC= 3.00D+00 Rises=F
 Variable       Old X    -DE/DX   Delta X   Delta X   Delta X     New X
                                 (Linear)    (Quad)   (Total)
    R1        2.77392   0.01726   0.00000   0.04121   0.04121   2.81514
    R2        2.06251   0.00619   0.00000   0.01531   0.01531   2.07781
    R3        2.06150   0.00655   0.00000   0.01616   0.01616   2.07766
    R4        2.06207   0.00115   0.00000   0.00285   0.00285   2.06492
    R5        2.36704  -0.02933   0.00000  -0.03188  -0.03188   2.33516
    R6        2.57737  -0.01370   0.00000  -0.02307  -0.02307   2.55429
    R7        2.70996  -0.00691   0.00000  -0.01481  -0.01481   2.69516
    R8        2.94708  -0.01048   0.00000  -0.03276  -0.03276   2.91433
    R9        2.06136   0.00305   0.00000   0.00753   0.00753   2.06889
   R10        2.06305   0.00592   0.00000   0.01466   0.01466   2.07771
   R11        2.88020  -0.01146   0.00000  -0.03239  -0.03239   2.84781
   R12        2.06760   0.00239   0.00000   0.00595   0.00595   2.07355
   R13        2.06868   0.00273   0.00000   0.00682   0.00682   2.07551
   R14        2.86188  -0.00690   0.00000  -0.01897  -0.01897   2.84291
   R15        2.85388  -0.00533   0.00000  -0.01446  -0.01446   2.83942
   R16        2.85622  -0.00604   0.00000  -0.01645  -0.01645   2.83978
   R17        2.06840   0.00095   0.00000   0.00236   0.00236   2.07077
   R18        2.06629   0.00202   0.00000   0.00502   0.00502   2.07131
   R19        2.06694   0.00183   0.00000   0.00457   0.00457   2.07151
   R20        2.06156   0.00312   0.00000   0.00771   0.00771   2.06927
   R21        2.06639   0.00161   0.00000   0.00402   0.00402   2.07040
   R22        2.06693   0.00159   0.00000   0.00395   0.00395   2.07088
   R23        2.06420   0.00245   0.00000   0.00607   0.00607   2.07027
   R24        2.06909   0.00070   0.00000   0.00174   0.00174   2.07083
   R25        2.06807   0.00096   0.00000   0.00240   0.00240   2.07047
    A1        1.91374   0.00307   0.00000   0.01415   0.01415   1.92790
    A2        1.91129   0.00427   0.00000   0.02097   0.02102   1.93231
    A3        1.94050  -0.00742   0.00000  -0.03548  -0.03533   1.90518
    A4        1.90226  -0.00440   0.00000  -0.02402  -0.02410   1.87816
    A5        1.89795   0.00227   0.00000   0.01146   0.01156   1.90952
    A6        1.89761   0.00217   0.00000   0.01272   0.01291   1.91052
    A7        2.09939   0.02363   0.00000   0.07884   0.07882   2.17821
    A8        2.06221  -0.02636   0.00000  -0.08783  -0.08785   1.97436
    A9        2.12144   0.00274   0.00000   0.00918   0.00916   2.13059
   A10        2.22849  -0.04519   0.00000  -0.15067  -0.15067   2.07782
   A11        1.97105  -0.01789   0.00000  -0.07315  -0.07318   1.89786
   A12        1.85030   0.00099   0.00000  -0.01466  -0.01396   1.83634
   A13        1.89388   0.00821   0.00000   0.02725   0.02680   1.92069
   A14        1.90720   0.00885   0.00000   0.04355   0.04288   1.95009
   A15        1.94880   0.00146   0.00000   0.00291   0.00239   1.95120
   A16        1.88840  -0.00111   0.00000   0.01646   0.01581   1.90422
   A17        2.06276  -0.01302   0.00000  -0.05509  -0.05509   2.00767
   A18        1.87693   0.00716   0.00000   0.03503   0.03326   1.91019
   A19        1.84914   0.00901   0.00000   0.05153   0.05015   1.89928
   A20        1.90444  -0.00047   0.00000  -0.02375  -0.02335   1.88109
   A21        1.90991  -0.00173   0.00000  -0.02604  -0.02511   1.88480
   A22        1.84891   0.00055   0.00000   0.02948   0.02765   1.87656
   A23        1.89876  -0.00225   0.00000  -0.01591  -0.01585   1.88291
   A24        1.93546   0.00027   0.00000  -0.00376  -0.00373   1.93173
   A25        1.94445  -0.00018   0.00000  -0.00624  -0.00619   1.93825
   A26        1.88479   0.00140   0.00000   0.01312   0.01304   1.89784
   A27        1.88382   0.00183   0.00000   0.01534   0.01525   1.89908
   A28        1.91476  -0.00098   0.00000  -0.00150  -0.00168   1.91308
   A29        1.95007  -0.00902   0.00000  -0.04494  -0.04572   1.90435
   A30        1.94688  -0.00683   0.00000  -0.03362  -0.03428   1.91260
   A31        1.94752  -0.00689   0.00000  -0.03368  -0.03433   1.91320
   A32        1.87050   0.00840   0.00000   0.04084   0.04004   1.91054
   A33        1.87042   0.00854   0.00000   0.04201   0.04124   1.91165
   A34        1.87406   0.00753   0.00000   0.03790   0.03738   1.91144
   A35        1.95265  -0.00620   0.00000  -0.03017  -0.03070   1.92195
   A36        1.94761  -0.00847   0.00000  -0.04214  -0.04281   1.90480
   A37        1.94077  -0.00625   0.00000  -0.03096  -0.03153   1.90924
   A38        1.86203   0.00791   0.00000   0.03929   0.03866   1.90070
   A39        1.87930   0.00684   0.00000   0.03433   0.03390   1.91320
   A40        1.87738   0.00771   0.00000   0.03721   0.03650   1.91389
   A41        1.95285  -0.00620   0.00000  -0.03002  -0.03054   1.92231
   A42        1.94257  -0.00650   0.00000  -0.03233  -0.03292   1.90965
   A43        1.94785  -0.00824   0.00000  -0.04101  -0.04167   1.90619
   A44        1.87973   0.00700   0.00000   0.03518   0.03473   1.91446
   A45        1.85951   0.00781   0.00000   0.03899   0.03839   1.89791
   A46        1.87704   0.00770   0.00000   0.03693   0.03620   1.91324
    D1        2.04733   0.00060   0.00000   0.00934   0.00933   2.05666
    D2       -1.07593   0.00011   0.00000  -0.00265  -0.00278  -1.07871
    D3       -2.14941  -0.00030   0.00000   0.00138   0.00155  -2.14787
    D4        1.01051  -0.00080   0.00000  -0.01061  -0.01056   0.99995
    D5       -0.05206   0.00049   0.00000   0.00843   0.00845  -0.04361
    D6        3.10787  -0.00000   0.00000  -0.00356  -0.00366   3.10421
    D7        3.12670  -0.00030   0.00000  -0.00603  -0.00621   3.12049
    D8        0.00368  -0.00102   0.00000  -0.01893  -0.01875  -0.01507
    D9        1.24126  -0.00208   0.00000  -0.01337  -0.01414   1.22712
   D10       -2.95406  -0.00079   0.00000  -0.01123  -0.01054  -2.96461
   D11       -0.92908   0.00239   0.00000   0.01350   0.01358  -0.91550
   D12       -3.12863  -0.00078   0.00000  -0.00266  -0.00320  -3.13183
   D13       -0.96459  -0.00493   0.00000  -0.04567  -0.04697  -1.01156
   D14        1.00659   0.00305   0.00000   0.02738   0.02794   1.03453
   D15        1.09979   0.00318   0.00000   0.03199   0.03234   1.13213
   D16       -3.01936  -0.00097   0.00000  -0.01101  -0.01142  -3.03078
   D17       -1.04818   0.00701   0.00000   0.06204   0.06348  -0.98470
[...]

 **********************************************************************

 Orbital symmetries:
       Occupied  (A) (A) (A) (A) (A) (A) (A) (A) (A) (A) (A) (A)
                 (A) (A) (A) (A) (A) (A) (A) (A) (A) (A) (A) (A)
                 (A) (A) (A) (A) (A) (A) (A) (A) (A) (A) (A) (A)
                 (A) (A) (A) (A)
       Virtual   (A) (A) (A) (A) (A) (A) (A) (A) (A) (A) (A) (A)
                 (A) (A) (A) (A) (A) (A) (A) (A) (A) (A) (A) (A)
                 (A) (A) (A) (A) (A) (A) (A) (A) (A) (A) (A) (A)
                 (A) (A) (A) (A) (A) (A) (A) (A) (A) (A) (A) (A)
                 (A) (A) (A) (A) (A) (A) (A) (A) (A) (A) (A) (A)
                 (A) (A) (A) (A) (A) (A) (A) (A) (A) (A) (A) (A)
                 (A) (A) (A) (A) (A) (A) (A) (A) (A) (A) (A) (A)
                 (A) (A) (A) (A) (A) (A) (A) (A) (A) (A) (A) (A)
                 (A) (A) (A) (A) (A) (A) (A) (A) (A) (A) (A) (A)
                 (A) (A) (A) (A) (A) (A) (A) (A) (A) (A) (A) (A)
                 (A) (A) (A) (A) (A) (A) (A) (A) (A) (A) (A) (A)
                 (A) (A) (A) (A) (A) (A) (A) (A) (A) (A) (A) (A)
                 (A) (A) (A) (A) (A) (A) (A) (A) (A) (A) (A) (A)
                 (A) (A) (A) (A) (A) (A) (A) (A) (A) (A) (A) (A)
                 (A) (A) (A) (A) (A) (A) (A) (A) (A) (A) (A) (A)
                 (A) (A) (A) (A) (A) (A) (A) (A) (A) (A) (A) (A)
                 (A) (A) (A) (A) (A) (A) (A) (A) (A) (A) (A) (A)
                 (A) (A) (A) (A) (A) (A) (A) (A) (A) (A) (A) (A)
                 (A) (A) (A) (A) (A) (A) (A) (A) (A) (A) (A) (A)
                 (A) (A) (A) (A) (A) (A) (A) (A) (A) (A) (A) (A)
                 (A) (A) (A) (A) (A) (A)
 The electronic state is 1-A.
 Alpha  occ. eigenvalues --  -18.83092 -18.77504 -14.14256 -10.03681  -9.97053
 Alpha  occ. eigenvalues --   -9.96171  -9.94777  -9.94731  -9.94723  -9.90711
 Alpha  occ. eigenvalues --   -1.02822  -0.94989  -0.94154  -0.73402  -0.68695
 Alpha  occ. eigenvalues --   -0.68470  -0.68371  -0.62784  -0.56898  -0.52361
 Alpha  occ. eigenvalues --   -0.48962  -0.48246  -0.46790  -0.46044  -0.44341
 Alpha  occ. eigenvalues --   -0.42852  -0.41190  -0.39965  -0.38185  -0.37378
 Alpha  occ. eigenvalues --   -0.36660  -0.36387  -0.36189  -0.36116  -0.36049
 Alpha  occ. eigenvalues --   -0.35088  -0.33730  -0.31978  -0.28406  -0.25389
 Alpha virt. eigenvalues --   -0.05165  -0.00787   0.02026   0.03922   0.04585
 Alpha virt. eigenvalues --    0.05118   0.05229   0.05598   0.05894   0.06896
 Alpha virt. eigenvalues --    0.08210   0.08369   0.09680   0.10117   0.10655
 Alpha virt. eigenvalues --    0.10980   0.11736   0.12366   0.12650   0.13144
 Alpha virt. eigenvalues --    0.13824   0.14716   0.15214   0.15897   0.17507
 Alpha virt. eigenvalues --    0.18211   0.19585   0.20348   0.21419   0.22045
 Alpha virt. eigenvalues --    0.23204   0.23955   0.24254   0.26165   0.27049
 Alpha virt. eigenvalues --    0.27910   0.28087   0.28617   0.30437   0.33072
 Alpha virt. eigenvalues --    0.33554   0.33838   0.35263   0.36314   0.36695
 Alpha virt. eigenvalues --    0.38239   0.38390   0.39003   0.39292   0.40022
 Alpha virt. eigenvalues --    0.40773   0.41121   0.41413   0.42006   0.42451
 Alpha virt. eigenvalues --    0.42561   0.43435   0.43760   0.43969   0.44619
 Alpha virt. eigenvalues --    0.44858   0.45637   0.46639   0.47030   0.48740
 Alpha virt. eigenvalues --    0.50542   0.51902   0.53689   0.54237   0.55502
 Alpha virt. eigenvalues --    0.57490   0.60438   0.62216   0.64359   0.66792
 Alpha virt. eigenvalues --    0.67126   0.69848   0.70065   0.71796   0.78873
 Alpha virt. eigenvalues --    0.83641   0.88425   1.00543   1.01861   1.11195
 Alpha virt. eigenvalues --    1.14425   1.16466   1.17504   1.17785   1.18460
 Alpha virt. eigenvalues --    1.18754   1.19386   1.22052   1.22523   1.23420
 Alpha virt. eigenvalues --    1.23955   1.24770   1.25335   1.26048   1.27655
 Alpha virt. eigenvalues --    1.27911   1.28731   1.29051   1.30360   1.31006
 Alpha virt. eigenvalues --    1.33068   1.34150   1.35722   1.38443   1.40957
 Alpha virt. eigenvalues --    1.42252   1.43203   1.44216   1.44689   1.45451
 Alpha virt. eigenvalues --    1.47103   1.47473   1.49880   1.51722   1.52013
 Alpha virt. eigenvalues --    1.53760   1.54189   1.56157   1.57834   1.59049
 Alpha virt. eigenvalues --    1.60323   1.65470   1.66282   1.66448   1.68412
 Alpha virt. eigenvalues --    1.68881   1.69607   1.70539   1.71328   1.71432
 Alpha virt. eigenvalues --    1.71609   1.71843   1.72001   1.73593   1.73970
 Alpha virt. eigenvalues --    1.74901   1.75935   1.77771   1.82847   1.85263
 Alpha virt. eigenvalues --    1.86421   1.86766   1.87613   1.88711   1.91745
 Alpha virt. eigenvalues --    1.92628   1.97494   1.99695   1.99856   2.00807
 Alpha virt. eigenvalues --    2.05724   2.08714   2.09791   2.12768   2.13027
 Alpha virt. eigenvalues --    2.13920   2.16607   2.19105   2.20995   2.22099
 Alpha virt. eigenvalues --    2.28583   2.29551   2.29604   2.31141   2.31920
 Alpha virt. eigenvalues --    2.33245   2.36684   2.37044   2.38735   2.39689
 Alpha virt. eigenvalues --    2.40390   2.41044   2.41585   2.45764   2.47165
 Alpha virt. eigenvalues --    2.49607   2.49757   2.52923   2.53630   2.55096
 Alpha virt. eigenvalues --    2.56987   2.57137   2.59213   2.59794   2.61476
 Alpha virt. eigenvalues --    2.62315   2.63477   2.64332   2.65281   2.65949
 Alpha virt. eigenvalues --    2.69421   2.69652   2.70678   2.72630   2.74954
 Alpha virt. eigenvalues --    2.80839   2.84200   2.85561   2.85918   2.88931
 Alpha virt. eigenvalues --    2.90792   2.92805   2.94786   2.96189   2.98416
 Alpha virt. eigenvalues --    3.05292   3.07680   3.09394   3.10396   3.11280
 Alpha virt. eigenvalues --    3.12331   3.14339   3.18998   3.21160   3.21542
 Alpha virt. eigenvalues --    3.21792   3.22091   3.24634   3.25421   3.26725
 Alpha virt. eigenvalues --    3.28368   3.31192   3.33724   3.35296   3.43908
 Alpha virt. eigenvalues --    3.57036   3.57849   3.58525   3.80299   3.99111
 Alpha virt. eigenvalues --    4.11405  21.66237  21.74790  21.77939  21.81069
 Alpha virt. eigenvalues --   21.81605  21.82849  21.84575  31.66705  43.12818
 Alpha virt. eigenvalues --   43.23884
          Condensed to atoms (all electrons):
               1          2          3          4          5          6
     1  C    5.240820   0.262192  -0.095903  -0.127819   0.009933  -0.005523
     2  C    0.262192   4.790328   0.567254   0.239249  -0.044213  -0.007644
     3  O   -0.095903   0.567254   7.976557  -0.118898   0.006238  -0.013679
     4  O   -0.127819   0.239249  -0.118898   8.080794   0.170030  -0.012772
     5  C    0.009933  -0.044213   0.006238   0.170030   5.219939   0.049777
     6  C   -0.005523  -0.007644  -0.013679  -0.012772   0.049777   5.671424
     7  N   -0.000028  -0.001053  -0.000851   0.006656  -0.010131   0.152851
     8  C   -0.000036  -0.000440   0.000104  -0.000205   0.017641  -0.119229
     9  C   -0.000036  -0.002234   0.001126  -0.000960   0.006186  -0.100428
    10  C    0.000030   0.000768  -0.000101   0.000128   0.000963  -0.067072
    11  H    0.374413  -0.025793   0.002624   0.009442  -0.000514   0.000601
    12  H    0.384605  -0.020879  -0.000256   0.000954  -0.000112  -0.000204
    13  H    0.391782  -0.037658   0.007999   0.006466  -0.000414   0.000128
    14  H    0.001137   0.013804   0.002330  -0.031256   0.375718  -0.014167
    15  H    0.000213  -0.025027   0.014922  -0.034697   0.445609  -0.080313
    16  H    0.001392   0.007521   0.007153  -0.008656  -0.041849   0.412528
    17  H   -0.000165  -0.001123   0.000506   0.010090  -0.013511   0.366593
    18  H    0.000000   0.000008  -0.000001   0.000012  -0.001004   0.011528
    19  H   -0.000004  -0.000037  -0.000065   0.000000   0.000851  -0.007171
    20  H    0.000001   0.000017   0.000001  -0.000030   0.000391  -0.011581
    21  H   -0.000025  -0.000098  -0.000269   0.000062   0.000865  -0.008323
    22  H    0.000002   0.000027   0.000053  -0.000009   0.000474   0.009394
    23  H    0.000039   0.000366   0.001019   0.000005  -0.003880  -0.001451
    24  H    0.000001  -0.000042  -0.000012   0.000014   0.008305  -0.018284
    25  H   -0.000003  -0.000068   0.000001   0.000089  -0.004837  -0.001473
    26  H   -0.000000  -0.000004  -0.000002   0.000004  -0.000008   0.009869
               7          8          9         10         11         12
     1  C   -0.000028  -0.000036  -0.000036   0.000030   0.374413   0.384605
     2  C   -0.001053  -0.000440  -0.002234   0.000768  -0.025793  -0.020879
     3  O   -0.000851   0.000104   0.001126  -0.000101   0.002624  -0.000256
     4  O    0.006656  -0.000205  -0.000960   0.000128   0.009442   0.000954
     5  C   -0.010131   0.017641   0.006186   0.000963  -0.000514  -0.000112
     6  C    0.152851  -0.119229  -0.100428  -0.067072   0.000601  -0.000204
     7  N    6.527871   0.260271   0.245557   0.215502   0.000001  -0.000004
     8  C    0.260271   5.132282  -0.080303  -0.086124   0.000002  -0.000005
     9  C    0.245557  -0.080303   5.160855  -0.104406  -0.000001   0.000003
    10  C    0.215502  -0.086124  -0.104406   5.194874  -0.000002   0.000002
    11  H    0.000001   0.000002  -0.000001  -0.000002   0.502128  -0.019485
    12  H   -0.000004  -0.000005   0.000003   0.000002  -0.019485   0.485498
    13  H    0.000000   0.000000  -0.000001   0.000000  -0.018393  -0.016682
    14  H   -0.007044  -0.000922  -0.002320   0.011265  -0.000237  -0.000058
    15  H    0.004771  -0.000618   0.012593  -0.007785  -0.000156  -0.000029
    16  H   -0.022418  -0.002947  -0.012524   0.009566  -0.000035  -0.000115
    17  H   -0.010441  -0.003343   0.011903  -0.015961  -0.000003  -0.000060
    18  H   -0.017116   0.392129  -0.008851  -0.009754   0.000000  -0.000000
    19  H   -0.016347   0.386230  -0.006960   0.010430  -0.000000   0.000002
    20  H   -0.015817   0.388795   0.009925  -0.005494  -0.000000  -0.000000
    21  H   -0.017058   0.009981   0.388561  -0.007026   0.000000   0.000000
    22  H   -0.016936  -0.008386   0.388795  -0.006014  -0.000000  -0.000000
    23  H   -0.018014  -0.006544   0.384554   0.010909  -0.000000  -0.000002
    24  H   -0.015783   0.008994  -0.003740   0.390249   0.000000   0.000000
    25  H   -0.016235  -0.006074   0.010318   0.381547   0.000000  -0.000000
    26  H   -0.016467  -0.006080  -0.007253   0.387930   0.000000   0.000000
              13         14         15         16         17         18
     1  C    0.391782   0.001137   0.000213   0.001392  -0.000165   0.000000
     2  C   -0.037658   0.013804  -0.025027   0.007521  -0.001123   0.000008
     3  O    0.007999   0.002330   0.014922   0.007153   0.000506  -0.000001
     4  O    0.006466  -0.031256  -0.034697  -0.008656   0.010090   0.000012
     5  C   -0.000414   0.375718   0.445609  -0.041849  -0.013511  -0.001004
     6  C    0.000128  -0.014167  -0.080313   0.412528   0.366593   0.011528
     7  N    0.000000  -0.007044   0.004771  -0.022418  -0.010441  -0.017116
     8  C    0.000000  -0.000922  -0.000618  -0.002947  -0.003343   0.392129
     9  C   -0.000001  -0.002320   0.012593  -0.012524   0.011903  -0.008851
    10  C    0.000000   0.011265  -0.007785   0.009566  -0.015961  -0.009754
    11  H   -0.018393  -0.000237  -0.000156  -0.000035  -0.000003   0.000000
    12  H   -0.016682  -0.000058  -0.000029  -0.000115  -0.000060  -0.000000
    13  H    0.497413  -0.000012   0.000073  -0.000019   0.000013  -0.000000
    14  H   -0.000012   0.474248  -0.021489   0.002100  -0.004775   0.000010
    15  H    0.000073  -0.021489   0.487787  -0.001765   0.005007   0.000020
    16  H   -0.000019   0.002100  -0.001765   0.418838  -0.011296  -0.000230
    17  H    0.000013  -0.004775   0.005007  -0.011296   0.451864   0.000132
    18  H   -0.000000   0.000010   0.000020  -0.000230   0.000132   0.464885
    19  H   -0.000000   0.000026  -0.000023   0.004706  -0.001627  -0.019082
    20  H   -0.000000   0.000033  -0.000010  -0.000439   0.004574  -0.018917
    21  H    0.000001   0.000534  -0.000717   0.000630  -0.000118   0.000110
    22  H   -0.000000   0.000027   0.000136  -0.000044  -0.000281   0.002735
    23  H   -0.000000   0.000127  -0.000993   0.002490   0.000011   0.000203
    24  H   -0.000000  -0.004582   0.000350  -0.000063   0.000916   0.000051
    25  H    0.000000  -0.000980   0.000438   0.000111   0.002286   0.000219
    26  H    0.000000   0.000091   0.000066  -0.000356   0.000003   0.002820
              19         20         21         22         23         24
     1  C   -0.000004   0.000001  -0.000025   0.000002   0.000039   0.000001
     2  C   -0.000037   0.000017  -0.000098   0.000027   0.000366  -0.000042
     3  O   -0.000065   0.000001  -0.000269   0.000053   0.001019  -0.000012
     4  O    0.000000  -0.000030   0.000062  -0.000009   0.000005   0.000014
     5  C    0.000851   0.000391   0.000865   0.000474  -0.003880   0.008305
     6  C   -0.007171  -0.011581  -0.008323   0.009394  -0.001451  -0.018284
     7  N   -0.016347  -0.015817  -0.017058  -0.016936  -0.018014  -0.015783
     8  C    0.386230   0.388795   0.009981  -0.008386  -0.006544   0.008994
     9  C   -0.006960   0.009925   0.388561   0.388795   0.384554  -0.003740
    10  C    0.010430  -0.005494  -0.007026  -0.006014   0.010909   0.390249
    11  H   -0.000000  -0.000000   0.000000  -0.000000  -0.000000   0.000000
    12  H    0.000002  -0.000000   0.000000  -0.000000  -0.000002   0.000000
    13  H   -0.000000  -0.000000   0.000001  -0.000000  -0.000000  -0.000000
    14  H    0.000026   0.000033   0.000534   0.000027   0.000127  -0.004582
    15  H   -0.000023  -0.000010  -0.000717   0.000136  -0.000993   0.000350
    16  H    0.004706  -0.000439   0.000630  -0.000044   0.002490  -0.000063
    17  H   -0.001627   0.004574  -0.000118  -0.000281   0.000011   0.000916
    18  H   -0.019082  -0.018917   0.000110   0.002735   0.000203   0.000051
    19  H    0.470903  -0.019490   0.000017   0.000102   0.002283  -0.000392
    20  H   -0.019490   0.468725  -0.000420   0.000081  -0.000011   0.000029
    21  H    0.000017  -0.000420   0.468470  -0.019541  -0.018270   0.001991
    22  H    0.000102   0.000081  -0.019541   0.466122  -0.018347  -0.000139
    23  H    0.002283  -0.000011  -0.018270  -0.018347   0.467823  -0.000050
    24  H   -0.000392   0.000029   0.001991  -0.000139  -0.000050   0.461440
    25  H   -0.000080   0.002430   0.000095  -0.000067  -0.000429  -0.018805
    26  H    0.000091  -0.000201  -0.000119   0.002361  -0.000013  -0.018569
              25         26
     1  C   -0.000003  -0.000000
     2  C   -0.000068  -0.000004
     3  O    0.000001  -0.000002
     4  O    0.000089   0.000004
     5  C   -0.004837  -0.000008
     6  C   -0.001473   0.009869
     7  N   -0.016235  -0.016467
     8  C   -0.006074  -0.006080
     9  C    0.010318  -0.007253
    10  C    0.381547   0.387930
    11  H    0.000000   0.000000
    12  H   -0.000000   0.000000
    13  H    0.000000   0.000000
    14  H   -0.000980   0.000091
    15  H    0.000438   0.000066
    16  H    0.000111  -0.000356
    17  H    0.002286   0.000003
    18  H    0.000219   0.002820
    19  H   -0.000080   0.000091
    20  H    0.002430  -0.000201
    21  H    0.000095  -0.000119
    22  H   -0.000067   0.002361
    23  H   -0.000429  -0.000013
    24  H   -0.018805  -0.018569
    25  H    0.465351  -0.017823
    26  H   -0.017823   0.462986
 Mulliken charges:
               1
     1  C   -0.437021
     2  C    0.284777
     3  O   -0.357853
     4  O   -0.188693
     5  C   -0.192448
     6  C   -0.215377
     7  N   -0.211736
     8  C   -0.275174
     9  C   -0.290362
    10  C   -0.304424
    11  H    0.175409
    12  H    0.186826
    13  H    0.169304
    14  H    0.206390
    15  H    0.201637
    16  H    0.235721
    17  H    0.208804
    18  H    0.200092
    19  H    0.195638
    20  H    0.197409
    21  H    0.200668
    22  H    0.199457
    23  H    0.198174
    24  H    0.208120
    25  H    0.203988
    26  H    0.200674
 Sum of Mulliken charges =   1.00000
 Mulliken charges with hydrogens summed into heavy atoms:
               1
     1  C    0.094518
     2  C    0.284777
     3  O   -0.357853
     4  O   -0.188693
     5  C    0.215579
     6  C    0.229148
     7  N   -0.211736
     8  C    0.317964
     9  C    0.307937
    10  C    0.308359
 Electronic spatial extent (au):  <R**2>=           2082.6939
 Charge=              1.0000 electrons
 Dipole moment (field-independent basis, Debye):
    X=             -8.9963    Y=              1.9287    Z=              1.2173  Tot=              9.2809
 Quadrupole moment (field-independent basis, Debye-Ang):
   XX=            -26.7346   YY=            -59.0614   ZZ=            -53.0831
   XY=              4.2620   XZ=              2.3177   YZ=             -2.2227
 Traceless Quadrupole moment (field-independent basis, Debye-Ang):
   XX=             19.5585   YY=            -12.7684   ZZ=             -6.7901
   XY=              4.2620   XZ=              2.3177   YZ=             -2.2227
 Octapole moment (field-independent basis, Debye-Ang**2):
  XXX=            -28.4829  YYY=              6.4337  ZZZ=              2.1054  XYY=            -23.9100
  XXY=              7.0219  XXZ=             13.2819  XZZ=            -10.7259  YZZ=              0.9882
  YYZ=              0.4447  XYZ=             -2.9818
 Hexadecapole moment (field-independent basis, Debye-Ang**3):
 XXXX=          -1625.9785 YYYY=           -335.4451 ZZZZ=           -254.7325 XXXY=             28.8531
 XXXZ=             22.4382 YYYX=              8.6071 YYYZ=             -5.1207 ZZZX=             -5.8494
 ZZZY=              1.1865 XXYY=           -391.7741 XXZZ=           -354.6562 YYZZ=            -95.6551
 XXYZ=             -8.9290 YYXZ=              3.7705 ZZXY=              4.4606
 N-N= 5.877199574291D+02 E-N=-2.284053432481D+03  KE= 4.791618344557D+02
 Unable to Open any file for archive entry.
 1\1\GINC-TCN1789\SP\RBP86\TZVP\C7H16N1O2(1+)\ELENAA\23-Feb-2021\0\\# B
 P86/TZVP SCRF=COSMORS geom=CHECKPOINT guess=CHECKPOINT\\COSMO-file for
  #OIPILFWXSMYKGL-UHFFFAOYSA-N\\1,1\C,0,2.5457789382,1.0659974319,0.617
 1322415\C,0,1.3891181152,0.379925111,1.2889903265\O,0,0.8721738132,0.7
 000090056,2.3458398031\O,0,0.9533631149,-0.6840190443,0.5360863921\C,0
 ,-0.1660044874,-1.4311864095,1.0752706111\C,0,-1.447919964,-0.69516071
 38,0.6734111032\N,0,-2.7332142304,-1.3011925129,1.2241199909\C,0,-3.89
 41368337,-0.52550211,0.639557958\C,0,-2.7805822863,-1.1840463295,2.731
 0343075\C,0,-2.8624697779,-2.752344605,0.8222145358\H,0,3.2873570966,0
 .3318917637,0.2750792779\H,0,2.177935159,1.6057026023,-0.2686507933\H,
 0,3.0034474576,1.7784826121,1.3112524837\H,0,-0.0923129783,-2.42043053
 53,0.6110730408\H,0,-0.0612649065,-1.5177507299,2.1649511621\H,0,-1.41
 1646476,0.3379904981,1.0405832675\H,0,-1.5447843455,-0.6850478422,-0.4
 196386586\H,0,-4.824861835,-0.9337028151,1.0479351676\H,0,-3.788346781
 4,0.5288097485,0.917100051\H,0,-3.8781802563,-0.6368665706,-0.44984212
 69\H,0,-1.9760537952,-1.7813048968,3.1697843746\H,0,-3.7491839708,-1.5
 629631621,3.0741517717\H,0,-2.6647655647,-0.1297031792,3.00357734\H,0,
 -2.0862143785,-3.3396262792,1.3225864243\H,0,-2.7579782675,-2.82644684
 05,-0.2656180539\H,0,-3.8500025594,-3.1079341974,1.1344480016\\Version
 =ES64L-G16RevC.01\State=1-A\HF=-481.599929\RMSD=2.492e-09\Dipole=-3.22
 40643,-1.5347836,-0.7632324\Quadrupole=12.1922064,-3.5022314,-8.689975
 ,6.2191324,-3.0539042,-3.6118621\PG=C01 [X(C7H16N1O2)]\\@
 The archive entry for this job was punched.


 It takes a long time to grow an old friend.
                            -- John Leonard
 Job cpu time:       0 days  0 hours  8 minutes  6.0 seconds.
 Elapsed time:       0 days  0 hours  0 minutes 15.8 seconds.
 File lengths (MBytes):  RWF=     68 Int=      0 D2E=      0 Chk=     10 Scr=      1
 Normal termination of Gaussian 16 at Tue Feb 23 00:19:47 2021.
