 Entering Gaussian System, Link 0=g16
 Input=OYHQOLUKZRVURQ-HZJYTTRNSA-N.gjf
 Output=OYHQOLUKZRVURQ-HZJYTTRNSA-N.log
 Initial command:
 /sw/arch/RedHatEnterpriseServer7/EB_production/2019/software/Gaussian/g16.c01/l1.exe "/scratch-local/elenaa.9715255/Gau-11892.inp" -scrdir="/scratch-local/elenaa.9715255/"
 Entering Link 1 = /sw/arch/RedHatEnterpriseServer7/EB_production/2019/software/Gaussian/g16.c01/l1.exe PID=     11893.
  
 Copyright (c) 1988-2019, Gaussian, Inc.  All Rights Reserved.
  
 This is part of the Gaussian(R) 16 program.  It is based on
 the Gaussian(R) 09 system (copyright 2009, Gaussian, Inc.),
 the Gaussian(R) 03 system (copyright 2003, Gaussian, Inc.),
 the Gaussian(R) 98 system (copyright 1998, Gaussian, Inc.),
 the Gaussian(R) 94 system (copyright 1995, Gaussian, Inc.),
 the Gaussian 92(TM) system (copyright 1992, Gaussian, Inc.),
 the Gaussian 90(TM) system (copyright 1990, Gaussian, Inc.),
 the Gaussian 88(TM) system (copyright 1988, Gaussian, Inc.),
 the Gaussian 86(TM) system (copyright 1986, Carnegie Mellon
 University), and the Gaussian 82(TM) system (copyright 1983,
 Carnegie Mellon University). Gaussian is a federally registered
 trademark of Gaussian, Inc.
  
 This software contains proprietary and confidential information,
 including trade secrets, belonging to Gaussian, Inc.
  
 This software is provided under written license and may be
 used, copied, transmitted, or stored only in accord with that
 written license.
  
 The following legend is applicable only to US Government
 contracts under FAR:
  
                    RESTRICTED RIGHTS LEGEND
  
 Use, reproduction and disclosure by the US Government is
 subject to restrictions as set forth in subparagraphs (a)
 and (c) of the Commercial Computer Software - Restricted
 Rights clause in FAR 52.227-19.
  
 Gaussian, Inc.
 340 Quinnipiac St., Bldg. 40, Wallingford CT 06492
  
  
 ---------------------------------------------------------------
 Warning -- This program may not be used in any manner that
 competes with the business of Gaussian, Inc. or will provide
 assistance to any competitor of Gaussian, Inc.  The licensee
 of this program is prohibited from giving any competitor of
 Gaussian, Inc. access to this program.  By using this program,
 the user acknowledges that Gaussian, Inc. is engaged in the
 business of creating and licensing software in the field of
 computational chemistry and represents and warrants to the
 licensee that it is not a competitor of Gaussian, Inc. and that
 it will not use this program in any manner prohibited above.
 ---------------------------------------------------------------
  

 Cite this work as:
 Gaussian 16, Revision C.01,
 M. J. Frisch, G. W. Trucks, H. B. Schlegel, G. E. Scuseria, 
 M. A. Robb, J. R. Cheeseman, G. Scalmani, V. Barone, 
 G. A. Petersson, H. Nakatsuji, X. Li, M. Caricato, A. V. Marenich, 
 J. Bloino, B. G. Janesko, R. Gomperts, B. Mennucci, H. P. Hratchian, 
 J. V. Ortiz, A. F. Izmaylov, J. L. Sonnenberg, D. Williams-Young, 
 F. Ding, F. Lipparini, F. Egidi, J. Goings, B. Peng, A. Petrone, 
 T. Henderson, D. Ranasinghe, V. G. Zakrzewski, J. Gao, N. Rega, 
 G. Zheng, W. Liang, M. Hada, M. Ehara, K. Toyota, R. Fukuda, 
 J. Hasegawa, M. Ishida, T. Nakajima, Y. Honda, O. Kitao, H. Nakai, 
 T. Vreven, K. Throssell, J. A. Montgomery, Jr., J. E. Peralta, 
 F. Ogliaro, M. J. Bearpark, J. J. Heyd, E. N. Brothers, K. N. Kudin, 
 V. N. Staroverov, T. A. Keith, R. Kobayashi, J. Normand, 
 K. Raghavachari, A. P. Rendell, J. C. Burant, S. S. Iyengar, 
 J. Tomasi, M. Cossi, J. M. Millam, M. Klene, C. Adamo, R. Cammi, 
 J. W. Ochterski, R. L. Martin, K. Morokuma, O. Farkas, 
 J. B. Foresman, and D. J. Fox, Gaussian, Inc., Wallingford CT, 2019.
 
 ******************************************
 Gaussian 16:  ES64L-G16RevC.01  3-Jul-2019
                22-Feb-2021 
 ******************************************
 %chk=OYHQOLUKZRVURQ-HZJYTTRNSA-N.chk
 %NProcShared=32
 Will use up to   32 processors via shared memory.
 -------------------------------------------------------------
 #P BP86/TZVP EmpiricalDispersion=GD3 SCRF=(Solvent=Water) Opt
 -------------------------------------------------------------
 1/18=20,19=15,26=3,38=1/1,3;
 2/9=110,12=2,17=6,18=5,40=1/2;
 3/5=19,7=101,11=2,25=1,30=1,70=2201,71=1,72=1,74=404,124=31/1,2,3;
 4//1;
 5/5=2,38=5,53=1/2;
 6/7=2,8=2,9=2,10=2,28=1/1;
 7//1,2,3,16;
 1/18=20,19=15,26=3/3(2);
 2/9=110/2;
 99//99;
 2/9=110/2;
 3/5=19,7=101,11=2,25=1,30=1,70=2205,71=1,72=1,74=404,124=31/1,2,3;
 4/5=5,16=3,69=1/1;
 5/5=2,38=5,53=1/2;
 7//1,2,3,16;
 1/18=20,19=15,26=3/3(-5);
 2/9=110/2;
 6/7=2,8=2,9=2,10=2,19=2,28=1/1;
 99/9=1/99;
 Leave Link    1 at Mon Feb 22 21:16:35 2021, MaxMem=           0 cpu:               1.9 elap:               0.1
 (Enter /sw/arch/RedHatEnterpriseServer7/EB_production/2019/software/Gaussian/g16.c01/l101.exe)
 -------------------------------------
 Particle #OYHQOLUKZRVURQ-HZJYTTRNSA-N
 -------------------------------------
 Symbolic Z-matrix:
 Charge =  0 Multiplicity = 1
 C                    -1.3372   -5.49102   12.3486 
 C                    -1.70324  -5.32568   10.85506 
 C                    -3.20009  -4.96993   10.62969 
 C                    -3.54798  -4.774     9.12649 
 C                    -4.95453  -4.15139   8.89232 
 C                    -5.14747  -3.72571   7.51297 
 C                    -4.93859  -2.48484   7.03006 
 C                    -4.47782  -1.32355   7.7861 
 C                    -3.1217   -1.43808   8.31706 
 C                    -1.98557  -1.56241   7.60498 
 C                    -1.88659  -1.58225   6.15492 
 C                    -1.86397  -3.02068   5.5621 
 C                    -2.06701  -2.99601   4.02433 
 C                    -2.31261  -4.39325   3.39904 
 C                    -2.48398  -4.28874   1.85974 
 C                    -2.84486  -5.64424   1.20708 
 C                    -2.97423  -5.53669  -0.33375 
 C                    -3.33291  -6.83803  -0.92487 
 O                    -2.54609  -7.80951  -0.84562 
 O                    -4.52262  -7.00169  -1.54657 
 H                    -0.26589  -5.68202   12.44656 
 H                    -1.57795  -4.58438   12.90934 
 H                    -1.88295  -6.33213   12.7818 
 H                    -1.46851  -6.25692   10.33104 
 H                    -1.07487  -4.53326   10.43572 
 H                    -3.42209  -4.0491    11.17884 
 H                    -3.82746  -5.76787   11.03749 
 H                    -3.49263  -5.74005   8.6154 
 H                    -2.78831  -4.12807   8.68458 
 H                    -5.10932  -3.31272   9.573 
 H                    -5.71805  -4.89399   9.13596 
 H                    -5.44772  -4.42222   6.86703 
 H                    -5.10523  -2.34641   6.0572 
 H                    -5.18237  -1.1479    8.6041 
 H                    -4.52709  -0.43045   7.15649 
 H                    -3.03243  -1.43164   9.30982 
 H                    -1.13376  -1.65066   8.11322 
 H                    -2.70915  -1.01105   5.72031 
 H                    -0.96781  -1.06815   5.8641 
 H                    -0.90754  -3.49863   5.79572 
 H                    -2.6534   -3.62618   6.00973 
 H                    -1.18261  -2.54489   3.56484 
 H                    -2.93161  -2.36772   3.78489 
 H                    -1.46948  -5.05174   3.629 
 H                    -3.21797  -4.82899   3.83542 
 H                    -3.27681  -3.56888   1.63396 
 H                    -1.55041  -3.9145    1.42849 
 H                    -3.79458  -5.99478   1.62232 
 H                    -2.07047  -6.37519   1.46017 
 H                    -2.02499  -5.20061  -0.76079 
 H                    -3.73825  -4.79185  -0.58417 
 H                    -4.76237  -7.87295  -1.92518 
 
 ITRead=  0  0  0  0  0  0  0  0  0  0  0  0  0  0  0  0  0  0  0  0
 ITRead=  0  0  0  0  0  0  0  0  0  0  0  0  0  0  0  0  0  0  0  0
 ITRead=  0  0  0  0  0  0  0  0  0  0  0  0
 MicOpt= -1 -1 -1 -1 -1 -1 -1 -1 -1 -1 -1 -1 -1 -1 -1 -1 -1 -1 -1 -1
 MicOpt= -1 -1 -1 -1 -1 -1 -1 -1 -1 -1 -1 -1 -1 -1 -1 -1 -1 -1 -1 -1
 MicOpt= -1 -1 -1 -1 -1 -1 -1 -1 -1 -1 -1 -1
 NAtoms=     52 NQM=       52 NQMF=       0 NMMI=      0 NMMIF=      0
                NMic=       0 NMicF=      0.
                    Isotopes and Nuclear Properties:
 (Nuclear quadrupole moments (NQMom) in fm**2, nuclear magnetic moments (NMagM)
  in nuclear magnetons)

  Atom         1           2           3           4           5           6           7           8           9          10
 IAtWgt=          12          12          12          12          12          12          12          12          12          12
 AtmWgt=  12.0000000  12.0000000  12.0000000  12.0000000  12.0000000  12.0000000  12.0000000  12.0000000  12.0000000  12.0000000
 NucSpn=           0           0           0           0           0           0           0           0           0           0
 AtZEff=  -0.0000000  -0.0000000  -0.0000000  -0.0000000  -0.0000000  -0.0000000  -0.0000000  -0.0000000  -0.0000000  -0.0000000
 NQMom=    0.0000000   0.0000000   0.0000000   0.0000000   0.0000000   0.0000000   0.0000000   0.0000000   0.0000000   0.0000000
 NMagM=    0.0000000   0.0000000   0.0000000   0.0000000   0.0000000   0.0000000   0.0000000   0.0000000   0.0000000   0.0000000
 AtZNuc=   6.0000000   6.0000000   6.0000000   6.0000000   6.0000000   6.0000000   6.0000000   6.0000000   6.0000000   6.0000000

  Atom        11          12          13          14          15          16          17          18          19          20
 IAtWgt=          12          12          12          12          12          12          12          12          16          16
 AtmWgt=  12.0000000  12.0000000  12.0000000  12.0000000  12.0000000  12.0000000  12.0000000  12.0000000  15.9949146  15.9949146
 NucSpn=           0           0           0           0           0           0           0           0           0           0
 AtZEff=  -0.0000000  -0.0000000  -0.0000000  -0.0000000  -0.0000000  -0.0000000  -0.0000000  -0.0000000  -0.0000000  -0.0000000
 NQMom=    0.0000000   0.0000000   0.0000000   0.0000000   0.0000000   0.0000000   0.0000000   0.0000000   0.0000000   0.0000000
 NMagM=    0.0000000   0.0000000   0.0000000   0.0000000   0.0000000   0.0000000   0.0000000   0.0000000   0.0000000   0.0000000
 AtZNuc=   6.0000000   6.0000000   6.0000000   6.0000000   6.0000000   6.0000000   6.0000000   6.0000000   8.0000000   8.0000000

  Atom        21          22          23          24          25          26          27          28          29          30
 IAtWgt=           1           1           1           1           1           1           1           1           1           1
 AtmWgt=   1.0078250   1.0078250   1.0078250   1.0078250   1.0078250   1.0078250   1.0078250   1.0078250   1.0078250   1.0078250
 NucSpn=           1           1           1           1           1           1           1           1           1           1
 AtZEff=  -0.0000000  -0.0000000  -0.0000000  -0.0000000  -0.0000000  -0.0000000  -0.0000000  -0.0000000  -0.0000000  -0.0000000
 NQMom=    0.0000000   0.0000000   0.0000000   0.0000000   0.0000000   0.0000000   0.0000000   0.0000000   0.0000000   0.0000000
 NMagM=    2.7928460   2.7928460   2.7928460   2.7928460   2.7928460   2.7928460   2.7928460   2.7928460   2.7928460   2.7928460
 AtZNuc=   1.0000000   1.0000000   1.0000000   1.0000000   1.0000000   1.0000000   1.0000000   1.0000000   1.0000000   1.0000000

  Atom        31          32          33          34          35          36          37          38          39          40
 IAtWgt=           1           1           1           1           1           1           1           1           1           1
 AtmWgt=   1.0078250   1.0078250   1.0078250   1.0078250   1.0078250   1.0078250   1.0078250   1.0078250   1.0078250   1.0078250
 NucSpn=           1           1           1           1           1           1           1           1           1           1
 AtZEff=  -0.0000000  -0.0000000  -0.0000000  -0.0000000  -0.0000000  -0.0000000  -0.0000000  -0.0000000  -0.0000000  -0.0000000
 NQMom=    0.0000000   0.0000000   0.0000000   0.0000000   0.0000000   0.0000000   0.0000000   0.0000000   0.0000000   0.0000000
 NMagM=    2.7928460   2.7928460   2.7928460   2.7928460   2.7928460   2.7928460   2.7928460   2.7928460   2.7928460   2.7928460
 AtZNuc=   1.0000000   1.0000000   1.0000000   1.0000000   1.0000000   1.0000000   1.0000000   1.0000000   1.0000000   1.0000000

  Atom        41          42          43          44          45          46          47          48          49          50
 IAtWgt=           1           1           1           1           1           1           1           1           1           1
 AtmWgt=   1.0078250   1.0078250   1.0078250   1.0078250   1.0078250   1.0078250   1.0078250   1.0078250   1.0078250   1.0078250
 NucSpn=           1           1           1           1           1           1           1           1           1           1
 AtZEff=  -0.0000000  -0.0000000  -0.0000000  -0.0000000  -0.0000000  -0.0000000  -0.0000000  -0.0000000  -0.0000000  -0.0000000
 NQMom=    0.0000000   0.0000000   0.0000000   0.0000000   0.0000000   0.0000000   0.0000000   0.0000000   0.0000000   0.0000000
 NMagM=    2.7928460   2.7928460   2.7928460   2.7928460   2.7928460   2.7928460   2.7928460   2.7928460   2.7928460   2.7928460
 AtZNuc=   1.0000000   1.0000000   1.0000000   1.0000000   1.0000000   1.0000000   1.0000000   1.0000000   1.0000000   1.0000000

  Atom        51          52
 IAtWgt=           1           1
 AtmWgt=   1.0078250   1.0078250
 NucSpn=           1           1
 AtZEff=  -0.0000000  -0.0000000
 NQMom=    0.0000000   0.0000000
 NMagM=    2.7928460   2.7928460
 AtZNuc=   1.0000000   1.0000000
 Leave Link  101 at Mon Feb 22 21:16:35 2021, MaxMem=   104857600 cpu:               3.3 elap:               0.1
 (Enter /sw/arch/RedHatEnterpriseServer7/EB_production/2019/software/Gaussian/g16.c01/l103.exe)

 GradGradGradGradGradGradGradGradGradGradGradGradGradGradGradGradGradGrad
 Berny optimization.
 Initialization pass.
                           ----------------------------
                           !    Initial Parameters    !
                           ! (Angstroms and Degrees)  !
 --------------------------                            --------------------------
 ! Name  Definition              Value          Derivative Info.                !
 --------------------------------------------------------------------------------
 ! R1    R(1,2)                  1.5466         estimate D2E/DX2                !
 ! R2    R(1,21)                 1.0926         estimate D2E/DX2                !
 ! R3    R(1,22)                 1.0929         estimate D2E/DX2                !
 ! R4    R(1,23)                 1.0922         estimate D2E/DX2                !
 ! R5    R(2,3)                  1.555          estimate D2E/DX2                !
 ! R6    R(2,24)                 1.094          estimate D2E/DX2                !
 ! R7    R(2,25)                 1.0948         estimate D2E/DX2                !
 ! R8    R(3,4)                  1.5553         estimate D2E/DX2                !
 ! R9    R(3,26)                 1.0949         estimate D2E/DX2                !
 ! R10   R(3,27)                 1.0939         estimate D2E/DX2                !
 ! R11   R(4,5)                  1.5559         estimate D2E/DX2                !
 ! R12   R(4,28)                 1.0943         estimate D2E/DX2                !
 ! R13   R(4,29)                 1.0907         estimate D2E/DX2                !
 ! R14   R(5,6)                  1.4564         estimate D2E/DX2                !
 ! R15   R(5,30)                 1.0912         estimate D2E/DX2                !
 ! R16   R(5,31)                 1.0926         estimate D2E/DX2                !
 ! R17   R(6,7)                  1.3478         estimate D2E/DX2                !
 ! R18   R(6,32)                 0.9963         estimate D2E/DX2                !
 ! R19   R(7,8)                  1.4603         estimate D2E/DX2                !
 ! R20   R(7,33)                 0.9967         estimate D2E/DX2                !
 ! R21   R(8,9)                  1.4609         estimate D2E/DX2                !
 ! R22   R(8,34)                 1.0938         estimate D2E/DX2                !
 ! R23   R(8,35)                 1.0938         estimate D2E/DX2                !
 ! R24   R(9,10)                 1.3466         estimate D2E/DX2                !
 ! R25   R(9,36)                 0.9968         estimate D2E/DX2                !
 ! R26   R(10,11)                1.4536         estimate D2E/DX2                !
 ! R27   R(10,37)                0.9958         estimate D2E/DX2                !
 ! R28   R(11,12)                1.556          estimate D2E/DX2                !
 ! R29   R(11,38)                1.0917         estimate D2E/DX2                !
 ! R30   R(11,39)                1.0923         estimate D2E/DX2                !
 ! R31   R(12,13)                1.5513         estimate D2E/DX2                !
 ! R32   R(12,40)                1.0944         estimate D2E/DX2                !
 ! R33   R(12,41)                1.091          estimate D2E/DX2                !
 ! R34   R(13,14)                1.5504         estimate D2E/DX2                !
 ! R35   R(13,42)                1.094          estimate D2E/DX2                !
 ! R36   R(13,43)                1.0953         estimate D2E/DX2                !
 ! R37   R(14,15)                1.5523         estimate D2E/DX2                !
 ! R38   R(14,44)                1.0942         estimate D2E/DX2                !
 ! R39   R(14,45)                1.0954         estimate D2E/DX2                !
 ! R40   R(15,16)                1.5471         estimate D2E/DX2                !
 ! R41   R(15,46)                1.0944         estimate D2E/DX2                !
 ! R42   R(15,47)                1.0943         estimate D2E/DX2                !
 ! R43   R(16,17)                1.55           estimate D2E/DX2                !
 ! R44   R(16,48)                1.0942         estimate D2E/DX2                !
 ! R45   R(16,49)                1.0945         estimate D2E/DX2                !
 ! R46   R(17,18)                1.4736         estimate D2E/DX2                !
 ! R47   R(17,50)                1.0938         estimate D2E/DX2                !
 ! R48   R(17,51)                1.096          estimate D2E/DX2                !
 ! R49   R(18,19)                1.2527         estimate D2E/DX2                !
 ! R50   R(18,20)                1.3523         estimate D2E/DX2                !
 ! R51   R(20,52)                0.9798         estimate D2E/DX2                !
 ! A1    A(2,1,21)             109.7143         estimate D2E/DX2                !
 ! A2    A(2,1,22)             110.7724         estimate D2E/DX2                !
 ! A3    A(2,1,23)             110.3088         estimate D2E/DX2                !
 ! A4    A(21,1,22)            108.3618         estimate D2E/DX2                !
 ! A5    A(21,1,23)            108.6477         estimate D2E/DX2                !
 ! A6    A(22,1,23)            108.9827         estimate D2E/DX2                !
 ! A7    A(1,2,3)              113.0945         estimate D2E/DX2                !
 ! A8    A(1,2,24)             108.7095         estimate D2E/DX2                !
 ! A9    A(1,2,25)             108.1448         estimate D2E/DX2                !
 ! A10   A(3,2,24)             109.3815         estimate D2E/DX2                !
 ! A11   A(3,2,25)             109.3534         estimate D2E/DX2                !
 ! A12   A(24,2,25)            108.0284         estimate D2E/DX2                !
 ! A13   A(2,3,4)              112.5952         estimate D2E/DX2                !
 ! A14   A(2,3,26)             108.3549         estimate D2E/DX2                !
 ! A15   A(2,3,27)             109.3397         estimate D2E/DX2                !
 ! A16   A(4,3,26)             109.4783         estimate D2E/DX2                !
 ! A17   A(4,3,27)             108.8997         estimate D2E/DX2                !
 ! A18   A(26,3,27)            108.0725         estimate D2E/DX2                !
 ! A19   A(3,4,5)              113.4578         estimate D2E/DX2                !
 ! A20   A(3,4,28)             109.2            estimate D2E/DX2                !
 ! A21   A(3,4,29)             108.0833         estimate D2E/DX2                !
 ! A22   A(5,4,28)             109.1891         estimate D2E/DX2                !
 ! A23   A(5,4,29)             109.3708         estimate D2E/DX2                !
 ! A24   A(28,4,29)            107.3584         estimate D2E/DX2                !
 ! A25   A(4,5,6)              112.2882         estimate D2E/DX2                !
 ! A26   A(4,5,30)             109.9935         estimate D2E/DX2                !
 ! A27   A(4,5,31)             109.0379         estimate D2E/DX2                !
 ! A28   A(6,5,30)             110.3266         estimate D2E/DX2                !
 ! A29   A(6,5,31)             108.4982         estimate D2E/DX2                !
 ! A30   A(30,5,31)            106.5082         estimate D2E/DX2                !
 ! A31   A(5,6,7)              126.0086         estimate D2E/DX2                !
 ! A32   A(5,6,32)             116.7218         estimate D2E/DX2                !
 ! A33   A(7,6,32)             117.262          estimate D2E/DX2                !
 ! A34   A(6,7,8)              126.5513         estimate D2E/DX2                !
 ! A35   A(6,7,33)             116.8518         estimate D2E/DX2                !
 ! A36   A(8,7,33)             116.5932         estimate D2E/DX2                !
 ! A37   A(7,8,9)              114.7547         estimate D2E/DX2                !
 ! A38   A(7,8,34)             108.1586         estimate D2E/DX2                !
 ! A39   A(7,8,35)             109.6994         estimate D2E/DX2                !
 ! A40   A(9,8,34)             109.7996         estimate D2E/DX2                !
 ! A41   A(9,8,35)             108.3628         estimate D2E/DX2                !
 ! A42   A(34,8,35)            105.6843         estimate D2E/DX2                !
 ! A43   A(8,9,10)             126.7454         estimate D2E/DX2                !
 ! A44   A(8,9,36)             116.3991         estimate D2E/DX2                !
 ! A45   A(10,9,36)            116.8529         estimate D2E/DX2                !
 ! A46   A(9,10,11)            125.8904         estimate D2E/DX2                !
 ! A47   A(9,10,37)            117.3863         estimate D2E/DX2                !
 ! A48   A(11,10,37)           116.7232         estimate D2E/DX2                !
 ! A49   A(10,11,12)           113.1841         estimate D2E/DX2                !
 ! A50   A(10,11,38)           109.7978         estimate D2E/DX2                !
 ! A51   A(10,11,39)           108.4494         estimate D2E/DX2                !
 ! A52   A(12,11,38)           110.0586         estimate D2E/DX2                !
 ! A53   A(12,11,39)           108.7506         estimate D2E/DX2                !
 ! A54   A(38,11,39)           106.352          estimate D2E/DX2                !
 ! A55   A(11,12,13)           111.1658         estimate D2E/DX2                !
 ! A56   A(11,12,40)           109.5786         estimate D2E/DX2                !
 ! A57   A(11,12,41)           110.2577         estimate D2E/DX2                !
 ! A58   A(13,12,40)           109.4463         estimate D2E/DX2                !
 ! A59   A(13,12,41)           108.7139         estimate D2E/DX2                !
 ! A60   A(40,12,41)           107.6018         estimate D2E/DX2                !
 ! A61   A(12,13,14)           113.9665         estimate D2E/DX2                !
 ! A62   A(12,13,42)           108.4875         estimate D2E/DX2                !
 ! A63   A(12,13,43)           109.2169         estimate D2E/DX2                !
 ! A64   A(14,13,42)           109.2873         estimate D2E/DX2                !
 ! A65   A(14,13,43)           107.6838         estimate D2E/DX2                !
 ! A66   A(42,13,43)           108.0468         estimate D2E/DX2                !
 ! A67   A(13,14,15)           110.9006         estimate D2E/DX2                !
 ! A68   A(13,14,44)           109.6045         estimate D2E/DX2                !
 ! A69   A(13,14,45)           109.1932         estimate D2E/DX2                !
 ! A70   A(15,14,44)           109.5097         estimate D2E/DX2                !
 ! A71   A(15,14,45)           109.3027         estimate D2E/DX2                !
 ! A72   A(44,14,45)           108.2841         estimate D2E/DX2                !
 ! A73   A(14,15,16)           112.6486         estimate D2E/DX2                !
 ! A74   A(14,15,46)           109.1975         estimate D2E/DX2                !
 ! A75   A(14,15,47)           108.6394         estimate D2E/DX2                !
 ! A76   A(16,15,46)           108.6798         estimate D2E/DX2                !
 ! A77   A(16,15,47)           109.4127         estimate D2E/DX2                !
 ! A78   A(46,15,47)           108.1658         estimate D2E/DX2                !
 ! A79   A(15,16,17)           112.2122         estimate D2E/DX2                !
 ! A80   A(15,16,48)           108.8476         estimate D2E/DX2                !
 ! A81   A(15,16,49)           108.8157         estimate D2E/DX2                !
 ! A82   A(17,16,48)           109.0889         estimate D2E/DX2                !
 ! A83   A(17,16,49)           109.5879         estimate D2E/DX2                !
 ! A84   A(48,16,49)           108.2034         estimate D2E/DX2                !
 ! A85   A(16,17,18)           110.9654         estimate D2E/DX2                !
 ! A86   A(16,17,50)           109.6943         estimate D2E/DX2                !
 ! A87   A(16,17,51)           109.419          estimate D2E/DX2                !
 ! A88   A(18,17,50)           109.0239         estimate D2E/DX2                !
 ! A89   A(18,17,51)           109.8049         estimate D2E/DX2                !
 ! A90   A(50,17,51)           107.8757         estimate D2E/DX2                !
 ! A91   A(17,18,19)           120.438          estimate D2E/DX2                !
 ! A92   A(17,18,20)           120.3597         estimate D2E/DX2                !
 ! A93   A(19,18,20)           119.1981         estimate D2E/DX2                !
 ! A94   A(18,20,52)           120.0372         estimate D2E/DX2                !
 ! D1    D(21,1,2,3)          -176.7363         estimate D2E/DX2                !
 ! D2    D(21,1,2,24)           61.5745         estimate D2E/DX2                !
 ! D3    D(21,1,2,25)          -55.4801         estimate D2E/DX2                !
 ! D4    D(22,1,2,3)           -57.1446         estimate D2E/DX2                !
 ! D5    D(22,1,2,24)         -178.8338         estimate D2E/DX2                !
 ! D6    D(22,1,2,25)           64.1115         estimate D2E/DX2                !
 ! D7    D(23,1,2,3)            63.6082         estimate D2E/DX2                !
 ! D8    D(23,1,2,24)          -58.081          estimate D2E/DX2                !
 ! D9    D(23,1,2,25)         -175.1357         estimate D2E/DX2                !
 ! D10   D(1,2,3,4)            178.6706         estimate D2E/DX2                !
 ! D11   D(1,2,3,26)            57.4317         estimate D2E/DX2                !
 ! D12   D(1,2,3,27)           -60.139          estimate D2E/DX2                !
 ! D13   D(24,2,3,4)           -60.0188         estimate D2E/DX2                !
 ! D14   D(24,2,3,26)          178.7424         estimate D2E/DX2                !
 ! D15   D(24,2,3,27)           61.1717         estimate D2E/DX2                !
 ! D16   D(25,2,3,4)            58.0995         estimate D2E/DX2                !
 ! D17   D(25,2,3,26)          -63.1393         estimate D2E/DX2                !
 ! D18   D(25,2,3,27)          179.29           estimate D2E/DX2                !
 ! D19   D(2,3,4,5)           -168.7391         estimate D2E/DX2                !
 ! D20   D(2,3,4,28)            69.2205         estimate D2E/DX2                !
 ! D21   D(2,3,4,29)           -47.2698         estimate D2E/DX2                !
 ! D22   D(26,3,4,5)           -48.1431         estimate D2E/DX2                !
 ! D23   D(26,3,4,28)         -170.1835         estimate D2E/DX2                !
 ! D24   D(26,3,4,29)           73.3263         estimate D2E/DX2                !
 ! D25   D(27,3,4,5)            69.8197         estimate D2E/DX2                !
 ! D26   D(27,3,4,28)          -52.2207         estimate D2E/DX2                !
 ! D27   D(27,3,4,29)         -168.711          estimate D2E/DX2                !
 ! D28   D(3,4,5,6)            168.19           estimate D2E/DX2                !
 ! D29   D(3,4,5,30)            44.9169         estimate D2E/DX2                !
 ! D30   D(3,4,5,31)           -71.5335         estimate D2E/DX2                !
 ! D31   D(28,4,5,6)           -69.7635         estimate D2E/DX2                !
 ! D32   D(28,4,5,30)          166.9633         estimate D2E/DX2                !
 ! D33   D(28,4,5,31)           50.513          estimate D2E/DX2                !
 ! D34   D(29,4,5,6)            47.444          estimate D2E/DX2                !
 ! D35   D(29,4,5,30)          -75.8291         estimate D2E/DX2                !
 ! D36   D(29,4,5,31)          167.7205         estimate D2E/DX2                !
 ! D37   D(4,5,6,7)            -94.5409         estimate D2E/DX2                !
 ! D38   D(4,5,6,32)            84.4262         estimate D2E/DX2                !
 ! D39   D(30,5,6,7)            28.5452         estimate D2E/DX2                !
 ! D40   D(30,5,6,32)         -152.4876         estimate D2E/DX2                !
 ! D41   D(31,5,6,7)           144.8704         estimate D2E/DX2                !
 ! D42   D(31,5,6,32)          -36.1624         estimate D2E/DX2                !
 ! D43   D(5,6,7,8)              0.0896         estimate D2E/DX2                !
 ! D44   D(5,6,7,33)           179.364          estimate D2E/DX2                !
 ! D45   D(32,6,7,8)          -178.8726         estimate D2E/DX2                !
 ! D46   D(32,6,7,33)            0.4019         estimate D2E/DX2                !
 ! D47   D(6,7,8,9)             65.034          estimate D2E/DX2                !
 ! D48   D(6,7,8,34)           -57.9082         estimate D2E/DX2                !
 ! D49   D(6,7,8,35)          -172.719          estimate D2E/DX2                !
 ! D50   D(33,7,8,9)          -114.2421         estimate D2E/DX2                !
 ! D51   D(33,7,8,34)          122.8157         estimate D2E/DX2                !
 ! D52   D(33,7,8,35)            8.0049         estimate D2E/DX2                !
 ! D53   D(7,8,9,10)            62.8992         estimate D2E/DX2                !
 ! D54   D(7,8,9,36)          -116.493          estimate D2E/DX2                !
 ! D55   D(34,8,9,10)         -175.0446         estimate D2E/DX2                !
 ! D56   D(34,8,9,36)            5.5632         estimate D2E/DX2                !
 ! D57   D(35,8,9,10)          -60.0686         estimate D2E/DX2                !
 ! D58   D(35,8,9,36)          120.5392         estimate D2E/DX2                !
 ! D59   D(8,9,10,11)            1.2127         estimate D2E/DX2                !
 ! D60   D(8,9,10,37)         -178.6715         estimate D2E/DX2                !
 ! D61   D(36,9,10,11)        -179.3975         estimate D2E/DX2                !
 ! D62   D(36,9,10,37)           0.7183         estimate D2E/DX2                !
 ! D63   D(9,10,11,12)         -95.2621         estimate D2E/DX2                !
 ! D64   D(9,10,11,38)          28.1542         estimate D2E/DX2                !
 ! D65   D(9,10,11,39)         143.9732         estimate D2E/DX2                !
 ! D66   D(37,10,11,12)         84.6227         estimate D2E/DX2                !
 ! D67   D(37,10,11,38)       -151.9609         estimate D2E/DX2                !
 ! D68   D(37,10,11,39)        -36.1419         estimate D2E/DX2                !
 ! D69   D(10,11,12,13)        167.7141         estimate D2E/DX2                !
 ! D70   D(10,11,12,40)        -71.1798         estimate D2E/DX2                !
 ! D71   D(10,11,12,41)         47.0744         estimate D2E/DX2                !
 ! D72   D(38,11,12,13)         44.4415         estimate D2E/DX2                !
 ! D73   D(38,11,12,40)        165.5476         estimate D2E/DX2                !
 ! D74   D(38,11,12,41)        -76.1982         estimate D2E/DX2                !
 ! D75   D(39,11,12,13)        -71.6921         estimate D2E/DX2                !
 ! D76   D(39,11,12,40)         49.414          estimate D2E/DX2                !
 ! D77   D(39,11,12,41)        167.6682         estimate D2E/DX2                !
 ! D78   D(11,12,13,14)       -169.4957         estimate D2E/DX2                !
 ! D79   D(11,12,13,42)         68.5145         estimate D2E/DX2                !
 ! D80   D(11,12,13,43)        -49.0322         estimate D2E/DX2                !
 ! D81   D(40,12,13,14)         69.3207         estimate D2E/DX2                !
 ! D82   D(40,12,13,42)        -52.6691         estimate D2E/DX2                !
 ! D83   D(40,12,13,43)       -170.2158         estimate D2E/DX2                !
 ! D84   D(41,12,13,14)        -47.9502         estimate D2E/DX2                !
 ! D85   D(41,12,13,42)       -169.94           estimate D2E/DX2                !
 ! D86   D(41,12,13,43)         72.5133         estimate D2E/DX2                !
 ! D87   D(12,13,14,15)       -179.1198         estimate D2E/DX2                !
 ! D88   D(12,13,14,44)        -58.0888         estimate D2E/DX2                !
 ! D89   D(12,13,14,45)         60.3762         estimate D2E/DX2                !
 ! D90   D(42,13,14,15)        -57.5718         estimate D2E/DX2                !
 ! D91   D(42,13,14,44)         63.4592         estimate D2E/DX2                !
 ! D92   D(42,13,14,45)       -178.0759         estimate D2E/DX2                !
 ! D93   D(43,13,14,15)         59.5618         estimate D2E/DX2                !
 ! D94   D(43,13,14,44)       -179.4072         estimate D2E/DX2                !
 ! D95   D(43,13,14,45)        -60.9423         estimate D2E/DX2                !
 ! D96   D(13,14,15,16)       -175.3628         estimate D2E/DX2                !
 ! D97   D(13,14,15,46)        -54.515          estimate D2E/DX2                !
 ! D98   D(13,14,15,47)         63.2499         estimate D2E/DX2                !
 ! D99   D(44,14,15,16)         63.5502         estimate D2E/DX2                !
 ! D100  D(44,14,15,46)       -175.6019         estimate D2E/DX2                !
 ! D101  D(44,14,15,47)        -57.837          estimate D2E/DX2                !
 ! D102  D(45,14,15,16)        -54.9238         estimate D2E/DX2                !
 ! D103  D(45,14,15,46)         65.9241         estimate D2E/DX2                !
 ! D104  D(45,14,15,47)       -176.311          estimate D2E/DX2                !
 ! D105  D(14,15,16,17)       -178.3863         estimate D2E/DX2                !
 ! D106  D(14,15,16,48)         60.7729         estimate D2E/DX2                !
 ! D107  D(14,15,16,49)        -56.9396         estimate D2E/DX2                !
 ! D108  D(46,15,16,17)         60.4701         estimate D2E/DX2                !
 ! D109  D(46,15,16,48)        -60.3706         estimate D2E/DX2                !
 ! D110  D(46,15,16,49)       -178.0832         estimate D2E/DX2                !
 ! D111  D(47,15,16,17)        -57.44           estimate D2E/DX2                !
 ! D112  D(47,15,16,48)       -178.2807         estimate D2E/DX2                !
 ! D113  D(47,15,16,49)         64.0067         estimate D2E/DX2                !
 ! D114  D(15,16,17,18)       -179.3628         estimate D2E/DX2                !
 ! D115  D(15,16,17,50)         60.1123         estimate D2E/DX2                !
 ! D116  D(15,16,17,51)        -58.0437         estimate D2E/DX2                !
 ! D117  D(48,16,17,18)        -58.6614         estimate D2E/DX2                !
 ! D118  D(48,16,17,50)       -179.1863         estimate D2E/DX2                !
 ! D119  D(48,16,17,51)         62.6577         estimate D2E/DX2                !
 ! D120  D(49,16,17,18)         59.6341         estimate D2E/DX2                !
 ! D121  D(49,16,17,50)        -60.8908         estimate D2E/DX2                !
 ! D122  D(49,16,17,51)       -179.0468         estimate D2E/DX2                !
 ! D123  D(16,17,18,19)        -64.2005         estimate D2E/DX2                !
 ! D124  D(16,17,18,20)        115.0539         estimate D2E/DX2                !
 ! D125  D(50,17,18,19)         56.7207         estimate D2E/DX2                !
 ! D126  D(50,17,18,20)       -124.0248         estimate D2E/DX2                !
 ! D127  D(51,17,18,19)        174.7073         estimate D2E/DX2                !
 ! D128  D(51,17,18,20)         -6.0382         estimate D2E/DX2                !
 ! D129  D(17,18,20,52)       -179.0073         estimate D2E/DX2                !
 ! D130  D(19,18,20,52)          0.2564         estimate D2E/DX2                !
 --------------------------------------------------------------------------------
 Trust Radius=3.00D-01 FncErr=1.00D-07 GrdErr=1.00D-06 EigMax=2.50D+02 EigMin=1.00D-04
 Number of steps in this run=    285 maximum allowed number of steps=    312.
 GradGradGradGradGradGradGradGradGradGradGradGradGradGradGradGradGradGrad

 Leave Link  103 at Mon Feb 22 21:16:35 2021, MaxMem=   104857600 cpu:               0.5 elap:               0.0
 (Enter /sw/arch/RedHatEnterpriseServer7/EB_production/2019/software/Gaussian/g16.c01/l202.exe)
 Stoichiometry    C18H32O2
 Framework group  C1[X(C18H32O2)]
 Deg. of freedom   150
 Full point group                 C1      NOp   1
 Largest Abelian subgroup         C1      NOp   1
 Largest concise Abelian subgroup C1      NOp   1
                         Standard orientation:                         
 ---------------------------------------------------------------------
 Center     Atomic      Atomic             Coordinates (Angstroms)
 Number     Number       Type             X           Y           Z
 ---------------------------------------------------------------------
      1          6           0       -6.455151    2.932466   -1.273810
      2          6           0       -5.032395    2.395900   -0.991235
      3          6           0       -4.861069    1.854434    0.456305
      4          6           0       -3.436416    1.287793    0.717659
      5          6           0       -3.320366    0.494568    2.051147
      6          6           0       -2.072902   -0.251329    2.143373
      7          6           0       -1.895198   -1.543341    1.803199
      8          6           0       -2.909859   -2.451056    1.274977
      9          6           0       -3.430979   -2.087205   -0.040372
     10          6           0       -2.735807   -2.018900   -1.191623
     11          6           0       -1.323192   -2.320978   -1.353276
     12          6           0       -0.414270   -1.060580   -1.273993
     13          6           0        1.080303   -1.455130   -1.143034
     14          6           0        2.017448   -0.268099   -0.802000
     15          6           0        3.494304   -0.737268   -0.709745
     16          6           0        4.451063    0.391883   -0.258957
     17          6           0        5.927737   -0.076501   -0.208831
     18          6           0        6.812059    1.014440    0.237692
     19          8           0        6.941683    2.050082   -0.454973
     20          8           0        7.481977    0.915545    1.408219
     21          1           0       -6.530889    3.243918   -2.318340
     22          1           0       -7.204785    2.158732   -1.090042
     23          1           0       -6.669262    3.793141   -0.636342
     24          1           0       -4.312643    3.201260   -1.165173
     25          1           0       -4.822398    1.593582   -1.705945
     26          1           0       -5.603147    1.066130    0.619632
     27          1           0       -5.058588    2.659564    1.169996
     28          1           0       -2.717053    2.112401    0.725889
     29          1           0       -3.173590    0.634991   -0.115636
     30          1           0       -4.172901   -0.177598    2.160819
     31          1           0       -3.367898    1.195399    2.888019
     32          1           0       -1.276575    0.246845    2.475339
     33          1           0       -0.977210   -1.915646    1.913088
     34          1           0       -3.729859   -2.502983    1.996968
     35          1           0       -2.503055   -3.464718    1.216122
     36          1           0       -4.400065   -1.858218   -0.085313
     37          1           0       -3.229301   -1.734681   -2.008544
     38          1           0       -1.013745   -3.053413   -0.605251
     39          1           0       -1.180469   -2.796133   -2.326358
     40          1           0       -0.552899   -0.451344   -2.172541
     41          1           0       -0.691330   -0.448530   -0.414438
     42          1           0        1.402437   -1.911105   -2.083842
     43          1           0        1.187687   -2.202416   -0.349532
     44          1           0        1.926767    0.504194   -1.571870
     45          1           0        1.714714    0.165666    0.157256
     46          1           0        3.565559   -1.563174    0.004788
     47          1           0        3.805632   -1.107544   -1.691353
     48          1           0        4.150194    0.733977    0.735890
     49          1           0        4.356237    1.232973   -0.952928
     50          1           0        6.243440   -0.407326   -1.202438
     51          1           0        6.016512   -0.929431    0.473703
     52          1           0        8.057350    1.649893    1.707551
 ---------------------------------------------------------------------
 Rotational constants (GHZ):           0.4328595           0.0862255           0.0811878
 Leave Link  202 at Mon Feb 22 21:16:35 2021, MaxMem=   104857600 cpu:               1.1 elap:               0.1
 (Enter /sw/arch/RedHatEnterpriseServer7/EB_production/2019/software/Gaussian/g16.c01/l301.exe)
 Standard basis: TZVP (5D, 7F)
 Ernie: Thresh=  0.10000D-02 Tol=  0.10000D-05 Strict=F.
 There are   592 symmetry adapted cartesian basis functions of A   symmetry.
 There are   572 symmetry adapted basis functions of A   symmetry.
   572 basis functions,   956 primitive gaussians,   592 cartesian basis functions
    78 alpha electrons       78 beta electrons
       nuclear repulsion energy      1481.7473188162 Hartrees.
 IExCor=  404 DFT=T Ex=B Corr=P86 ExCW=0 ScaHFX=  0.000000
 ScaDFX=  1.000000  1.000000  1.000000  1.000000 ScalE2=  1.000000  1.000000
 IRadAn=      5 IRanWt=     -1 IRanGd=            0 ICorTp=0 IEmpDi=131
 NAtoms=   52 NActive=   52 NUniq=   52 SFac= 1.00D+00 NAtFMM=   60 NAOKFM=F Big=F
 Integral buffers will be    131072 words long.
 Raffenetti 2 integral format.
 Two-electron integral symmetry is turned on.
 R6Disp:  Grimme-D3 Dispersion energy=       -0.0581180754 Hartrees.
 Nuclear repulsion after empirical dispersion term =     1481.6892007407 Hartrees.
 ------------------------------------------------------------------------------
 Polarizable Continuum Model (PCM)
 =================================
 Model                : PCM.
 Atomic radii         : UFF (Universal Force Field).
 Polarization charges : Total charges.
 Charge compensation  : None.
 Solution method      : On-the-fly selection.
 Cavity type          : Scaled VdW (van der Waals Surface) (Alpha=1.100).
 Cavity algorithm     : GePol (No added spheres)
                        Default sphere list used, NSphG=   52.
                        Lebedev-Laikov grids with approx.  5.0 points / Ang**2.
                        Smoothing algorithm: York/Karplus (Gamma=1.0000).
                        Polarization charges: spherical gaussians, with
                                              point-specific exponents (IZeta= 3).
                        Self-potential: point-specific (ISelfS= 7).
                        Self-field    : sphere-specific E.n sum rule (ISelfD= 2).
 1st derivatives      : Analytical E(r).r(x)/FMM algorithm (CHGder, D1EAlg=3).
                        Cavity 1st derivative terms included.
 Solvent              : Water, Eps=  78.355300 Eps(inf)=   1.777849
 ------------------------------------------------------------------------------
 GePol: Number of generator spheres                  =      52
 GePol: Total number of spheres                      =      52
 GePol: Number of exposed spheres                    =      52 (100.00%)
 GePol: Number of points                             =    3559
 GePol: Average weight of points                     =       0.13
 GePol: Minimum weight of points                     =   0.51D-11
 GePol: Maximum weight of points                     =    0.20577
 GePol: Number of points with low weight             =     281
 GePol: Fraction of low-weight points (<1% of avg)   =       7.90%
 GePol: Cavity surface area                          =    456.984 Ang**2
 GePol: Cavity volume                                =    480.520 Ang**3
 Leave Link  301 at Mon Feb 22 21:16:35 2021, MaxMem=   104857600 cpu:               2.7 elap:               0.1
 (Enter /sw/arch/RedHatEnterpriseServer7/EB_production/2019/software/Gaussian/g16.c01/l302.exe)
 NPDir=0 NMtPBC=     1 NCelOv=     1 NCel=       1 NClECP=     1 NCelD=      1
         NCelK=      1 NCelE2=     1 NClLst=     1 CellRange=     0.0.
 One-electron integrals computed using PRISM.
 One-electron integral symmetry used in STVInt
 PrsmSu:  requested number of processors reduced to:  23 ShMem   1 Linda.
 NBasis=   572 RedAO= T EigKep=  5.44D-05  NBF=   572
 NBsUse=   572 1.00D-06 EigRej= -1.00D+00 NBFU=   572
 Precomputing XC quadrature grid using
 IXCGrd= 4 IRadAn=           5 IRanWt=          -1 IRanGd=           0 AccXCQ= 0.00D+00.
 Generated NRdTot=       0 NPtTot=           0 NUsed=           0 NTot=          32
 NSgBfM=   558   558   558   558   558 MxSgAt=    52 MxSgA2=    52.
 Leave Link  302 at Mon Feb 22 21:16:36 2021, MaxMem=   104857600 cpu:              20.3 elap:               0.7
 (Enter /sw/arch/RedHatEnterpriseServer7/EB_production/2019/software/Gaussian/g16.c01/l303.exe)
 DipDrv:  MaxL=1.
 Leave Link  303 at Mon Feb 22 21:16:36 2021, MaxMem=   104857600 cpu:               3.0 elap:               0.1
 (Enter /sw/arch/RedHatEnterpriseServer7/EB_production/2019/software/Gaussian/g16.c01/l401.exe)
 ExpMin= 9.52D-02 ExpMax= 2.70D+04 ExpMxC= 9.22D+02 IAcc=3 IRadAn=         5 AccDes= 0.00D+00
 Harris functional with IExCor=  404 and IRadAn=       5 diagonalized for initial guess.
 HarFok:  IExCor=  404 AccDes= 0.00D+00 IRadAn=         5 IDoV= 1 UseB2=F ITyADJ=14
 ICtDFT=  3500011 ScaDFX=  1.000000  1.000000  1.000000  1.000000
 FoFCou: FMM=F IPFlag=           0 FMFlag=      100000 FMFlg1=           0
         NFxFlg=           0 DoJE=T BraDBF=F KetDBF=T FulRan=T
         wScrn=  0.000000 ICntrl=       500 IOpCl=  0 I1Cent=   200000004 NGrid=           0
         NMat0=    1 NMatS0=      1 NMatT0=    0 NMatD0=    1 NMtDS0=    0 NMtDT0=    0
 Petite list used in FoFCou.
 Harris En= -856.491359073030    
 JPrj=0 DoOrth=F DoCkMO=F.
 Leave Link  401 at Mon Feb 22 21:16:38 2021, MaxMem=   104857600 cpu:              47.4 elap:               1.6
 (Enter /sw/arch/RedHatEnterpriseServer7/EB_production/2019/software/Gaussian/g16.c01/l502.exe)
 Integral symmetry usage will be decided dynamically.
 Closed shell SCF:
 Using DIIS extrapolation, IDIIS=  1040.
 NGot=   104857600 LenX=   104130322 LenY=   103779266
 Requested convergence on RMS density matrix=1.00D-08 within 128 cycles.
 Requested convergence on MAX density matrix=1.00D-06.
 Requested convergence on             energy=1.00D-06.
 No special actions if energy rises.
 Fock matrices will be formed incrementally for  20 cycles.

 Cycle   1  Pass 1  IDiag  1:
 FoFJK:  IHMeth= 1 ICntrl=     500 DoSepK=F KAlg= 0 I1Cent=           0 FoldK=F
 IRaf= 690000000 NMat=       1 IRICut=       1 DoRegI=T DoRafI=F ISym2E= 0 IDoP0=0 IntGTp=1.
 FoFCou: FMM=F IPFlag=           0 FMFlag=      100000 FMFlg1=           0
         NFxFlg=           0 DoJE=T BraDBF=F KetDBF=F FulRan=T
         wScrn=  0.000000 ICntrl=       500 IOpCl=  0 I1Cent=           0 NGrid=           0
         NMat0=    1 NMatS0=      1 NMatT0=    0 NMatD0=    1 NMtDS0=    0 NMtDT0=    0
 Symmetry not used in FoFCou.
 CoulSu:  requested number of processors reduced to:  31 ShMem   1 Linda.
 Inv3:  Mode=1 IEnd=    37999443.
 Iteration    1 A*A^-1 deviation from unit magnitude is 3.11D-15 for    360.
 Iteration    1 A*A^-1 deviation from orthogonality  is 3.11D-15 for   3018    854.
 Iteration    1 A^-1*A deviation from unit magnitude is 4.22D-15 for   3346.
 Iteration    1 A^-1*A deviation from orthogonality  is 2.44D-15 for   2889   1765.
 CoulSu:  requested number of processors reduced to:  31 ShMem   1 Linda.
 CoulSu:  requested number of processors reduced to:  31 ShMem   1 Linda.
 E= -855.210066148501    
 DIIS: error= 2.40D-02 at cycle   1 NSaved=   1.
 NSaved= 1 IEnMin= 1 EnMin= -855.210066148501     IErMin= 1 ErrMin= 2.40D-02
 ErrMax= 2.40D-02  0.00D+00 EMaxC= 1.00D-01 BMatC= 6.82D-01 BMatP= 6.82D-01
 IDIUse=3 WtCom= 7.60D-01 WtEn= 2.40D-01
 Coeff-Com:  0.100D+01
 Coeff-En:   0.100D+01
 Coeff:      0.100D+01
 Gap=     0.167 Goal=   None    Shift=    0.000
 GapD=    0.167 DampG=1.000 DampE=0.500 DampFc=0.5000 IDamp=-1.
 Damping current iteration by 5.00D-01
 RMSDP=4.70D-03 MaxDP=4.77D-01              OVMax= 2.55D-01

 Cycle   2  Pass 1  IDiag  1:
 RMSU=  2.32D-03    CP:  9.57D-01
 E= -855.373633322946     Delta-E=       -0.163567174445 Rises=F Damp=T
 DIIS: error= 2.30D-02 at cycle   2 NSaved=   2.
 NSaved= 2 IEnMin= 2 EnMin= -855.373633322946     IErMin= 2 ErrMin= 2.30D-02
 ErrMax= 2.30D-02  0.00D+00 EMaxC= 1.00D-01 BMatC= 1.14D-01 BMatP= 6.82D-01
 IDIUse=3 WtCom= 7.70D-01 WtEn= 2.30D-01
 Coeff-Com:  0.248D+00 0.752D+00
 Coeff-En:   0.381D+00 0.619D+00
 Coeff:      0.279D+00 0.721D+00
 Gap=     0.118 Goal=   None    Shift=    0.000
 RMSDP=1.54D-03 MaxDP=1.57D-01 DE=-1.64D-01 OVMax= 2.40D-01

 Cycle   3  Pass 1  IDiag  1:
 RMSU=  9.84D-04    CP:  9.68D-01  4.90D-01
 E= -855.811652547793     Delta-E=       -0.438019224846 Rises=F Damp=F
 DIIS: error= 2.92D-02 at cycle   3 NSaved=   3.
 NSaved= 3 IEnMin= 3 EnMin= -855.811652547793     IErMin= 2 ErrMin= 2.30D-02
 ErrMax= 2.92D-02  0.00D+00 EMaxC= 1.00D-01 BMatC= 1.21D-01 BMatP= 1.14D-01
 IDIUse=3 WtCom= 7.08D-01 WtEn= 2.92D-01
 Coeff-Com:  0.141D+00 0.500D+00 0.359D+00
 Coeff-En:   0.000D+00 0.000D+00 0.100D+01
 Coeff:      0.995D-01 0.354D+00 0.546D+00
 Gap=     0.145 Goal=   None    Shift=    0.000
 RMSDP=9.92D-04 MaxDP=7.38D-02 DE=-4.38D-01 OVMax= 2.72D-01

 Cycle   4  Pass 1  IDiag  1:
 RMSU=  7.67D-04    CP:  9.73D-01  5.64D-01  3.86D-01
 E= -855.798054487022     Delta-E=        0.013598060771 Rises=F Damp=F
 DIIS: error= 3.31D-02 at cycle   4 NSaved=   4.
 NSaved= 4 IEnMin= 3 EnMin= -855.811652547793     IErMin= 2 ErrMin= 2.30D-02
 ErrMax= 3.31D-02  0.00D+00 EMaxC= 1.00D-01 BMatC= 1.44D-01 BMatP= 1.14D-01
 IDIUse=2 WtCom= 0.00D+00 WtEn= 1.00D+00
 Coeff-En:   0.000D+00 0.000D+00 0.523D+00 0.477D+00
 Coeff:      0.000D+00 0.000D+00 0.523D+00 0.477D+00
 Gap=     0.177 Goal=   None    Shift=    0.000
 RMSDP=6.29D-04 MaxDP=4.91D-02 DE= 1.36D-02 OVMax= 1.08D-01

 Cycle   5  Pass 1  IDiag  1:
 RMSU=  3.34D-04    CP:  9.66D-01  5.13D-01  5.88D-01  3.77D-01
 E= -855.904638929949     Delta-E=       -0.106584442927 Rises=F Damp=F
 DIIS: error= 3.39D-03 at cycle   5 NSaved=   5.
 NSaved= 5 IEnMin= 5 EnMin= -855.904638929949     IErMin= 5 ErrMin= 3.39D-03
 ErrMax= 3.39D-03  0.00D+00 EMaxC= 1.00D-01 BMatC= 2.79D-03 BMatP= 1.14D-01
 IDIUse=3 WtCom= 9.66D-01 WtEn= 3.39D-02
 Coeff-Com:  0.532D-02 0.185D-01 0.246D+00 0.237D+00 0.492D+00
 Coeff-En:   0.000D+00 0.000D+00 0.000D+00 0.000D+00 0.100D+01
 Coeff:      0.514D-02 0.179D-01 0.238D+00 0.229D+00 0.510D+00
 Gap=     0.148 Goal=   None    Shift=    0.000
 RMSDP=1.51D-04 MaxDP=9.73D-03 DE=-1.07D-01 OVMax= 1.08D-02

 Cycle   6  Pass 1  IDiag  1:
 RMSU=  7.42D-05    CP:  9.67D-01  5.23D-01  6.29D-01  4.37D-01  6.57D-01
 E= -855.906621540984     Delta-E=       -0.001982611035 Rises=F Damp=F
 DIIS: error= 1.93D-03 at cycle   6 NSaved=   6.
 NSaved= 6 IEnMin= 6 EnMin= -855.906621540984     IErMin= 6 ErrMin= 1.93D-03
 ErrMax= 1.93D-03  0.00D+00 EMaxC= 1.00D-01 BMatC= 6.38D-04 BMatP= 2.79D-03
 IDIUse=3 WtCom= 9.81D-01 WtEn= 1.93D-02
 Coeff-Com: -0.539D-02-0.613D-03 0.637D-01 0.693D-01 0.353D+00 0.520D+00
 Coeff-En:   0.000D+00 0.000D+00 0.000D+00 0.000D+00 0.164D+00 0.836D+00
 Coeff:     -0.529D-02-0.601D-03 0.625D-01 0.680D-01 0.349D+00 0.526D+00
 Gap=     0.148 Goal=   None    Shift=    0.000
 RMSDP=5.07D-05 MaxDP=4.34D-03 DE=-1.98D-03 OVMax= 4.10D-03

 Cycle   7  Pass 1  IDiag  1:
 RMSU=  2.94D-05    CP:  9.68D-01  5.16D-01  6.35D-01  4.45D-01  5.97D-01
                    CP:  5.93D-01
 E= -855.907082350946     Delta-E=       -0.000460809962 Rises=F Damp=F
 DIIS: error= 3.21D-04 at cycle   7 NSaved=   7.
 NSaved= 7 IEnMin= 7 EnMin= -855.907082350946     IErMin= 7 ErrMin= 3.21D-04
 ErrMax= 3.21D-04  0.00D+00 EMaxC= 1.00D-01 BMatC= 3.63D-05 BMatP= 6.38D-04
 IDIUse=3 WtCom= 9.97D-01 WtEn= 3.21D-03
 Coeff-Com: -0.225D-02 0.471D-03 0.129D-01 0.124D-01 0.129D+00 0.272D+00
 Coeff-Com:  0.575D+00
 Coeff-En:   0.000D+00 0.000D+00 0.000D+00 0.000D+00 0.000D+00 0.000D+00
 Coeff-En:   0.100D+01
 Coeff:     -0.224D-02 0.470D-03 0.129D-01 0.123D-01 0.129D+00 0.271D+00
 Coeff:      0.576D+00
 Gap=     0.148 Goal=   None    Shift=    0.000
 RMSDP=2.34D-05 MaxDP=2.14D-03 DE=-4.61D-04 OVMax= 1.23D-03

 Cycle   8  Pass 1  IDiag  1:
 RMSU=  7.34D-06    CP:  9.68D-01  5.18D-01  6.30D-01  4.39D-01  6.51D-01
                    CP:  6.07D-01  6.79D-01
 E= -855.907110143363     Delta-E=       -0.000027792418 Rises=F Damp=F
 DIIS: error= 8.01D-05 at cycle   8 NSaved=   8.
 NSaved= 8 IEnMin= 8 EnMin= -855.907110143363     IErMin= 8 ErrMin= 8.01D-05
 ErrMax= 8.01D-05  0.00D+00 EMaxC= 1.00D-01 BMatC= 3.55D-06 BMatP= 3.63D-05
 IDIUse=1 WtCom= 1.00D+00 WtEn= 0.00D+00
 Coeff-Com: -0.781D-03 0.488D-03 0.297D-02 0.114D-02 0.472D-01 0.117D+00
 Coeff-Com:  0.316D+00 0.516D+00
 Coeff:     -0.781D-03 0.488D-03 0.297D-02 0.114D-02 0.472D-01 0.117D+00
 Coeff:      0.316D+00 0.516D+00
 Gap=     0.148 Goal=   None    Shift=    0.000
 RMSDP=4.49D-06 MaxDP=4.33D-04 DE=-2.78D-05 OVMax= 5.50D-04

 Cycle   9  Pass 1  IDiag  1:
 RMSU=  2.71D-06    CP:  9.68D-01  5.18D-01  6.30D-01  4.39D-01  6.55D-01
                    CP:  6.16D-01  6.47D-01  5.88D-01
 E= -855.907112923315     Delta-E=       -0.000002779952 Rises=F Damp=F
 DIIS: error= 2.92D-05 at cycle   9 NSaved=   9.
 NSaved= 9 IEnMin= 9 EnMin= -855.907112923315     IErMin= 9 ErrMin= 2.92D-05
 ErrMax= 2.92D-05  0.00D+00 EMaxC= 1.00D-01 BMatC= 3.91D-07 BMatP= 3.55D-06
 IDIUse=1 WtCom= 1.00D+00 WtEn= 0.00D+00
 Coeff-Com: -0.281D-03 0.240D-03 0.112D-02-0.261D-03 0.190D-01 0.507D-01
 Coeff-Com:  0.145D+00 0.315D+00 0.470D+00
 Coeff:     -0.281D-03 0.240D-03 0.112D-02-0.261D-03 0.190D-01 0.507D-01
 Coeff:      0.145D+00 0.315D+00 0.470D+00
 Gap=     0.148 Goal=   None    Shift=    0.000
 RMSDP=1.85D-06 MaxDP=1.76D-04 DE=-2.78D-06 OVMax= 3.75D-04

 Cycle  10  Pass 1  IDiag  1:
 RMSU=  8.96D-07    CP:  9.68D-01  5.18D-01  6.30D-01  4.39D-01  6.52D-01
                    CP:  6.19D-01  6.65D-01  6.12D-01  5.66D-01
 E= -855.907113241386     Delta-E=       -0.000000318071 Rises=F Damp=F
 DIIS: error= 1.43D-05 at cycle  10 NSaved=  10.
 NSaved=10 IEnMin=10 EnMin= -855.907113241386     IErMin=10 ErrMin= 1.43D-05
 ErrMax= 1.43D-05  0.00D+00 EMaxC= 1.00D-01 BMatC= 9.74D-08 BMatP= 3.91D-07
 IDIUse=1 WtCom= 1.00D+00 WtEn= 0.00D+00
 Coeff-Com: -0.867D-04 0.921D-04 0.490D-03-0.349D-03 0.721D-02 0.205D-01
 Coeff-Com:  0.592D-01 0.160D+00 0.356D+00 0.397D+00
 Coeff:     -0.867D-04 0.921D-04 0.490D-03-0.349D-03 0.721D-02 0.205D-01
 Coeff:      0.592D-01 0.160D+00 0.356D+00 0.397D+00
 Gap=     0.148 Goal=   None    Shift=    0.000
 RMSDP=5.54D-07 MaxDP=3.23D-05 DE=-3.18D-07 OVMax= 1.37D-04

 Cycle  11  Pass 1  IDiag  1:
 RMSU=  3.23D-07    CP:  9.68D-01  5.18D-01  6.30D-01  4.38D-01  6.52D-01
                    CP:  6.20D-01  6.69D-01  6.03D-01  5.78D-01  5.58D-01
 E= -855.907113359302     Delta-E=       -0.000000117916 Rises=F Damp=F
 DIIS: error= 1.65D-06 at cycle  11 NSaved=  11.
 NSaved=11 IEnMin=11 EnMin= -855.907113359302     IErMin=11 ErrMin= 1.65D-06
 ErrMax= 1.65D-06  0.00D+00 EMaxC= 1.00D-01 BMatC= 2.22D-09 BMatP= 9.74D-08
 IDIUse=1 WtCom= 1.00D+00 WtEn= 0.00D+00
 Coeff-Com: -0.820D-05 0.719D-05 0.138D-03-0.127D-03 0.129D-02 0.408D-02
 Coeff-Com:  0.108D-01 0.398D-01 0.113D+00 0.175D+00 0.656D+00
 Coeff:     -0.820D-05 0.719D-05 0.138D-03-0.127D-03 0.129D-02 0.408D-02
 Coeff:      0.108D-01 0.398D-01 0.113D+00 0.175D+00 0.656D+00
 Gap=     0.148 Goal=   None    Shift=    0.000
 RMSDP=1.41D-07 MaxDP=8.42D-06 DE=-1.18D-07 OVMax= 1.28D-05

 Cycle  12  Pass 1  IDiag  1:
 RMSU=  7.32D-08    CP:  9.68D-01  5.18D-01  6.30D-01  4.38D-01  6.52D-01
                    CP:  6.20D-01  6.68D-01  6.11D-01  5.89D-01  5.61D-01
                    CP:  7.72D-01
 E= -855.907113344021     Delta-E=        0.000000015280 Rises=F Damp=F
 DIIS: error= 5.77D-07 at cycle  12 NSaved=  12.
 NSaved=12 IEnMin=11 EnMin= -855.907113359302     IErMin=12 ErrMin= 5.77D-07
 ErrMax= 5.77D-07  0.00D+00 EMaxC= 1.00D-01 BMatC= 3.66D-10 BMatP= 2.22D-09
 IDIUse=1 WtCom= 1.00D+00 WtEn= 0.00D+00
 Coeff-Com:  0.161D-05-0.587D-05 0.352D-04-0.462D-04 0.160D-03 0.725D-03
 Coeff-Com:  0.139D-02 0.977D-02 0.344D-01 0.664D-01 0.380D+00 0.507D+00
 Coeff:      0.161D-05-0.587D-05 0.352D-04-0.462D-04 0.160D-03 0.725D-03
 Coeff:      0.139D-02 0.977D-02 0.344D-01 0.664D-01 0.380D+00 0.507D+00
 Gap=     0.148 Goal=   None    Shift=    0.000
 RMSDP=4.76D-08 MaxDP=2.11D-06 DE= 1.53D-08 OVMax= 5.09D-06

 Cycle  13  Pass 1  IDiag  1:
 RMSU=  2.53D-08    CP:  9.68D-01  5.18D-01  6.30D-01  4.38D-01  6.52D-01
                    CP:  6.20D-01  6.67D-01  6.12D-01  5.95D-01  5.67D-01
                    CP:  7.65D-01  5.97D-01
 E= -855.907113361390     Delta-E=       -0.000000017368 Rises=F Damp=F
 DIIS: error= 2.05D-07 at cycle  13 NSaved=  13.
 NSaved=13 IEnMin=13 EnMin= -855.907113361390     IErMin=13 ErrMin= 2.05D-07
 ErrMax= 2.05D-07  0.00D+00 EMaxC= 1.00D-01 BMatC= 2.17D-11 BMatP= 3.66D-10
 IDIUse=1 WtCom= 1.00D+00 WtEn= 0.00D+00
 Coeff-Com:  0.117D-05-0.332D-05 0.108D-04-0.166D-04 0.170D-04 0.163D-03
 Coeff-Com:  0.179D-03 0.298D-02 0.120D-01 0.260D-01 0.167D+00 0.272D+00
 Coeff-Com:  0.520D+00
 Coeff:      0.117D-05-0.332D-05 0.108D-04-0.166D-04 0.170D-04 0.163D-03
 Coeff:      0.179D-03 0.298D-02 0.120D-01 0.260D-01 0.167D+00 0.272D+00
 Coeff:      0.520D+00
 Gap=     0.148 Goal=   None    Shift=    0.000
 RMSDP=1.44D-08 MaxDP=7.19D-07 DE=-1.74D-08 OVMax= 3.02D-06

 Cycle  14  Pass 1  IDiag  1:
 RMSU=  9.42D-09    CP:  9.68D-01  5.18D-01  6.30D-01  4.38D-01  6.52D-01
                    CP:  6.20D-01  6.67D-01  6.12D-01  5.95D-01  5.69D-01
                    CP:  7.76D-01  6.27D-01  6.58D-01
 E= -855.907113361411     Delta-E=       -0.000000000021 Rises=F Damp=F
 DIIS: error= 1.41D-07 at cycle  14 NSaved=  14.
 NSaved=14 IEnMin=14 EnMin= -855.907113361411     IErMin=14 ErrMin= 1.41D-07
 ErrMax= 1.41D-07  0.00D+00 EMaxC= 1.00D-01 BMatC= 7.75D-12 BMatP= 2.17D-11
 IDIUse=1 WtCom= 1.00D+00 WtEn= 0.00D+00
 Coeff-Com:  0.609D-06-0.125D-05 0.206D-05-0.416D-05-0.152D-04-0.729D-05
 Coeff-Com: -0.999D-04 0.526D-03 0.314D-02 0.820D-02 0.595D-01 0.115D+00
 Coeff-Com:  0.382D+00 0.432D+00
 Coeff:      0.609D-06-0.125D-05 0.206D-05-0.416D-05-0.152D-04-0.729D-05
 Coeff:     -0.999D-04 0.526D-03 0.314D-02 0.820D-02 0.595D-01 0.115D+00
 Coeff:      0.382D+00 0.432D+00
 Gap=     0.148 Goal=   None    Shift=    0.000
 RMSDP=5.94D-09 MaxDP=3.25D-07 DE=-2.14D-11 OVMax= 1.38D-06

 Error on total polarization charges =  0.02108
 SCF Done:  E(RB-P86) =  -855.907113361     A.U. after   14 cycles
            NFock= 14  Conv=0.59D-08     -V/T= 2.0039
 KE= 8.525777042808D+02 PE=-4.953067752784D+03 EE= 1.762893734401D+03
 Leave Link  502 at Mon Feb 22 21:18:02 2021, MaxMem=   104857600 cpu:            2636.9 elap:              84.1
 (Enter /sw/arch/RedHatEnterpriseServer7/EB_production/2019/software/Gaussian/g16.c01/l601.exe)
 Copying SCF densities to generalized density rwf, IOpCl= 0 IROHF=0.

 **********************************************************************

            Population analysis using the SCF Density.

 **********************************************************************

 Orbital symmetries:
       Occupied  (A) (A) (A) (A) (A) (A) (A) (A) (A) (A) (A) (A)
                 (A) (A) (A) (A) (A) (A) (A) (A) (A) (A) (A) (A)
                 (A) (A) (A) (A) (A) (A) (A) (A) (A) (A) (A) (A)
                 (A) (A) (A) (A) (A) (A) (A) (A) (A) (A) (A) (A)
                 (A) (A) (A) (A) (A) (A) (A) (A) (A) (A) (A) (A)
                 (A) (A) (A) (A) (A) (A) (A) (A) (A) (A) (A) (A)
                 (A) (A) (A) (A) (A) (A)
       Virtual   (A) (A) (A) (A) (A) (A) (A) (A) (A) (A) (A) (A)
                 (A) (A) (A) (A) (A) (A) (A) (A) (A) (A) (A) (A)
                 (A) (A) (A) (A) (A) (A) (A) (A) (A) (A) (A) (A)
                 (A) (A) (A) (A) (A) (A) (A) (A) (A) (A) (A) (A)
                 (A) (A) (A) (A) (A) (A) (A) (A) (A) (A) (A) (A)
                 (A) (A) (A) (A) (A) (A) (A) (A) (A) (A) (A) (A)
                 (A) (A) (A) (A) (A) (A) (A) (A) (A) (A) (A) (A)
                 (A) (A) (A) (A) (A) (A) (A) (A) (A) (A) (A) (A)
                 (A) (A) (A) (A) (A) (A) (A) (A) (A) (A) (A) (A)
                 (A) (A) (A) (A) (A) (A) (A) (A) (A) (A) (A) (A)
                 (A) (A) (A) (A) (A) (A) (A) (A) (A) (A) (A) (A)
                 (A) (A) (A) (A) (A) (A) (A) (A) (A) (A) (A) (A)
                 (A) (A) (A) (A) (A) (A) (A) (A) (A) (A) (A) (A)
                 (A) (A) (A) (A) (A) (A) (A) (A) (A) (A) (A) (A)
                 (A) (A) (A) (A) (A) (A) (A) (A) (A) (A) (A) (A)
                 (A) (A) (A) (A) (A) (A) (A) (A) (A) (A) (A) (A)
                 (A) (A) (A) (A) (A) (A) (A) (A) (A) (A) (A) (A)
                 (A) (A) (A) (A) (A) (A) (A) (A) (A) (A) (A) (A)
                 (A) (A) (A) (A) (A) (A) (A) (A) (A) (A) (A) (A)
                 (A) (A) (A) (A) (A) (A) (A) (A) (A) (A) (A) (A)
                 (A) (A) (A) (A) (A) (A) (A) (A) (A) (A) (A) (A)
                 (A) (A) (A) (A) (A) (A) (A) (A) (A) (A) (A) (A)
                 (A) (A) (A) (A) (A) (A) (A) (A) (A) (A) (A) (A)
                 (A) (A) (A) (A) (A) (A) (A) (A) (A) (A) (A) (A)
                 (A) (A) (A) (A) (A) (A) (A) (A) (A) (A) (A) (A)
                 (A) (A) (A) (A) (A) (A) (A) (A) (A) (A) (A) (A)
                 (A) (A) (A) (A) (A) (A) (A) (A) (A) (A) (A) (A)
                 (A) (A) (A) (A) (A) (A) (A) (A) (A) (A) (A) (A)
                 (A) (A) (A) (A) (A) (A) (A) (A) (A) (A) (A) (A)
                 (A) (A) (A) (A) (A) (A) (A) (A) (A) (A) (A) (A)
                 (A) (A) (A) (A) (A) (A) (A) (A) (A) (A) (A) (A)
                 (A) (A) (A) (A) (A) (A) (A) (A) (A) (A) (A) (A)
                 (A) (A) (A) (A) (A) (A) (A) (A) (A) (A) (A) (A)
                 (A) (A) (A) (A) (A) (A) (A) (A) (A) (A) (A) (A)
                 (A) (A) (A) (A) (A) (A) (A) (A) (A) (A) (A) (A)
                 (A) (A) (A) (A) (A) (A) (A) (A) (A) (A) (A) (A)
                 (A) (A) (A) (A) (A) (A) (A) (A) (A) (A) (A) (A)
                 (A) (A) (A) (A) (A) (A) (A) (A) (A) (A) (A) (A)
                 (A) (A) (A) (A) (A) (A) (A) (A) (A) (A) (A) (A)
                 (A) (A) (A) (A) (A) (A) (A) (A) (A) (A) (A) (A)
                 (A) (A) (A) (A) (A) (A) (A) (A) (A) (A) (A) (A)
                 (A) (A)
 The electronic state is 1-A.
 Alpha  occ. eigenvalues --  -18.82284 -18.75738 -10.03462  -9.91608  -9.90488
 Alpha  occ. eigenvalues --   -9.89454  -9.89118  -9.88961  -9.88867  -9.88857
 Alpha  occ. eigenvalues --   -9.88845  -9.88782  -9.88769  -9.88699  -9.88686
 Alpha  occ. eigenvalues --   -9.88144  -9.87730  -9.87719  -9.87506  -9.87458
 Alpha  occ. eigenvalues --   -1.01685  -0.92283  -0.76102  -0.74428  -0.73471
 Alpha  occ. eigenvalues --   -0.72003  -0.70773  -0.68876  -0.66768  -0.64583
 Alpha  occ. eigenvalues --   -0.62335  -0.60095  -0.58298  -0.55976  -0.54565
 Alpha  occ. eigenvalues --   -0.52926  -0.52060  -0.51698  -0.49961  -0.46732
 Alpha  occ. eigenvalues --   -0.45870  -0.45499  -0.44076  -0.43712  -0.42549
 Alpha  occ. eigenvalues --   -0.42033  -0.41727  -0.40336  -0.39151  -0.38418
 Alpha  occ. eigenvalues --   -0.37968  -0.37404  -0.37031  -0.36549  -0.35980
 Alpha  occ. eigenvalues --   -0.35490  -0.34850  -0.34132  -0.33871  -0.33197
 Alpha  occ. eigenvalues --   -0.32611  -0.32164  -0.31464  -0.30607  -0.30485
 Alpha  occ. eigenvalues --   -0.29833  -0.29327  -0.29181  -0.28884  -0.28672
 Alpha  occ. eigenvalues --   -0.28562  -0.28421  -0.28166  -0.27759  -0.26986
 Alpha  occ. eigenvalues --   -0.23551  -0.21779  -0.20260
 Alpha virt. eigenvalues --   -0.05475  -0.03003  -0.02326   0.01396   0.01838
 Alpha virt. eigenvalues --    0.02053   0.03342   0.03932   0.04284   0.04438
 Alpha virt. eigenvalues --    0.05343   0.05423   0.06103   0.06772   0.07105
 Alpha virt. eigenvalues --    0.07677   0.08069   0.08902   0.09450   0.09812
 Alpha virt. eigenvalues --    0.09895   0.10368   0.10860   0.10989   0.11248
 Alpha virt. eigenvalues --    0.11407   0.11941   0.11984   0.12110   0.12568
 Alpha virt. eigenvalues --    0.13049   0.13299   0.13647   0.13835   0.14224
 Alpha virt. eigenvalues --    0.14453   0.14723   0.15583   0.16000   0.16196
 Alpha virt. eigenvalues --    0.16796   0.17083   0.17689   0.17738   0.18254
 Alpha virt. eigenvalues --    0.18986   0.19234   0.19533   0.19725   0.20349
 Alpha virt. eigenvalues --    0.21467   0.22051   0.22456   0.22949   0.23225
 Alpha virt. eigenvalues --    0.23410   0.23687   0.23852   0.24735   0.24878
 Alpha virt. eigenvalues --    0.25707   0.26176   0.26403   0.26657   0.27019
 Alpha virt. eigenvalues --    0.27680   0.27910   0.28378   0.28620   0.29034
 Alpha virt. eigenvalues --    0.29772   0.29864   0.30257   0.30387   0.31660
 Alpha virt. eigenvalues --    0.31976   0.33046   0.33876   0.34077   0.34651
 Alpha virt. eigenvalues --    0.35024   0.35428   0.35974   0.36525   0.36887
 Alpha virt. eigenvalues --    0.37271   0.37461   0.37809   0.38007   0.38704
 Alpha virt. eigenvalues --    0.38776   0.39135   0.39487   0.40288   0.40541
 Alpha virt. eigenvalues --    0.40798   0.41217   0.41411   0.41752   0.42317
 Alpha virt. eigenvalues --    0.42737   0.42836   0.43096   0.43482   0.43663
 Alpha virt. eigenvalues --    0.44090   0.44423   0.44563   0.44771   0.44972
 Alpha virt. eigenvalues --    0.45159   0.45450   0.45628   0.45848   0.46267
 Alpha virt. eigenvalues --    0.46510   0.46829   0.47001   0.47388   0.47678
 Alpha virt. eigenvalues --    0.47846   0.48137   0.48595   0.48907   0.49191
 Alpha virt. eigenvalues --    0.50062   0.50662   0.51612   0.51627   0.52288
 Alpha virt. eigenvalues --    0.52638   0.53191   0.53803   0.54180   0.54544
 Alpha virt. eigenvalues --    0.55069   0.56219   0.56558   0.57008   0.57231
 Alpha virt. eigenvalues --    0.58063   0.58428   0.59201   0.59989   0.60201
 Alpha virt. eigenvalues --    0.61142   0.62243   0.63064   0.63957   0.64820
 Alpha virt. eigenvalues --    0.65463   0.65983   0.66456   0.66612   0.67643
 Alpha virt. eigenvalues --    0.67948   0.71321   0.72790   0.73328   0.74362
 Alpha virt. eigenvalues --    0.76500   0.77906   0.78812   0.79306   0.80819
 Alpha virt. eigenvalues --    0.87149   1.05479   1.07111   1.08609   1.09569
 Alpha virt. eigenvalues --    1.10952   1.11351   1.13948   1.15934   1.16851
 Alpha virt. eigenvalues --    1.17651   1.17919   1.19094   1.19197   1.19779
 Alpha virt. eigenvalues --    1.20216   1.20900   1.21066   1.21402   1.21704
 Alpha virt. eigenvalues --    1.21983   1.22844   1.23237   1.24135   1.24323
 Alpha virt. eigenvalues --    1.24651   1.25985   1.26092   1.26576   1.27100
 Alpha virt. eigenvalues --    1.27261   1.27976   1.28371   1.29086   1.29906
 Alpha virt. eigenvalues --    1.30255   1.30477   1.31078   1.31446   1.31748
 Alpha virt. eigenvalues --    1.31937   1.32672   1.33708   1.34379   1.34939
 Alpha virt. eigenvalues --    1.35074   1.35812   1.36029   1.36561   1.37125
 Alpha virt. eigenvalues --    1.37338   1.38757   1.38859   1.39185   1.39802
 Alpha virt. eigenvalues --    1.40124   1.40469   1.40699   1.41552   1.42684
 Alpha virt. eigenvalues --    1.42931   1.43689   1.44524   1.45052   1.45566
 Alpha virt. eigenvalues --    1.45685   1.46807   1.46966   1.47353   1.47824
 Alpha virt. eigenvalues --    1.48085   1.48488   1.48674   1.48956   1.50431
 Alpha virt. eigenvalues --    1.51126   1.51701   1.52384   1.53430   1.53995
 Alpha virt. eigenvalues --    1.54956   1.55591   1.56307   1.57059   1.57866
 Alpha virt. eigenvalues --    1.58703   1.59538   1.59654   1.59957   1.60542
 Alpha virt. eigenvalues --    1.60663   1.60944   1.62823   1.63503   1.65217
 Alpha virt. eigenvalues --    1.65974   1.66413   1.66768   1.66905   1.67903
 Alpha virt. eigenvalues --    1.68880   1.69417   1.70216   1.70824   1.71053
 Alpha virt. eigenvalues --    1.72483   1.73148   1.73515   1.73826   1.74160
 Alpha virt. eigenvalues --    1.74509   1.74754   1.76407   1.76601   1.76986
 Alpha virt. eigenvalues --    1.77328   1.77882   1.78020   1.78338   1.78475
 Alpha virt. eigenvalues --    1.79159   1.79693   1.80418   1.80609   1.81223
 Alpha virt. eigenvalues --    1.81453   1.81744   1.82154   1.82361   1.82649
 Alpha virt. eigenvalues --    1.83408   1.83812   1.84089   1.84703   1.84808
 Alpha virt. eigenvalues --    1.85292   1.87911   1.90332   1.90813   1.91143
 Alpha virt. eigenvalues --    1.92580   1.93345   1.94267   1.94948   1.95282
 Alpha virt. eigenvalues --    1.96992   1.97330   1.99517   2.00098   2.01405
 Alpha virt. eigenvalues --    2.01665   2.02726   2.03398   2.03952   2.04685
 Alpha virt. eigenvalues --    2.05613   2.07021   2.08953   2.09235   2.09595
 Alpha virt. eigenvalues --    2.10147   2.10850   2.12044   2.12876   2.13677
 Alpha virt. eigenvalues --    2.14075   2.15649   2.16208   2.17061   2.17554
 Alpha virt. eigenvalues --    2.18218   2.19032   2.20103   2.21257   2.21742
 Alpha virt. eigenvalues --    2.23615   2.25495   2.25827   2.27363   2.28627
 Alpha virt. eigenvalues --    2.30687   2.32216   2.32636   2.33318   2.33629
 Alpha virt. eigenvalues --    2.34952   2.35828   2.37108   2.37593   2.39472
 Alpha virt. eigenvalues --    2.39787   2.41093   2.42306   2.43719   2.44659
 Alpha virt. eigenvalues --    2.45763   2.46419   2.46791   2.47708   2.48420
 Alpha virt. eigenvalues --    2.48737   2.49514   2.49980   2.50288   2.50855
 Alpha virt. eigenvalues --    2.51230   2.51383   2.52319   2.52423   2.53274
 Alpha virt. eigenvalues --    2.53513   2.53936   2.54097   2.54347   2.55146
 Alpha virt. eigenvalues --    2.55688   2.55813   2.56650   2.57122   2.57336
 Alpha virt. eigenvalues --    2.57961   2.58592   2.59287   2.59651   2.60189
 Alpha virt. eigenvalues --    2.60299   2.60843   2.61602   2.62280   2.62780
 Alpha virt. eigenvalues --    2.63494   2.64287   2.65167   2.65490   2.66171
 Alpha virt. eigenvalues --    2.66558   2.67300   2.67655   2.69733   2.70067
 Alpha virt. eigenvalues --    2.70770   2.71042   2.72045   2.72662   2.73238
 Alpha virt. eigenvalues --    2.73890   2.75328   2.76831   2.77786   2.79402
 Alpha virt. eigenvalues --    2.81518   2.81952   2.83165   2.87011   2.88475
 Alpha virt. eigenvalues --    2.88642   2.89501   2.92747   2.94301   2.97935
 Alpha virt. eigenvalues --    3.00016   3.01627   3.03042   3.03333   3.05775
 Alpha virt. eigenvalues --    3.07579   3.07777   3.09379   3.10455   3.13890
 Alpha virt. eigenvalues --    3.14538   3.15113   3.15741   3.16592   3.17827
 Alpha virt. eigenvalues --    3.19110   3.21814   3.24460   3.24949   3.26623
 Alpha virt. eigenvalues --    3.27012   3.28736   3.29164   3.30702   3.31329
 Alpha virt. eigenvalues --    3.31613   3.32245   3.32868   3.33833   3.34482
 Alpha virt. eigenvalues --    3.34717   3.35687   3.36127   3.36678   3.38167
 Alpha virt. eigenvalues --    3.39012   3.40403   3.40882   3.41904   3.42645
 Alpha virt. eigenvalues --    3.43232   3.44509   3.45032   3.48980   3.59852
 Alpha virt. eigenvalues --    3.62195   3.83919   4.00395   4.18208  21.64015
 Alpha virt. eigenvalues --   21.66400  21.70452  21.75418  21.76846  21.79305
 Alpha virt. eigenvalues --   21.79489  21.82259  21.84437  21.84760  21.87851
 Alpha virt. eigenvalues --   21.90771  21.92612  21.92871  21.94477  21.95618
 Alpha virt. eigenvalues --   22.08904  22.20622  43.04190  43.12286
          Condensed to atoms (all electrons):
 Mulliken charges:
               1
     1  C   -0.400882
     2  C   -0.243207
     3  C   -0.265861
     4  C   -0.251641
     5  C   -0.276478
     6  C   -0.172271
     7  C   -0.165448
     8  C   -0.370036
     9  C   -0.169969
    10  C   -0.163549
    11  C   -0.289461
    12  C   -0.241272
    13  C   -0.285404
    14  C   -0.248767
    15  C   -0.257220
    16  C   -0.270457
    17  C   -0.250354
    18  C    0.209208
    19  O   -0.372054
    20  O   -0.282489
    21  H    0.139480
    22  H    0.127143
    23  H    0.128677
    24  H    0.127051
    25  H    0.128999
    26  H    0.123261
    27  H    0.125577
    28  H    0.137823
    29  H    0.145159
    30  H    0.142567
    31  H    0.141125
    32  H    0.161271
    33  H    0.162240
    34  H    0.171886
    35  H    0.173155
    36  H    0.160316
    37  H    0.162069
    38  H    0.145515
    39  H    0.142531
    40  H    0.140799
    41  H    0.149158
    42  H    0.129386
    43  H    0.131271
    44  H    0.131195
    45  H    0.132062
    46  H    0.129456
    47  H    0.134299
    48  H    0.143395
    49  H    0.141812
    50  H    0.179988
    51  H    0.146574
    52  H    0.332371
 Sum of Mulliken charges =  -0.00000
 Mulliken charges with hydrogens summed into heavy atoms:
               1
     1  C   -0.005581
     2  C    0.012843
     3  C   -0.017024
     4  C    0.031341
     5  C    0.007214
     6  C   -0.011000
     7  C   -0.003208
     8  C   -0.024995
     9  C   -0.009653
    10  C   -0.001480
    11  C   -0.001415
    12  C    0.048685
    13  C   -0.024746
    14  C    0.014490
    15  C    0.006535
    16  C    0.014750
    17  C    0.076208
    18  C    0.209208
    19  O   -0.372054
    20  O    0.049882
 Electronic spatial extent (au):  <R**2>=          13453.6969
 Charge=             -0.0000 electrons
 Dipole moment (field-independent basis, Debye):
    X=             -0.4643    Y=             -1.8302    Z=              1.3143  Tot=              2.3006
 Quadrupole moment (field-independent basis, Debye-Ang):
   XX=           -131.6016   YY=           -133.4753   ZZ=           -126.6258
   XY=            -11.9895   XZ=             12.7254   YZ=              6.7766
 Traceless Quadrupole moment (field-independent basis, Debye-Ang):
   XX=             -1.0341   YY=             -2.9077   ZZ=              3.9417
   XY=            -11.9895   XZ=             12.7254   YZ=              6.7766
 Octapole moment (field-independent basis, Debye-Ang**2):
  XXX=             91.6061  YYY=              2.8262  ZZZ=             -8.8107  XYY=             -4.0407
  XXY=            -57.4399  XXZ=            115.6871  XZZ=             35.8010  YZZ=             10.9154
  YYZ=             22.9554  XYZ=             48.6353
 Hexadecapole moment (field-independent basis, Debye-Ang**3):
 XXXX=         -13911.0768 YYYY=          -2385.7888 ZZZZ=          -1312.0279 XXXY=            -45.2634
 XXXZ=            926.2847 YYYX=            -40.2131 YYYZ=             15.8884 ZZZX=             95.9947
 ZZZY=             48.4368 XXYY=          -3022.9859 XXZZ=          -2501.7460 YYZZ=           -590.8923
 XXYZ=            379.7907 YYXZ=             92.8425 ZZXY=             62.1049
 N-N= 1.481689200741D+03 E-N=-4.953067760267D+03  KE= 8.525777042808D+02
 No NMR shielding tensors so no spin-rotation constants.
 Leave Link  601 at Mon Feb 22 21:18:03 2021, MaxMem=   104857600 cpu:              11.4 elap:               0.5
 (Enter /sw/arch/RedHatEnterpriseServer7/EB_production/2019/software/Gaussian/g16.c01/l701.exe)
 ... and contract with generalized density number  0.
 Compute integral first derivatives.
 R6Disp: Adding Grimme-D3 dispersion energy 1st derivatives to the gradient.
 PrsmSu:  requested number of processors reduced to:  25 ShMem   1 Linda.
 D1PCM: PCM CHGder 1st derivatives, ID1Alg=3 FixD1E=F DoIter=F DoCFld=F I1PDM=0.
 GePol: Maximum number of non-zero 1st derivatives   =     230
 CoulSu:  requested number of processors reduced to:  25 ShMem   1 Linda.
 CoulSu:  requested number of processors reduced to:  26 ShMem   1 Linda.
 Leave Link  701 at Mon Feb 22 21:18:05 2021, MaxMem=   104857600 cpu:              78.3 elap:               2.6
 (Enter /sw/arch/RedHatEnterpriseServer7/EB_production/2019/software/Gaussian/g16.c01/l702.exe)
 L702 exits ... SP integral derivatives will be done elsewhere.
 Leave Link  702 at Mon Feb 22 21:18:06 2021, MaxMem=   104857600 cpu:               0.6 elap:               0.0
 (Enter /sw/arch/RedHatEnterpriseServer7/EB_production/2019/software/Gaussian/g16.c01/l703.exe)
 Integral derivatives from FoFJK, PRISM(SPDF).
 Compute integral first derivatives, UseDBF=F ICtDFT=           0.
 Calling FoFJK, ICntrl=      2527 FMM=F ISym2X=0 I1Cent= 0 IOpClX= 0 NMat=1 NMatS=1 NMatT=0.
 FoFJK:  IHMeth= 1 ICntrl=    2527 DoSepK=F KAlg= 0 I1Cent=           0 FoldK=F
 IRaf=         0 NMat=       1 IRICut=       1 DoRegI=T DoRafI=F ISym2E= 0 IDoP0=0 IntGTp=1.
 FoFCou: FMM=F IPFlag=           0 FMFlag=      100000 FMFlg1=         800
         NFxFlg=           0 DoJE=F BraDBF=F KetDBF=F FulRan=T
         wScrn=  0.000000 ICntrl=      2527 IOpCl=  0 I1Cent=           0 NGrid=           0
         NMat0=    1 NMatS0=      1 NMatT0=    0 NMatD0=    1 NMtDS0=    0 NMtDT0=    0
 Symmetry not used in FoFCou.
 Leave Link  703 at Mon Feb 22 21:18:20 2021, MaxMem=   104857600 cpu:             457.9 elap:              14.4
 (Enter /sw/arch/RedHatEnterpriseServer7/EB_production/2019/software/Gaussian/g16.c01/l716.exe)
 Dipole        =-1.82688016D-01-7.20039179D-01 5.17103949D-01
 ***** Axes restored to original set *****
 -------------------------------------------------------------------
 Center     Atomic                   Forces (Hartrees/Bohr)
 Number     Number              X              Y              Z
 -------------------------------------------------------------------
      1        6          -0.002471772    0.000445864   -0.013074164
      2        6          -0.011384665    0.002149321    0.010463450
      3        6           0.011424200   -0.002894844   -0.013057439
      4        6          -0.003263543    0.000573619    0.016189340
      5        6           0.009910831   -0.009697363    0.017090689
      6        6           0.019598661    0.066327077    0.027308549
      7        6           0.000939358   -0.037997335    0.055686438
      8        6          -0.015194350    0.021499530    0.003597496
      9        6           0.024430708   -0.002527377   -0.061041532
     10        6          -0.071548912    0.009476145   -0.013622416
     11        6           0.002027990   -0.008710822   -0.019391701
     12        6          -0.002224086    0.008685467   -0.015335664
     13        6           0.000547769   -0.014082792    0.008616352
     14        6           0.001109741    0.015082510   -0.009032510
     15        6          -0.002043466   -0.013722935    0.007364680
[...]
   51      H51      6.58  -0.040   -0.37    0.93   -0.76
   52      H52      8.45  -0.149   -2.57    1.19   -0.89
 --------------------------------------------------------------------
 - cavitation energy not included in the total energy.
 - dispersion energy not included in the total energy.
 - repulsion  energy not included in the total energy.
 After PCM corrections, the energy is  -855.908882120     a.u.
 --------------------------------------------------------------------
 Writing COSMO formatted file "OYHQOLUKZRVURQ-HZJYTTRNSA-N.cosmo"
 Recomputed dielectric energy= -0.018629 old= -0.018600 diff=-2.96D-05

 **********************************************************************

            Population analysis using the SCF Density.

 **********************************************************************

 Orbital symmetries:
       Occupied  (A) (A) (A) (A) (A) (A) (A) (A) (A) (A) (A) (A)
                 (A) (A) (A) (A) (A) (A) (A) (A) (A) (A) (A) (A)
                 (A) (A) (A) (A) (A) (A) (A) (A) (A) (A) (A) (A)
                 (A) (A) (A) (A) (A) (A) (A) (A) (A) (A) (A) (A)
                 (A) (A) (A) (A) (A) (A) (A) (A) (A) (A) (A) (A)
                 (A) (A) (A) (A) (A) (A) (A) (A) (A) (A) (A) (A)
                 (A) (A) (A) (A) (A) (A)
       Virtual   (A) (A) (A) (A) (A) (A) (A) (A) (A) (A) (A) (A)
                 (A) (A) (A) (A) (A) (A) (A) (A) (A) (A) (A) (A)
                 (A) (A) (A) (A) (A) (A) (A) (A) (A) (A) (A) (A)
                 (A) (A) (A) (A) (A) (A) (A) (A) (A) (A) (A) (A)
                 (A) (A) (A) (A) (A) (A) (A) (A) (A) (A) (A) (A)
                 (A) (A) (A) (A) (A) (A) (A) (A) (A) (A) (A) (A)
                 (A) (A) (A) (A) (A) (A) (A) (A) (A) (A) (A) (A)
                 (A) (A) (A) (A) (A) (A) (A) (A) (A) (A) (A) (A)
                 (A) (A) (A) (A) (A) (A) (A) (A) (A) (A) (A) (A)
                 (A) (A) (A) (A) (A) (A) (A) (A) (A) (A) (A) (A)
                 (A) (A) (A) (A) (A) (A) (A) (A) (A) (A) (A) (A)
                 (A) (A) (A) (A) (A) (A) (A) (A) (A) (A) (A) (A)
                 (A) (A) (A) (A) (A) (A) (A) (A) (A) (A) (A) (A)
                 (A) (A) (A) (A) (A) (A) (A) (A) (A) (A) (A) (A)
                 (A) (A) (A) (A) (A) (A) (A) (A) (A) (A) (A) (A)
                 (A) (A) (A) (A) (A) (A) (A) (A) (A) (A) (A) (A)
                 (A) (A) (A) (A) (A) (A) (A) (A) (A) (A) (A) (A)
                 (A) (A) (A) (A) (A) (A) (A) (A) (A) (A) (A) (A)
                 (A) (A) (A) (A) (A) (A) (A) (A) (A) (A) (A) (A)
                 (A) (A) (A) (A) (A) (A) (A) (A) (A) (A) (A) (A)
                 (A) (A) (A) (A) (A) (A) (A) (A) (A) (A) (A) (A)
                 (A) (A) (A) (A) (A) (A) (A) (A) (A) (A) (A) (A)
                 (A) (A) (A) (A) (A) (A) (A) (A) (A) (A) (A) (A)
                 (A) (A) (A) (A) (A) (A) (A) (A) (A) (A) (A) (A)
                 (A) (A) (A) (A) (A) (A) (A) (A) (A) (A) (A) (A)
                 (A) (A) (A) (A) (A) (A) (A) (A) (A) (A) (A) (A)
                 (A) (A) (A) (A) (A) (A) (A) (A) (A) (A) (A) (A)
                 (A) (A) (A) (A) (A) (A) (A) (A) (A) (A) (A) (A)
                 (A) (A) (A) (A) (A) (A) (A) (A) (A) (A) (A) (A)
                 (A) (A) (A) (A) (A) (A) (A) (A) (A) (A) (A) (A)
                 (A) (A) (A) (A) (A) (A) (A) (A) (A) (A) (A) (A)
                 (A) (A) (A) (A) (A) (A) (A) (A) (A) (A) (A) (A)
                 (A) (A) (A) (A) (A) (A) (A) (A) (A) (A) (A) (A)
                 (A) (A) (A) (A) (A) (A) (A) (A) (A) (A) (A) (A)
                 (A) (A) (A) (A) (A) (A) (A) (A) (A) (A) (A) (A)
                 (A) (A) (A) (A) (A) (A) (A) (A) (A) (A) (A) (A)
                 (A) (A) (A) (A) (A) (A) (A) (A) (A) (A) (A) (A)
                 (A) (A) (A) (A) (A) (A) (A) (A) (A) (A) (A) (A)
                 (A) (A) (A) (A) (A) (A) (A) (A) (A) (A) (A) (A)
                 (A) (A) (A) (A) (A) (A) (A) (A) (A) (A) (A) (A)
                 (A) (A) (A) (A) (A) (A) (A) (A) (A) (A) (A) (A)
                 (A) (A)
 The electronic state is 1-A.
 Alpha  occ. eigenvalues --  -18.81847 -18.76990 -10.03213  -9.91015  -9.89805
 Alpha  occ. eigenvalues --   -9.89454  -9.89243  -9.89243  -9.89078  -9.89077
 Alpha  occ. eigenvalues --   -9.88982  -9.88982  -9.88901  -9.88744  -9.88676
 Alpha  occ. eigenvalues --   -9.88656  -9.88646  -9.88589  -9.88527  -9.88067
 Alpha  occ. eigenvalues --   -1.02056  -0.93885  -0.74713  -0.73885  -0.72891
 Alpha  occ. eigenvalues --   -0.71634  -0.70114  -0.68076  -0.66275  -0.63739
 Alpha  occ. eigenvalues --   -0.61609  -0.59277  -0.57312  -0.54046  -0.53575
 Alpha  occ. eigenvalues --   -0.51633  -0.51464  -0.51217  -0.48381  -0.45640
 Alpha  occ. eigenvalues --   -0.44975  -0.44228  -0.43932  -0.43389  -0.42827
 Alpha  occ. eigenvalues --   -0.41632  -0.41372  -0.39166  -0.38720  -0.37752
 Alpha  occ. eigenvalues --   -0.37564  -0.37329  -0.36440  -0.36127  -0.36040
 Alpha  occ. eigenvalues --   -0.35199  -0.33991  -0.33766  -0.33431  -0.32680
 Alpha  occ. eigenvalues --   -0.31868  -0.31751  -0.30894  -0.30231  -0.29890
 Alpha  occ. eigenvalues --   -0.29463  -0.29129  -0.28842  -0.28602  -0.28400
 Alpha  occ. eigenvalues --   -0.28073  -0.27948  -0.27615  -0.27595  -0.26747
 Alpha  occ. eigenvalues --   -0.24808  -0.22228  -0.20635
 Alpha virt. eigenvalues --   -0.04546  -0.02721  -0.02342   0.01970   0.02260
 Alpha virt. eigenvalues --    0.02678   0.03522   0.03791   0.04403   0.04652
 Alpha virt. eigenvalues --    0.05638   0.05853   0.06159   0.07013   0.07395
 Alpha virt. eigenvalues --    0.07515   0.08161   0.08644   0.09379   0.09641
 Alpha virt. eigenvalues --    0.09910   0.10419   0.10989   0.11432   0.11509
 Alpha virt. eigenvalues --    0.11666   0.11984   0.12343   0.12599   0.13053
 Alpha virt. eigenvalues --    0.13145   0.13286   0.13781   0.13986   0.14128
 Alpha virt. eigenvalues --    0.14403   0.14921   0.15088   0.15487   0.15939
 Alpha virt. eigenvalues --    0.16237   0.16840   0.17461   0.17841   0.18208
 Alpha virt. eigenvalues --    0.18466   0.18989   0.19257   0.19898   0.20042
 Alpha virt. eigenvalues --    0.20551   0.21953   0.22317   0.22609   0.22758
 Alpha virt. eigenvalues --    0.23730   0.24028   0.24304   0.24661   0.25391
 Alpha virt. eigenvalues --    0.25883   0.26131   0.26558   0.26617   0.26984
 Alpha virt. eigenvalues --    0.27691   0.27837   0.28334   0.28479   0.29004
 Alpha virt. eigenvalues --    0.29562   0.29844   0.30089   0.30981   0.31254
 Alpha virt. eigenvalues --    0.31998   0.32692   0.33111   0.33310   0.34425
 Alpha virt. eigenvalues --    0.35252   0.35464   0.36344   0.36908   0.37163
 Alpha virt. eigenvalues --    0.37194   0.37633   0.38031   0.38197   0.38327
 Alpha virt. eigenvalues --    0.38710   0.39364   0.39546   0.39868   0.40455
 Alpha virt. eigenvalues --    0.40696   0.41184   0.41613   0.41749   0.41889
 Alpha virt. eigenvalues --    0.42162   0.42425   0.42838   0.42912   0.43460
 Alpha virt. eigenvalues --    0.43609   0.43960   0.44079   0.44208   0.44506
 Alpha virt. eigenvalues --    0.45305   0.45488   0.45803   0.45855   0.46040
 Alpha virt. eigenvalues --    0.46437   0.46824   0.47312   0.47377   0.47550
 Alpha virt. eigenvalues --    0.47750   0.48221   0.48474   0.48892   0.49572
 Alpha virt. eigenvalues --    0.49877   0.50406   0.50451   0.51025   0.51333
 Alpha virt. eigenvalues --    0.51979   0.52406   0.52654   0.53306   0.53747
 Alpha virt. eigenvalues --    0.54894   0.55163   0.55632   0.56180   0.56775
 Alpha virt. eigenvalues --    0.57581   0.58221   0.59113   0.59582   0.60275
 Alpha virt. eigenvalues --    0.61804   0.62431   0.63112   0.63769   0.64345
 Alpha virt. eigenvalues --    0.64678   0.66019   0.66736   0.67037   0.68871
 Alpha virt. eigenvalues --    0.70029   0.71527   0.72632   0.73270   0.74506
 Alpha virt. eigenvalues --    0.75127   0.76212   0.77430   0.78908   0.81904
 Alpha virt. eigenvalues --    0.91223   1.06023   1.06839   1.07534   1.08903
 Alpha virt. eigenvalues --    1.11673   1.13481   1.13937   1.16203   1.17656
 Alpha virt. eigenvalues --    1.18322   1.18752   1.18965   1.19500   1.19814
 Alpha virt. eigenvalues --    1.20340   1.21148   1.21382   1.22161   1.22682
 Alpha virt. eigenvalues --    1.22828   1.23471   1.23537   1.24164   1.24420
 Alpha virt. eigenvalues --    1.24590   1.24936   1.25475   1.26683   1.26816
 Alpha virt. eigenvalues --    1.27390   1.27607   1.28984   1.29118   1.29607
 Alpha virt. eigenvalues --    1.29996   1.30384   1.30852   1.31250   1.31598
 Alpha virt. eigenvalues --    1.31687   1.32509   1.32976   1.33550   1.34371
 Alpha virt. eigenvalues --    1.34802   1.36130   1.36404   1.36770   1.37256
 Alpha virt. eigenvalues --    1.37514   1.37870   1.38489   1.38761   1.38824
 Alpha virt. eigenvalues --    1.39280   1.39971   1.40682   1.41666   1.41763
 Alpha virt. eigenvalues --    1.42109   1.43136   1.44442   1.44610   1.44874
 Alpha virt. eigenvalues --    1.45157   1.45998   1.47153   1.47506   1.47819
 Alpha virt. eigenvalues --    1.48703   1.48824   1.48975   1.49567   1.50970
 Alpha virt. eigenvalues --    1.51157   1.51547   1.53165   1.53415   1.53822
 Alpha virt. eigenvalues --    1.54643   1.54909   1.55683   1.56229   1.57044
 Alpha virt. eigenvalues --    1.58932   1.59256   1.59796   1.60176   1.60598
 Alpha virt. eigenvalues --    1.61584   1.62716   1.64627   1.65091   1.65848
 Alpha virt. eigenvalues --    1.66209   1.66710   1.66900   1.67227   1.68037
 Alpha virt. eigenvalues --    1.68499   1.69353   1.69566   1.70308   1.70539
 Alpha virt. eigenvalues --    1.71479   1.72219   1.72414   1.72719   1.73014
 Alpha virt. eigenvalues --    1.73405   1.73888   1.74137   1.74461   1.75744
 Alpha virt. eigenvalues --    1.76014   1.76342   1.77774   1.78029   1.78312
 Alpha virt. eigenvalues --    1.78671   1.78830   1.79153   1.79459   1.79732
 Alpha virt. eigenvalues --    1.80424   1.80659   1.80967   1.81333   1.81738
 Alpha virt. eigenvalues --    1.82095   1.83041   1.83108   1.83791   1.85050
 Alpha virt. eigenvalues --    1.85549   1.86174   1.87168   1.87763   1.88506
 Alpha virt. eigenvalues --    1.89805   1.90581   1.90960   1.91744   1.93106
 Alpha virt. eigenvalues --    1.94672   1.95364   1.97453   1.97706   1.98836
 Alpha virt. eigenvalues --    1.99995   2.01091   2.01478   2.01797   2.03481
 Alpha virt. eigenvalues --    2.05374   2.06795   2.08208   2.08737   2.09425
 Alpha virt. eigenvalues --    2.10036   2.10313   2.11418   2.12181   2.13323
 Alpha virt. eigenvalues --    2.14229   2.15445   2.15927   2.16834   2.17156
 Alpha virt. eigenvalues --    2.18191   2.18746   2.19459   2.20000   2.21161
 Alpha virt. eigenvalues --    2.23532   2.24865   2.26274   2.28312   2.29674
 Alpha virt. eigenvalues --    2.30092   2.31311   2.32181   2.32442   2.33001
 Alpha virt. eigenvalues --    2.34124   2.34745   2.35789   2.36699   2.37625
 Alpha virt. eigenvalues --    2.38777   2.39772   2.41036   2.41927   2.42945
 Alpha virt. eigenvalues --    2.43870   2.44903   2.45384   2.45845   2.46142
 Alpha virt. eigenvalues --    2.47084   2.47455   2.48291   2.48533   2.48797
 Alpha virt. eigenvalues --    2.49717   2.50527   2.50919   2.51282   2.51583
 Alpha virt. eigenvalues --    2.52000   2.52495   2.53093   2.53304   2.53754
 Alpha virt. eigenvalues --    2.53894   2.54365   2.55252   2.55491   2.56177
 Alpha virt. eigenvalues --    2.56420   2.57243   2.58047   2.58102   2.58771
 Alpha virt. eigenvalues --    2.59101   2.59400   2.59762   2.60091   2.60387
 Alpha virt. eigenvalues --    2.60662   2.61496   2.63243   2.63562   2.64567
 Alpha virt. eigenvalues --    2.65111   2.65651   2.66177   2.66584   2.67264
 Alpha virt. eigenvalues --    2.67721   2.69314   2.69995   2.70657   2.71613
 Alpha virt. eigenvalues --    2.72816   2.73350   2.75908   2.77482   2.79230
 Alpha virt. eigenvalues --    2.79991   2.80136   2.82992   2.83316   2.85461
 Alpha virt. eigenvalues --    2.85712   2.87764   2.88989   2.95072   2.96975
 Alpha virt. eigenvalues --    2.98036   3.01101   3.01374   3.02200   3.02961
 Alpha virt. eigenvalues --    3.03422   3.05350   3.07935   3.10187   3.10780
 Alpha virt. eigenvalues --    3.11771   3.12300   3.14133   3.15237   3.17007
 Alpha virt. eigenvalues --    3.18255   3.21801   3.22864   3.24040   3.24126
 Alpha virt. eigenvalues --    3.25519   3.25809   3.27253   3.28379   3.29039
 Alpha virt. eigenvalues --    3.29710   3.30216   3.31187   3.31570   3.32541
 Alpha virt. eigenvalues --    3.33463   3.34006   3.35018   3.35305   3.35537
 Alpha virt. eigenvalues --    3.36570   3.37769   3.38597   3.40680   3.41134
 Alpha virt. eigenvalues --    3.43022   3.43398   3.45328   3.47918   3.50522
 Alpha virt. eigenvalues --    3.53084   3.80223   4.08263   4.18537  21.54506
 Alpha virt. eigenvalues --   21.55833  21.68670  21.72516  21.73722  21.76535
 Alpha virt. eigenvalues --   21.77922  21.81802  21.83396  21.85397  21.86841
 Alpha virt. eigenvalues --   21.87753  21.88539  21.89300  21.91481  21.91817
 Alpha virt. eigenvalues --   22.01463  22.06456  43.05929  43.16430
          Condensed to atoms (all electrons):
 Mulliken charges:
               1
     1  C   -0.419234
     2  C   -0.231773
     3  C   -0.272778
     4  C   -0.288521
     5  C   -0.244978
     6  C   -0.170586
     7  C   -0.180147
     8  C   -0.328971
     9  C   -0.180610
    10  C   -0.168163
    11  C   -0.242707
    12  C   -0.296231
    13  C   -0.268605
    14  C   -0.251459
    15  C   -0.267668
    16  C   -0.263313
    17  C   -0.265205
    18  C    0.203059
    19  O   -0.364226
    20  O   -0.286724
    21  H    0.144816
    22  H    0.131902
    23  H    0.132089
    24  H    0.127713
    25  H    0.129285
    26  H    0.123830
    27  H    0.127287
    28  H    0.140750
    29  H    0.142249
    30  H    0.148172
    31  H    0.151704
    32  H    0.148922
    33  H    0.150362
    34  H    0.173416
    35  H    0.173293
    36  H    0.150136
    37  H    0.148798
    38  H    0.148480
    39  H    0.151786
    40  H    0.142823
    41  H    0.145127
    42  H    0.130749
    43  H    0.128013
    44  H    0.129121
    45  H    0.131101
    46  H    0.131766
    47  H    0.132625
    48  H    0.139029
    49  H    0.138714
    50  H    0.182623
    51  H    0.182282
    52  H    0.329877
 Sum of Mulliken charges =  -0.00000
 Mulliken charges with hydrogens summed into heavy atoms:
               1
     1  C   -0.010428
     2  C    0.025226
     3  C   -0.021660
     4  C   -0.005522
     5  C    0.054899
     6  C   -0.021664
     7  C   -0.029786
     8  C    0.017738
     9  C   -0.030474
    10  C   -0.019365
    11  C    0.057559
    12  C   -0.008281
    13  C   -0.009843
    14  C    0.008763
    15  C   -0.003278
    16  C    0.014430
    17  C    0.099700
    18  C    0.203059
    19  O   -0.364226
    20  O    0.043153
 Electronic spatial extent (au):  <R**2>=          13054.3510
 Charge=              0.0000 electrons
 Dipole moment (field-independent basis, Debye):
    X=              0.7162    Y=             -2.0069    Z=             -0.2029  Tot=              2.1405
 Quadrupole moment (field-independent basis, Debye-Ang):
   XX=           -117.7875   YY=           -135.7986   ZZ=           -127.5369
   XY=            -10.6974   XZ=              0.3708   YZ=             -0.0899
 Traceless Quadrupole moment (field-independent basis, Debye-Ang):
   XX=              9.2535   YY=             -8.7576   ZZ=             -0.4959
   XY=            -10.6974   XZ=              0.3708   YZ=             -0.0899
 Octapole moment (field-independent basis, Debye-Ang**2):
  XXX=            219.3103  YYY=            -16.3434  ZZZ=             -5.7479  XYY=             -6.8031
  XXY=            -13.3759  XXZ=             15.0348  XZZ=             39.6568  YZZ=             11.4209
  YYZ=              7.7171  XYZ=              0.4893
 Hexadecapole moment (field-independent basis, Debye-Ang**3):
 XXXX=         -11093.0974 YYYY=          -3451.6935 ZZZZ=          -1050.7577 XXXY=            302.2838
 XXXZ=            218.3244 YYYX=            -34.7511 YYYZ=            -19.6174 ZZZX=             59.5414
 ZZZY=             30.2314 XXYY=          -3005.3033 XXZZ=          -2339.0090 YYZZ=           -749.2138
 XXYZ=             31.4081 YYXZ=            -38.3737 ZZXY=            -20.9034
 N-N= 1.475922259533D+03 E-N=-4.940821274630D+03  KE= 8.514857771467D+02
 Unable to Open any file for archive entry.
 1\1\GINC-TCN1721\SP\RBP86\TZVP\C18H32O2\ELENAA\22-Feb-2021\0\\# BP86/T
 ZVP SCRF=COSMORS geom=CHECKPOINT guess=CHECKPOINT\\COSMO-file for #OYH
 QOLUKZRVURQ-HZJYTTRNSA-N\\0,1\C,0,-1.2636877433,-6.601079078,11.226067
 3832\C,0,-1.8430785231,-5.9988335034,9.9399805868\C,0,-3.0420739164,-5
 .0756977324,10.1958988858\C,0,-3.6193557823,-4.4640111765,8.9142923074
 \C,0,-4.8140949567,-3.5235321842,9.1770229263\C,0,-5.3799330896,-2.952
 0267094,7.9063351549\C,0,-5.2271099447,-1.6921030209,7.467384954\C,0,-
 4.4752200406,-0.5856256225,8.1945055317\C,0,-3.0093576707,-0.878813815
 8,8.4839700507\C,0,-2.0720686367,-1.1605069963,7.5644059568\C,0,-2.290
 0273801,-1.2737844714,6.0808551616\C,0,-2.2581426736,-2.7381198736,5.5
 958674723\C,0,-2.4552703026,-2.8749836141,4.0818235608\C,0,-2.43155014
 22,-4.3316260581,3.6014035934\C,0,-2.6389510048,-4.4784647511,2.088612
 523\C,0,-2.6020772043,-5.9376531491,1.6173993804\C,0,-2.8105049459,-6.
 0668527086,0.1077538642\C,0,-2.7714359567,-7.4921044969,-0.3936702146\
 O,0,-2.5842660225,-8.4900020388,0.2852381604\O,0,-2.9743981293,-7.5511
 223593,-1.7428196552\H,0,-0.4060497814,-7.2589065851,11.0166409853\H,0
 ,-0.9206409244,-5.8100708347,11.912611339\H,0,-2.0219440815,-7.1971735
 136,11.7593826438\H,0,-2.150740116,-6.8094892645,9.2557424357\H,0,-1.0
 582946345,-5.4314446319,9.4088123223\H,0,-2.7359006221,-4.2628486759,1
 0.8801875146\H,0,-3.8322675996,-5.6401162638,10.7246807322\H,0,-3.9311
 890829,-5.2696482288,8.2256615465\H,0,-2.8352083584,-3.8904243694,8.39
 23625495\H,0,-4.4902028102,-2.7162922137,9.8547186101\H,0,-5.599884197
 9,-4.0890465471,9.7105684812\H,0,-5.9326647032,-3.6554536624,7.2716296
 857\H,0,-5.6676172682,-1.4240334503,6.5011573455\H,0,-4.9813159468,-0.
 3651894196,9.149385703\H,0,-4.5529928317,0.3387038382,7.5977778734\H,0
 ,-2.7115484816,-0.8632197633,9.537796955\H,0,-1.0537593748,-1.37008843
 84,7.9140785249\H,0,-3.2552871438,-0.8238833173,5.7952168608\H,0,-1.50
 56196471,-0.7064304951,5.5472346272\H,0,-1.2986018862,-3.2005949557,5.
 888790595\H,0,-3.049918407,-3.2953664559,6.123764975\H,0,-1.6711531902
 ,-2.3017305018,3.5540053692\H,0,-3.418269308,-2.4120968446,3.798058800
 8\H,0,-1.4675736509,-4.7928672042,3.8837133486\H,0,-3.2128862409,-4.90
 37001587,4.1341627224\H,0,-3.6065874502,-4.0249767153,1.8067698592\H,0
 ,-1.861943977,-3.9008202366,1.5556640878\H,0,-3.3774441935,-6.51860077
 24,2.1439927114\H,0,-1.6360323015,-6.3925810228,1.8924511477\H,0,-2.04
 46337904,-5.4996005562,-0.4487250835\H,0,-3.7774322581,-5.6326704068,-
 0.1991068808\H,0,-2.934931674,-8.4959949721,-2.0053859721\\Version=ES6
 4L-G16RevC.01\State=1-A\HF=-855.9088821\RMSD=1.892e-09\Dipole=-0.08301
 6,0.6341669,-0.5478516\Quadrupole=-0.8510615,-9.6044156,10.455477,2.16
 8027,0.9060995,-1.264967\PG=C01 [X(C18H32O2)]\\@
 The archive entry for this job was punched.


 OUR LITTLE SYSTEMS HAVE THEIR DAY,    
   THEY HAVE THEIR DAY AND CEASE TO BE.
   THEY ARE BUT BROKEN LIGHTS OF THEE, 
 AND THOU, OH LORD, ART MORE THAN THEY.
          -------------------          
 LET KNOWLEDGE GROW FROM MORE TO MORE, 
   BUT MORE OF REVERENCE IN US DWELL.  
   THAT MIND AND SOUL, ACCORDING WELL, 
 MAY MAKE ONE MUSIC AS BEFORE.....     
          -------------------          
                    LORD TENNYSON      
 Job cpu time:       0 days  0 hours 35 minutes 14.8 seconds.
 Elapsed time:       0 days  0 hours  1 minutes  7.8 seconds.
 File lengths (MBytes):  RWF=    257 Int=      0 D2E=      0 Chk=     32 Scr=      1
 Normal termination of Gaussian 16 at Mon Feb 22 22:04:19 2021.
