 Entering Gaussian System, Link 0=g16
 Input=PEDCQBHIVMGVHV-UHFFFAOYSA-N.gjf
 Output=PEDCQBHIVMGVHV-UHFFFAOYSA-N.log
 Initial command:
 /sw/arch/RedHatEnterpriseServer7/EB_production/2019/software/Gaussian/g16.c01/l1.exe "/scratch-local/elenaa.9715256/Gau-29402.inp" -scrdir="/scratch-local/elenaa.9715256/"
 Entering Link 1 = /sw/arch/RedHatEnterpriseServer7/EB_production/2019/software/Gaussian/g16.c01/l1.exe PID=     29403.
  
 Copyright (c) 1988-2019, Gaussian, Inc.  All Rights Reserved.
  
 This is part of the Gaussian(R) 16 program.  It is based on
 the Gaussian(R) 09 system (copyright 2009, Gaussian, Inc.),
 the Gaussian(R) 03 system (copyright 2003, Gaussian, Inc.),
 the Gaussian(R) 98 system (copyright 1998, Gaussian, Inc.),
 the Gaussian(R) 94 system (copyright 1995, Gaussian, Inc.),
 the Gaussian 92(TM) system (copyright 1992, Gaussian, Inc.),
 the Gaussian 90(TM) system (copyright 1990, Gaussian, Inc.),
 the Gaussian 88(TM) system (copyright 1988, Gaussian, Inc.),
 the Gaussian 86(TM) system (copyright 1986, Carnegie Mellon
 University), and the Gaussian 82(TM) system (copyright 1983,
 Carnegie Mellon University). Gaussian is a federally registered
 trademark of Gaussian, Inc.
  
 This software contains proprietary and confidential information,
 including trade secrets, belonging to Gaussian, Inc.
  
 This software is provided under written license and may be
 used, copied, transmitted, or stored only in accord with that
 written license.
  
 The following legend is applicable only to US Government
 contracts under FAR:
  
                    RESTRICTED RIGHTS LEGEND
  
 Use, reproduction and disclosure by the US Government is
 subject to restrictions as set forth in subparagraphs (a)
 and (c) of the Commercial Computer Software - Restricted
 Rights clause in FAR 52.227-19.
  
 Gaussian, Inc.
 340 Quinnipiac St., Bldg. 40, Wallingford CT 06492
  
  
 ---------------------------------------------------------------
 Warning -- This program may not be used in any manner that
 competes with the business of Gaussian, Inc. or will provide
 assistance to any competitor of Gaussian, Inc.  The licensee
 of this program is prohibited from giving any competitor of
 Gaussian, Inc. access to this program.  By using this program,
 the user acknowledges that Gaussian, Inc. is engaged in the
 business of creating and licensing software in the field of
 computational chemistry and represents and warrants to the
 licensee that it is not a competitor of Gaussian, Inc. and that
 it will not use this program in any manner prohibited above.
 ---------------------------------------------------------------
  

 Cite this work as:
 Gaussian 16, Revision C.01,
 M. J. Frisch, G. W. Trucks, H. B. Schlegel, G. E. Scuseria, 
 M. A. Robb, J. R. Cheeseman, G. Scalmani, V. Barone, 
 G. A. Petersson, H. Nakatsuji, X. Li, M. Caricato, A. V. Marenich, 
 J. Bloino, B. G. Janesko, R. Gomperts, B. Mennucci, H. P. Hratchian, 
 J. V. Ortiz, A. F. Izmaylov, J. L. Sonnenberg, D. Williams-Young, 
 F. Ding, F. Lipparini, F. Egidi, J. Goings, B. Peng, A. Petrone, 
 T. Henderson, D. Ranasinghe, V. G. Zakrzewski, J. Gao, N. Rega, 
 G. Zheng, W. Liang, M. Hada, M. Ehara, K. Toyota, R. Fukuda, 
 J. Hasegawa, M. Ishida, T. Nakajima, Y. Honda, O. Kitao, H. Nakai, 
 T. Vreven, K. Throssell, J. A. Montgomery, Jr., J. E. Peralta, 
 F. Ogliaro, M. J. Bearpark, J. J. Heyd, E. N. Brothers, K. N. Kudin, 
 V. N. Staroverov, T. A. Keith, R. Kobayashi, J. Normand, 
 K. Raghavachari, A. P. Rendell, J. C. Burant, S. S. Iyengar, 
 J. Tomasi, M. Cossi, J. M. Millam, M. Klene, C. Adamo, R. Cammi, 
 J. W. Ochterski, R. L. Martin, K. Morokuma, O. Farkas, 
 J. B. Foresman, and D. J. Fox, Gaussian, Inc., Wallingford CT, 2019.
 
 ******************************************
 Gaussian 16:  ES64L-G16RevC.01  3-Jul-2019
                22-Feb-2021 
 ******************************************
 %chk=PEDCQBHIVMGVHV-UHFFFAOYSA-N.chk
 %NProcShared=32
 Will use up to   32 processors via shared memory.
 -------------------------------------------------------------
 #P BP86/TZVP EmpiricalDispersion=GD3 SCRF=(Solvent=Water) Opt
 -------------------------------------------------------------
 1/18=20,19=15,26=3,38=1/1,3;
 2/9=110,12=2,17=6,18=5,40=1/2;
 3/5=19,7=101,11=2,25=1,30=1,70=2201,71=1,72=1,74=404,124=31/1,2,3;
 4//1;
 5/5=2,38=5,53=1/2;
 6/7=2,8=2,9=2,10=2,28=1/1;
 7//1,2,3,16;
 1/18=20,19=15,26=3/3(2);
 2/9=110/2;
 99//99;
 2/9=110/2;
 3/5=19,7=101,11=2,25=1,30=1,70=2205,71=1,72=1,74=404,124=31/1,2,3;
 4/5=5,16=3,69=1/1;
 5/5=2,38=5,53=1/2;
 7//1,2,3,16;
 1/18=20,19=15,26=3/3(-5);
 2/9=110/2;
 6/7=2,8=2,9=2,10=2,19=2,28=1/1;
 99/9=1/99;
 Leave Link    1 at Mon Feb 22 21:16:37 2021, MaxMem=           0 cpu:               1.8 elap:               0.1
 (Enter /sw/arch/RedHatEnterpriseServer7/EB_production/2019/software/Gaussian/g16.c01/l101.exe)
 -------------------------------------
 Particle #PEDCQBHIVMGVHV-UHFFFAOYSA-N
 -------------------------------------
 Symbolic Z-matrix:
 Charge =  0 Multiplicity = 1
 O                     0.75773  -1.59244  -2.38392 
 C                    -0.60199  -1.19705  -2.23839 
 C                    -0.71508   0.00095  -1.26487 
 O                    -0.19846  -0.36218   0.01386 
 C                    -2.17777   0.47469  -1.10215 
 O                    -2.24161   1.58624  -0.21655 
 H                     0.72761  -2.35366  -3.00241 
 H                    -0.98431  -0.91945  -3.22299 
 H                    -1.17344  -2.04931  -1.86009 
 H                    -0.11484   0.82995  -1.65182 
 H                     0.73256  -0.62375  -0.14716 
 H                    -2.58605   0.78062  -2.0675 
 H                    -2.79305  -0.33102  -0.69219 
 H                    -3.19536   1.80534  -0.16407 
 
 ITRead=  0  0  0  0  0  0  0  0  0  0  0  0  0  0
 MicOpt= -1 -1 -1 -1 -1 -1 -1 -1 -1 -1 -1 -1 -1 -1
 NAtoms=     14 NQM=       14 NQMF=       0 NMMI=      0 NMMIF=      0
                NMic=       0 NMicF=      0.
                    Isotopes and Nuclear Properties:
 (Nuclear quadrupole moments (NQMom) in fm**2, nuclear magnetic moments (NMagM)
  in nuclear magnetons)

  Atom         1           2           3           4           5           6           7           8           9          10
 IAtWgt=          16          12          12          16          12          16           1           1           1           1
 AtmWgt=  15.9949146  12.0000000  12.0000000  15.9949146  12.0000000  15.9949146   1.0078250   1.0078250   1.0078250   1.0078250
 NucSpn=           0           0           0           0           0           0           1           1           1           1
 AtZEff=  -0.0000000  -0.0000000  -0.0000000  -0.0000000  -0.0000000  -0.0000000  -0.0000000  -0.0000000  -0.0000000  -0.0000000
 NQMom=    0.0000000   0.0000000   0.0000000   0.0000000   0.0000000   0.0000000   0.0000000   0.0000000   0.0000000   0.0000000
 NMagM=    0.0000000   0.0000000   0.0000000   0.0000000   0.0000000   0.0000000   2.7928460   2.7928460   2.7928460   2.7928460
 AtZNuc=   8.0000000   6.0000000   6.0000000   8.0000000   6.0000000   8.0000000   1.0000000   1.0000000   1.0000000   1.0000000

  Atom        11          12          13          14
 IAtWgt=           1           1           1           1
 AtmWgt=   1.0078250   1.0078250   1.0078250   1.0078250
 NucSpn=           1           1           1           1
 AtZEff=  -0.0000000  -0.0000000  -0.0000000  -0.0000000
 NQMom=    0.0000000   0.0000000   0.0000000   0.0000000
 NMagM=    2.7928460   2.7928460   2.7928460   2.7928460
 AtZNuc=   1.0000000   1.0000000   1.0000000   1.0000000
 Leave Link  101 at Mon Feb 22 21:16:37 2021, MaxMem=   104857600 cpu:               2.5 elap:               0.1
 (Enter /sw/arch/RedHatEnterpriseServer7/EB_production/2019/software/Gaussian/g16.c01/l103.exe)

 GradGradGradGradGradGradGradGradGradGradGradGradGradGradGradGradGradGrad
 Berny optimization.
 Initialization pass.
                           ----------------------------
                           !    Initial Parameters    !
                           ! (Angstroms and Degrees)  !
 --------------------------                            --------------------------
 ! Name  Definition              Value          Derivative Info.                !
 --------------------------------------------------------------------------------
 ! R1    R(1,2)                  1.4235         estimate D2E/DX2                !
 ! R2    R(1,7)                  0.9813         estimate D2E/DX2                !
 ! R3    R(2,3)                  1.5478         estimate D2E/DX2                !
 ! R4    R(2,8)                  1.0921         estimate D2E/DX2                !
 ! R5    R(2,9)                  1.0936         estimate D2E/DX2                !
 ! R6    R(3,4)                  1.4262         estimate D2E/DX2                !
 ! R7    R(3,5)                  1.5461         estimate D2E/DX2                !
 ! R8    R(3,10)                 1.0942         estimate D2E/DX2                !
 ! R9    R(4,11)                 0.9804         estimate D2E/DX2                !
 ! R10   R(5,6)                  1.4226         estimate D2E/DX2                !
 ! R11   R(5,12)                 1.0919         estimate D2E/DX2                !
 ! R12   R(5,13)                 1.0935         estimate D2E/DX2                !
 ! R13   R(6,14)                 0.98           estimate D2E/DX2                !
 ! A1    A(2,1,7)              104.5124         estimate D2E/DX2                !
 ! A2    A(1,2,3)              110.4308         estimate D2E/DX2                !
 ! A3    A(1,2,8)              108.2297         estimate D2E/DX2                !
 ! A4    A(1,2,9)              108.5435         estimate D2E/DX2                !
 ! A5    A(3,2,8)              110.1656         estimate D2E/DX2                !
 ! A6    A(3,2,9)              110.33           estimate D2E/DX2                !
 ! A7    A(8,2,9)              109.0886         estimate D2E/DX2                !
 ! A8    A(2,3,4)              109.9015         estimate D2E/DX2                !
 ! A9    A(2,3,5)              111.8687         estimate D2E/DX2                !
 ! A10   A(2,3,10)             108.8988         estimate D2E/DX2                !
 ! A11   A(4,3,5)              109.0481         estimate D2E/DX2                !
 ! A12   A(4,3,10)             108.1362         estimate D2E/DX2                !
 ! A13   A(5,3,10)             108.908          estimate D2E/DX2                !
 ! A14   A(3,4,11)             105.3479         estimate D2E/DX2                !
 ! A15   A(3,5,6)              110.3271         estimate D2E/DX2                !
 ! A16   A(3,5,12)             110.2771         estimate D2E/DX2                !
 ! A17   A(3,5,13)             110.2428         estimate D2E/DX2                !
 ! A18   A(6,5,12)             108.341          estimate D2E/DX2                !
 ! A19   A(6,5,13)             108.4851         estimate D2E/DX2                !
 ! A20   A(12,5,13)            109.1174         estimate D2E/DX2                !
 ! A21   A(5,6,14)             104.5776         estimate D2E/DX2                !
 ! D1    D(7,1,2,3)            179.3684         estimate D2E/DX2                !
 ! D2    D(7,1,2,8)            -59.9675         estimate D2E/DX2                !
 ! D3    D(7,1,2,9)             58.3037         estimate D2E/DX2                !
 ! D4    D(1,2,3,4)            -59.7492         estimate D2E/DX2                !
 ! D5    D(1,2,3,5)            178.9651         estimate D2E/DX2                !
 ! D6    D(1,2,3,10)            58.5354         estimate D2E/DX2                !
 ! D7    D(8,2,3,4)           -179.2496         estimate D2E/DX2                !
 ! D8    D(8,2,3,5)             59.4647         estimate D2E/DX2                !
 ! D9    D(8,2,3,10)           -60.965          estimate D2E/DX2                !
 ! D10   D(9,2,3,4)             60.2465         estimate D2E/DX2                !
 ! D11   D(9,2,3,5)            -61.0393         estimate D2E/DX2                !
 ! D12   D(9,2,3,10)           178.531          estimate D2E/DX2                !
 ! D13   D(2,3,4,11)            58.8316         estimate D2E/DX2                !
 ! D14   D(5,3,4,11)          -178.2065         estimate D2E/DX2                !
 ! D15   D(10,3,4,11)          -59.923          estimate D2E/DX2                !
 ! D16   D(2,3,5,6)           -179.2079         estimate D2E/DX2                !
 ! D17   D(2,3,5,12)           -59.5643         estimate D2E/DX2                !
 ! D18   D(2,3,5,13)            60.9912         estimate D2E/DX2                !
 ! D19   D(4,3,5,6)             59.0144         estimate D2E/DX2                !
 ! D20   D(4,3,5,12)           178.6581         estimate D2E/DX2                !
 ! D21   D(4,3,5,13)           -60.7864         estimate D2E/DX2                !
 ! D22   D(10,3,5,6)           -58.7836         estimate D2E/DX2                !
 ! D23   D(10,3,5,12)           60.8601         estimate D2E/DX2                !
 ! D24   D(10,3,5,13)         -178.5844         estimate D2E/DX2                !
 ! D25   D(3,5,6,14)          -179.1261         estimate D2E/DX2                !
 ! D26   D(12,5,6,14)           60.0658         estimate D2E/DX2                !
 ! D27   D(13,5,6,14)          -58.2694         estimate D2E/DX2                !
 --------------------------------------------------------------------------------
 Trust Radius=3.00D-01 FncErr=1.00D-07 GrdErr=1.00D-06 EigMax=2.50D+02 EigMin=1.00D-04
 Number of steps in this run=     71 maximum allowed number of steps=    100.
 GradGradGradGradGradGradGradGradGradGradGradGradGradGradGradGradGradGrad

 Leave Link  103 at Mon Feb 22 21:16:37 2021, MaxMem=   104857600 cpu:               0.4 elap:               0.0
 (Enter /sw/arch/RedHatEnterpriseServer7/EB_production/2019/software/Gaussian/g16.c01/l202.exe)
                          Input orientation:                          
 ---------------------------------------------------------------------
 Center     Atomic      Atomic             Coordinates (Angstroms)
 Number     Number       Type             X           Y           Z
 ---------------------------------------------------------------------
      1          8           0        0.757730   -1.592440   -2.383920
      2          6           0       -0.601990   -1.197050   -2.238390
      3          6           0       -0.715080    0.000950   -1.264870
      4          8           0       -0.198460   -0.362180    0.013860
      5          6           0       -2.177770    0.474690   -1.102150
      6          8           0       -2.241610    1.586240   -0.216550
      7          1           0        0.727610   -2.353660   -3.002410
      8          1           0       -0.984310   -0.919450   -3.222990
      9          1           0       -1.173440   -2.049310   -1.860090
     10          1           0       -0.114840    0.829950   -1.651820
     11          1           0        0.732560   -0.623750   -0.147160
     12          1           0       -2.586050    0.780620   -2.067500
     13          1           0       -2.793050   -0.331020   -0.692190
     14          1           0       -3.195360    1.805340   -0.164070
 ---------------------------------------------------------------------
                    Distance matrix (angstroms):
                    1          2          3          4          5
     1  O    0.000000
     2  C    1.423499   0.000000
     3  C    2.441380   1.547816   0.000000
     4  O    2.859578   2.435667   1.426152   0.000000
     5  C    3.812233   2.562975   1.546082   2.421466   0.000000
     6  O    4.878272   3.810891   2.437707   2.832647   1.422641
     7  H    0.981271   1.920758   3.262604   3.731150   4.477922
     8  H    2.047354   1.092093   2.180334   3.377175   2.804628
     9  H    2.052449   1.093624   2.183563   2.703457   2.820235
    10  H    2.676812   2.165666   1.094193   2.050038   2.164261
    11  H    2.437640   2.546162   1.932663   0.980380   3.254012
    12  H    4.112469   2.806577   2.180053   3.367289   1.091873
    13  H    4.130517   2.818064   2.180854   2.689122   1.093529
    14  H    5.665648   4.476909   3.258738   3.702865   1.919925
                    6          7          8          9         10
     6  O    0.000000
     7  H    5.665695   0.000000
     8  H    4.110714   2.244167   0.000000
     9  H    4.130307   2.238641   1.780407   0.000000
    10  H    2.674907   3.559380   2.506981   3.074760   0.000000
    11  H    3.706016   3.338423   3.534941   2.932437   2.257284
    12  H    2.047847   4.655976   2.605948   3.169699   2.506412
    13  H    2.050904   4.671535   3.165871   2.634321   3.072711
    14  H    0.979999   6.383036   4.655128   4.671506   3.557301
                   11         12         13         14
    11  H    0.000000
    12  H    4.083275   0.000000
    13  H    3.579480   1.780469   0.000000
    14  H    4.618368   2.245964   2.237141   0.000000
 Stoichiometry    C3H8O3
 Framework group  C1[X(C3H8O3)]
 Deg. of freedom    36
 Full point group                 C1      NOp   1
 Largest Abelian subgroup         C1      NOp   1
 Largest concise Abelian subgroup C1      NOp   1
                         Standard orientation:                         
 ---------------------------------------------------------------------
 Center     Atomic      Atomic             Coordinates (Angstroms)
 Number     Number       Type             X           Y           Z
 ---------------------------------------------------------------------
      1          8           0        2.426348   -0.001724   -0.250276
      2          6           0        1.259865   -0.686094    0.193914
      3          6           0       -0.013941    0.071161   -0.252982
      4          8           0       -0.012693    1.388291    0.293898
      5          6           0       -1.302956   -0.658186    0.190711
      6          8           0       -2.451594    0.054979   -0.251930
      7          1           0        3.172262   -0.544039    0.084985
      8          1           0        1.269829   -1.691055   -0.233430
      9          1           0        1.294538   -0.760819    1.284431
     10          1           0       -0.011801    0.155338   -1.343931
     11          1           0        0.806762    1.808231   -0.042688
     12          1           0       -1.335957   -1.662232   -0.237063
     13          1           0       -1.339625   -0.732089    1.281124
     14          1           0       -3.210308   -0.466989    0.083182
 ---------------------------------------------------------------------
 Rotational constants (GHZ):           8.0791255           1.8851178           1.6295667
 Leave Link  202 at Mon Feb 22 21:16:37 2021, MaxMem=   104857600 cpu:               2.0 elap:               0.1
 (Enter /sw/arch/RedHatEnterpriseServer7/EB_production/2019/software/Gaussian/g16.c01/l301.exe)
 Standard basis: TZVP (5D, 7F)
 Ernie: Thresh=  0.10000D-02 Tol=  0.10000D-05 Strict=F.
 There are   168 symmetry adapted cartesian basis functions of A   symmetry.
 There are   162 symmetry adapted basis functions of A   symmetry.
   162 basis functions,   274 primitive gaussians,   168 cartesian basis functions
    25 alpha electrons       25 beta electrons
       nuclear repulsion energy       257.5643609066 Hartrees.
 IExCor=  404 DFT=T Ex=B Corr=P86 ExCW=0 ScaHFX=  0.000000
 ScaDFX=  1.000000  1.000000  1.000000  1.000000 ScalE2=  1.000000  1.000000
 IRadAn=      5 IRanWt=     -1 IRanGd=            0 ICorTp=0 IEmpDi=131
 NAtoms=   14 NActive=   14 NUniq=   14 SFac= 1.00D+00 NAtFMM=   60 NAOKFM=F Big=F
 Integral buffers will be    131072 words long.
 Raffenetti 2 integral format.
 Two-electron integral symmetry is turned on.
 R6Disp:  Grimme-D3 Dispersion energy=       -0.0103256972 Hartrees.
 Nuclear repulsion after empirical dispersion term =      257.5540352094 Hartrees.
 ------------------------------------------------------------------------------
 Polarizable Continuum Model (PCM)
 =================================
 Model                : PCM.
 Atomic radii         : UFF (Universal Force Field).
 Polarization charges : Total charges.
 Charge compensation  : None.
 Solution method      : On-the-fly selection.
 Cavity type          : Scaled VdW (van der Waals Surface) (Alpha=1.100).
 Cavity algorithm     : GePol (No added spheres)
                        Default sphere list used, NSphG=   14.
                        Lebedev-Laikov grids with approx.  5.0 points / Ang**2.
                        Smoothing algorithm: York/Karplus (Gamma=1.0000).
                        Polarization charges: spherical gaussians, with
                                              point-specific exponents (IZeta= 3).
                        Self-potential: point-specific (ISelfS= 7).
                        Self-field    : sphere-specific E.n sum rule (ISelfD= 2).
 1st derivatives      : Analytical E(r).r(x)/FMM algorithm (CHGder, D1EAlg=3).
                        Cavity 1st derivative terms included.
 Solvent              : Water, Eps=  78.355300 Eps(inf)=   1.777849
 ------------------------------------------------------------------------------
 Spheres list:
 ISph  on   Nord     Re0    Alpha      Xe            Ye            Ze
    1   O      1    1.7500  1.100      2.426348     -0.001724     -0.250276
    2   C      2    1.9255  1.100      1.259865     -0.686094      0.193914
    3   C      3    1.9255  1.100     -0.013941      0.071161     -0.252982
    4   O      4    1.7500  1.100     -0.012693      1.388291      0.293898
    5   C      5    1.9255  1.100     -1.302956     -0.658186      0.190711
    6   O      6    1.7500  1.100     -2.451594      0.054979     -0.251930
    7   H      7    1.4430  1.100      3.172262     -0.544039      0.084985
    8   H      8    1.4430  1.100      1.269829     -1.691055     -0.233430
    9   H      9    1.4430  1.100      1.294538     -0.760819      1.284431
   10   H     10    1.4430  1.100     -0.011801      0.155338     -1.343931
   11   H     11    1.4430  1.100      0.806762      1.808231     -0.042688
   12   H     12    1.4430  1.100     -1.335957     -1.662232     -0.237063
   13   H     13    1.4430  1.100     -1.339625     -0.732089      1.281124
   14   H     14    1.4430  1.100     -3.210308     -0.466989      0.083182
 ------------------------------------------------------------------------------
 GePol: Number of generator spheres                  =      14
 GePol: Total number of spheres                      =      14
 GePol: Number of exposed spheres                    =      14 (100.00%)
 GePol: Number of points                             =    1167
 GePol: Average weight of points                     =       0.13
 GePol: Minimum weight of points                     =   0.24D-11
 GePol: Maximum weight of points                     =    0.20335
 GePol: Number of points with low weight             =      77
 GePol: Fraction of low-weight points (<1% of avg)   =       6.60%
 GePol: Cavity surface area                          =    156.127 Ang**2
 GePol: Cavity volume                                =    142.718 Ang**3
 Leave Link  301 at Mon Feb 22 21:16:37 2021, MaxMem=   104857600 cpu:               1.6 elap:               0.1
 (Enter /sw/arch/RedHatEnterpriseServer7/EB_production/2019/software/Gaussian/g16.c01/l302.exe)
 NPDir=0 NMtPBC=     1 NCelOv=     1 NCel=       1 NClECP=     1 NCelD=      1
         NCelK=      1 NCelE2=     1 NClLst=     1 CellRange=     0.0.
 One-electron integrals computed using PRISM.
 One-electron integral symmetry used in STVInt
 PrsmSu:  requested number of processors reduced to:  29 ShMem   1 Linda.
 NBasis=   162 RedAO= T EigKep=  3.71D-04  NBF=   162
 NBsUse=   162 1.00D-06 EigRej= -1.00D+00 NBFU=   162
 Precomputing XC quadrature grid using
 IXCGrd= 4 IRadAn=           5 IRanWt=          -1 IRanGd=           0 AccXCQ= 0.00D+00.
 Generated NRdTot=       0 NPtTot=           0 NUsed=           0 NTot=          32
 NSgBfM=   167   167   167   167   167 MxSgAt=    14 MxSgA2=    14.
 Leave Link  302 at Mon Feb 22 21:16:38 2021, MaxMem=   104857600 cpu:               5.2 elap:               0.2
 (Enter /sw/arch/RedHatEnterpriseServer7/EB_production/2019/software/Gaussian/g16.c01/l303.exe)
 DipDrv:  MaxL=1.
 Leave Link  303 at Mon Feb 22 21:16:38 2021, MaxMem=   104857600 cpu:               1.0 elap:               0.1
 (Enter /sw/arch/RedHatEnterpriseServer7/EB_production/2019/software/Gaussian/g16.c01/l401.exe)
 ExpMin= 9.52D-02 ExpMax= 2.70D+04 ExpMxC= 9.22D+02 IAcc=3 IRadAn=         5 AccDes= 0.00D+00
 Harris functional with IExCor=  404 and IRadAn=       5 diagonalized for initial guess.
 HarFok:  IExCor=  404 AccDes= 0.00D+00 IRadAn=         5 IDoV= 1 UseB2=F ITyADJ=14
 ICtDFT=  3500011 ScaDFX=  1.000000  1.000000  1.000000  1.000000
 FoFCou: FMM=F IPFlag=           0 FMFlag=      100000 FMFlg1=           0
         NFxFlg=           0 DoJE=T BraDBF=F KetDBF=T FulRan=T
         wScrn=  0.000000 ICntrl=       500 IOpCl=  0 I1Cent=   200000004 NGrid=           0
         NMat0=    1 NMatS0=      1 NMatT0=    0 NMatD0=    1 NMtDS0=    0 NMtDT0=    0
 Petite list used in FoFCou.
 Harris En= -345.038193167971    
 JPrj=0 DoOrth=F DoCkMO=F.
 Leave Link  401 at Mon Feb 22 21:16:38 2021, MaxMem=   104857600 cpu:               7.8 elap:               0.3
 (Enter /sw/arch/RedHatEnterpriseServer7/EB_production/2019/software/Gaussian/g16.c01/l502.exe)
 Integral symmetry usage will be decided dynamically.
 Closed shell SCF:
 Using DIIS extrapolation, IDIIS=  1040.
 NGot=   104857600 LenX=   104793598 LenY=   104764933
 Requested convergence on RMS density matrix=1.00D-08 within 128 cycles.
 Requested convergence on MAX density matrix=1.00D-06.
 Requested convergence on             energy=1.00D-06.
 No special actions if energy rises.
 Fock matrices will be formed incrementally for  20 cycles.

 Cycle   1  Pass 1  IDiag  1:
 FoFJK:  IHMeth= 1 ICntrl=     500 DoSepK=F KAlg= 0 I1Cent=           0 FoldK=F
 IRaf= 960000000 NMat=       1 IRICut=       1 DoRegI=T DoRafI=F ISym2E= 0 IDoP0=0 IntGTp=1.
 FoFCou: FMM=F IPFlag=           0 FMFlag=      100000 FMFlg1=           0
         NFxFlg=           0 DoJE=T BraDBF=F KetDBF=F FulRan=T
         wScrn=  0.000000 ICntrl=       500 IOpCl=  0 I1Cent=           0 NGrid=           0
         NMat0=    1 NMatS0=      1 NMatT0=    0 NMatD0=    1 NMtDS0=    0 NMtDT0=    0
 Symmetry not used in FoFCou.
 Inv3:  Mode=1 IEnd=     4085667.
 Iteration    1 A*A^-1 deviation from unit magnitude is 3.33D-15 for    377.
 Iteration    1 A*A^-1 deviation from orthogonality  is 1.87D-15 for   1087    626.
 Iteration    1 A^-1*A deviation from unit magnitude is 2.89D-15 for    199.
 Iteration    1 A^-1*A deviation from orthogonality  is 1.92D-15 for   1100    353.
 E= -344.770489099495    
 DIIS: error= 2.76D-02 at cycle   1 NSaved=   1.
 NSaved= 1 IEnMin= 1 EnMin= -344.770489099495     IErMin= 1 ErrMin= 2.76D-02
 ErrMax= 2.76D-02  0.00D+00 EMaxC= 1.00D-01 BMatC= 2.02D-01 BMatP= 2.02D-01
 IDIUse=3 WtCom= 7.24D-01 WtEn= 2.76D-01
 Coeff-Com:  0.100D+01
 Coeff-En:   0.100D+01
 Coeff:      0.100D+01
 Gap=     0.172 Goal=   None    Shift=    0.000
 GapD=    0.172 DampG=1.000 DampE=0.500 DampFc=0.5000 IDamp=-1.
 Damping current iteration by 5.00D-01
 RMSDP=1.18D-02 MaxDP=7.45D-01              OVMax= 1.91D-01

 Cycle   2  Pass 1  IDiag  1:
 RMSU=  5.88D-03    CP:  1.02D+00
 E= -344.792347331255     Delta-E=       -0.021858231760 Rises=F Damp=T
 DIIS: error= 1.16D-02 at cycle   2 NSaved=   2.
 NSaved= 2 IEnMin= 2 EnMin= -344.792347331255     IErMin= 2 ErrMin= 1.16D-02
 ErrMax= 1.16D-02  0.00D+00 EMaxC= 1.00D-01 BMatC= 4.58D-02 BMatP= 2.02D-01
 IDIUse=3 WtCom= 8.84D-01 WtEn= 1.16D-01
 Coeff-Com:  0.302D+00 0.698D+00
 Coeff-En:   0.443D+00 0.557D+00
 Coeff:      0.318D+00 0.682D+00
 Gap=     0.235 Goal=   None    Shift=    0.000
 RMSDP=3.24D-03 MaxDP=2.42D-01 DE=-2.19D-02 OVMax= 1.26D-01

 Cycle   3  Pass 1  IDiag  1:
 RMSU=  1.21D-03    CP:  1.00D+00  4.90D-01
 E= -344.927477132110     Delta-E=       -0.135129800855 Rises=F Damp=F
 DIIS: error= 6.72D-03 at cycle   3 NSaved=   3.
 NSaved= 3 IEnMin= 3 EnMin= -344.927477132110     IErMin= 3 ErrMin= 6.72D-03
 ErrMax= 6.72D-03  0.00D+00 EMaxC= 1.00D-01 BMatC= 6.41D-03 BMatP= 4.58D-02
 IDIUse=3 WtCom= 9.33D-01 WtEn= 6.72D-02
 Coeff-Com:  0.118D+00 0.311D+00 0.571D+00
 Coeff-En:   0.000D+00 0.000D+00 0.100D+01
 Coeff:      0.110D+00 0.290D+00 0.600D+00
 Gap=     0.236 Goal=   None    Shift=    0.000
 RMSDP=5.71D-04 MaxDP=9.77D-03 DE=-1.35D-01 OVMax= 2.12D-02

 Cycle   4  Pass 1  IDiag  1:
 RMSU=  4.87D-04    CP:  1.01D+00  5.02D-01  7.66D-01
 E= -344.931633362181     Delta-E=       -0.004156230071 Rises=F Damp=F
 DIIS: error= 4.04D-03 at cycle   4 NSaved=   4.
 NSaved= 4 IEnMin= 4 EnMin= -344.931633362181     IErMin= 4 ErrMin= 4.04D-03
 ErrMax= 4.04D-03  0.00D+00 EMaxC= 1.00D-01 BMatC= 2.16D-03 BMatP= 6.41D-03
 IDIUse=3 WtCom= 9.60D-01 WtEn= 4.04D-02
 Coeff-Com:  0.348D-01 0.787D-01 0.368D+00 0.518D+00
 Coeff-En:   0.000D+00 0.000D+00 0.258D+00 0.742D+00
 Coeff:      0.334D-01 0.756D-01 0.364D+00 0.527D+00
 Gap=     0.235 Goal=   None    Shift=    0.000
 RMSDP=2.30D-04 MaxDP=3.73D-03 DE=-4.16D-03 OVMax= 7.54D-03

 Cycle   5  Pass 1  IDiag  1:
 RMSU=  1.11D-04    CP:  1.01D+00  5.00D-01  8.33D-01  6.27D-01
 E= -344.933485418568     Delta-E=       -0.001852056386 Rises=F Damp=F
 DIIS: error= 3.76D-04 at cycle   5 NSaved=   5.
 NSaved= 5 IEnMin= 5 EnMin= -344.933485418568     IErMin= 5 ErrMin= 3.76D-04
 ErrMax= 3.76D-04  0.00D+00 EMaxC= 1.00D-01 BMatC= 2.86D-05 BMatP= 2.16D-03
 IDIUse=3 WtCom= 9.96D-01 WtEn= 3.76D-03
 Coeff-Com:  0.680D-02 0.739D-02 0.999D-01 0.187D+00 0.699D+00
 Coeff-En:   0.000D+00 0.000D+00 0.000D+00 0.000D+00 0.100D+01
 Coeff:      0.678D-02 0.736D-02 0.996D-01 0.186D+00 0.700D+00
 Gap=     0.235 Goal=   None    Shift=    0.000
 RMSDP=4.23D-05 MaxDP=1.61D-03 DE=-1.85D-03 OVMax= 9.14D-04

 Cycle   6  Pass 1  IDiag  1:
 RMSU=  1.98D-05    CP:  1.01D+00  4.96D-01  8.35D-01  6.37D-01  7.64D-01
 E= -344.933506251734     Delta-E=       -0.000020833166 Rises=F Damp=F
 DIIS: error= 1.02D-04 at cycle   6 NSaved=   6.
 NSaved= 6 IEnMin= 6 EnMin= -344.933506251734     IErMin= 6 ErrMin= 1.02D-04
 ErrMax= 1.02D-04  0.00D+00 EMaxC= 1.00D-01 BMatC= 3.87D-06 BMatP= 2.86D-05
 IDIUse=3 WtCom= 9.99D-01 WtEn= 1.02D-03
 Coeff-Com:  0.337D-02 0.220D-02 0.498D-01 0.961D-01 0.410D+00 0.438D+00
 Coeff-En:   0.000D+00 0.000D+00 0.000D+00 0.000D+00 0.000D+00 0.100D+01
 Coeff:      0.336D-02 0.219D-02 0.497D-01 0.960D-01 0.410D+00 0.439D+00
 Gap=     0.235 Goal=   None    Shift=    0.000
 RMSDP=1.17D-05 MaxDP=3.93D-04 DE=-2.08D-05 OVMax= 3.12D-04

 Cycle   7  Pass 1  IDiag  1:
 RMSU=  7.07D-06    CP:  1.01D+00  4.96D-01  8.34D-01  6.37D-01  7.77D-01
                    CP:  6.07D-01
 E= -344.933508840029     Delta-E=       -0.000002588295 Rises=F Damp=F
 DIIS: error= 2.77D-05 at cycle   7 NSaved=   7.
 NSaved= 7 IEnMin= 7 EnMin= -344.933508840029     IErMin= 7 ErrMin= 2.77D-05
 ErrMax= 2.77D-05  0.00D+00 EMaxC= 1.00D-01 BMatC= 3.01D-07 BMatP= 3.87D-06
 IDIUse=1 WtCom= 1.00D+00 WtEn= 0.00D+00
 Coeff-Com:  0.104D-02 0.345D-04 0.135D-01 0.261D-01 0.127D+00 0.245D+00
 Coeff-Com:  0.588D+00
 Coeff:      0.104D-02 0.345D-04 0.135D-01 0.261D-01 0.127D+00 0.245D+00
 Coeff:      0.588D+00
 Gap=     0.235 Goal=   None    Shift=    0.000
 RMSDP=3.83D-06 MaxDP=1.28D-04 DE=-2.59D-06 OVMax= 8.36D-05

 Cycle   8  Pass 1  IDiag  1:
 RMSU=  1.94D-06    CP:  1.01D+00  4.96D-01  8.35D-01  6.37D-01  7.83D-01
                    CP:  6.63D-01  6.83D-01
 E= -344.933509023241     Delta-E=       -0.000000183211 Rises=F Damp=F
 DIIS: error= 7.71D-06 at cycle   8 NSaved=   8.
 NSaved= 8 IEnMin= 8 EnMin= -344.933509023241     IErMin= 8 ErrMin= 7.71D-06
 ErrMax= 7.71D-06  0.00D+00 EMaxC= 1.00D-01 BMatC= 2.34D-08 BMatP= 3.01D-07
 IDIUse=1 WtCom= 1.00D+00 WtEn= 0.00D+00
 Coeff-Com:  0.339D-03-0.162D-03 0.354D-02 0.670D-02 0.359D-01 0.950D-01
 Coeff-Com:  0.306D+00 0.553D+00
 Coeff:      0.339D-03-0.162D-03 0.354D-02 0.670D-02 0.359D-01 0.950D-01
 Coeff:      0.306D+00 0.553D+00
 Gap=     0.235 Goal=   None    Shift=    0.000
 RMSDP=9.86D-07 MaxDP=2.03D-05 DE=-1.83D-07 OVMax= 3.89D-05

 Cycle   9  Pass 1  IDiag  1:
 RMSU=  6.91D-07    CP:  1.01D+00  4.96D-01  8.34D-01  6.37D-01  7.83D-01
                    CP:  6.53D-01  7.38D-01  7.25D-01
 E= -344.933509067076     Delta-E=       -0.000000043836 Rises=F Damp=F
 DIIS: error= 2.87D-06 at cycle   9 NSaved=   9.
 NSaved= 9 IEnMin= 9 EnMin= -344.933509067076     IErMin= 9 ErrMin= 2.87D-06
 ErrMax= 2.87D-06  0.00D+00 EMaxC= 1.00D-01 BMatC= 2.92D-09 BMatP= 2.34D-08
 IDIUse=1 WtCom= 1.00D+00 WtEn= 0.00D+00
 Coeff-Com:  0.301D-04-0.926D-04-0.177D-03-0.510D-03-0.117D-02 0.104D-01
 Coeff-Com:  0.645D-01 0.298D+00 0.629D+00
 Coeff:      0.301D-04-0.926D-04-0.177D-03-0.510D-03-0.117D-02 0.104D-01
 Coeff:      0.645D-01 0.298D+00 0.629D+00
 Gap=     0.235 Goal=   None    Shift=    0.000
 RMSDP=3.36D-07 MaxDP=8.45D-06 DE=-4.38D-08 OVMax= 1.02D-05

 Cycle  10  Pass 1  IDiag  1:
 RMSU=  1.08D-07    CP:  1.01D+00  4.96D-01  8.34D-01  6.37D-01  7.83D-01
                    CP:  6.60D-01  7.39D-01  7.84D-01  7.30D-01
 E= -344.933509067759     Delta-E=       -0.000000000683 Rises=F Damp=F
 DIIS: error= 1.52D-07 at cycle  10 NSaved=  10.
 NSaved=10 IEnMin=10 EnMin= -344.933509067759     IErMin=10 ErrMin= 1.52D-07
 ErrMax= 1.52D-07  0.00D+00 EMaxC= 1.00D-01 BMatC= 6.92D-12 BMatP= 2.92D-09
 IDIUse=1 WtCom= 1.00D+00 WtEn= 0.00D+00
 Coeff-Com:  0.432D-05-0.187D-04-0.611D-04-0.153D-03-0.546D-03 0.165D-02
 Coeff-Com:  0.123D-01 0.638D-01 0.146D+00 0.777D+00
 Coeff:      0.432D-05-0.187D-04-0.611D-04-0.153D-03-0.546D-03 0.165D-02
 Coeff:      0.123D-01 0.638D-01 0.146D+00 0.777D+00
 Gap=     0.235 Goal=   None    Shift=    0.000
 RMSDP=3.22D-08 MaxDP=5.06D-07 DE=-6.83D-10 OVMax= 7.16D-07

 Cycle  11  Pass 1  IDiag  1:
 RMSU=  2.63D-08    CP:  1.01D+00  4.96D-01  8.34D-01  6.37D-01  7.83D-01
                    CP:  6.59D-01  7.40D-01  7.85D-01  7.33D-01  8.44D-01
 E= -344.933509067761     Delta-E=       -0.000000000002 Rises=F Damp=F
 DIIS: error= 1.33D-07 at cycle  11 NSaved=  11.
 NSaved=11 IEnMin=11 EnMin= -344.933509067761     IErMin=11 ErrMin= 1.33D-07
 ErrMax= 1.33D-07  0.00D+00 EMaxC= 1.00D-01 BMatC= 5.04D-12 BMatP= 6.92D-12
 IDIUse=1 WtCom= 1.00D+00 WtEn= 0.00D+00
 Coeff-Com:  0.129D-05-0.739D-05-0.285D-04-0.690D-04-0.273D-03 0.552D-03
 Coeff-Com:  0.465D-02 0.256D-01 0.609D-01 0.488D+00 0.421D+00
 Coeff:      0.129D-05-0.739D-05-0.285D-04-0.690D-04-0.273D-03 0.552D-03
 Coeff:      0.465D-02 0.256D-01 0.609D-01 0.488D+00 0.421D+00
 Gap=     0.235 Goal=   None    Shift=    0.000
 RMSDP=1.70D-08 MaxDP=3.16D-07 DE=-1.53D-12 OVMax= 4.14D-07

 Cycle  12  Pass 1  IDiag  1:
 RMSU=  8.43D-09    CP:  1.01D+00  4.96D-01  8.34D-01  6.37D-01  7.83D-01
                    CP:  6.60D-01  7.40D-01  7.86D-01  7.34D-01  8.77D-01
                    CP:  4.78D-01
 E= -344.933509067765     Delta-E=       -0.000000000004 Rises=F Damp=F
 DIIS: error= 2.82D-08 at cycle  12 NSaved=  12.
 NSaved=12 IEnMin=12 EnMin= -344.933509067765     IErMin=12 ErrMin= 2.82D-08
 ErrMax= 2.82D-08  0.00D+00 EMaxC= 1.00D-01 BMatC= 2.30D-13 BMatP= 5.04D-12
 IDIUse=1 WtCom= 1.00D+00 WtEn= 0.00D+00
 Coeff-Com: -0.448D-07-0.910D-06-0.456D-05-0.107D-04-0.504D-04 0.227D-04
 Coeff-Com:  0.440D-03 0.286D-02 0.764D-02 0.120D+00 0.209D+00 0.660D+00
 Coeff:     -0.448D-07-0.910D-06-0.456D-05-0.107D-04-0.504D-04 0.227D-04
 Coeff:      0.440D-03 0.286D-02 0.764D-02 0.120D+00 0.209D+00 0.660D+00
 Gap=     0.235 Goal=   None    Shift=    0.000
 RMSDP=3.21D-09 MaxDP=4.46D-08 DE=-3.81D-12 OVMax= 7.43D-08

 Error on total polarization charges =  0.00913
 SCF Done:  E(RB-P86) =  -344.933509068     A.U. after   12 cycles
            NFock= 12  Conv=0.32D-08     -V/T= 2.0041
 KE= 3.435134101850D+02 PE=-1.325564260943D+03 EE= 3.795633064810D+02
 Leave Link  502 at Mon Feb 22 21:16:44 2021, MaxMem=   104857600 cpu:             189.1 elap:               6.1
 (Enter /sw/arch/RedHatEnterpriseServer7/EB_production/2019/software/Gaussian/g16.c01/l601.exe)
 Copying SCF densities to generalized density rwf, IOpCl= 0 IROHF=0.

 **********************************************************************

            Population analysis using the SCF Density.

 **********************************************************************

 Orbital symmetries:
       Occupied  (A) (A) (A) (A) (A) (A) (A) (A) (A) (A) (A) (A)
                 (A) (A) (A) (A) (A) (A) (A) (A) (A) (A) (A) (A)
                 (A)
       Virtual   (A) (A) (A) (A) (A) (A) (A) (A) (A) (A) (A) (A)
                 (A) (A) (A) (A) (A) (A) (A) (A) (A) (A) (A) (A)
                 (A) (A) (A) (A) (A) (A) (A) (A) (A) (A) (A) (A)
                 (A) (A) (A) (A) (A) (A) (A) (A) (A) (A) (A) (A)
                 (A) (A) (A) (A) (A) (A) (A) (A) (A) (A) (A) (A)
                 (A) (A) (A) (A) (A) (A) (A) (A) (A) (A) (A) (A)
                 (A) (A) (A) (A) (A) (A) (A) (A) (A) (A) (A) (A)
                 (A) (A) (A) (A) (A) (A) (A) (A) (A) (A) (A) (A)
                 (A) (A) (A) (A) (A) (A) (A) (A) (A) (A) (A) (A)
                 (A) (A) (A) (A) (A) (A) (A) (A) (A) (A) (A) (A)
                 (A) (A) (A) (A) (A) (A) (A) (A) (A) (A) (A) (A)
                 (A) (A) (A) (A) (A)
 The electronic state is 1-A.
 Alpha  occ. eigenvalues --  -18.77990 -18.77452 -18.77411  -9.95637  -9.94716
 Alpha  occ. eigenvalues --   -9.94543  -0.95872  -0.94539  -0.93254  -0.69754
 Alpha  occ. eigenvalues --   -0.61307  -0.53913  -0.48557  -0.47163  -0.46466
 Alpha  occ. eigenvalues --   -0.41237  -0.39606  -0.38366  -0.36752  -0.32288
 Alpha  occ. eigenvalues --   -0.31611  -0.29121  -0.24248  -0.23723  -0.23261
 Alpha virt. eigenvalues --    0.00275   0.02027   0.04251   0.04489   0.07443
 Alpha virt. eigenvalues --    0.09319   0.10104   0.11387   0.12628   0.14031
 Alpha virt. eigenvalues --    0.14862   0.16269   0.16437   0.22632   0.23699
 Alpha virt. eigenvalues --    0.27094   0.29010   0.30254   0.31652   0.31716
 Alpha virt. eigenvalues --    0.32442   0.33079   0.35412   0.36713   0.37554
 Alpha virt. eigenvalues --    0.40208   0.40677   0.42556   0.42741   0.44111
 Alpha virt. eigenvalues --    0.44424   0.48008   0.49342   0.49945   0.52011
 Alpha virt. eigenvalues --    0.52723   0.53510   0.55916   0.58456   0.60301
 Alpha virt. eigenvalues --    0.66754   0.74235   0.78157   0.83335   0.87702
 Alpha virt. eigenvalues --    1.10853   1.11716   1.19153   1.21723   1.22405
 Alpha virt. eigenvalues --    1.22581   1.22953   1.24006   1.29768   1.30139
 Alpha virt. eigenvalues --    1.33988   1.35690   1.38030   1.38501   1.40361
 Alpha virt. eigenvalues --    1.42478   1.43696   1.50682   1.52122   1.53289
 Alpha virt. eigenvalues --    1.59465   1.64356   1.66902   1.68810   1.71340
 Alpha virt. eigenvalues --    1.73512   1.73883   1.76004   1.80031   1.85749
 Alpha virt. eigenvalues --    1.89136   1.90613   1.92746   1.94098   1.98396
 Alpha virt. eigenvalues --    2.01978   2.03760   2.04582   2.13225   2.16653
 Alpha virt. eigenvalues --    2.17519   2.24904   2.26947   2.29116   2.38010
 Alpha virt. eigenvalues --    2.42732   2.44031   2.46155   2.48585   2.50819
 Alpha virt. eigenvalues --    2.53660   2.55832   2.56583   2.58774   2.59936
 Alpha virt. eigenvalues --    2.61689   2.62671   2.64128   2.71169   2.80100
 Alpha virt. eigenvalues --    2.83147   2.84755   2.85174   2.87611   2.89072
 Alpha virt. eigenvalues --    2.91891   2.93142   2.96181   2.97581   3.02427
 Alpha virt. eigenvalues --    3.06863   3.09098   3.12126   3.15623   3.17062
 Alpha virt. eigenvalues --    3.17858   3.29415   3.32208   3.33033   3.35132
 Alpha virt. eigenvalues --    3.82288   3.88889   3.90018   4.14665   4.16213
 Alpha virt. eigenvalues --    4.17536  21.60713  21.70207  21.70705  43.09334
 Alpha virt. eigenvalues --   43.10754  43.15363
          Condensed to atoms (all electrons):
               1          2          3          4          5          6
     1  O    7.992922   0.287217  -0.096392  -0.003188   0.010518  -0.000080
     2  C    0.287217   5.161469   0.052736  -0.004176   0.022051   0.010951
     3  C   -0.096392   0.052736   5.720434   0.185313   0.038306  -0.095722
     4  O   -0.003188  -0.004176   0.185313   8.021366  -0.048576   0.004293
     5  C    0.010518   0.022051   0.038306  -0.048576   5.130251   0.311478
     6  O   -0.000080   0.010951  -0.095722   0.004293   0.311478   7.968712
     7  H    0.303837  -0.034886   0.014400  -0.000411  -0.001143   0.000010
     8  H   -0.057101   0.399195  -0.053307   0.011262   0.002070  -0.000592
     9  H   -0.060405   0.371350  -0.011680  -0.010016  -0.007418  -0.000566
    10  H    0.008070  -0.048266   0.333630  -0.072324  -0.036042   0.008251
    11  H    0.017357  -0.006933  -0.049078   0.304635   0.014009  -0.000530
    12  H   -0.000618   0.009080  -0.033210   0.007649   0.393400  -0.057601
    13  H   -0.000559  -0.012432  -0.024714  -0.004584   0.384368  -0.059556
    14  H    0.000011  -0.001654   0.014505  -0.000563  -0.038595   0.299066
               7          8          9         10         11         12
     1  O    0.303837  -0.057101  -0.060405   0.008070   0.017357  -0.000618
     2  C   -0.034886   0.399195   0.371350  -0.048266  -0.006933   0.009080
     3  C    0.014400  -0.053307  -0.011680   0.333630  -0.049078  -0.033210
     4  O   -0.000411   0.011262  -0.010016  -0.072324   0.304635   0.007649
     5  C   -0.001143   0.002070  -0.007418  -0.036042   0.014009   0.393400
     6  O    0.000010  -0.000592  -0.000566   0.008251  -0.000530  -0.057601
     7  H    0.426348  -0.005018  -0.005708  -0.000722  -0.000760   0.000019
     8  H   -0.005018   0.645400  -0.067138  -0.013660   0.002093   0.009871
     9  H   -0.005708  -0.067138   0.637924   0.017058  -0.003044  -0.003713
    10  H   -0.000722  -0.013660   0.017058   0.675957  -0.009773  -0.018932
    11  H   -0.000760   0.002093  -0.003044  -0.009773   0.441189  -0.000458
    12  H    0.000019   0.009871  -0.003713  -0.018932  -0.000458   0.629068
    13  H   -0.000014  -0.002093   0.011058   0.017521  -0.000684  -0.065315
    14  H   -0.000002   0.000015   0.000027  -0.000340   0.000117  -0.005481
              13         14
     1  O   -0.000559   0.000011
     2  C   -0.012432  -0.001654
     3  C   -0.024714   0.014505
     4  O   -0.004584  -0.000563
     5  C    0.384368  -0.038595
     6  O   -0.059556   0.299066
     7  H   -0.000014  -0.000002
     8  H   -0.002093   0.000015
     9  H    0.011058   0.000027
    10  H    0.017521  -0.000340
    11  H   -0.000684   0.000117
    12  H   -0.065315  -0.005481
    13  H    0.635180  -0.005736
    14  H   -0.005736   0.443206
 Mulliken charges:
               1
     1  O   -0.401590
     2  C   -0.205704
     3  C    0.004779
     4  O   -0.390681
     5  C   -0.174676
     6  O   -0.388115
     7  H    0.304051
     8  H    0.129005
     9  H    0.132273
    10  H    0.139571
    11  H    0.291862
    12  H    0.136241
    13  H    0.127560
    14  H    0.295424
 Sum of Mulliken charges =  -0.00000
 Mulliken charges with hydrogens summed into heavy atoms:
               1
     1  O   -0.097539
     2  C    0.055574
     3  C    0.144350
     4  O   -0.098819
     5  C    0.089125
     6  O   -0.092690
 Electronic spatial extent (au):  <R**2>=            726.6689
 Charge=              0.0000 electrons
 Dipole moment (field-independent basis, Debye):
    X=              1.4482    Y=             -4.3872    Z=              0.9909  Tot=              4.7251
 Quadrupole moment (field-independent basis, Debye-Ang):
   XX=            -29.0690   YY=            -35.8185   ZZ=            -38.4490
   XY=              3.0497   XZ=             -0.2337   YZ=             -1.9653
 Traceless Quadrupole moment (field-independent basis, Debye-Ang):
   XX=              5.3765   YY=             -1.3730   ZZ=             -4.0035
   XY=              3.0497   XZ=             -0.2337   YZ=             -1.9653
 Octapole moment (field-independent basis, Debye-Ang**2):
  XXX=              1.2355  YYY=              2.9502  ZZZ=              0.7339  XYY=              6.6752
  XXY=            -24.0260  XXZ=             15.2734  XZZ=              0.1197  YZZ=             -0.1763
  YYZ=             -3.0023  XYZ=             -0.4506
 Hexadecapole moment (field-independent basis, Debye-Ang**3):
 XXXX=           -435.6862 YYYY=           -160.9985 ZZZZ=            -71.2038 XXXY=              1.4062
 XXXZ=             -0.9709 YYYX=             12.5053 YYYZ=             -0.2257 ZZZX=             -0.2808
 ZZZY=             -1.5598 XXYY=           -120.1895 XXZZ=           -124.5951 YYZZ=            -42.3815
 XXYZ=             -3.0091 YYXZ=             -0.2178 ZZXY=              0.4192
 N-N= 2.575540352094D+02 E-N=-1.325564260940D+03  KE= 3.435134101850D+02
 No NMR shielding tensors so no spin-rotation constants.
 Leave Link  601 at Mon Feb 22 21:16:45 2021, MaxMem=   104857600 cpu:               4.0 elap:               0.2
 (Enter /sw/arch/RedHatEnterpriseServer7/EB_production/2019/software/Gaussian/g16.c01/l701.exe)
 ... and contract with generalized density number  0.
 Compute integral first derivatives.
 R6Disp: Adding Grimme-D3 dispersion energy 1st derivatives to the gradient.
 PrsmSu:  requested number of processors reduced to:  30 ShMem   1 Linda.
 D1PCM: PCM CHGder 1st derivatives, ID1Alg=3 FixD1E=F DoIter=F DoCFld=F I1PDM=0.
 GePol: Maximum number of non-zero 1st derivatives   =     186
 CoulSu:  requested number of processors reduced to:  29 ShMem   1 Linda.
 CoulSu:  requested number of processors reduced to:  30 ShMem   1 Linda.
 Leave Link  701 at Mon Feb 22 21:16:45 2021, MaxMem=   104857600 cpu:              19.3 elap:               0.7
 (Enter /sw/arch/RedHatEnterpriseServer7/EB_production/2019/software/Gaussian/g16.c01/l702.exe)
 L702 exits ... SP integral derivatives will be done elsewhere.
 Leave Link  702 at Mon Feb 22 21:16:46 2021, MaxMem=   104857600 cpu:               0.9 elap:               0.1
 (Enter /sw/arch/RedHatEnterpriseServer7/EB_production/2019/software/Gaussian/g16.c01/l703.exe)
 Integral derivatives from FoFJK, PRISM(SPDF).
 Compute integral first derivatives, UseDBF=F ICtDFT=           0.
 Calling FoFJK, ICntrl=      2527 FMM=F ISym2X=0 I1Cent= 0 IOpClX= 0 NMat=1 NMatS=1 NMatT=0.
 FoFJK:  IHMeth= 1 ICntrl=    2527 DoSepK=F KAlg= 0 I1Cent=           0 FoldK=F
 IRaf=         0 NMat=       1 IRICut=       1 DoRegI=T DoRafI=F ISym2E= 0 IDoP0=0 IntGTp=1.
 FoFCou: FMM=F IPFlag=           0 FMFlag=      100000 FMFlg1=         800
         NFxFlg=           0 DoJE=F BraDBF=F KetDBF=F FulRan=T
         wScrn=  0.000000 ICntrl=      2527 IOpCl=  0 I1Cent=           0 NGrid=           0
         NMat0=    1 NMatS0=      1 NMatT0=    0 NMatD0=    1 NMtDS0=    0 NMtDT0=    0
 Symmetry not used in FoFCou.
 Leave Link  703 at Mon Feb 22 21:16:46 2021, MaxMem=   104857600 cpu:              22.4 elap:               0.8
 (Enter /sw/arch/RedHatEnterpriseServer7/EB_production/2019/software/Gaussian/g16.c01/l716.exe)
 Dipole        = 5.69779197D-01-1.72605418D+00 3.89834881D-01
 ***** Axes restored to original set *****
 -------------------------------------------------------------------
 Center     Atomic                   Forces (Hartrees/Bohr)
 Number     Number              X              Y              Z
 -------------------------------------------------------------------
      1        8           0.011899034   -0.004879350   -0.002249060
      2        6          -0.009237303    0.009716258    0.001390609
      3        6          -0.008175147   -0.007223510   -0.005733657
      4        8           0.005885505   -0.003977223    0.008071261
      5        6           0.011573770   -0.006671715   -0.000582291
      6        8          -0.003812094    0.011018967    0.007402639
      7        1           0.005556422    0.005024204    0.005690903
      8        1          -0.008290044    0.004696536   -0.005592428
      9        1          -0.008435669   -0.002198603    0.004890180
     10        1           0.002002708    0.006986489   -0.006610039
     11        1          -0.004357883   -0.000462898    0.002446430
     12        1           0.000286728   -0.003978709   -0.010888490
     13        1          -0.001710847   -0.010191161   -0.000701876
     14        1           0.006814823    0.002140715    0.002465820
 -------------------------------------------------------------------
 Cartesian Forces:  Max     0.011899034 RMS     0.006399760
 Leave Link  716 at Mon Feb 22 21:16:47 2021, MaxMem=   104857600 cpu:               0.8 elap:               0.1
 (Enter /sw/arch/RedHatEnterpriseServer7/EB_production/2019/software/Gaussian/g16.c01/l103.exe)

 GradGradGradGradGradGradGradGradGradGradGradGradGradGradGradGradGradGrad
 Berny optimization.
 FormGI is forming the generalized inverse of G from B-inverse, IUseBI=4.
 Internal  Forces:  Max     0.016751930 RMS     0.006458657
 Search for a local minimum.
 Step number   1 out of a maximum of   71
 All quantities printed in internal units (Hartrees-Bohrs-Radians)
 RMS Force = .64587D-02 SwitMx=.10000D-02 MixMth= 1
 Mixed Optimization -- RFO/linear search
 Second derivative matrix not updated -- first step.
 ITU=  0
     Eigenvalues ---    0.00230   0.00230   0.01346   0.01381   0.01392
     Eigenvalues ---    0.04239   0.04754   0.05009   0.05023   0.05665
     Eigenvalues ---    0.05665   0.07266   0.11480   0.11488   0.13795
     Eigenvalues ---    0.13802   0.16000   0.16000   0.16000   0.16659
     Eigenvalues ---    0.19824   0.22060   0.22061   0.27838   0.27987
     Eigenvalues ---    0.34332   0.34397   0.34408   0.34572   0.34597
     Eigenvalues ---    0.41547   0.41938   0.42065   0.51139   0.51311
     Eigenvalues ---    0.51385
 RFO step:  Lambda=-1.08508750D-02 EMin= 2.30000000D-03
 Linear search not attempted -- first point.
 Iteration  1 RMS(Cart)=  0.06945735 RMS(Int)=  0.00225529
 Iteration  2 RMS(Cart)=  0.00257487 RMS(Int)=  0.00078899
 Iteration  3 RMS(Cart)=  0.00000333 RMS(Int)=  0.00078899
 Iteration  4 RMS(Cart)=  0.00000000 RMS(Int)=  0.00078899
 ITry= 1 IFail=0 DXMaxC= 2.05D-01 DCOld= 1.00D+10 DXMaxT= 3.00D-01 DXLimC= 3.00D+00 Rises=F
 Variable       Old X    -DE/DX   Delta X   Delta X   Delta X     New X
                                 (Linear)    (Quad)   (Total)
    R1        2.69002   0.01629   0.00000   0.03785   0.03785   2.72788
    R2        1.85433  -0.00766   0.00000  -0.01466  -0.01466   1.83967
    R3        2.92495  -0.01279   0.00000  -0.04422  -0.04422   2.88073
    R4        2.06376   0.00913   0.00000   0.02562   0.02562   2.08937
    R5        2.06665   0.00781   0.00000   0.02202   0.02202   2.08867
    R6        2.69504   0.01111   0.00000   0.02606   0.02606   2.72109
    R7        2.92167  -0.01503   0.00000  -0.05171  -0.05171   2.86996
    R8        2.06773   0.00873   0.00000   0.02465   0.02465   2.09238
    R9        1.85265  -0.00442   0.00000  -0.00843  -0.00843   1.84422
   R10        2.68840   0.01628   0.00000   0.03774   0.03774   2.72614
   R11        2.06334   0.00841   0.00000   0.02356   0.02356   2.08690
   R12        2.06647   0.00821   0.00000   0.02313   0.02313   2.08960
   R13        1.85193  -0.00602   0.00000  -0.01147  -0.01147   1.84046
    A1        1.82409   0.01006   0.00000   0.05888   0.05888   1.88296
    A2        1.92738  -0.01675   0.00000  -0.07139  -0.07129   1.85609
    A3        1.88896   0.00958   0.00000   0.06415   0.06313   1.95210
    A4        1.89444   0.00941   0.00000   0.05219   0.05004   1.94448
    A5        1.92275   0.00043   0.00000  -0.01095  -0.01013   1.91262
    A6        1.92562  -0.00149   0.00000  -0.03093  -0.03065   1.89497
    A7        1.90396  -0.00071   0.00000   0.00028  -0.00167   1.90229
    A8        1.91814   0.00283   0.00000   0.01376   0.01344   1.93159
    A9        1.95248  -0.00356   0.00000  -0.02905  -0.02928   1.92319
   A10        1.90064  -0.00063   0.00000  -0.01078  -0.01139   1.88925
   A11        1.90325  -0.00118   0.00000  -0.00979  -0.00969   1.89355
   A12        1.88733   0.00188   0.00000   0.04353   0.04355   1.93089
   A13        1.90080   0.00084   0.00000  -0.00522  -0.00562   1.89518
   A14        1.83867   0.00365   0.00000   0.02134   0.02134   1.86001
   A15        1.92557  -0.00824   0.00000  -0.03105  -0.03072   1.89486
   A16        1.92470  -0.00410   0.00000  -0.04363  -0.04379   1.88091
   A17        1.92410  -0.00227   0.00000  -0.02716  -0.02721   1.89689
   A18        1.89091   0.00753   0.00000   0.05351   0.05248   1.94338
   A19        1.89342   0.00725   0.00000   0.05802   0.05737   1.95079
   A20        1.90446   0.00025   0.00000  -0.00651  -0.00924   1.89522
   A21        1.82522   0.00844   0.00000   0.04942   0.04942   1.87465
    D1        3.13057  -0.00129   0.00000  -0.02833  -0.02830   3.10227
    D2       -1.04663  -0.00486   0.00000  -0.04454  -0.04687  -1.09350
    D3        1.01759   0.00486   0.00000   0.02052   0.02283   1.04042
    D4       -1.04282  -0.00132   0.00000  -0.01733  -0.01765  -1.06047
    D5        3.12353   0.00060   0.00000   0.00499   0.00484   3.12837
    D6        1.02163   0.00223   0.00000   0.03709   0.03663   1.05827
    D7       -3.12850  -0.00288   0.00000  -0.04478  -0.04491   3.10978
    D8        1.03785  -0.00096   0.00000  -0.02246  -0.02242   1.01543
    D9       -1.06404   0.00067   0.00000   0.00963   0.00938  -1.05466
   D10        1.05150  -0.00132   0.00000  -0.01812  -0.01771   1.03379
   D11       -1.06534   0.00060   0.00000   0.00420   0.00478  -1.06056
   D12        3.11595   0.00223   0.00000   0.03630   0.03658  -3.13065
   D13        1.02680   0.00099   0.00000  -0.01442  -0.01406   1.01274
   D14       -3.11029  -0.00239   0.00000  -0.04810  -0.04814   3.12475
   D15       -1.04585  -0.00098   0.00000  -0.03507  -0.03538  -1.08123
   D16       -3.12777   0.00176   0.00000   0.05375   0.05368  -3.07409
   D17       -1.03959   0.00325   0.00000   0.07267   0.07252  -0.96707
   D18        1.06450  -0.00055   0.00000   0.01878   0.01916   1.08365
   D19        1.03000   0.00133   0.00000   0.06214   0.06192   1.09191
   D20        3.11817   0.00283   0.00000   0.08106   0.08076  -3.08425
   D21       -1.06092  -0.00097   0.00000   0.02718   0.02740  -1.03353
   D22       -1.02597  -0.00073   0.00000   0.01841   0.01834  -1.00763
   D23        1.06221   0.00077   0.00000   0.03732   0.03718   1.09939
   D24       -3.11689  -0.00303   0.00000  -0.01656  -0.01618  -3.13307
   D25       -3.12634  -0.00075   0.00000  -0.01031  -0.01042  -3.13676
   D26        1.04835   0.00455   0.00000   0.02841   0.03013   1.07847
   D27       -1.01699  -0.00399   0.00000  -0.02602  -0.02763  -1.04462
         Item               Value     Threshold  Converged?
 Maximum Force            0.016752     0.000450     NO 
 RMS     Force            0.006459     0.000300     NO 
 Maximum Displacement     0.205001     0.001800     NO 
 RMS     Displacement     0.070030     0.001200     NO 
 Predicted change in Energy=-5.887708D-03
 Lowest energy point so far.  Saving SCF results.
 GradGradGradGradGradGradGradGradGradGradGradGradGradGradGradGradGradGrad

 Leave Link  103 at Mon Feb 22 21:16:47 2021, MaxMem=   104857600 cpu:               9.1 elap:               0.3
 (Enter /sw/arch/RedHatEnterpriseServer7/EB_production/2019/software/Gaussian/g16.c01/l202.exe)
                          Input orientation:                          
 ---------------------------------------------------------------------
 Center     Atomic      Atomic             Coordinates (Angstroms)
 Number     Number       Type             X           Y           Z
 ---------------------------------------------------------------------
      1          8           0        0.750194   -1.521542   -2.359242
      2          6           0       -0.647277   -1.176673   -2.250058
      3          6           0       -0.725965   -0.008999   -1.273229
      4          8           0       -0.214827   -0.390831    0.017650
      5          6           0       -2.167486    0.439282   -1.107182
      6          8           0       -2.191917    1.599527   -0.250232
      7          1           0        0.822979   -2.290476   -2.951835
      8          1           0       -1.073769   -0.874268   -3.224285
      9          1           0       -1.239534   -2.016537   -1.843241
     10          1           0       -0.140548    0.832740   -1.691249
     11          1           0        0.704110   -0.687559   -0.123516
     12          1           0       -2.565708    0.672138   -2.110556
     13          1           0       -2.751835   -0.397408   -0.681488
     14          1           0       -3.122477    1.869537   -0.151789
 ---------------------------------------------------------------------
                    Distance matrix (angstroms):
                    1          2          3          4          5
     1  O    0.000000
     2  C    1.443530   0.000000
     3  C    2.376184   1.524418   0.000000
     4  O    2.803460   2.438660   1.439940   0.000000
     5  C    3.731666   2.495698   1.518719   2.401501   0.000000
     6  O    4.779644   3.753998   2.404764   2.818185   1.442612
     7  H    0.973512   1.973500   3.228325   3.674716   4.449405
     8  H    2.119930   1.105650   2.162469   3.388456   2.720983
     9  H    2.114307   1.105278   2.149157   2.675044   2.726522
    10  H    2.604281   2.146342   1.107239   2.103088   2.145791
    11  H    2.386655   2.566644   1.956374   0.975920   3.237812
    12  H    3.983626   2.667947   2.133006   3.344519   1.104338
    13  H    4.042616   2.738034   2.145966   2.631586   1.105771
    14  H    5.600878   4.450701   3.244964   3.686787   1.967337
                    6          7          8          9         10
     6  O    0.000000
     7  H    5.614301   0.000000
     8  H    4.026773   2.382757   0.000000
     9  H    4.064557   2.357538   1.799872   0.000000
    10  H    2.621565   3.503134   2.476889   3.057655   0.000000
    11  H    3.692396   3.253131   3.579173   2.915714   2.341483
    12  H    2.112007   4.579086   2.420257   3.009845   2.466376
    13  H    2.118310   4.638694   3.083686   2.501660   3.058055
    14  H    0.973929   6.380642   4.600641   4.637677   3.512375
                   11         12         13         14
    11  H    0.000000
    12  H    4.060642   0.000000
    13  H    3.512702   1.794661   0.000000
    14  H    4.602423   2.362313   2.357327   0.000000
 Stoichiometry    C3H8O3
 Framework group  C1[X(C3H8O3)]
 Deg. of freedom    36
 Full point group                 C1      NOp   1
 RotChk:  IX=0 Diff= 1.88D-02
 Largest Abelian subgroup         C1      NOp   1
 Largest concise Abelian subgroup C1      NOp   1
                         Standard orientation:                         
 ---------------------------------------------------------------------
 Center     Atomic      Atomic             Coordinates (Angstroms)
 Number     Number       Type             X           Y           Z
 ---------------------------------------------------------------------
      1          8           0        2.367201    0.011636   -0.287243
      2          6           0        1.225147   -0.718107    0.209715
      3          6           0       -0.008061    0.057381   -0.239359
      4          8           0       -0.000736    1.387554    0.312017
      5          6           0       -1.269563   -0.649521    0.224763
      6          8           0       -2.412178    0.061408   -0.294986
      7          1           0        3.170378   -0.445830    0.018297
      8          1           0        1.184982   -1.745693   -0.196383
      9          1           0        1.227197   -0.767510    1.313887
     10          1           0       -0.010734    0.093771   -1.345996
     11          1           0        0.825894    1.809427    0.010146
     12          1           0       -1.234181   -1.685951   -0.154872
     13          1           0       -1.272843   -0.678946    1.330138
     14          1           0       -3.210116   -0.402562    0.015764
 ---------------------------------------------------------------------
 Rotational constants (GHZ):           7.8790157           1.9527797           1.6842554
 Leave Link  202 at Mon Feb 22 21:16:47 2021, MaxMem=   104857600 cpu:               0.2 elap:               0.0
 (Enter /sw/arch/RedHatEnterpriseServer7/EB_production/2019/software/Gaussian/g16.c01/l301.exe)
 Standard basis: TZVP (5D, 7F)
 Ernie: Thresh=  0.10000D-02 Tol=  0.10000D-05 Strict=F.
 There are   168 symmetry adapted cartesian basis functions of A   symmetry.
 There are   162 symmetry adapted basis functions of A   symmetry.
   162 basis functions,   274 primitive gaussians,   168 cartesian basis functions
    25 alpha electrons       25 beta electrons
       nuclear repulsion energy       258.8047467722 Hartrees.
 IExCor=  404 DFT=T Ex=B Corr=P86 ExCW=0 ScaHFX=  0.000000
 ScaDFX=  1.000000  1.000000  1.000000  1.000000 ScalE2=  1.000000  1.000000
 IRadAn=      5 IRanWt=     -1 IRanGd=            0 ICorTp=0 IEmpDi=131
 NAtoms=   14 NActive=   14 NUniq=   14 SFac= 1.00D+00 NAtFMM=   60 NAOKFM=F Big=F
 Integral buffers will be    131072 words long.
 Raffenetti 2 integral format.
 Two-electron integral symmetry is turned on.
 R6Disp:  Grimme-D3 Dispersion energy=       -0.0108287450 Hartrees.
 Nuclear repulsion after empirical dispersion term =      258.7939180272 Hartrees.
 ------------------------------------------------------------------------------
 Polarizable Continuum Model (PCM)
 =================================
 Model                : PCM.
 Atomic radii         : UFF (Universal Force Field).
 Polarization charges : Total charges.
 Charge compensation  : None.
 Solution method      : On-the-fly selection.
 Cavity type          : Scaled VdW (van der Waals Surface) (Alpha=1.100).
 Cavity algorithm     : GePol (No added spheres)
                        Default sphere list used, NSphG=   14.
                        Lebedev-Laikov grids with approx.  5.0 points / Ang**2.
                        Smoothing algorithm: York/Karplus (Gamma=1.0000).
                        Polarization charges: spherical gaussians, with
                                              point-specific exponents (IZeta= 3).
                        Self-potential: point-specific (ISelfS= 7).
                        Self-field    : sphere-specific E.n sum rule (ISelfD= 2).
 1st derivatives      : Analytical E(r).r(x)/FMM algorithm (CHGder, D1EAlg=3).
                        Cavity 1st derivative terms included.
 Solvent              : Water, Eps=  78.355300 Eps(inf)=   1.777849
 ------------------------------------------------------------------------------
 Spheres list:
 ISph  on   Nord     Re0    Alpha      Xe            Ye            Ze
    1   O      1    1.7500  1.100      2.367201      0.011636     -0.287243
    2   C      2    1.9255  1.100      1.225147     -0.718107      0.209715
    3   C      3    1.9255  1.100     -0.008061      0.057381     -0.239359
    4   O      4    1.7500  1.100     -0.000736      1.387554      0.312017
    5   C      5    1.9255  1.100     -1.269563     -0.649521      0.224763
    6   O      6    1.7500  1.100     -2.412178      0.061408     -0.294986
    7   H      7    1.4430  1.100      3.170378     -0.445830      0.018297
    8   H      8    1.4430  1.100      1.184982     -1.745693     -0.196383
    9   H      9    1.4430  1.100      1.227197     -0.767510      1.313887
   10   H     10    1.4430  1.100     -0.010734      0.093771     -1.345996
   11   H     11    1.4430  1.100      0.825894      1.809427      0.010146
   12   H     12    1.4430  1.100     -1.234181     -1.685951     -0.154872
   13   H     13    1.4430  1.100     -1.272843     -0.678946      1.330138
   14   H     14    1.4430  1.100     -3.210116     -0.402562      0.015764
 ------------------------------------------------------------------------------
 GePol: Number of generator spheres                  =      14
 GePol: Total number of spheres                      =      14
 GePol: Number of exposed spheres                    =      14 (100.00%)
 GePol: Number of points                             =    1131
 GePol: Average weight of points                     =       0.14
 GePol: Minimum weight of points                     =   0.11D-07
 GePol: Maximum weight of points                     =    0.20576
 GePol: Number of points with low weight             =      60
 GePol: Fraction of low-weight points (<1% of avg)   =       5.31%
 GePol: Cavity surface area                          =    155.498 Ang**2
 GePol: Cavity volume                                =    142.623 Ang**3
 Leave Link  301 at Mon Feb 22 21:16:47 2021, MaxMem=   104857600 cpu:               1.8 elap:               0.1
 (Enter /sw/arch/RedHatEnterpriseServer7/EB_production/2019/software/Gaussian/g16.c01/l302.exe)
 NPDir=0 NMtPBC=     1 NCelOv=     1 NCel=       1 NClECP=     1 NCelD=      1
         NCelK=      1 NCelE2=     1 NClLst=     1 CellRange=     0.0.
 One-electron integrals computed using PRISM.
 One-electron integral symmetry used in STVInt
 PrsmSu:  requested number of processors reduced to:  29 ShMem   1 Linda.
 NBasis=   162 RedAO= T EigKep=  3.25D-04  NBF=   162
 NBsUse=   162 1.00D-06 EigRej= -1.00D+00 NBFU=   162
 Precomputing XC quadrature grid using
 IXCGrd= 4 IRadAn=           5 IRanWt=          -1 IRanGd=           0 AccXCQ= 0.00D+00.
 Generated NRdTot=       0 NPtTot=           0 NUsed=           0 NTot=          32
 NSgBfM=   167   167   167   167   167 MxSgAt=    14 MxSgA2=    14.
 Leave Link  302 at Mon Feb 22 21:16:47 2021, MaxMem=   104857600 cpu:               5.7 elap:               0.2
 (Enter /sw/arch/RedHatEnterpriseServer7/EB_production/2019/software/Gaussian/g16.c01/l303.exe)
 DipDrv:  MaxL=1.
 Leave Link  303 at Mon Feb 22 21:16:47 2021, MaxMem=   104857600 cpu:               3.8 elap:               0.2
 (Enter /sw/arch/RedHatEnterpriseServer7/EB_production/2019/software/Gaussian/g16.c01/l401.exe)
 Initial guess from the checkpoint file:  "PEDCQBHIVMGVHV-UHFFFAOYSA-N.chk"
 B after Tr=    -0.000000   -0.000000   -0.000000
         Rot=    0.999995    0.002928   -0.000385    0.001059 Ang=   0.36 deg.
 Guess basis will be translated and rotated to current coordinates.
 JPrj=2 DoOrth=T DoCkMO=T.
 Generating alternative initial guess.
 ExpMin= 9.52D-02 ExpMax= 2.70D+04 ExpMxC= 9.22D+02 IAcc=3 IRadAn=         5 AccDes= 0.00D+00
 Harris functional with IExCor=  404 and IRadAn=       5 diagonalized for initial guess.
 HarFok:  IExCor=  404 AccDes= 0.00D+00 IRadAn=         5 IDoV= 1 UseB2=F ITyADJ=14
 ICtDFT=  3500011 ScaDFX=  1.000000  1.000000  1.000000  1.000000
 FoFCou: FMM=F IPFlag=           0 FMFlag=      100000 FMFlg1=           0
         NFxFlg=           0 DoJE=T BraDBF=F KetDBF=T FulRan=T
         wScrn=  0.000000 ICntrl=       500 IOpCl=  0 I1Cent=   200000004 NGrid=           0
         NMat0=    1 NMatS0=      1 NMatT0=    0 NMatD0=    1 NMtDS0=    0 NMtDT0=    0
 Petite list used in FoFCou.
 Harris En= -345.039173549402    
 Leave Link  401 at Mon Feb 22 21:16:48 2021, MaxMem=   104857600 cpu:               9.5 elap:               0.3
 (Enter /sw/arch/RedHatEnterpriseServer7/EB_production/2019/software/Gaussian/g16.c01/l502.exe)
 Integral symmetry usage will be decided dynamically.
 Closed shell SCF:
 Using DIIS extrapolation, IDIIS=  1040.
 NGot=   104857600 LenX=   104793598 LenY=   104764933
 Requested convergence on RMS density matrix=1.00D-08 within 128 cycles.
 Requested convergence on MAX density matrix=1.00D-06.
 Requested convergence on             energy=1.00D-06.
 No special actions if energy rises.
 Fock matrices will be formed incrementally for  20 cycles.

 Cycle   1  Pass 1  IDiag  1:
 FoFJK:  IHMeth= 1 ICntrl=     500 DoSepK=F KAlg= 0 I1Cent=           0 FoldK=F
 IRaf= 960000000 NMat=       1 IRICut=       1 DoRegI=T DoRafI=F ISym2E= 0 IDoP0=0 IntGTp=1.
 FoFCou: FMM=F IPFlag=           0 FMFlag=      100000 FMFlg1=           0
         NFxFlg=           0 DoJE=T BraDBF=F KetDBF=F FulRan=T
         wScrn=  0.000000 ICntrl=       500 IOpCl=  0 I1Cent=           0 NGrid=           0
         NMat0=    1 NMatS0=      1 NMatT0=    0 NMatD0=    1 NMtDS0=    0 NMtDT0=    0
 Symmetry not used in FoFCou.
 Inv3:  Mode=1 IEnd=     3837483.
 Iteration    1 A*A^-1 deviation from unit magnitude is 2.89D-15 for    581.
 Iteration    1 A*A^-1 deviation from orthogonality  is 1.17D-15 for    737    366.
 Iteration    1 A^-1*A deviation from unit magnitude is 2.89D-15 for    581.
 Iteration    1 A^-1*A deviation from orthogonality  is 1.67D-15 for   1022    291.
 E= -344.933256620217    
 DIIS: error= 3.60D-03 at cycle   1 NSaved=   1.
 NSaved= 1 IEnMin= 1 EnMin= -344.933256620217     IErMin= 1 ErrMin= 3.60D-03
 ErrMax= 3.60D-03  0.00D+00 EMaxC= 1.00D-01 BMatC= 3.91D-03 BMatP= 3.91D-03
 IDIUse=3 WtCom= 9.64D-01 WtEn= 3.60D-02
 Coeff-Com:  0.100D+01
 Coeff-En:   0.100D+01
 Coeff:      0.100D+01
 Gap=     0.623 Goal=   None    Shift=    0.000
 GapD=    0.623 DampG=2.000 DampE=1.000 DampFc=2.0000 IDamp=-1.
 RMSDP=7.53D-04 MaxDP=1.86D-02              OVMax= 1.84D-02

 Cycle   2  Pass 1  IDiag  1:
 RMSU=  7.53D-04    CP:  1.00D+00
 E= -344.938256116832     Delta-E=       -0.004999496615 Rises=F Damp=F
 DIIS: error= 5.41D-04 at cycle   2 NSaved=   2.
 NSaved= 2 IEnMin= 2 EnMin= -344.938256116832     IErMin= 2 ErrMin= 5.41D-04
 ErrMax= 5.41D-04  0.00D+00 EMaxC= 1.00D-01 BMatC= 8.20D-05 BMatP= 3.91D-03
 IDIUse=3 WtCom= 9.95D-01 WtEn= 5.41D-03
 Coeff-Com:  0.414D-01 0.959D+00
 Coeff-En:   0.000D+00 0.100D+01
 Coeff:      0.412D-01 0.959D+00
 Gap=     0.239 Goal=   None    Shift=    0.000
 RMSDP=1.04D-04 MaxDP=1.58D-03 DE=-5.00D-03 OVMax= 2.72D-03

 Cycle   3  Pass 1  IDiag  1:
 RMSU=  1.04D-04    CP:  1.00D+00  9.90D-01
 E= -344.938253193206     Delta-E=        0.000002923626 Rises=F Damp=F
 DIIS: error= 5.27D-04 at cycle   3 NSaved=   3.
 NSaved= 3 IEnMin= 2 EnMin= -344.938256116832     IErMin= 3 ErrMin= 5.27D-04
 ErrMax= 5.27D-04  0.00D+00 EMaxC= 1.00D-01 BMatC= 9.09D-05 BMatP= 8.20D-05
 IDIUse=3 WtCom= 3.03D-01 WtEn= 6.97D-01
 Coeff-Com:  0.557D-02 0.514D+00 0.480D+00
 Coeff-En:   0.000D+00 0.510D+00 0.490D+00
 Coeff:      0.169D-02 0.511D+00 0.487D+00
 Gap=     0.239 Goal=   None    Shift=    0.000
 RMSDP=7.01D-05 MaxDP=1.38D-03 DE= 2.92D-06 OVMax= 1.75D-03

 Cycle   4  Pass 1  IDiag  1:
 RMSU=  4.11D-05    CP:  1.00D+00  9.98D-01  4.61D-01
 E= -344.938320828803     Delta-E=       -0.000067635597 Rises=F Damp=F
 DIIS: error= 2.13D-04 at cycle   4 NSaved=   4.
 NSaved= 4 IEnMin= 4 EnMin= -344.938320828803     IErMin= 4 ErrMin= 2.13D-04
 ErrMax= 2.13D-04  0.00D+00 EMaxC= 1.00D-01 BMatC= 1.07D-05 BMatP= 8.20D-05
 IDIUse=3 WtCom= 9.98D-01 WtEn= 2.13D-03
 Coeff-Com: -0.162D-03 0.208D+00 0.292D+00 0.501D+00
 Coeff-En:   0.000D+00 0.000D+00 0.357D-01 0.964D+00
 Coeff:     -0.162D-03 0.207D+00 0.291D+00 0.502D+00
 Gap=     0.239 Goal=   None    Shift=    0.000
 RMSDP=2.34D-05 MaxDP=8.16D-04 DE=-6.76D-05 OVMax= 6.23D-04

 Cycle   5  Pass 1  IDiag  1:
 RMSU=  8.69D-06    CP:  1.00D+00  9.98D-01  5.39D-01  5.17D-01
 E= -344.938328020328     Delta-E=       -0.000007191525 Rises=F Damp=F
 DIIS: error= 4.59D-05 at cycle   5 NSaved=   5.
 NSaved= 5 IEnMin= 5 EnMin= -344.938328020328     IErMin= 5 ErrMin= 4.59D-05
 ErrMax= 4.59D-05  0.00D+00 EMaxC= 1.00D-01 BMatC= 7.31D-07 BMatP= 1.07D-05
 IDIUse=1 WtCom= 1.00D+00 WtEn= 0.00D+00
 Coeff-Com: -0.161D-03 0.100D+00 0.153D+00 0.304D+00 0.442D+00
 Coeff:     -0.161D-03 0.100D+00 0.153D+00 0.304D+00 0.442D+00
 Gap=     0.239 Goal=   None    Shift=    0.000
 RMSDP=4.81D-06 MaxDP=9.78D-05 DE=-7.19D-06 OVMax= 1.42D-04

 Cycle   6  Pass 1  IDiag  1:
 RMSU=  2.67D-06    CP:  1.00D+00  9.99D-01  5.26D-01  5.70D-01  6.54D-01
 E= -344.938328558765     Delta-E=       -0.000000538438 Rises=F Damp=F
 DIIS: error= 6.73D-06 at cycle   6 NSaved=   6.
 NSaved= 6 IEnMin= 6 EnMin= -344.938328558765     IErMin= 6 ErrMin= 6.73D-06
 ErrMax= 6.73D-06  0.00D+00 EMaxC= 1.00D-01 BMatC= 1.95D-08 BMatP= 7.31D-07
 IDIUse=1 WtCom= 1.00D+00 WtEn= 0.00D+00
 Coeff-Com: -0.200D-04 0.175D-01 0.307D-01 0.686D-01 0.185D+00 0.699D+00
 Coeff:     -0.200D-04 0.175D-01 0.307D-01 0.686D-01 0.185D+00 0.699D+00
 Gap=     0.239 Goal=   None    Shift=    0.000
 RMSDP=9.84D-07 MaxDP=2.11D-05 DE=-5.38D-07 OVMax= 2.70D-05

 Cycle   7  Pass 1  IDiag  1:
 RMSU=  5.99D-07    CP:  1.00D+00  9.98D-01  5.30D-01  5.65D-01  6.70D-01
                    CP:  7.72D-01
 E= -344.938328562504     Delta-E=       -0.000000003738 Rises=F Damp=F
 DIIS: error= 1.69D-06 at cycle   7 NSaved=   7.
 NSaved= 7 IEnMin= 7 EnMin= -344.938328562504     IErMin= 7 ErrMin= 1.69D-06
 ErrMax= 1.69D-06  0.00D+00 EMaxC= 1.00D-01 BMatC= 6.85D-10 BMatP= 1.95D-08
 IDIUse=1 WtCom= 1.00D+00 WtEn= 0.00D+00
 Coeff-Com: -0.218D-04 0.414D-02 0.794D-02 0.190D-01 0.603D-01 0.283D+00
 Coeff-Com:  0.625D+00
 Coeff:     -0.218D-04 0.414D-02 0.794D-02 0.190D-01 0.603D-01 0.283D+00
 Coeff:      0.625D+00
 Gap=     0.239 Goal=   None    Shift=    0.000
 RMSDP=2.67D-07 MaxDP=1.42D-05 DE=-3.74D-09 OVMax= 5.43D-06

 Cycle   8  Pass 1  IDiag  1:
 RMSU=  1.75D-07    CP:  1.00D+00  9.98D-01  5.30D-01  5.68D-01  6.74D-01
                    CP:  7.84D-01  7.81D-01
 E= -344.938328562992     Delta-E=       -0.000000000488 Rises=F Damp=F
 DIIS: error= 8.09D-07 at cycle   8 NSaved=   8.
 NSaved= 8 IEnMin= 8 EnMin= -344.938328562992     IErMin= 8 ErrMin= 8.09D-07
 ErrMax= 8.09D-07  0.00D+00 EMaxC= 1.00D-01 BMatC= 1.46D-10 BMatP= 6.85D-10
 IDIUse=1 WtCom= 1.00D+00 WtEn= 0.00D+00
 Coeff-Com: -0.103D-04 0.111D-02 0.234D-02 0.603D-02 0.215D-01 0.114D+00
 Coeff-Com:  0.365D+00 0.489D+00
 Coeff:     -0.103D-04 0.111D-02 0.234D-02 0.603D-02 0.215D-01 0.114D+00
 Coeff:      0.365D+00 0.489D+00
 Gap=     0.239 Goal=   None    Shift=    0.000
 RMSDP=9.50D-08 MaxDP=4.70D-06 DE=-4.88D-10 OVMax= 2.04D-06

 Cycle   9  Pass 1  IDiag  1:
 RMSU=  4.08D-08    CP:  1.00D+00  9.98D-01  5.30D-01  5.67D-01  6.73D-01
                    CP:  7.91D-01  8.20D-01  5.88D-01
 E= -344.938328563117     Delta-E=       -0.000000000125 Rises=F Damp=F
 DIIS: error= 1.50D-07 at cycle   9 NSaved=   9.
 NSaved= 9 IEnMin= 9 EnMin= -344.938328563117     IErMin= 9 ErrMin= 1.50D-07
 ErrMax= 1.50D-07  0.00D+00 EMaxC= 1.00D-01 BMatC= 5.26D-12 BMatP= 1.46D-10
 IDIUse=1 WtCom= 1.00D+00 WtEn= 0.00D+00
 Coeff-Com: -0.258D-05 0.231D-03 0.542D-03 0.151D-02 0.598D-02 0.337D-01
 Coeff-Com:  0.126D+00 0.230D+00 0.602D+00
 Coeff:     -0.258D-05 0.231D-03 0.542D-03 0.151D-02 0.598D-02 0.337D-01
 Coeff:      0.126D+00 0.230D+00 0.602D+00
 Gap=     0.239 Goal=   None    Shift=    0.000
 RMSDP=2.10D-08 MaxDP=4.01D-07 DE=-1.25D-10 OVMax= 5.50D-07

 Cycle  10  Pass 1  IDiag  1:
 RMSU=  1.42D-08    CP:  1.00D+00  9.98D-01  5.30D-01  5.67D-01  6.74D-01
                    CP:  7.91D-01  8.27D-01  6.29D-01  7.74D-01
 E= -344.938328563117     Delta-E=       -0.000000000000 Rises=F Damp=F
 DIIS: error= 6.94D-08 at cycle  10 NSaved=  10.
 NSaved=10 IEnMin=10 EnMin= -344.938328563117     IErMin=10 ErrMin= 6.94D-08
 ErrMax= 6.94D-08  0.00D+00 EMaxC= 1.00D-01 BMatC= 1.99D-12 BMatP= 5.26D-12
 IDIUse=1 WtCom= 1.00D+00 WtEn= 0.00D+00
 Coeff-Com: -0.981D-07-0.211D-04-0.105D-04 0.543D-04 0.669D-03 0.469D-02
 Coeff-Com:  0.267D-01 0.781D-01 0.412D+00 0.478D+00
 Coeff:     -0.981D-07-0.211D-04-0.105D-04 0.543D-04 0.669D-03 0.469D-02
 Coeff:      0.267D-01 0.781D-01 0.412D+00 0.478D+00
 Gap=     0.239 Goal=   None    Shift=    0.000
 RMSDP=8.02D-09 MaxDP=1.16D-07 DE=-1.71D-13 OVMax= 2.16D-07

 Error on total polarization charges =  0.00909
 SCF Done:  E(RB-P86) =  -344.938328563     A.U. after   10 cycles
            NFock= 10  Conv=0.80D-08     -V/T= 2.0044
 KE= 3.434277066464D+02 PE=-1.328031368123D+03 EE= 3.808714148859D+02
 Leave Link  502 at Mon Feb 22 21:16:53 2021, MaxMem=   104857600 cpu:             160.3 elap:               5.1
 (Enter /sw/arch/RedHatEnterpriseServer7/EB_production/2019/software/Gaussian/g16.c01/l701.exe)
 ... and contract with generalized density number  0.
 Compute integral first derivatives.
 R6Disp: Adding Grimme-D3 dispersion energy 1st derivatives to the gradient.
 PrsmSu:  requested number of processors reduced to:  30 ShMem   1 Linda.
 D1PCM: PCM CHGder 1st derivatives, ID1Alg=3 FixD1E=F DoIter=F DoCFld=F I1PDM=0.
 GePol: Maximum number of non-zero 1st derivatives   =     190
 CoulSu:  requested number of processors reduced to:  29 ShMem   1 Linda.
 CoulSu:  requested number of processors reduced to:  30 ShMem   1 Linda.
 Leave Link  701 at Mon Feb 22 21:16:54 2021, MaxMem=   104857600 cpu:              16.4 elap:               0.6
 (Enter /sw/arch/RedHatEnterpriseServer7/EB_production/2019/software/Gaussian/g16.c01/l702.exe)
 L702 exits ... SP integral derivatives will be done elsewhere.
 Leave Link  702 at Mon Feb 22 21:16:54 2021, MaxMem=   104857600 cpu:               0.6 elap:               0.0
 (Enter /sw/arch/RedHatEnterpriseServer7/EB_production/2019/software/Gaussian/g16.c01/l703.exe)
 Integral derivatives from FoFJK, PRISM(SPDF).
 Compute integral first derivatives, UseDBF=F ICtDFT=           0.
 Calling FoFJK, ICntrl=      2527 FMM=F ISym2X=0 I1Cent= 0 IOpClX= 0 NMat=1 NMatS=1 NMatT=0.
 FoFJK:  IHMeth= 1 ICntrl=    2527 DoSepK=F KAlg= 0 I1Cent=           0 FoldK=F
 IRaf=         0 NMat=       1 IRICut=       1 DoRegI=T DoRafI=F ISym2E= 0 IDoP0=0 IntGTp=1.
 FoFCou: FMM=F IPFlag=           0 FMFlag=      100000 FMFlg1=         800
         NFxFlg=           0 DoJE=F BraDBF=F KetDBF=F FulRan=T
         wScrn=  0.000000 ICntrl=      2527 IOpCl=  0 I1Cent=           0 NGrid=           0
         NMat0=    1 NMatS0=      1 NMatT0=    0 NMatD0=    1 NMtDS0=    0 NMtDT0=    0
 Symmetry not used in FoFCou.
 Leave Link  703 at Mon Feb 22 21:16:54 2021, MaxMem=   104857600 cpu:              20.8 elap:               0.7
 (Enter /sw/arch/RedHatEnterpriseServer7/EB_production/2019/software/Gaussian/g16.c01/l716.exe)
 Dipole        = 6.19764437D-01-1.67799667D+00 4.40685218D-01
 ***** Axes restored to original set *****
 -------------------------------------------------------------------
 Center     Atomic                   Forces (Hartrees/Bohr)
 Number     Number              X              Y              Z
 -------------------------------------------------------------------
      1        8          -0.001639971   -0.000480960   -0.001940360
      2        6           0.001184039    0.001111061    0.000884555
      3        6          -0.001274958   -0.000287802    0.000126382
      4        8           0.000597681    0.001039164    0.000578948
      5        6           0.002535587    0.001406154    0.001978717
      6        8          -0.001644637   -0.001367790   -0.001884497
      7        1           0.000239808   -0.000107830    0.000927916
      8        1           0.001333616   -0.000763405   -0.000678956
      9        1           0.000821346   -0.001551929   -0.000922334
     10        1           0.001033458    0.000754280    0.001087485
     11        1          -0.000777870   -0.001030365   -0.001162117
     12        1          -0.001634263    0.000562754   -0.000122184
     13        1          -0.001171204    0.001044443    0.001379946
     14        1           0.000397368   -0.000327775   -0.000253501
 -------------------------------------------------------------------
 Cartesian Forces:  Max     0.002535587 RMS     0.001147171
 Leave Link  716 at Mon Feb 22 21:16:54 2021, MaxMem=   104857600 cpu:               0.7 elap:               0.1
 (Enter /sw/arch/RedHatEnterpriseServer7/EB_production/2019/software/Gaussian/g16.c01/l103.exe)

 GradGradGradGradGradGradGradGradGradGradGradGradGradGradGradGradGradGrad
 Berny optimization.
 Using GEDIIS/GDIIS optimizer.
 FormGI is forming the generalized inverse of G from B-inverse, IUseBI=4.
[...]
     6  O    4.780595   3.756381   2.404519   2.917391   1.440446
     7  H    0.972500   1.978070   3.199922   3.472835   4.434437
     8  H    2.108324   1.104622   2.174157   3.387148   2.796189
     9  H    2.106952   1.104543   2.165780   2.720384   2.732716
    10  H    2.644989   2.153333   1.109365   2.095426   2.143561
    11  H    2.182782   2.414400   1.936129   0.979056   3.216780
    12  H    4.001278   2.642435   2.147488   3.353000   1.106631
    13  H    4.085182   2.838789   2.146831   2.574086   1.105937
    14  H    5.605884   4.460395   3.243308   3.749096   1.965185
                    6          7          8          9         10
     6  O    0.000000
     7  H    5.590064   0.000000
     8  H    4.023815   2.509050   0.000000
     9  H    4.107093   2.233475   1.799058   0.000000
    10  H    2.548570   3.584265   2.462298   3.071511   0.000000
    11  H    3.825094   2.859788   3.439591   2.768137   2.408924
    12  H    2.105806   4.614127   2.469914   2.894620   2.545208
    13  H    2.109434   4.614801   3.290097   2.612010   3.052660
    14  H    0.973313   6.360263   4.635788   4.666444   3.466871
                   11         12         13         14
    11  H    0.000000
    12  H    4.027034   0.000000
    13  H    3.393615   1.794878   0.000000
    14  H    4.690087   2.365185   2.330755   0.000000
 Stoichiometry    C3H8O3
 Framework group  C1[X(C3H8O3)]
 Deg. of freedom    36
 Full point group                 C1      NOp   1
 Largest Abelian subgroup         C1      NOp   1
 Largest concise Abelian subgroup C1      NOp   1
                         Standard orientation:                         
 ---------------------------------------------------------------------
 Center     Atomic      Atomic             Coordinates (Angstroms)
 Number     Number       Type             X           Y           Z
 ---------------------------------------------------------------------
      1          8           0        2.353159   -0.022963   -0.309813
      2          6           0        1.205554   -0.761148    0.166378
      3          6           0       -0.024819    0.054813   -0.230637
      4          8           0        0.084983    1.392455    0.291496
      5          6           0       -1.299199   -0.580359    0.295249
      6          8           0       -2.426768    0.050320   -0.341712
      7          1           0        3.124789   -0.285389    0.220731
      8          1           0        1.164417   -1.764138   -0.294608
      9          1           0        1.239146   -0.870444    1.264988
     10          1           0       -0.081324    0.085753   -1.338130
     11          1           0        1.017267    1.645661    0.132482
     12          1           0       -1.276059   -1.664026    0.072177
     13          1           0       -1.335633   -0.450025    1.392874
     14          1           0       -3.232813   -0.335718    0.043778
 ---------------------------------------------------------------------
 Rotational constants (GHZ):           7.8895328           1.9392148           1.6835787
 Standard basis: TZVP (5D, 7F)
 There are   168 symmetry adapted cartesian basis functions of A   symmetry.
 There are   162 symmetry adapted basis functions of A   symmetry.
   162 basis functions,   274 primitive gaussians,   168 cartesian basis functions
    25 alpha electrons       25 beta electrons
       nuclear repulsion energy       258.7718267966 Hartrees.
 NAtoms=   14 NActive=   14 NUniq=   14 SFac= 1.00D+00 NAtFMM=   60 NAOKFM=F Big=F
 Integral buffers will be    131072 words long.
 Raffenetti 2 integral format.
 Two-electron integral symmetry is turned on.
 Warning! Using old PCM defaults because the COSMOthermo output has been requested.
 These settings can be overridden by following keywords.
 ------------------------------------------------------------------------------
 Polarizable Continuum Model (PCM)
 =================================
 Model                : C-PCM.
 Atomic radii         : Klamt.
 XCosmo               : -1.000 (infinite dielectric limit)
 Polarization charges : Electronic and nuclear charges.
 Charge compensation  : Type 3 (Electronic density weighted correction).
 Solution method      : On-the-fly selection.
 Cavity type          : VdW (van der Waals Surface) (Alpha=1.000).
 Cavity algorithm     : GePol (No added spheres)
                        Default sphere list used, NSphG=   14.
                        Tesserae with average area of 0.200 Ang**2.
                        Smoothing algorithm: None.
                        Polarization charges: point-like.
                        Self-potential: constant (ISelfS= 1).
                        Self-field    : global E.n sum rule (ISelfD= 3).
 Solvent              : Water, Eps=  78.355300 Eps(inf)=   1.777849
 ------------------------------------------------------------------------------
 Spheres list:
 ISph  on   Nord     Re0    Alpha      Xe            Ye            Ze
    1   O      1    1.7200  1.000      2.353159     -0.022963     -0.309813
    2   C      2    2.0000  1.000      1.205554     -0.761148      0.166378
    3   C      3    2.0000  1.000     -0.024819      0.054813     -0.230637
    4   O      4    1.7200  1.000      0.084983      1.392455      0.291496
    5   C      5    2.0000  1.000     -1.299199     -0.580359      0.295249
    6   O      6    1.7200  1.000     -2.426768      0.050320     -0.341712
    7   H      7    1.3000  1.000      3.124789     -0.285389      0.220731
    8   H      8    1.3000  1.000      1.164417     -1.764138     -0.294608
    9   H      9    1.3000  1.000      1.239146     -0.870444      1.264988
   10   H     10    1.3000  1.000     -0.081324      0.085753     -1.338130
   11   H     11    1.3000  1.000      1.017267      1.645661      0.132482
   12   H     12    1.3000  1.000     -1.276059     -1.664026      0.072177
   13   H     13    1.3000  1.000     -1.335633     -0.450025      1.392874
   14   H     14    1.3000  1.000     -3.232813     -0.335718      0.043778
 ------------------------------------------------------------------------------
 One-electron integrals computed using PRISM.
 PrsmSu:  requested number of processors reduced to:  29 ShMem   1 Linda.
 NBasis=   162 RedAO= T EigKep=  3.23D-04  NBF=   162
 NBsUse=   162 1.00D-06 EigRej= -1.00D+00 NBFU=   162
 Initial guess from the checkpoint file:  "PEDCQBHIVMGVHV-UHFFFAOYSA-N.chk"
 B after Tr=     0.000000   -0.000000   -0.000000
         Rot=    1.000000   -0.000000    0.000000    0.000000 Ang=   0.00 deg.
 Requested convergence on RMS density matrix=1.00D-08 within 128 cycles.
 Requested convergence on MAX density matrix=1.00D-06.
 Requested convergence on             energy=1.00D-06.
 No special actions if energy rises.
 Inv3:  Mode=1 IEnd=     2572428.
 Iteration    1 A*A^-1 deviation from unit magnitude is 2.89D-15 for     68.
 Iteration    1 A*A^-1 deviation from orthogonality  is 2.71D-15 for    669    633.
 Iteration    1 A^-1*A deviation from unit magnitude is 2.89D-15 for    553.
 Iteration    1 A^-1*A deviation from orthogonality  is 1.44D-15 for    912    892.
 Error on nuclear    polarization charges =  0.01264
 Error on electronic polarization charges = -0.03760
 SCF Done:  E(RB-P86) =  -344.937732654     A.U. after   10 cycles
            NFock= 10  Conv=0.68D-08     -V/T= 2.0044
 --------------------------------------------------------------------
 Variational C-PCM results
 =========================
 <psi(f)|   H    |psi(f)>                     (a.u.) =    -344.909350
 <psi(f)|H+V(f)/2|psi(f)>                     (a.u.) =    -344.937733
 Total free energy in solution:
 - with all non electrostatic terms           (a.u.) =    -344.929207
 --------------------------------------------------------------------
 (Polarized solute)-Solvent               (kcal/mol) =     -17.81
 --------------------------------------------------------------------
 Cavitation energy                        (kcal/mol) =      17.10
 Dispersion energy                        (kcal/mol) =     -12.91
 Repulsion energy                         (kcal/mol) =       1.16
 Total non electrostatic                  (kcal/mol) =       5.35
 --------------------------------------------------------------------
 Partition over spheres:
 Sphere  on Atom  Surface  Charge   GEl     GCav    GDR
    1      O1      14.59   0.147   -1.51    1.81   -1.25
    2      C2      11.83  -0.028   -0.48    1.39   -0.58
    3      C3       4.84  -0.002   -0.15    0.57   -0.07
    4      O4      16.08   0.205   -4.61    2.00   -1.44
    5      C5      11.43  -0.018   -0.46    1.34   -0.55
    6      O6      16.20   0.197   -4.23    2.01   -1.40
    7      H7       8.59  -0.132   -2.73    1.21   -0.98
    8      H8       6.59  -0.035   -0.39    0.93   -0.78
    9      H9       6.59  -0.036   -0.44    0.93   -0.77
   10      H10      6.64  -0.029    0.05    0.94   -0.84
   11      H11      6.41  -0.077   -0.31    0.90   -0.64
   12      H12      6.52  -0.035   -0.42    0.92   -0.74
   13      H13      6.60  -0.031   -0.19    0.93   -0.76
   14      H14      8.55  -0.126   -1.95    1.21   -0.95
 --------------------------------------------------------------------
 - cavitation energy not included in the total energy.
 - dispersion energy not included in the total energy.
 - repulsion  energy not included in the total energy.
 After PCM corrections, the energy is  -344.937732654     a.u.
 --------------------------------------------------------------------
 Writing COSMO formatted file "PEDCQBHIVMGVHV-UHFFFAOYSA-N.cosmo"
 Recomputed dielectric energy= -0.028516 old= -0.028383 diff=-1.33D-04

 **********************************************************************

            Population analysis using the SCF Density.

 **********************************************************************

 Orbital symmetries:
       Occupied  (A) (A) (A) (A) (A) (A) (A) (A) (A) (A) (A) (A)
                 (A) (A) (A) (A) (A) (A) (A) (A) (A) (A) (A) (A)
                 (A)
       Virtual   (A) (A) (A) (A) (A) (A) (A) (A) (A) (A) (A) (A)
                 (A) (A) (A) (A) (A) (A) (A) (A) (A) (A) (A) (A)
                 (A) (A) (A) (A) (A) (A) (A) (A) (A) (A) (A) (A)
                 (A) (A) (A) (A) (A) (A) (A) (A) (A) (A) (A) (A)
                 (A) (A) (A) (A) (A) (A) (A) (A) (A) (A) (A) (A)
                 (A) (A) (A) (A) (A) (A) (A) (A) (A) (A) (A) (A)
                 (A) (A) (A) (A) (A) (A) (A) (A) (A) (A) (A) (A)
                 (A) (A) (A) (A) (A) (A) (A) (A) (A) (A) (A) (A)
                 (A) (A) (A) (A) (A) (A) (A) (A) (A) (A) (A) (A)
                 (A) (A) (A) (A) (A) (A) (A) (A) (A) (A) (A) (A)
                 (A) (A) (A) (A) (A) (A) (A) (A) (A) (A) (A) (A)
                 (A) (A) (A) (A) (A)
 The electronic state is 1-A.
 Alpha  occ. eigenvalues --  -18.78046 -18.77350 -18.77086  -9.95036  -9.94627
 Alpha  occ. eigenvalues --   -9.94449  -0.95459  -0.93796  -0.92423  -0.70190
 Alpha  occ. eigenvalues --   -0.61373  -0.53316  -0.48245  -0.46673  -0.45864
 Alpha  occ. eigenvalues --   -0.41657  -0.38441  -0.37460  -0.35765  -0.31805
 Alpha  occ. eigenvalues --   -0.31487  -0.29304  -0.24840  -0.23936  -0.23233
 Alpha virt. eigenvalues --    0.01245   0.02835   0.04219   0.05575   0.07746
 Alpha virt. eigenvalues --    0.09104   0.10463   0.11848   0.13242   0.14161
 Alpha virt. eigenvalues --    0.15396   0.16081   0.17066   0.22905   0.24531
 Alpha virt. eigenvalues --    0.26291   0.29641   0.29944   0.30469   0.32117
 Alpha virt. eigenvalues --    0.33079   0.33429   0.36187   0.37503   0.38240
 Alpha virt. eigenvalues --    0.39752   0.40470   0.42671   0.43082   0.44047
 Alpha virt. eigenvalues --    0.45098   0.48294   0.49633   0.50190   0.50931
 Alpha virt. eigenvalues --    0.53540   0.54248   0.55514   0.58628   0.61267
 Alpha virt. eigenvalues --    0.68117   0.72366   0.78946   0.82319   0.86832
 Alpha virt. eigenvalues --    1.11428   1.13343   1.18842   1.21783   1.22546
 Alpha virt. eigenvalues --    1.24047   1.24167   1.25388   1.29699   1.30059
 Alpha virt. eigenvalues --    1.35942   1.38169   1.39504   1.41141   1.41782
 Alpha virt. eigenvalues --    1.42026   1.47579   1.50996   1.53387   1.55035
 Alpha virt. eigenvalues --    1.59593   1.63152   1.66175   1.68508   1.70763
 Alpha virt. eigenvalues --    1.72858   1.73967   1.75970   1.80901   1.85355
 Alpha virt. eigenvalues --    1.89904   1.91616   1.92790   1.97077   1.98898
 Alpha virt. eigenvalues --    2.01625   2.02417   2.03648   2.15567   2.18378
 Alpha virt. eigenvalues --    2.20609   2.22793   2.24311   2.29155   2.35166
 Alpha virt. eigenvalues --    2.42436   2.44138   2.45143   2.48907   2.50086
 Alpha virt. eigenvalues --    2.53361   2.56660   2.57433   2.59420   2.59885
 Alpha virt. eigenvalues --    2.62332   2.63250   2.65339   2.72463   2.79897
 Alpha virt. eigenvalues --    2.83947   2.84806   2.84983   2.88061   2.89001
 Alpha virt. eigenvalues --    2.90311   2.92954   2.94593   2.96962   3.02117
 Alpha virt. eigenvalues --    3.05985   3.07512   3.09272   3.13693   3.14639
 Alpha virt. eigenvalues --    3.18000   3.26302   3.27158   3.31996   3.35438
 Alpha virt. eigenvalues --    3.80090   3.86898   3.90186   4.17016   4.17479
 Alpha virt. eigenvalues --    4.18726  21.56202  21.68015  21.71488  43.07943
 Alpha virt. eigenvalues --   43.10162  43.15317
          Condensed to atoms (all electrons):
               1          2          3          4          5          6
     1  O    8.035775   0.273510  -0.113402  -0.008813   0.012033  -0.000127
     2  C    0.273510   5.191651   0.040767  -0.009524  -0.000516   0.010047
     3  C   -0.113402   0.040767   5.690419   0.217282   0.073903  -0.093792
     4  O   -0.008813  -0.009524   0.217282   8.033111  -0.066867  -0.000291
     5  C    0.012033  -0.000516   0.073903  -0.066867   5.173907   0.307594
     6  O   -0.000127   0.010047  -0.093792  -0.000291   0.307594   7.997873
     7  H    0.305225  -0.027241   0.011420  -0.000199  -0.001203   0.000009
     8  H   -0.045728   0.406819  -0.061652   0.009024  -0.010193  -0.000682
     9  H   -0.050728   0.373335  -0.017871  -0.006428   0.002312  -0.000275
    10  H    0.004332  -0.048996   0.356913  -0.063913  -0.057095   0.011348
    11  H    0.035008  -0.009746  -0.061630   0.309812   0.012026  -0.000563
    12  H   -0.000235   0.027103  -0.059670   0.008480   0.382104  -0.054295
    13  H   -0.000466  -0.016524  -0.020279   0.003576   0.371282  -0.049388
    14  H    0.000012  -0.001650   0.012294  -0.000598  -0.034094   0.302746
               7          8          9         10         11         12
     1  O    0.305225  -0.045728  -0.050728   0.004332   0.035008  -0.000235
     2  C   -0.027241   0.406819   0.373335  -0.048996  -0.009746   0.027103
     3  C    0.011420  -0.061652  -0.017871   0.356913  -0.061630  -0.059670
     4  O   -0.000199   0.009024  -0.006428  -0.063913   0.309812   0.008480
     5  C   -0.001203  -0.010193   0.002312  -0.057095   0.012026   0.382104
     6  O    0.000009  -0.000682  -0.000275   0.011348  -0.000563  -0.054295
     7  H    0.396190   0.001128  -0.009950  -0.000978  -0.001348   0.000021
     8  H    0.001128   0.604590  -0.052183  -0.007886   0.003109   0.009178
     9  H   -0.009950  -0.052183   0.594355   0.014653  -0.003444  -0.005800
    10  H   -0.000978  -0.007886   0.014653   0.653860  -0.003627  -0.010987
    11  H   -0.001348   0.003109  -0.003444  -0.003627   0.423931  -0.000459
    12  H    0.000021   0.009178  -0.005800  -0.010987  -0.000459   0.617475
    13  H    0.000018   0.000695   0.008755   0.016286  -0.000204  -0.050760
    14  H   -0.000002   0.000022   0.000052  -0.000298   0.000105  -0.003551
              13         14
     1  O   -0.000466   0.000012
     2  C   -0.016524  -0.001650
     3  C   -0.020279   0.012294
     4  O    0.003576  -0.000598
     5  C    0.371282  -0.034094
     6  O   -0.049388   0.302746
     7  H    0.000018  -0.000002
     8  H    0.000695   0.000022
     9  H    0.008755   0.000052
    10  H    0.016286  -0.000298
    11  H   -0.000204   0.000105
    12  H   -0.050760  -0.003551
    13  H    0.605822  -0.004674
    14  H   -0.004674   0.414015
 Mulliken charges:
               1
     1  O   -0.446396
     2  C   -0.209033
     3  C    0.025297
     4  O   -0.424652
     5  C   -0.165192
     6  O   -0.430204
     7  H    0.326908
     8  H    0.143760
     9  H    0.153216
    10  H    0.136387
    11  H    0.297030
    12  H    0.141396
    13  H    0.135860
    14  H    0.315621
 Sum of Mulliken charges =  -0.00000
 Mulliken charges with hydrogens summed into heavy atoms:
               1
     1  O   -0.119487
     2  C    0.087943
     3  C    0.161684
     4  O   -0.127622
     5  C    0.112065
     6  O   -0.114582
 Electronic spatial extent (au):  <R**2>=            710.6892
 Charge=             -0.0000 electrons
 Dipole moment (field-independent basis, Debye):
    X=              1.7266    Y=             -4.3877    Z=              2.3018  Tot=              5.2470
 Quadrupole moment (field-independent basis, Debye-Ang):
   XX=            -26.8248   YY=            -37.6867   ZZ=            -38.5080
   XY=              3.8322   XZ=              0.7254   YZ=             -1.4392
 Traceless Quadrupole moment (field-independent basis, Debye-Ang):
   XX=              7.5150   YY=             -3.3468   ZZ=             -4.1682
   XY=              3.8322   XZ=              0.7254   YZ=             -1.4392
 Octapole moment (field-independent basis, Debye-Ang**2):
  XXX=              1.0986  YYY=             -1.4396  ZZZ=              1.5187  XYY=              6.2083
  XXY=            -14.0144  XXZ=             21.4372  XZZ=              0.9637  YZZ=             -0.3114
  YYZ=             -1.5013  XYZ=             -0.1539
 Hexadecapole moment (field-independent basis, Debye-Ang**3):
 XXXX=           -389.8574 YYYY=           -167.3761 ZZZZ=            -75.8724 XXXY=             15.6902
 XXXZ=             10.4129 YYYX=             12.5396 YYYZ=              1.5893 ZZZX=              0.7136
 ZZZY=             -1.3282 XXYY=           -122.4368 XXZZ=           -122.1509 YYZZ=            -43.4295
 XXYZ=             -2.4967 YYXZ=              0.9115 ZZXY=             -0.0065
 N-N= 2.587718267966D+02 E-N=-1.327969333755D+03  KE= 3.434182196863D+02
 Unable to Open any file for archive entry.
 1\1\GINC-TCN1681\SP\RBP86\TZVP\C3H8O3\ELENAA\22-Feb-2021\0\\# BP86/TZV
 P SCRF=COSMORS geom=CHECKPOINT guess=CHECKPOINT\\COSMO-file for #PEDCQ
 BHIVMGVHV-UHFFFAOYSA-N\\0,1\O,0,0.7708998189,-1.4754161266,-2.36659423
 37\C,0,-0.6273090533,-1.115030881,-2.3048932774\C,0,-0.7341704816,0.01
 75553217,-1.2835893567\O,0,-0.1679997909,-0.4006035532,-0.0271826013\C
 ,0,-2.179487101,0.4267039412,-1.065184656\O,0,-2.2030243737,1.66725056
 1,-0.3334907655\H,0,0.834965974,-2.3898691494,-2.6912892383\H,0,-0.989
 6893404,-0.7757119503,-3.2916724861\H,0,-1.2380710834,-1.9730776568,-1
 .9721148603\H,0,-0.1782769272,0.8944022699,-1.6745025688\H,0,0.6510856
 959,-0.8786133999,-0.2704049315\H,0,-2.6706637273,0.5409625426,-2.0502
 340296\H,0,-2.6967400287,-0.3761886099,-0.5075928672\H,0,-3.1355795814
 ,1.8865666906,-0.1615041276\\Version=ES64L-G16RevC.01\State=1-A\HF=-34
 4.9377327\RMSD=6.821e-09\Dipole=-1.0283941,-1.1918631,-1.3354281\Quadr
 upole=2.9526103,1.0488308,-4.0014411,-4.170251,-0.7401048,1.4852842\PG
 =C01 [X(C3H8O3)]\\@
 The archive entry for this job was punched.


 WHAT, THEN, IS TIME?  IF NO ONE ASKS ME, I KNOW WHAT IT IS.
 IF I WISH TO EXPLAIN WHAT IT IS TO HIM WHO ASKS ME, I DO NOT KNOW.
                                   -- ST. AUGUSTINE (FIFTH CENTURY)
 Job cpu time:       0 days  0 hours  2 minutes 54.9 seconds.
 Elapsed time:       0 days  0 hours  0 minutes  5.9 seconds.
 File lengths (MBytes):  RWF=     27 Int=      0 D2E=      0 Chk=      5 Scr=      1
 Normal termination of Gaussian 16 at Mon Feb 22 21:18:05 2021.
