 Entering Gaussian System, Link 0=g16
 Input=POKOASTYJWUQJG-UHFFFAOYSA-M.gjf
 Output=POKOASTYJWUQJG-UHFFFAOYSA-M.log
 Initial command:
 /sw/arch/RedHatEnterpriseServer7/EB_production/2020/software/Gaussian/g16.c01/l1.exe "/scratch-local/elenaa.10684701/Gau-8764.inp" -scrdir="/scratch-local/elenaa.10684701/"
 Entering Link 1 = /sw/arch/RedHatEnterpriseServer7/EB_production/2020/software/Gaussian/g16.c01/l1.exe PID=      8766.
  
 Copyright (c) 1988-2019, Gaussian, Inc.  All Rights Reserved.
  
 This is part of the Gaussian(R) 16 program.  It is based on
 the Gaussian(R) 09 system (copyright 2009, Gaussian, Inc.),
 the Gaussian(R) 03 system (copyright 2003, Gaussian, Inc.),
 the Gaussian(R) 98 system (copyright 1998, Gaussian, Inc.),
 the Gaussian(R) 94 system (copyright 1995, Gaussian, Inc.),
 the Gaussian 92(TM) system (copyright 1992, Gaussian, Inc.),
 the Gaussian 90(TM) system (copyright 1990, Gaussian, Inc.),
 the Gaussian 88(TM) system (copyright 1988, Gaussian, Inc.),
 the Gaussian 86(TM) system (copyright 1986, Carnegie Mellon
 University), and the Gaussian 82(TM) system (copyright 1983,
 Carnegie Mellon University). Gaussian is a federally registered
 trademark of Gaussian, Inc.
  
 This software contains proprietary and confidential information,
 including trade secrets, belonging to Gaussian, Inc.
  
 This software is provided under written license and may be
 used, copied, transmitted, or stored only in accord with that
 written license.
  
 The following legend is applicable only to US Government
 contracts under FAR:
  
                    RESTRICTED RIGHTS LEGEND
  
 Use, reproduction and disclosure by the US Government is
 subject to restrictions as set forth in subparagraphs (a)
 and (c) of the Commercial Computer Software - Restricted
 Rights clause in FAR 52.227-19.
  
 Gaussian, Inc.
 340 Quinnipiac St., Bldg. 40, Wallingford CT 06492
  
  
 ---------------------------------------------------------------
 Warning -- This program may not be used in any manner that
 competes with the business of Gaussian, Inc. or will provide
 assistance to any competitor of Gaussian, Inc.  The licensee
 of this program is prohibited from giving any competitor of
 Gaussian, Inc. access to this program.  By using this program,
 the user acknowledges that Gaussian, Inc. is engaged in the
 business of creating and licensing software in the field of
 computational chemistry and represents and warrants to the
 licensee that it is not a competitor of Gaussian, Inc. and that
 it will not use this program in any manner prohibited above.
 ---------------------------------------------------------------
  

 Cite this work as:
 Gaussian 16, Revision C.01,
 M. J. Frisch, G. W. Trucks, H. B. Schlegel, G. E. Scuseria, 
 M. A. Robb, J. R. Cheeseman, G. Scalmani, V. Barone, 
 G. A. Petersson, H. Nakatsuji, X. Li, M. Caricato, A. V. Marenich, 
 J. Bloino, B. G. Janesko, R. Gomperts, B. Mennucci, H. P. Hratchian, 
 J. V. Ortiz, A. F. Izmaylov, J. L. Sonnenberg, D. Williams-Young, 
 F. Ding, F. Lipparini, F. Egidi, J. Goings, B. Peng, A. Petrone, 
 T. Henderson, D. Ranasinghe, V. G. Zakrzewski, J. Gao, N. Rega, 
 G. Zheng, W. Liang, M. Hada, M. Ehara, K. Toyota, R. Fukuda, 
 J. Hasegawa, M. Ishida, T. Nakajima, Y. Honda, O. Kitao, H. Nakai, 
 T. Vreven, K. Throssell, J. A. Montgomery, Jr., J. E. Peralta, 
 F. Ogliaro, M. J. Bearpark, J. J. Heyd, E. N. Brothers, K. N. Kudin, 
 V. N. Staroverov, T. A. Keith, R. Kobayashi, J. Normand, 
 K. Raghavachari, A. P. Rendell, J. C. Burant, S. S. Iyengar, 
 J. Tomasi, M. Cossi, J. M. Millam, M. Klene, C. Adamo, R. Cammi, 
 J. W. Ochterski, R. L. Martin, K. Morokuma, O. Farkas, 
 J. B. Foresman, and D. J. Fox, Gaussian, Inc., Wallingford CT, 2019.
 
 ******************************************
 Gaussian 16:  ES64L-G16RevC.01  3-Jul-2019
                21-Aug-2021 
 ******************************************
 %chk=POKOASTYJWUQJG-UHFFFAOYSA-M.chk
 %NProcShared=24
 Will use up to   24 processors via shared memory.
 -------------------------------------------------------------
 #P BP86/TZVP EmpiricalDispersion=GD3 SCRF=(Solvent=Water) Opt
 -------------------------------------------------------------
 1/18=20,19=15,26=3,38=1/1,3;
 2/9=110,12=2,17=6,18=5,40=1/2;
 3/5=19,7=101,11=2,25=1,30=1,70=2201,71=1,72=1,74=404,124=31/1,2,3;
 4//1;
 5/5=2,38=5,53=1/2;
 6/7=2,8=2,9=2,10=2,28=1/1;
 7//1,2,3,16;
 1/18=20,19=15,26=3/3(2);
 2/9=110/2;
 99//99;
 2/9=110/2;
 3/5=19,7=101,11=2,25=1,30=1,70=2205,71=1,72=1,74=404,124=31/1,2,3;
 4/5=5,16=3,69=1/1;
 5/5=2,38=5,53=1/2;
 7//1,2,3,16;
 1/18=20,19=15,26=3/3(-5);
 2/9=110/2;
 6/7=2,8=2,9=2,10=2,19=2,28=1/1;
 99/9=1/99;
 Leave Link    1 at Sat Aug 21 09:32:12 2021, MaxMem=           0 cpu:               2.6 elap:               0.1
 (Enter /sw/arch/RedHatEnterpriseServer7/EB_production/2020/software/Gaussian/g16.c01/l101.exe)
 -------------------------------------
 Particle #POKOASTYJWUQJG-UHFFFAOYSA-M
 -------------------------------------
 Symbolic Z-matrix:
 Charge =  0 Multiplicity = 1
 C                    -0.70925  -2.76969   2.06151 
 C                    -1.40981  -1.78025   1.1352 
 C                    -0.47751  -1.32732   0.0036 
 C                    -1.16546  -0.34606  -0.95554 
 N                    -1.29462   0.99116  -0.35749 
 C                    -0.25295   1.87457  -0.44567 
 C                    -0.36707   3.16191   0.08531 
 C                    -1.55204   3.54026   0.71442 
 C                    -2.60645   2.63297   0.80465 
 C                    -2.46141   1.35549   0.25808 
 Cl                   -2.26052   1.6576   -3.00553 
 H                    -1.40523  -3.07928   2.86941 
 H                    -0.3968   -3.67339   1.49609 
 H                     0.18429  -2.29861   2.52389 
 H                    -2.31179  -2.26754   0.70517 
 H                    -1.73762  -0.90589   1.73475 
 H                    -0.16211  -2.22076  -0.57867 
 H                     0.43764  -0.85763   0.42555 
 H                    -2.16022  -0.74156  -1.26046 
 H                    -0.56379  -0.27985  -1.88936 
 H                     0.67233   1.58761  -0.93125 
 H                     0.45839   3.85804   0.01211 
 H                    -1.6523    4.53347   1.13254 
 H                    -3.53039   2.91683   1.29159 
 H                    -3.28881   0.65926   0.32734 
 
 Add virtual bond connecting atoms N5         and Cl11       Dist= 5.47D+00.
 Add virtual bond connecting atoms H20        and Cl11       Dist= 5.30D+00.
 ITRead=  0  0  0  0  0  0  0  0  0  0  0  0  0  0  0  0  0  0  0  0
 ITRead=  0  0  0  0  0
 MicOpt= -1 -1 -1 -1 -1 -1 -1 -1 -1 -1 -1 -1 -1 -1 -1 -1 -1 -1 -1 -1
 MicOpt= -1 -1 -1 -1 -1
 NAtoms=     25 NQM=       25 NQMF=       0 NMMI=      0 NMMIF=      0
                NMic=       0 NMicF=      0.
                    Isotopes and Nuclear Properties:
 (Nuclear quadrupole moments (NQMom) in fm**2, nuclear magnetic moments (NMagM)
  in nuclear magnetons)

  Atom         1           2           3           4           5           6           7           8           9          10
 IAtWgt=          12          12          12          12          14          12          12          12          12          12
 AtmWgt=  12.0000000  12.0000000  12.0000000  12.0000000  14.0030740  12.0000000  12.0000000  12.0000000  12.0000000  12.0000000
 NucSpn=           0           0           0           0           2           0           0           0           0           0
 AtZEff=  -0.0000000  -0.0000000  -0.0000000  -0.0000000  -0.0000000  -0.0000000  -0.0000000  -0.0000000  -0.0000000  -0.0000000
 NQMom=    0.0000000   0.0000000   0.0000000   0.0000000   2.0440000   0.0000000   0.0000000   0.0000000   0.0000000   0.0000000
 NMagM=    0.0000000   0.0000000   0.0000000   0.0000000   0.4037610   0.0000000   0.0000000   0.0000000   0.0000000   0.0000000
 AtZNuc=   6.0000000   6.0000000   6.0000000   6.0000000   7.0000000   6.0000000   6.0000000   6.0000000   6.0000000   6.0000000

  Atom        11          12          13          14          15          16          17          18          19          20
 IAtWgt=          35           1           1           1           1           1           1           1           1           1
 AtmWgt=  34.9688527   1.0078250   1.0078250   1.0078250   1.0078250   1.0078250   1.0078250   1.0078250   1.0078250   1.0078250
 NucSpn=           3           1           1           1           1           1           1           1           1           1
 AtZEff=  -0.0000000  -0.0000000  -0.0000000  -0.0000000  -0.0000000  -0.0000000  -0.0000000  -0.0000000  -0.0000000  -0.0000000
 NQMom=   -8.1650000   0.0000000   0.0000000   0.0000000   0.0000000   0.0000000   0.0000000   0.0000000   0.0000000   0.0000000
 NMagM=    0.8218740   2.7928460   2.7928460   2.7928460   2.7928460   2.7928460   2.7928460   2.7928460   2.7928460   2.7928460
 AtZNuc=  17.0000000   1.0000000   1.0000000   1.0000000   1.0000000   1.0000000   1.0000000   1.0000000   1.0000000   1.0000000

  Atom        21          22          23          24          25
 IAtWgt=           1           1           1           1           1
 AtmWgt=   1.0078250   1.0078250   1.0078250   1.0078250   1.0078250
 NucSpn=           1           1           1           1           1
 AtZEff=  -0.0000000  -0.0000000  -0.0000000  -0.0000000  -0.0000000
 NQMom=    0.0000000   0.0000000   0.0000000   0.0000000   0.0000000
 NMagM=    2.7928460   2.7928460   2.7928460   2.7928460   2.7928460
 AtZNuc=   1.0000000   1.0000000   1.0000000   1.0000000   1.0000000
 Leave Link  101 at Sat Aug 21 09:32:13 2021, MaxMem=   104857600 cpu:               1.9 elap:               0.1
 (Enter /sw/arch/RedHatEnterpriseServer7/EB_production/2020/software/Gaussian/g16.c01/l103.exe)

 GradGradGradGradGradGradGradGradGradGradGradGradGradGradGradGradGradGrad
 Berny optimization.
 Initialization pass.
                           ----------------------------
                           !    Initial Parameters    !
                           ! (Angstroms and Degrees)  !
 --------------------------                            --------------------------
 ! Name  Definition              Value          Derivative Info.                !
 --------------------------------------------------------------------------------
 ! R1    R(1,2)                  1.5257         estimate D2E/DX2                !
 ! R2    R(1,12)                 1.1104         estimate D2E/DX2                !
 ! R3    R(1,13)                 1.1109         estimate D2E/DX2                !
 ! R4    R(1,14)                 1.1109         estimate D2E/DX2                !
 ! R5    R(2,3)                  1.5345         estimate D2E/DX2                !
 ! R6    R(2,15)                 1.1117         estimate D2E/DX2                !
 ! R7    R(2,16)                 1.1097         estimate D2E/DX2                !
 ! R8    R(3,4)                  1.535          estimate D2E/DX2                !
 ! R9    R(3,17)                 1.1121         estimate D2E/DX2                !
 ! R10   R(3,18)                 1.1118         estimate D2E/DX2                !
 ! R11   R(4,5)                  1.4705         estimate D2E/DX2                !
 ! R12   R(4,19)                 1.1131         estimate D2E/DX2                !
 ! R13   R(4,20)                 1.1128         estimate D2E/DX2                !
 ! R14   R(5,6)                  1.3687         estimate D2E/DX2                !
 ! R15   R(5,10)                 1.3686         estimate D2E/DX2                !
 ! R16   R(5,11)                 2.8964         estimate D2E/DX2                !
 ! R17   R(6,7)                  1.3972         estimate D2E/DX2                !
 ! R18   R(6,21)                 1.0836         estimate D2E/DX2                !
 ! R19   R(7,8)                  1.394          estimate D2E/DX2                !
 ! R20   R(7,22)                 1.0823         estimate D2E/DX2                !
 ! R21   R(8,9)                  1.394          estimate D2E/DX2                !
 ! R22   R(8,23)                 1.0823         estimate D2E/DX2                !
 ! R23   R(9,10)                 1.397          estimate D2E/DX2                !
 ! R24   R(9,24)                 1.0823         estimate D2E/DX2                !
 ! R25   R(10,25)                1.0836         estimate D2E/DX2                !
 ! R26   R(11,20)                2.8069         estimate D2E/DX2                !
 ! A1    A(2,1,12)             109.558          estimate D2E/DX2                !
 ! A2    A(2,1,13)             110.3465         estimate D2E/DX2                !
 ! A3    A(2,1,14)             110.3052         estimate D2E/DX2                !
 ! A4    A(12,1,13)            108.6515         estimate D2E/DX2                !
 ! A5    A(12,1,14)            108.6352         estimate D2E/DX2                !
 ! A6    A(13,1,14)            109.3046         estimate D2E/DX2                !
 ! A7    A(1,2,3)              111.1098         estimate D2E/DX2                !
 ! A8    A(1,2,15)             108.8524         estimate D2E/DX2                !
 ! A9    A(1,2,16)             108.5782         estimate D2E/DX2                !
 ! A10   A(3,2,15)             109.6967         estimate D2E/DX2                !
 ! A11   A(3,2,16)             110.2017         estimate D2E/DX2                !
 ! A12   A(15,2,16)            108.3408         estimate D2E/DX2                !
 ! A13   A(2,3,4)              112.1591         estimate D2E/DX2                !
 ! A14   A(2,3,17)             108.7405         estimate D2E/DX2                !
 ! A15   A(2,3,18)             110.1754         estimate D2E/DX2                !
 ! A16   A(4,3,17)             108.272          estimate D2E/DX2                !
 ! A17   A(4,3,18)             109.6327         estimate D2E/DX2                !
 ! A18   A(17,3,18)            107.7371         estimate D2E/DX2                !
 ! A19   A(3,4,5)              111.5035         estimate D2E/DX2                !
 ! A20   A(3,4,19)             110.1559         estimate D2E/DX2                !
 ! A21   A(3,4,20)             108.6667         estimate D2E/DX2                !
 ! A22   A(5,4,19)             110.8556         estimate D2E/DX2                !
 ! A23   A(5,4,20)             109.5514         estimate D2E/DX2                !
 ! A24   A(19,4,20)            105.9296         estimate D2E/DX2                !
 ! A25   A(4,5,6)              119.596          estimate D2E/DX2                !
 ! A26   A(4,5,10)             119.9915         estimate D2E/DX2                !
 ! A27   A(4,5,11)              82.3401         estimate D2E/DX2                !
 ! A28   A(6,5,10)             120.3984         estimate D2E/DX2                !
 ! A29   A(6,5,11)              92.6591         estimate D2E/DX2                !
 ! A30   A(10,5,11)             93.7644         estimate D2E/DX2                !
 ! A31   A(5,6,7)              120.5338         estimate D2E/DX2                !
 ! A32   A(5,6,21)             120.5177         estimate D2E/DX2                !
 ! A33   A(7,6,21)             118.9482         estimate D2E/DX2                !
 ! A34   A(6,7,8)              119.4079         estimate D2E/DX2                !
 ! A35   A(6,7,22)             120.3068         estimate D2E/DX2                !
 ! A36   A(8,7,22)             120.2849         estimate D2E/DX2                !
 ! A37   A(7,8,9)              119.7072         estimate D2E/DX2                !
 ! A38   A(7,8,23)             120.1452         estimate D2E/DX2                !
 ! A39   A(9,8,23)             120.1475         estimate D2E/DX2                !
 ! A40   A(8,9,10)             119.4271         estimate D2E/DX2                !
 ! A41   A(8,9,24)             120.2753         estimate D2E/DX2                !
 ! A42   A(10,9,24)            120.2975         estimate D2E/DX2                !
 ! A43   A(5,10,9)             120.5245         estimate D2E/DX2                !
 ! A44   A(5,10,25)            120.577          estimate D2E/DX2                !
 ! A45   A(9,10,25)            118.8983         estimate D2E/DX2                !
 ! A46   A(5,11,20)             43.6169         estimate D2E/DX2                !
 ! A47   A(4,20,11)             92.7472         estimate D2E/DX2                !
 ! D1    D(12,1,2,3)           179.9611         estimate D2E/DX2                !
 ! D2    D(12,1,2,15)          -59.1358         estimate D2E/DX2                !
 ! D3    D(12,1,2,16)           58.6101         estimate D2E/DX2                !
 ! D4    D(13,1,2,3)           -60.4535         estimate D2E/DX2                !
 ! D5    D(13,1,2,15)           60.4495         estimate D2E/DX2                !
 ! D6    D(13,1,2,16)          178.1955         estimate D2E/DX2                !
 ! D7    D(14,1,2,3)            60.4214         estimate D2E/DX2                !
 ! D8    D(14,1,2,15)         -178.6755         estimate D2E/DX2                !
 ! D9    D(14,1,2,16)          -60.9296         estimate D2E/DX2                !
 ! D10   D(1,2,3,4)            179.1619         estimate D2E/DX2                !
 ! D11   D(1,2,3,17)            59.449          estimate D2E/DX2                !
 ! D12   D(1,2,3,18)           -58.4165         estimate D2E/DX2                !
 ! D13   D(15,2,3,4)            58.757          estimate D2E/DX2                !
 ! D14   D(15,2,3,17)          -60.956          estimate D2E/DX2                !
 ! D15   D(15,2,3,18)         -178.8215         estimate D2E/DX2                !
 ! D16   D(16,2,3,4)           -60.4429         estimate D2E/DX2                !
 ! D17   D(16,2,3,17)          179.8441         estimate D2E/DX2                !
 ! D18   D(16,2,3,18)           61.9787         estimate D2E/DX2                !
 ! D19   D(2,3,4,5)             74.9927         estimate D2E/DX2                !
 ! D20   D(2,3,4,19)           -48.527          estimate D2E/DX2                !
 ! D21   D(2,3,4,20)          -164.1594         estimate D2E/DX2                !
 ! D22   D(17,3,4,5)          -165.0211         estimate D2E/DX2                !
 ! D23   D(17,3,4,19)           71.4592         estimate D2E/DX2                !
 ! D24   D(17,3,4,20)          -44.1732         estimate D2E/DX2                !
 ! D25   D(18,3,4,5)           -47.7364         estimate D2E/DX2                !
 ! D26   D(18,3,4,19)         -171.2561         estimate D2E/DX2                !
 ! D27   D(18,3,4,20)           73.1115         estimate D2E/DX2                !
 ! D28   D(3,4,5,6)             85.0886         estimate D2E/DX2                !
 ! D29   D(3,4,5,10)           -96.2689         estimate D2E/DX2                !
 ! D30   D(3,4,5,11)           173.7961         estimate D2E/DX2                !
 ! D31   D(19,4,5,6)          -151.7899         estimate D2E/DX2                !
 ! D32   D(19,4,5,10)           26.8526         estimate D2E/DX2                !
 ! D33   D(19,4,5,11)          -63.0823         estimate D2E/DX2                !
 ! D34   D(20,4,5,6)           -35.2407         estimate D2E/DX2                !
 ! D35   D(20,4,5,10)          143.4018         estimate D2E/DX2                !
 ! D36   D(20,4,5,11)           53.4668         estimate D2E/DX2                !
 ! D37   D(3,4,20,11)         -177.399          estimate D2E/DX2                !
 ! D38   D(5,4,20,11)          -55.3558         estimate D2E/DX2                !
 ! D39   D(19,4,20,11)          64.2642         estimate D2E/DX2                !
 ! D40   D(4,5,6,7)            178.3443         estimate D2E/DX2                !
 ! D41   D(4,5,6,21)            -1.461          estimate D2E/DX2                !
 ! D42   D(10,5,6,7)            -0.2926         estimate D2E/DX2                !
 ! D43   D(10,5,6,21)          179.9021         estimate D2E/DX2                !
 ! D44   D(11,5,6,7)            95.6451         estimate D2E/DX2                !
 ! D45   D(11,5,6,21)          -84.1602         estimate D2E/DX2                !
 ! D46   D(4,5,10,9)          -178.6183         estimate D2E/DX2                !
 ! D47   D(4,5,10,25)            1.2143         estimate D2E/DX2                !
 ! D48   D(6,5,10,9)             0.0132         estimate D2E/DX2                !
 ! D49   D(6,5,10,25)          179.8458         estimate D2E/DX2                !
 ! D50   D(11,5,10,9)          -95.2945         estimate D2E/DX2                !
 ! D51   D(11,5,10,25)          84.5381         estimate D2E/DX2                !
 ! D52   D(4,5,11,20)          -25.7967         estimate D2E/DX2                !
 ! D53   D(6,5,11,20)           93.7162         estimate D2E/DX2                !
 ! D54   D(10,5,11,20)        -145.5729         estimate D2E/DX2                !
 ! D55   D(5,6,7,8)              0.3219         estimate D2E/DX2                !
 ! D56   D(5,6,7,22)          -179.9007         estimate D2E/DX2                !
 ! D57   D(21,6,7,8)          -179.8698         estimate D2E/DX2                !
 ! D58   D(21,6,7,22)           -0.0924         estimate D2E/DX2                !
 ! D59   D(6,7,8,9)             -0.0736         estimate D2E/DX2                !
 ! D60   D(6,7,8,23)           179.8159         estimate D2E/DX2                !
 ! D61   D(22,7,8,9)          -179.851          estimate D2E/DX2                !
 ! D62   D(22,7,8,23)            0.0385         estimate D2E/DX2                !
 ! D63   D(7,8,9,10)            -0.1987         estimate D2E/DX2                !
 ! D64   D(7,8,9,24)           179.9672         estimate D2E/DX2                !
 ! D65   D(23,8,9,10)          179.9118         estimate D2E/DX2                !
 ! D66   D(23,8,9,24)            0.0777         estimate D2E/DX2                !
 ! D67   D(8,9,10,5)             0.2327         estimate D2E/DX2                !
 ! D68   D(8,9,10,25)         -179.6027         estimate D2E/DX2                !
 ! D69   D(24,9,10,5)         -179.9332         estimate D2E/DX2                !
 ! D70   D(24,9,10,25)           0.2314         estimate D2E/DX2                !
 ! D71   D(5,11,20,4)           34.7911         estimate D2E/DX2                !
 --------------------------------------------------------------------------------
 Trust Radius=3.00D-01 FncErr=1.00D-07 GrdErr=1.00D-06 EigMax=2.50D+02 EigMin=1.00D-04
 Number of steps in this run=    150 maximum allowed number of steps=    150.
 GradGradGradGradGradGradGradGradGradGradGradGradGradGradGradGradGradGrad

 Leave Link  103 at Sat Aug 21 09:32:13 2021, MaxMem=   104857600 cpu:               0.4 elap:               0.0
 (Enter /sw/arch/RedHatEnterpriseServer7/EB_production/2020/software/Gaussian/g16.c01/l202.exe)
                          Input orientation:                          
 ---------------------------------------------------------------------
 Center     Atomic      Atomic             Coordinates (Angstroms)
 Number     Number       Type             X           Y           Z
 ---------------------------------------------------------------------
      1          6           0       -0.709251   -2.769686    2.061508
      2          6           0       -1.409806   -1.780248    1.135200
      3          6           0       -0.477511   -1.327321    0.003599
      4          6           0       -1.165458   -0.346058   -0.955540
      5          7           0       -1.294619    0.991158   -0.357489
      6          6           0       -0.252947    1.874569   -0.445667
      7          6           0       -0.367066    3.161907    0.085312
      8          6           0       -1.552042    3.540260    0.714423
      9          6           0       -2.606452    2.632967    0.804654
     10          6           0       -2.461406    1.355485    0.258083
     11         17           0       -2.260522    1.657599   -3.005529
     12          1           0       -1.405225   -3.079282    2.869414
     13          1           0       -0.396804   -3.673386    1.496091
     14          1           0        0.184291   -2.298606    2.523890
     15          1           0       -2.311793   -2.267536    0.705165
     16          1           0       -1.737623   -0.905889    1.734746
     17          1           0       -0.162108   -2.220758   -0.578673
     18          1           0        0.437642   -0.857634    0.425552
     19          1           0       -2.160223   -0.741555   -1.260458
     20          1           0       -0.563793   -0.279851   -1.889359
     21          1           0        0.672334    1.587608   -0.931252
     22          1           0        0.458388    3.858038    0.012114
     23          1           0       -1.652302    4.533466    1.132544
     24          1           0       -3.530392    2.916834    1.291587
     25          1           0       -3.288812    0.659258    0.327335
 ---------------------------------------------------------------------
                    Distance matrix (angstroms):
                    1          2          3          4          5
     1  C    0.000000
     2  C    1.525717   0.000000
     3  C    2.523710   1.534548   0.000000
     4  C    3.896752   2.547116   1.534958   0.000000
     5  N    4.509784   3.149933   2.484632   1.470542   0.000000
     6  C    5.297475   4.146704   3.241044   2.454349   1.368675
     7  C    6.261488   5.158921   4.491330   3.745213   2.401787
     8  C    6.506947   5.339016   5.035199   4.247551   2.777262
     9  C    5.862398   4.584505   4.567052   3.748244   2.401462
    10  C    4.831089   3.421698   3.346349   2.459189   1.368596
    11  Cl   6.905227   5.448683   4.598231   3.068593   2.896417
    12  H    1.110379   2.166797   3.484669   4.707258   5.195538
    13  H    1.110852   2.177243   2.781738   4.203860   5.099000
    14  H    1.110914   2.176764   2.780871   4.211971   4.616499
    15  H    2.158694   1.111737   2.177335   2.786414   3.575327
    16  H    2.153616   1.109695   2.182283   2.806853   2.858756
    17  H    2.751589   2.165216   1.112092   2.159454   3.412903
    18  H    2.765440   2.183548   1.111825   2.176937   2.651775
    19  H    4.153805   2.716834   2.184601   1.113081   2.137035
    20  H    4.672236   3.480645   2.165162   1.112835   2.120424
    21  H    5.463644   4.466317   3.270000   2.667796   2.133978
    22  H    7.034922   6.044976   5.269149   4.609518   3.380627
    23  H    7.422153   6.318370   6.083048   5.329809   3.859544
    24  H    6.394382   5.155960   5.384408   4.613996   3.380290
    25  H    4.628083   3.183473   3.457559   2.676763   2.134467
                    6          7          8          9         10
     6  C    0.000000
     7  C    1.397212   0.000000
     8  C    2.409976   1.393951   0.000000
     9  C    2.770822   2.410826   1.393952   0.000000
    10  C    2.375290   2.771150   2.410069   1.397046   0.000000
    11  Cl   3.260418   3.924464   4.228995   3.948228   3.283716
    12  H    6.071091   6.912412   6.963037   6.191605   5.253735
    13  H    5.879704   6.979428   7.347263   6.717940   5.575373
    14  H    5.140509   6.005652   6.354634   5.921523   5.048364
    15  H    4.766581   5.800434   5.857286   4.910362   3.653566
    16  H    3.832677   4.598481   4.565495   3.760776   2.796106
    17  H    4.098493   5.427335   6.065752   5.607768   4.333180
    18  H    2.949724   4.113396   4.835676   4.646991   3.651085
    19  H    3.338516   4.501502   4.754364   3.981357   2.606579
    20  H    2.611972   3.972874   4.727533   4.462586   3.299510
    21  H    1.083644   2.142935   3.386583   3.854424   3.359870
    22  H    2.156319   1.082280   2.153149   3.394431   3.853371
    23  H    3.393918   2.151674   1.082282   2.151699   3.393950
    24  H    3.853052   3.394376   2.153055   1.082289   2.156078
    25  H    3.360207   3.854663   3.386204   2.142189   1.083572
                   11         12         13         14         15
    11  Cl   0.000000
    12  H    7.595034   0.000000
    13  H    7.222011   1.804408   0.000000
    14  H    7.225175   1.804274   1.812198   0.000000
    15  H    5.401719   2.482896   2.503829   3.088553   0.000000
    16  H    5.414343   2.474186   3.084443   2.501232   1.801053
    17  H    5.033352   3.764533   2.543591   3.122811   2.504311
    18  H    5.037738   3.782108   3.125830   2.558048   3.102483
    19  H    2.968379   4.805292   4.393614   4.716190   2.493043
    20  H    2.806856   5.584867   4.796377   4.910374   3.706474
    21  H    3.592933   6.367195   5.891783   5.222916   5.142471
    22  H    4.619586   7.730694   7.723722   6.654954   6.758467
    23  H    5.075844   7.812279   8.310286   7.210140   6.846255
    24  H    4.654401   6.554333   7.300150   6.520602   5.357851
    25  H    3.627954   4.897627   5.338680   5.063226   3.108608
                   16         17         18         19         20
    16  H    0.000000
    17  H    3.092416   0.000000
    18  H    2.539310   1.796183   0.000000
    19  H    3.029331   2.577855   3.099195   0.000000
    20  H    3.860562   2.376209   2.587570   1.776872   0.000000
    21  H    4.374125   3.914621   2.806280   3.681950   2.435853
    22  H    5.521316   6.138877   4.733806   5.443603   4.667181
    23  H    5.473254   7.125201   5.825089   5.814662   5.786603
    24  H    4.245424   6.421687   5.544540   4.666273   5.397955
    25  H    2.614704   4.346449   4.024558   2.399391   3.636122
                   21         22         23         24         25
    21  H    0.000000
    22  H    2.467907   0.000000
    23  H    4.282670   2.483260   0.000000
    24  H    4.936675   4.293400   2.483146   0.000000
    25  H    4.258703   4.936909   4.282057   2.466737   0.000000
 Stoichiometry    C9H14ClN
 Framework group  C1[X(C9H14ClN)]
 Deg. of freedom    69
 Full point group                 C1      NOp   1
 Largest Abelian subgroup         C1      NOp   1
 Largest concise Abelian subgroup C1      NOp   1
                         Standard orientation:                         
 ---------------------------------------------------------------------
 Center     Atomic      Atomic             Coordinates (Angstroms)
 Number     Number       Type             X           Y           Z
 ---------------------------------------------------------------------
      1          6           0        4.262027   -0.432685   -0.068306
      2          6           0        2.858973   -0.014264   -0.497463
      3          6           0        2.105783    0.659711    0.657223
      4          6           0        0.697133    1.109334    0.245351
      5          7           0       -0.224875   -0.031784    0.144135
      6          6           0       -0.864417   -0.485643    1.265861
      7          6           0       -1.770593   -1.546165    1.186242
      8          6           0       -2.015199   -2.146268   -0.047915
      9          6           0       -1.355940   -1.681528   -1.184796
     10          6           0       -0.460287   -0.615395   -1.071198
     11         17           0       -2.168886    2.073760   -0.276262
     12          1           0        4.782631   -0.917077   -0.921112
     13          1           0        4.849755    0.455003    0.248836
     14          1           0        4.208123   -1.156922    0.772351
     15          1           0        2.940307    0.690269   -1.353604
     16          1           0        2.309826   -0.916252   -0.838459
     17          1           0        2.677386    1.556964    0.981195
     18          1           0        2.038407   -0.030866    1.525969
     19          1           0        0.739211    1.671155   -0.714616
     20          1           0        0.316929    1.829157    1.004101
     21          1           0       -0.678281   -0.026005    2.229381
     22          1           0       -2.275464   -1.901062    2.075333
     23          1           0       -2.712542   -2.970551   -0.122788
     24          1           0       -1.538532   -2.141028   -2.147536
     25          1           0        0.042556   -0.256790   -1.961524
 ---------------------------------------------------------------------
 Rotational constants (GHZ):           1.1699483           0.5806640           0.4629802
 Leave Link  202 at Sat Aug 21 09:32:13 2021, MaxMem=   104857600 cpu:               0.9 elap:               0.1
 (Enter /sw/arch/RedHatEnterpriseServer7/EB_production/2020/software/Gaussian/g16.c01/l301.exe)
 Standard basis: TZVP (5D, 7F)
 Ernie: Thresh=  0.10000D-02 Tol=  0.10000D-05 Strict=F.
 There are   307 symmetry adapted cartesian basis functions of A   symmetry.
 There are   296 symmetry adapted basis functions of A   symmetry.
   296 basis functions,   509 primitive gaussians,   307 cartesian basis functions
    46 alpha electrons       46 beta electrons
       nuclear repulsion energy       685.1480443050 Hartrees.
 IExCor=  404 DFT=T Ex=B Corr=P86 ExCW=0 ScaHFX=  0.000000
 ScaDFX=  1.000000  1.000000  1.000000  1.000000 ScalE2=  1.000000  1.000000
 IRadAn=      5 IRanWt=     -1 IRanGd=            0 ICorTp=0 IEmpDi=131
 NAtoms=   25 NActive=   25 NUniq=   25 SFac= 1.00D+00 NAtFMM=   60 NAOKFM=F Big=F
 Integral buffers will be    131072 words long.
 Raffenetti 2 integral format.
 Two-electron integral symmetry is turned on.
 R6Disp:  Grimme-D3 Dispersion energy=       -0.0276900143 Hartrees.
 Nuclear repulsion after empirical dispersion term =      685.1203542907 Hartrees.
 ------------------------------------------------------------------------------
 Polarizable Continuum Model (PCM)
 =================================
 Model                : PCM.
 Atomic radii         : UFF (Universal Force Field).
 Polarization charges : Total charges.
 Charge compensation  : None.
 Solution method      : On-the-fly selection.
 Cavity type          : Scaled VdW (van der Waals Surface) (Alpha=1.100).
 Cavity algorithm     : GePol (No added spheres)
                        Default sphere list used, NSphG=   25.
                        Lebedev-Laikov grids with approx.  5.0 points / Ang**2.
                        Smoothing algorithm: York/Karplus (Gamma=1.0000).
                        Polarization charges: spherical gaussians, with
                                              point-specific exponents (IZeta= 3).
                        Self-potential: point-specific (ISelfS= 7).
                        Self-field    : sphere-specific E.n sum rule (ISelfD= 2).
 1st derivatives      : Analytical E(r).r(x)/FMM algorithm (CHGder, D1EAlg=3).
                        Cavity 1st derivative terms included.
 Solvent              : Water, Eps=  78.355300 Eps(inf)=   1.777849
 ------------------------------------------------------------------------------
 GePol: Number of generator spheres                  =      25
 GePol: Total number of spheres                      =      25
 GePol: Number of exposed spheres                    =      25 (100.00%)
 GePol: Number of points                             =    1904
 GePol: Average weight of points                     =       0.14
 GePol: Minimum weight of points                     =   0.67D-11
 GePol: Maximum weight of points                     =    0.21616
 GePol: Number of points with low weight             =     116
 GePol: Fraction of low-weight points (<1% of avg)   =       6.09%
 GePol: Cavity surface area                          =    261.242 Ang**2
 GePol: Cavity volume                                =    268.101 Ang**3
 Leave Link  301 at Sat Aug 21 09:32:14 2021, MaxMem=   104857600 cpu:               2.6 elap:               0.2
 (Enter /sw/arch/RedHatEnterpriseServer7/EB_production/2020/software/Gaussian/g16.c01/l302.exe)
 NPDir=0 NMtPBC=     1 NCelOv=     1 NCel=       1 NClECP=     1 NCelD=      1
         NCelK=      1 NCelE2=     1 NClLst=     1 CellRange=     0.0.
 One-electron integrals computed using PRISM.
 One-electron integral symmetry used in STVInt
 NBasis=   296 RedAO= T EigKep=  3.97D-05  NBF=   296
 NBsUse=   296 1.00D-06 EigRej= -1.00D+00 NBFU=   296
 Precomputing XC quadrature grid using
 IXCGrd= 4 IRadAn=           5 IRanWt=          -1 IRanGd=           0 AccXCQ= 0.00D+00.
 Generated NRdTot=       0 NPtTot=           0 NUsed=           0 NTot=          32
 NSgBfM=   303   303   303   303   303 MxSgAt=    25 MxSgA2=    25.
 Leave Link  302 at Sat Aug 21 09:32:14 2021, MaxMem=   104857600 cpu:               6.4 elap:               0.3
 (Enter /sw/arch/RedHatEnterpriseServer7/EB_production/2020/software/Gaussian/g16.c01/l303.exe)
 DipDrv:  MaxL=1.
 Leave Link  303 at Sat Aug 21 09:32:15 2021, MaxMem=   104857600 cpu:               2.0 elap:               0.1
 (Enter /sw/arch/RedHatEnterpriseServer7/EB_production/2020/software/Gaussian/g16.c01/l401.exe)
 ExpMin= 9.52D-02 ExpMax= 6.95D+04 ExpMxC= 2.37D+03 IAcc=3 IRadAn=         5 AccDes= 0.00D+00
 Harris functional with IExCor=  404 and IRadAn=       5 diagonalized for initial guess.
 HarFok:  IExCor=  404 AccDes= 0.00D+00 IRadAn=         5 IDoV= 1 UseB2=F ITyADJ=14
 ICtDFT=  3500011 ScaDFX=  1.000000  1.000000  1.000000  1.000000
 FoFCou: FMM=F IPFlag=           0 FMFlag=      100000 FMFlg1=           0
         NFxFlg=           0 DoJE=T BraDBF=F KetDBF=T FulRan=T
         wScrn=  0.000000 ICntrl=       500 IOpCl=  0 I1Cent=   200000004 NGrid=           0
         NMat0=    1 NMatS0=      1 NMatT0=    0 NMatD0=    1 NMtDS0=    0 NMtDT0=    0
 Petite list used in FoFCou.
 Harris En= -866.661053660737    
 JPrj=0 DoOrth=F DoCkMO=F.
 Leave Link  401 at Sat Aug 21 09:32:15 2021, MaxMem=   104857600 cpu:              14.5 elap:               0.6
 (Enter /sw/arch/RedHatEnterpriseServer7/EB_production/2020/software/Gaussian/g16.c01/l502.exe)
 Integral symmetry usage will be decided dynamically.
 Closed shell SCF:
 Using DIIS extrapolation, IDIIS=  1040.
 NGot=   104857600 LenX=   104657924 LenY=   104563234
 Requested convergence on RMS density matrix=1.00D-08 within 128 cycles.
 Requested convergence on MAX density matrix=1.00D-06.
 Requested convergence on             energy=1.00D-06.
 No special actions if energy rises.
 Fock matrices will be formed incrementally for  20 cycles.

 Cycle   1  Pass 1  IDiag  1:
 FoFJK:  IHMeth= 1 ICntrl=     500 DoSepK=F KAlg= 0 I1Cent=           0 FoldK=F
 IRaf= 900000000 NMat=       1 IRICut=       1 DoRegI=T DoRafI=F ISym2E= 0 IDoP0=0 IntGTp=1.
 FoFCou: FMM=F IPFlag=           0 FMFlag=      100000 FMFlg1=           0
         NFxFlg=           0 DoJE=T BraDBF=F KetDBF=F FulRan=T
         wScrn=  0.000000 ICntrl=       500 IOpCl=  0 I1Cent=           0 NGrid=           0
         NMat0=    1 NMatS0=      1 NMatT0=    0 NMatD0=    1 NMtDS0=    0 NMtDT0=    0
 Symmetry not used in FoFCou.
 Inv3:  Mode=1 IEnd=    10875648.
 Iteration    1 A*A^-1 deviation from unit magnitude is 3.22D-15 for    734.
 Iteration    1 A*A^-1 deviation from orthogonality  is 2.33D-15 for   1634    792.
 Iteration    1 A^-1*A deviation from unit magnitude is 3.22D-15 for    734.
 Iteration    1 A^-1*A deviation from orthogonality  is 2.59D-15 for    893    342.
 E= -866.301693201162    
 DIIS: error= 3.49D-02 at cycle   1 NSaved=   1.
 NSaved= 1 IEnMin= 1 EnMin= -866.301693201162     IErMin= 1 ErrMin= 3.49D-02
 ErrMax= 3.49D-02  0.00D+00 EMaxC= 1.00D-01 BMatC= 2.49D-01 BMatP= 2.49D-01
 IDIUse=3 WtCom= 6.51D-01 WtEn= 3.49D-01
 Coeff-Com:  0.100D+01
 Coeff-En:   0.100D+01
 Coeff:      0.100D+01
 Gap=     0.050 Goal=   None    Shift=    0.000
 GapD=    0.050 DampG=0.500 DampE=0.500 DampFc=0.2500 IDamp=-1.
 Damping current iteration by 2.50D-01
 RMSDP=5.06D-03 MaxDP=2.23D-01              OVMax= 2.60D-01

 Cycle   2  Pass 1  IDiag  1:
 RMSU=  1.26D-03    CP:  9.97D-01
 E= -866.392862343789     Delta-E=       -0.091169142627 Rises=F Damp=T
 DIIS: error= 1.28D-02 at cycle   2 NSaved=   2.
 NSaved= 2 IEnMin= 2 EnMin= -866.392862343789     IErMin= 2 ErrMin= 1.28D-02
 ErrMax= 1.28D-02  0.00D+00 EMaxC= 1.00D-01 BMatC= 4.86D-02 BMatP= 2.49D-01
 IDIUse=3 WtCom= 8.72D-01 WtEn= 1.28D-01
 Coeff-Com: -0.491D+00 0.149D+01
 Coeff-En:   0.000D+00 0.100D+01
 Coeff:     -0.428D+00 0.143D+01
 Gap=     0.079 Goal=   None    Shift=    0.000
 RMSDP=2.08D-03 MaxDP=8.37D-02 DE=-9.12D-02 OVMax= 2.48D-01

 Cycle   3  Pass 1  IDiag  1:
 RMSU=  1.58D-03    CP:  9.96D-01  2.07D+00
 E= -866.516518862078     Delta-E=       -0.123656518289 Rises=F Damp=F
 DIIS: error= 1.20D-02 at cycle   3 NSaved=   3.
 NSaved= 3 IEnMin= 3 EnMin= -866.516518862078     IErMin= 3 ErrMin= 1.20D-02
 ErrMax= 1.20D-02  0.00D+00 EMaxC= 1.00D-01 BMatC= 3.67D-02 BMatP= 4.86D-02
 IDIUse=3 WtCom= 8.80D-01 WtEn= 1.20D-01
 Coeff-Com: -0.335D+00 0.890D+00 0.445D+00
 Coeff-En:   0.000D+00 0.000D+00 0.100D+01
 Coeff:     -0.295D+00 0.783D+00 0.512D+00
 Gap=     0.074 Goal=   None    Shift=    0.000
 RMSDP=1.40D-03 MaxDP=5.37D-02 DE=-1.24D-01 OVMax= 1.04D-01

 Cycle   4  Pass 1  IDiag  1:
 RMSU=  7.32D-04    CP:  9.97D-01  1.70D+00  3.04D-01
 E= -866.536956951316     Delta-E=       -0.020438089238 Rises=F Damp=F
 DIIS: error= 7.70D-03 at cycle   4 NSaved=   4.
 NSaved= 4 IEnMin= 4 EnMin= -866.536956951316     IErMin= 4 ErrMin= 7.70D-03
 ErrMax= 7.70D-03  0.00D+00 EMaxC= 1.00D-01 BMatC= 1.73D-02 BMatP= 3.67D-02
 IDIUse=3 WtCom= 9.23D-01 WtEn= 7.70D-02
 Coeff-Com: -0.710D-01 0.203D+00 0.388D+00 0.480D+00
 Coeff-En:   0.000D+00 0.000D+00 0.364D+00 0.636D+00
 Coeff:     -0.656D-01 0.187D+00 0.386D+00 0.492D+00
 Gap=     0.073 Goal=   None    Shift=    0.000
 RMSDP=5.34D-04 MaxDP=1.65D-02 DE=-2.04D-02 OVMax= 4.11D-02

 Cycle   5  Pass 1  IDiag  1:
 RMSU=  1.95D-04    CP:  9.95D-01  1.76D+00  5.39D-01  5.61D-01
 E= -866.554255450130     Delta-E=       -0.017298498814 Rises=F Damp=F
 DIIS: error= 1.22D-03 at cycle   5 NSaved=   5.
 NSaved= 5 IEnMin= 5 EnMin= -866.554255450130     IErMin= 5 ErrMin= 1.22D-03
 ErrMax= 1.22D-03  0.00D+00 EMaxC= 1.00D-01 BMatC= 5.19D-04 BMatP= 1.73D-02
 IDIUse=3 WtCom= 9.88D-01 WtEn= 1.22D-02
 Coeff-Com: -0.210D-01 0.631D-01 0.185D+00 0.274D+00 0.499D+00
 Coeff-En:   0.000D+00 0.000D+00 0.000D+00 0.000D+00 0.100D+01
 Coeff:     -0.208D-01 0.623D-01 0.183D+00 0.271D+00 0.505D+00
 Gap=     0.074 Goal=   None    Shift=    0.000
 RMSDP=1.23D-04 MaxDP=4.58D-03 DE=-1.73D-02 OVMax= 7.22D-03

 Cycle   6  Pass 1  IDiag  1:
 RMSU=  6.65D-05    CP:  9.96D-01  1.80D+00  5.74D-01  5.57D-01  6.36D-01
 E= -866.554732981470     Delta-E=       -0.000477531340 Rises=F Damp=F
 DIIS: error= 4.04D-04 at cycle   6 NSaved=   6.
 NSaved= 6 IEnMin= 6 EnMin= -866.554732981470     IErMin= 6 ErrMin= 4.04D-04
 ErrMax= 4.04D-04  0.00D+00 EMaxC= 1.00D-01 BMatC= 4.38D-05 BMatP= 5.19D-04
 IDIUse=3 WtCom= 9.96D-01 WtEn= 4.04D-03
 Coeff-Com: -0.379D-02 0.112D-01 0.540D-01 0.909D-01 0.274D+00 0.574D+00
 Coeff-En:   0.000D+00 0.000D+00 0.000D+00 0.000D+00 0.358D-02 0.996D+00
 Coeff:     -0.378D-02 0.112D-01 0.538D-01 0.905D-01 0.273D+00 0.575D+00
 Gap=     0.074 Goal=   None    Shift=    0.000
 RMSDP=3.29D-05 MaxDP=1.05D-03 DE=-4.78D-04 OVMax= 3.55D-03

 Cycle   7  Pass 1  IDiag  1:
 RMSU=  1.63D-05    CP:  9.96D-01  1.79D+00  5.64D-01  5.73D-01  6.69D-01
                    CP:  7.30D-01
 E= -866.554766343860     Delta-E=       -0.000033362390 Rises=F Damp=F
 DIIS: error= 2.18D-04 at cycle   7 NSaved=   7.
 NSaved= 7 IEnMin= 7 EnMin= -866.554766343860     IErMin= 7 ErrMin= 2.18D-04
 ErrMax= 2.18D-04  0.00D+00 EMaxC= 1.00D-01 BMatC= 7.53D-06 BMatP= 4.38D-05
 IDIUse=3 WtCom= 9.98D-01 WtEn= 2.18D-03
 Coeff-Com: -0.101D-02 0.268D-02 0.193D-01 0.343D-01 0.132D+00 0.367D+00
 Coeff-Com:  0.445D+00
 Coeff-En:   0.000D+00 0.000D+00 0.000D+00 0.000D+00 0.000D+00 0.125D+00
 Coeff-En:   0.875D+00
 Coeff:     -0.101D-02 0.267D-02 0.193D-01 0.342D-01 0.132D+00 0.367D+00
 Coeff:      0.446D+00
 Gap=     0.074 Goal=   None    Shift=    0.000
 RMSDP=8.81D-06 MaxDP=2.52D-04 DE=-3.34D-05 OVMax= 1.50D-03

 Cycle   8  Pass 1  IDiag  1:
 RMSU=  6.86D-06    CP:  9.96D-01  1.79D+00  5.64D-01  5.72D-01  6.75D-01
                    CP:  7.18D-01  7.00D-01
 E= -866.554773690928     Delta-E=       -0.000007347068 Rises=F Damp=F
 DIIS: error= 3.13D-05 at cycle   8 NSaved=   8.
 NSaved= 8 IEnMin= 8 EnMin= -866.554773690928     IErMin= 8 ErrMin= 3.13D-05
 ErrMax= 3.13D-05  0.00D+00 EMaxC= 1.00D-01 BMatC= 3.39D-07 BMatP= 7.53D-06
 IDIUse=1 WtCom= 1.00D+00 WtEn= 0.00D+00
 Coeff-Com: -0.899D-04-0.179D-04 0.174D-02 0.343D-02 0.254D-01 0.991D-01
 Coeff-Com:  0.221D+00 0.649D+00
 Coeff:     -0.899D-04-0.179D-04 0.174D-02 0.343D-02 0.254D-01 0.991D-01
 Coeff:      0.221D+00 0.649D+00
 Gap=     0.074 Goal=   None    Shift=    0.000
 RMSDP=3.29D-06 MaxDP=1.21D-04 DE=-7.35D-06 OVMax= 2.10D-04

 Cycle   9  Pass 1  IDiag  1:
 RMSU=  1.44D-06    CP:  9.96D-01  1.79D+00  5.65D-01  5.71D-01  6.77D-01
                    CP:  7.40D-01  7.30D-01  8.04D-01
 E= -866.554774062195     Delta-E=       -0.000000371267 Rises=F Damp=F
 DIIS: error= 7.24D-06 at cycle   9 NSaved=   9.
 NSaved= 9 IEnMin= 9 EnMin= -866.554774062195     IErMin= 9 ErrMin= 7.24D-06
 ErrMax= 7.24D-06  0.00D+00 EMaxC= 1.00D-01 BMatC= 2.03D-08 BMatP= 3.39D-07
 IDIUse=1 WtCom= 1.00D+00 WtEn= 0.00D+00
 Coeff-Com: -0.301D-04-0.532D-04 0.400D-03 0.861D-03 0.969D-02 0.419D-01
 Coeff-Com:  0.106D+00 0.350D+00 0.492D+00
 Coeff:     -0.301D-04-0.532D-04 0.400D-03 0.861D-03 0.969D-02 0.419D-01
 Coeff:      0.106D+00 0.350D+00 0.492D+00
 Gap=     0.074 Goal=   None    Shift=    0.000
 RMSDP=5.22D-07 MaxDP=1.48D-05 DE=-3.71D-07 OVMax= 4.58D-05

 Cycle  10  Pass 1  IDiag  1:
 RMSU=  4.29D-07    CP:  9.96D-01  1.79D+00  5.65D-01  5.71D-01  6.77D-01
                    CP:  7.41D-01  7.30D-01  8.11D-01  8.70D-01
 E= -866.554774065084     Delta-E=       -0.000000002889 Rises=F Damp=F
 DIIS: error= 2.46D-06 at cycle  10 NSaved=  10.
 NSaved=10 IEnMin=10 EnMin= -866.554774065084     IErMin=10 ErrMin= 2.46D-06
 ErrMax= 2.46D-06  0.00D+00 EMaxC= 1.00D-01 BMatC= 2.01D-09 BMatP= 2.03D-08
 IDIUse=1 WtCom= 1.00D+00 WtEn= 0.00D+00
 Coeff-Com: -0.430D-05-0.232D-04-0.140D-04 0.134D-04 0.177D-02 0.890D-02
 Coeff-Com:  0.266D-01 0.101D+00 0.270D+00 0.592D+00
 Coeff:     -0.430D-05-0.232D-04-0.140D-04 0.134D-04 0.177D-02 0.890D-02
 Coeff:      0.266D-01 0.101D+00 0.270D+00 0.592D+00
 Gap=     0.074 Goal=   None    Shift=    0.000
 RMSDP=2.07D-07 MaxDP=3.93D-06 DE=-2.89D-09 OVMax= 2.88D-05

 Cycle  11  Pass 1  IDiag  1:
 RMSU=  1.52D-07    CP:  9.96D-01  1.79D+00  5.65D-01  5.71D-01  6.77D-01
                    CP:  7.41D-01  7.34D-01  8.17D-01  8.92D-01  7.54D-01
 E= -866.554774061878     Delta-E=        0.000000003206 Rises=F Damp=F
 DIIS: error= 1.68D-06 at cycle  11 NSaved=  11.
 NSaved=11 IEnMin=10 EnMin= -866.554774065084     IErMin=11 ErrMin= 1.68D-06
 ErrMax= 1.68D-06  0.00D+00 EMaxC= 1.00D-01 BMatC= 4.70D-10 BMatP= 2.01D-09
 IDIUse=1 WtCom= 1.00D+00 WtEn= 0.00D+00
 Coeff-Com: -0.151D-05-0.873D-05-0.322D-04-0.446D-04 0.463D-03 0.272D-02
 Coeff-Com:  0.962D-02 0.406D-01 0.143D+00 0.400D+00 0.403D+00
 Coeff:     -0.151D-05-0.873D-05-0.322D-04-0.446D-04 0.463D-03 0.272D-02
 Coeff:      0.962D-02 0.406D-01 0.143D+00 0.400D+00 0.403D+00
 Gap=     0.074 Goal=   None    Shift=    0.000
 RMSDP=8.18D-08 MaxDP=2.09D-06 DE= 3.21D-09 OVMax= 1.37D-05

 Cycle  12  Pass 1  IDiag  1:
 RMSU=  5.01D-08    CP:  9.96D-01  1.79D+00  5.65D-01  5.71D-01  6.76D-01
                    CP:  7.41D-01  7.35D-01  8.19D-01  8.89D-01  8.13D-01
                    CP:  6.42D-01
 E= -866.554774062394     Delta-E=       -0.000000000517 Rises=F Damp=F
 DIIS: error= 3.07D-07 at cycle  12 NSaved=  12.
 NSaved=12 IEnMin=10 EnMin= -866.554774065084     IErMin=12 ErrMin= 3.07D-07
 ErrMax= 3.07D-07  0.00D+00 EMaxC= 1.00D-01 BMatC= 2.15D-11 BMatP= 4.70D-10
 IDIUse=1 WtCom= 1.00D+00 WtEn= 0.00D+00
 Coeff-Com: -0.870D-06-0.377D-06-0.123D-04-0.209D-04 0.363D-04 0.333D-03
 Coeff-Com:  0.173D-02 0.896D-02 0.426D-01 0.139D+00 0.220D+00 0.588D+00
 Coeff:     -0.870D-06-0.377D-06-0.123D-04-0.209D-04 0.363D-04 0.333D-03
 Coeff:      0.173D-02 0.896D-02 0.426D-01 0.139D+00 0.220D+00 0.588D+00
 Gap=     0.074 Goal=   None    Shift=    0.000
 RMSDP=2.66D-08 MaxDP=5.07D-07 DE=-5.17D-10 OVMax= 2.58D-06

 Cycle  13  Pass 1  IDiag  1:
 RMSU=  1.41D-08    CP:  9.96D-01  1.79D+00  5.65D-01  5.71D-01  6.77D-01
                    CP:  7.41D-01  7.35D-01  8.20D-01  8.99D-01  8.14D-01
                    CP:  6.65D-01  6.95D-01
 E= -866.554774062410     Delta-E=       -0.000000000016 Rises=F Damp=F
 DIIS: error= 9.83D-08 at cycle  13 NSaved=  13.
 NSaved=13 IEnMin=10 EnMin= -866.554774065084     IErMin=13 ErrMin= 9.83D-08
 ErrMax= 9.83D-08  0.00D+00 EMaxC= 1.00D-01 BMatC= 2.51D-12 BMatP= 2.15D-11
 IDIUse=1 WtCom= 1.00D+00 WtEn= 0.00D+00
 Coeff-Com: -0.398D-06-0.463D-07-0.707D-05-0.125D-04-0.133D-04 0.177D-04
 Coeff-Com:  0.446D-03 0.297D-02 0.172D-01 0.596D-01 0.108D+00 0.353D+00
 Coeff-Com:  0.458D+00
 Coeff:     -0.398D-06-0.463D-07-0.707D-05-0.125D-04-0.133D-04 0.177D-04
 Coeff:      0.446D-03 0.297D-02 0.172D-01 0.596D-01 0.108D+00 0.353D+00
 Coeff:      0.458D+00
 Gap=     0.074 Goal=   None    Shift=    0.000
 RMSDP=6.82D-09 MaxDP=2.83D-07 DE=-1.60D-11 OVMax= 5.52D-07

 Error on total polarization charges =  0.01717
 SCF Done:  E(RB-P86) =  -866.554774062     A.U. after   13 cycles
            NFock= 13  Conv=0.68D-08     -V/T= 2.0041
 KE= 8.630341254511D+02 PE=-3.406031065578D+03 EE= 9.913218117736D+02
 Leave Link  502 at Sat Aug 21 09:32:39 2021, MaxMem=   104857600 cpu:             565.1 elap:              24.0
 (Enter /sw/arch/RedHatEnterpriseServer7/EB_production/2020/software/Gaussian/g16.c01/l601.exe)
 Copying SCF densities to generalized density rwf, IOpCl= 0 IROHF=0.

 **********************************************************************

            Population analysis using the SCF Density.

 **********************************************************************

 Orbital symmetries:
       Occupied  (A) (A) (A) (A) (A) (A) (A) (A) (A) (A) (A) (A)
                 (A) (A) (A) (A) (A) (A) (A) (A) (A) (A) (A) (A)
                 (A) (A) (A) (A) (A) (A) (A) (A) (A) (A) (A) (A)
                 (A) (A) (A) (A) (A) (A) (A) (A) (A) (A)
       Virtual   (A) (A) (A) (A) (A) (A) (A) (A) (A) (A) (A) (A)
                 (A) (A) (A) (A) (A) (A) (A) (A) (A) (A) (A) (A)
                 (A) (A) (A) (A) (A) (A) (A) (A) (A) (A) (A) (A)
                 (A) (A) (A) (A) (A) (A) (A) (A) (A) (A) (A) (A)
                 (A) (A) (A) (A) (A) (A) (A) (A) (A) (A) (A) (A)
                 (A) (A) (A) (A) (A) (A) (A) (A) (A) (A) (A) (A)
                 (A) (A) (A) (A) (A) (A) (A) (A) (A) (A) (A) (A)
                 (A) (A) (A) (A) (A) (A) (A) (A) (A) (A) (A) (A)
                 (A) (A) (A) (A) (A) (A) (A) (A) (A) (A) (A) (A)
                 (A) (A) (A) (A) (A) (A) (A) (A) (A) (A) (A) (A)
                 (A) (A) (A) (A) (A) (A) (A) (A) (A) (A) (A) (A)
                 (A) (A) (A) (A) (A) (A) (A) (A) (A) (A) (A) (A)
                 (A) (A) (A) (A) (A) (A) (A) (A) (A) (A) (A) (A)
                 (A) (A) (A) (A) (A) (A) (A) (A) (A) (A) (A) (A)
                 (A) (A) (A) (A) (A) (A) (A) (A) (A) (A) (A) (A)
                 (A) (A) (A) (A) (A) (A) (A) (A) (A) (A) (A) (A)
                 (A) (A) (A) (A) (A) (A) (A) (A) (A) (A) (A) (A)
                 (A) (A) (A) (A) (A) (A) (A) (A) (A) (A) (A) (A)
                 (A) (A) (A) (A) (A) (A) (A) (A) (A) (A) (A) (A)
                 (A) (A) (A) (A) (A) (A) (A) (A) (A) (A) (A) (A)
                 (A) (A) (A) (A) (A) (A) (A) (A) (A) (A)
 The electronic state is 1-A.
 Alpha  occ. eigenvalues -- -100.62863 -14.12719  -9.98851  -9.98842  -9.95551
 Alpha  occ. eigenvalues --   -9.95040  -9.94526  -9.94501  -9.91105  -9.90128
 Alpha  occ. eigenvalues --   -9.89082  -9.06787  -6.88629  -6.88601  -6.88556
 Alpha  occ. eigenvalues --   -0.95650  -0.79315  -0.74558  -0.73654  -0.68296
 Alpha  occ. eigenvalues --   -0.62887  -0.62265  -0.61997  -0.58557  -0.53695
 Alpha  occ. eigenvalues --   -0.50996  -0.49310  -0.46965  -0.45238  -0.43701
 Alpha  occ. eigenvalues --   -0.43032  -0.41481  -0.39391  -0.37909  -0.36510
 Alpha  occ. eigenvalues --   -0.36343  -0.34562  -0.33700  -0.31973  -0.30174
 Alpha  occ. eigenvalues --   -0.29922  -0.28848  -0.28115  -0.20068  -0.19936
 Alpha  occ. eigenvalues --   -0.19539
 Alpha virt. eigenvalues --   -0.12136  -0.08939   0.01743   0.02482   0.03180
 Alpha virt. eigenvalues --    0.03775   0.04757   0.06061   0.06439   0.07090
 Alpha virt. eigenvalues --    0.07560   0.08500   0.08909   0.09861   0.10268
 Alpha virt. eigenvalues --    0.10901   0.11554   0.12493   0.12687   0.13933
 Alpha virt. eigenvalues --    0.15318   0.16704   0.17541   0.18551   0.18729
 Alpha virt. eigenvalues --    0.19619   0.19944   0.20286   0.21306   0.21546
 Alpha virt. eigenvalues --    0.22671   0.22927   0.23360   0.25045   0.25466
 Alpha virt. eigenvalues --    0.27389   0.27494   0.29225   0.29503   0.30743
 Alpha virt. eigenvalues --    0.31023   0.32535   0.32700   0.33506   0.35370
 Alpha virt. eigenvalues --    0.36419   0.37036   0.37375   0.37856   0.38141
 Alpha virt. eigenvalues --    0.38978   0.39449   0.40269   0.40895   0.41144
 Alpha virt. eigenvalues --    0.41576   0.41821   0.42795   0.43173   0.43360
 Alpha virt. eigenvalues --    0.43765   0.44067   0.45034   0.45443   0.45777
 Alpha virt. eigenvalues --    0.46852   0.47765   0.48151   0.50198   0.50699
 Alpha virt. eigenvalues --    0.52552   0.54924   0.56421   0.56570   0.58395
 Alpha virt. eigenvalues --    0.59810   0.61135   0.64344   0.67300   0.67951
 Alpha virt. eigenvalues --    0.69411   0.72101   0.73388   0.76320   0.81370
 Alpha virt. eigenvalues --    0.82658   0.83518   0.87776   0.92895   1.00021
 Alpha virt. eigenvalues --    1.04127   1.08515   1.10949   1.12911   1.14020
 Alpha virt. eigenvalues --    1.16127   1.16867   1.18255   1.18554   1.19714
 Alpha virt. eigenvalues --    1.20500   1.21248   1.22359   1.23338   1.24071
 Alpha virt. eigenvalues --    1.24861   1.25432   1.26149   1.28620   1.30399
 Alpha virt. eigenvalues --    1.30895   1.31782   1.33721   1.34516   1.34869
 Alpha virt. eigenvalues --    1.35097   1.35876   1.36991   1.39083   1.39566
 Alpha virt. eigenvalues --    1.39851   1.40558   1.42003   1.43188   1.43981
 Alpha virt. eigenvalues --    1.44407   1.46031   1.47045   1.48836   1.49744
 Alpha virt. eigenvalues --    1.52275   1.54108   1.56650   1.57717   1.59639
 Alpha virt. eigenvalues --    1.61356   1.61969   1.65519   1.66343   1.66556
 Alpha virt. eigenvalues --    1.67295   1.68787   1.70319   1.70788   1.71641
 Alpha virt. eigenvalues --    1.72158   1.73655   1.74357   1.74654   1.75367
 Alpha virt. eigenvalues --    1.76562   1.77571   1.78096   1.78475   1.80770
 Alpha virt. eigenvalues --    1.81649   1.82896   1.83104   1.84355   1.87768
 Alpha virt. eigenvalues --    1.88958   1.90167   1.92328   1.93250   1.94197
 Alpha virt. eigenvalues --    1.96617   2.00462   2.04879   2.06675   2.11003
 Alpha virt. eigenvalues --    2.15391   2.16000   2.16264   2.17905   2.18383
 Alpha virt. eigenvalues --    2.20175   2.23450   2.24117   2.25642   2.25942
 Alpha virt. eigenvalues --    2.28376   2.29498   2.30448   2.32439   2.33075
 Alpha virt. eigenvalues --    2.34702   2.35868   2.37021   2.38560   2.40814
 Alpha virt. eigenvalues --    2.41680   2.43099   2.44531   2.45022   2.47512
 Alpha virt. eigenvalues --    2.48188   2.49811   2.50447   2.52435   2.54022
 Alpha virt. eigenvalues --    2.55605   2.57304   2.58552   2.59245   2.59954
 Alpha virt. eigenvalues --    2.60036   2.62208   2.65061   2.67874   2.69133
 Alpha virt. eigenvalues --    2.70172   2.71255   2.73538   2.76406   2.81096
 Alpha virt. eigenvalues --    2.88286   2.89688   2.92003   2.93059   3.01432
 Alpha virt. eigenvalues --    3.02727   3.05774   3.07184   3.07798   3.16044
 Alpha virt. eigenvalues --    3.17751   3.20029   3.20633   3.21462   3.25259
 Alpha virt. eigenvalues --    3.27675   3.29882   3.31291   3.35631   3.38063
 Alpha virt. eigenvalues --    3.43736   3.53350   3.65486   3.73423  21.28709
 Alpha virt. eigenvalues --   21.56670  21.65996  21.71304  21.77371  21.81511
 Alpha virt. eigenvalues --   21.84421  21.86232  21.91252  24.25510  31.61808
          Condensed to atoms (all electrons):
               1          2          3          4          5          6
     1  C    5.062295   0.249430  -0.065771   0.012834   0.000861  -0.000242
     2  C    0.249430   5.262790   0.195208  -0.063042   0.005934   0.000520
     3  C   -0.065771   0.195208   5.431126   0.081766  -0.015289  -0.019363
     4  C    0.012834  -0.063042   0.081766   5.541141   0.129727  -0.044938
     5  N    0.000861   0.005934  -0.015289   0.129727   6.232359   0.415058
     6  C   -0.000242   0.000520  -0.019363  -0.044938   0.415058   5.055404
     7  C   -0.000063  -0.000326   0.006654   0.001353  -0.015216   0.277569
     8  C   -0.000026   0.000558  -0.004058   0.006152  -0.037580   0.076531
     9  C   -0.000004  -0.001097   0.000660   0.004264  -0.015181  -0.166601
    10  C   -0.000021   0.017197  -0.023315  -0.046164   0.409918   0.007276
    11  Cl   0.000021  -0.000244   0.014869  -0.101867  -0.003570  -0.012619
    12  H    0.395528  -0.041435   0.013680  -0.000818   0.000022   0.000007
    13  H    0.417655  -0.050454  -0.007756  -0.000682   0.000082   0.000012
    14  H    0.401382  -0.035166  -0.010724   0.000285  -0.000145  -0.000023
    15  H   -0.046320   0.414232  -0.055009   0.013207  -0.003988  -0.000144
    16  H   -0.018869   0.390613  -0.031211  -0.019747   0.010517   0.001054
    17  H   -0.000362  -0.039010   0.410835  -0.044816   0.008125   0.000546
    18  H   -0.005649  -0.042305   0.407243  -0.032496  -0.007872   0.003351
    19  H   -0.000110  -0.015198  -0.027532   0.392776  -0.029344   0.005328
    20  H   -0.000670   0.011879  -0.040483   0.389085  -0.026304  -0.007587
    21  H   -0.000034   0.000387  -0.008434   0.005316  -0.034738   0.421059
    22  H    0.000000  -0.000007   0.000170  -0.000488   0.004052  -0.035182
    23  H    0.000000   0.000003  -0.000002   0.000035  -0.001213   0.016265
    24  H   -0.000001   0.000038   0.000015  -0.000410   0.003823   0.000403
    25  H    0.000016   0.000230  -0.005198   0.001507  -0.034993   0.011416
               7          8          9         10         11         12
     1  C   -0.000063  -0.000026  -0.000004  -0.000021   0.000021   0.395528
     2  C   -0.000326   0.000558  -0.001097   0.017197  -0.000244  -0.041435
     3  C    0.006654  -0.004058   0.000660  -0.023315   0.014869   0.013680
     4  C    0.001353   0.006152   0.004264  -0.046164  -0.101867  -0.000818
     5  N   -0.015216  -0.037580  -0.015181   0.409918  -0.003570   0.000022
     6  C    0.277569   0.076531  -0.166601   0.007276  -0.012619   0.000007
     7  C    5.231829   0.252266   0.167043  -0.179923   0.040626   0.000002
     8  C    0.252266   5.102835   0.257167   0.080882  -0.024774   0.000000
     9  C    0.167043   0.257167   5.252155   0.243843   0.040780  -0.000015
    10  C   -0.179923   0.080882   0.243843   5.114608  -0.015673   0.000037
    11  Cl   0.040626  -0.024774   0.040780  -0.015673  17.916277  -0.000000
    12  H    0.000002   0.000000  -0.000015   0.000037  -0.000000   0.546433
    13  H   -0.000001  -0.000000   0.000004  -0.000010  -0.000000  -0.025284
    14  H    0.000029  -0.000005   0.000009   0.000033  -0.000000  -0.022785
    15  H    0.000141  -0.000067   0.000266  -0.001088  -0.000142  -0.002245
    16  H    0.000118  -0.000788   0.002084  -0.004039   0.000105  -0.004877
    17  H   -0.000201   0.000025   0.000031   0.000223   0.000136  -0.000291
    18  H    0.002703  -0.000827   0.001421  -0.000795  -0.000267   0.000010
    19  H   -0.000880  -0.000557   0.003799  -0.007884   0.022761  -0.000032
    20  H    0.001751   0.000177  -0.002372   0.005000   0.029504   0.000023
    21  H   -0.054427   0.014603  -0.005748   0.012340  -0.003314  -0.000000
    22  H    0.399898  -0.034065   0.009134   0.000450   0.000323  -0.000000
    23  H   -0.064030   0.442935  -0.064017   0.017343  -0.000429   0.000000
    24  H    0.009219  -0.033704   0.398828  -0.033546   0.000413  -0.000000
    25  H   -0.005082   0.013582  -0.048373   0.418312  -0.003485   0.000003
              13         14         15         16         17         18
     1  C    0.417655   0.401382  -0.046320  -0.018869  -0.000362  -0.005649
     2  C   -0.050454  -0.035166   0.414232   0.390613  -0.039010  -0.042305
     3  C   -0.007756  -0.010724  -0.055009  -0.031211   0.410835   0.407243
     4  C   -0.000682   0.000285   0.013207  -0.019747  -0.044816  -0.032496
     5  N    0.000082  -0.000145  -0.003988   0.010517   0.008125  -0.007872
     6  C    0.000012  -0.000023  -0.000144   0.001054   0.000546   0.003351
     7  C   -0.000001   0.000029   0.000141   0.000118  -0.000201   0.002703
     8  C   -0.000000  -0.000005  -0.000067  -0.000788   0.000025  -0.000827
     9  C    0.000004   0.000009   0.000266   0.002084   0.000031   0.001421
    10  C   -0.000010   0.000033  -0.001088  -0.004039   0.000223  -0.000795
    11  Cl  -0.000000  -0.000000  -0.000142   0.000105   0.000136  -0.000267
    12  H   -0.025284  -0.022785  -0.002245  -0.004877  -0.000291   0.000010
    13  H    0.558284  -0.030971  -0.008081   0.008611   0.007069  -0.000559
    14  H   -0.030971   0.563548   0.008554  -0.008034  -0.000961   0.005528
    15  H   -0.008081   0.008554   0.569345  -0.031638  -0.006315   0.007630
    16  H    0.008611  -0.008034  -0.031638   0.561874   0.007041  -0.003858
    17  H    0.007069  -0.000961  -0.006315   0.007041   0.520756  -0.020976
    18  H   -0.000559   0.005528   0.007630  -0.003858  -0.020976   0.529799
    19  H    0.000144  -0.000030   0.001882   0.001829   0.001455   0.004268
    20  H   -0.000059   0.000043   0.000324  -0.000825  -0.006550  -0.000640
    21  H    0.000001  -0.000003  -0.000016  -0.000039   0.000128   0.000160
    22  H    0.000000  -0.000000   0.000000   0.000002  -0.000003   0.000070
    23  H    0.000000  -0.000000  -0.000000  -0.000005   0.000000  -0.000006
    24  H    0.000000   0.000000   0.000005   0.000021  -0.000001   0.000011
    25  H   -0.000011   0.000005   0.000287  -0.003411  -0.000038   0.000065
              19         20         21         22         23         24
     1  C   -0.000110  -0.000670  -0.000034   0.000000   0.000000  -0.000001
     2  C   -0.015198   0.011879   0.000387  -0.000007   0.000003   0.000038
     3  C   -0.027532  -0.040483  -0.008434   0.000170  -0.000002   0.000015
     4  C    0.392776   0.389085   0.005316  -0.000488   0.000035  -0.000410
     5  N   -0.029344  -0.026304  -0.034738   0.004052  -0.001213   0.003823
     6  C    0.005328  -0.007587   0.421059  -0.035182   0.016265   0.000403
     7  C   -0.000880   0.001751  -0.054427   0.399898  -0.064030   0.009219
     8  C   -0.000557   0.000177   0.014603  -0.034065   0.442935  -0.033704
     9  C    0.003799  -0.002372  -0.005748   0.009134  -0.064017   0.398828
    10  C   -0.007884   0.005000   0.012340   0.000450   0.017343  -0.033546
    11  Cl   0.022761   0.029504  -0.003314   0.000323  -0.000429   0.000413
    12  H   -0.000032   0.000023  -0.000000  -0.000000   0.000000  -0.000000
    13  H    0.000144  -0.000059   0.000001   0.000000   0.000000   0.000000
    14  H   -0.000030   0.000043  -0.000003  -0.000000  -0.000000   0.000000
    15  H    0.001882   0.000324  -0.000016   0.000000  -0.000000   0.000005
    16  H    0.001829  -0.000825  -0.000039   0.000002  -0.000005   0.000021
    17  H    0.001455  -0.006550   0.000128  -0.000003   0.000000  -0.000001
    18  H    0.004268  -0.000640   0.000160   0.000070  -0.000006   0.000011
    19  H    0.476961  -0.022094   0.000492   0.000015  -0.000001   0.000056
    20  H   -0.022094   0.481146  -0.002272   0.000026   0.000003   0.000006
    21  H    0.000492  -0.002272   0.477195  -0.002981  -0.000064   0.000010
    22  H    0.000015   0.000026  -0.002981   0.471887  -0.006161  -0.000215
    23  H   -0.000001   0.000003  -0.000064  -0.006161   0.499427  -0.006257
    24  H    0.000056   0.000006   0.000010  -0.000215  -0.006257   0.471234
    25  H   -0.001740   0.000415   0.000094   0.000015  -0.000067  -0.002570
              25
     1  C    0.000016
     2  C    0.000230
     3  C   -0.005198
     4  C    0.001507
     5  N   -0.034993
     6  C    0.011416
     7  C   -0.005082
     8  C    0.013582
     9  C   -0.048373
    10  C    0.418312
    11  Cl  -0.003485
    12  H    0.000003
    13  H   -0.000011
    14  H    0.000005
    15  H    0.000287
    16  H   -0.003411
    17  H   -0.000038
    18  H    0.000065
    19  H   -0.001740
    20  H    0.000415
    21  H    0.000094
    22  H    0.000015
    23  H   -0.000067
    24  H   -0.002570
    25  H    0.468946
 Mulliken charges:
               1
     1  C   -0.401882
     2  C   -0.260735
     3  C   -0.248079
     4  C   -0.223982
     5  N    0.004954
     6  C   -0.005101
     7  C   -0.071051
     8  C   -0.111262
     9  C   -0.078081
    10  C   -0.015005
    11  Cl  -0.899433
    12  H    0.142037
    13  H    0.132006
    14  H    0.129430
    15  H    0.139180
    16  H    0.143472
    17  H    0.163153
    18  H    0.153990
    19  H    0.193638
    20  H    0.190474
    21  H    0.180280
    22  H    0.193060
    23  H    0.166242
    24  H    0.192623
    25  H    0.190073
 Sum of Mulliken charges =  -0.00000
 Mulliken charges with hydrogens summed into heavy atoms:
               1
     1  C    0.001591
     2  C    0.021917
     3  C    0.069063
     4  C    0.160130
     5  N    0.004954
     6  C    0.175179
     7  C    0.122008
     8  C    0.054980
     9  C    0.114542
    10  C    0.175068
    11  Cl  -0.899433
 Electronic spatial extent (au):  <R**2>=           2590.1512
 Charge=             -0.0000 electrons
 Dipole moment (field-independent basis, Debye):
    X=              7.5402    Y=            -11.2831    Z=              1.7372  Tot=             13.6814
 Quadrupole moment (field-independent basis, Debye-Ang):
   XX=            -89.3106   YY=            -85.7588   ZZ=            -64.8207
   XY=             31.5435   XZ=             -4.8502   YZ=              4.1908
 Traceless Quadrupole moment (field-independent basis, Debye-Ang):
   XX=             -9.3473   YY=             -5.7954   ZZ=             15.1426
   XY=             31.5435   XZ=             -4.8502   YZ=              4.1908
 Octapole moment (field-independent basis, Debye-Ang**2):
  XXX=             45.2799  YYY=            -66.7294  ZZZ=              4.4158  XYY=             27.4640
  XXY=            -66.3130  XXZ=              9.8349  XZZ=             -6.8285  YZZ=            -14.2806
  YYZ=              4.5229  XYZ=             -4.8880
 Hexadecapole moment (field-independent basis, Debye-Ang**3):
 XXXX=          -2385.6719 YYYY=          -1021.4836 ZZZZ=           -333.4869 XXXY=            199.7797
 XXXZ=            -36.7640 YYYX=            190.0511 YYYZ=             26.1815 ZZZX=            -17.7258
 ZZZY=              9.4239 XXYY=           -575.6849 XXZZ=           -426.1171 YYZZ=           -207.6871
 XXYZ=             12.3789 YYXZ=            -10.9559 ZZXY=             33.1943
 N-N= 6.851203542907D+02 E-N=-3.406031057996D+03  KE= 8.630341254511D+02
 No NMR shielding tensors so no spin-rotation constants.
 Leave Link  601 at Sat Aug 21 09:32:40 2021, MaxMem=   104857600 cpu:               4.8 elap:               0.2
 (Enter /sw/arch/RedHatEnterpriseServer7/EB_production/2020/software/Gaussian/g16.c01/l701.exe)
 ... and contract with generalized density number  0.
 Compute integral first derivatives.
 R6Disp: Adding Grimme-D3 dispersion energy 1st derivatives to the gradient.
 D1PCM: PCM CHGder 1st derivatives, ID1Alg=3 FixD1E=F DoIter=F DoCFld=F I1PDM=0.
 GePol: Maximum number of non-zero 1st derivatives   =     266
 Leave Link  701 at Sat Aug 21 09:32:41 2021, MaxMem=   104857600 cpu:              26.3 elap:               1.1
 (Enter /sw/arch/RedHatEnterpriseServer7/EB_production/2020/software/Gaussian/g16.c01/l702.exe)
 L702 exits ... SP integral derivatives will be done elsewhere.
 Leave Link  702 at Sat Aug 21 09:32:41 2021, MaxMem=   104857600 cpu:               0.5 elap:               0.0
 (Enter /sw/arch/RedHatEnterpriseServer7/EB_production/2020/software/Gaussian/g16.c01/l703.exe)
 Integral derivatives from FoFJK, PRISM(SPDF).
 Compute integral first derivatives, UseDBF=F ICtDFT=           0.
 Calling FoFJK, ICntrl=      2527 FMM=F ISym2X=0 I1Cent= 0 IOpClX= 0 NMat=1 NMatS=1 NMatT=0.
 FoFJK:  IHMeth= 1 ICntrl=    2527 DoSepK=F KAlg= 0 I1Cent=           0 FoldK=F
 IRaf=         0 NMat=       1 IRICut=       1 DoRegI=T DoRafI=F ISym2E= 0 IDoP0=0 IntGTp=1.
 FoFCou: FMM=F IPFlag=           0 FMFlag=      100000 FMFlg1=         800
         NFxFlg=           0 DoJE=F BraDBF=F KetDBF=F FulRan=T
         wScrn=  0.000000 ICntrl=      2527 IOpCl=  0 I1Cent=           0 NGrid=           0
         NMat0=    1 NMatS0=      1 NMatT0=    0 NMatD0=    1 NMtDS0=    0 NMtDT0=    0
 Symmetry not used in FoFCou.
 Leave Link  703 at Sat Aug 21 09:32:45 2021, MaxMem=   104857600 cpu:              85.5 elap:               3.6
 (Enter /sw/arch/RedHatEnterpriseServer7/EB_production/2020/software/Gaussian/g16.c01/l716.exe)
 Dipole        = 2.96654629D+00-4.43911866D+00 6.83479621D-01
 ***** Axes restored to original set *****
 -------------------------------------------------------------------
 Center     Atomic                   Forces (Hartrees/Bohr)
 Number     Number              X              Y              Z
 -------------------------------------------------------------------
      1        6          -0.001148062   -0.003538144    0.006295516
      2        6           0.001682795   -0.000355128    0.001115047
      3        6          -0.003418233   -0.001301476    0.003990595
      4        6           0.010560498   -0.021966692   -0.013595280
      5        7          -0.003412210    0.009595141    0.006813980
      6        6          -0.008962043    0.010141831    0.007901610
      7        6          -0.004597579   -0.011178532    0.000022849
      8        6          -0.000329062   -0.002038889   -0.001235168
      9        6           0.007714680   -0.006951224   -0.004224991
     10        6           0.006919226    0.013692046    0.002794289
     11       17          -0.005248643    0.005614562   -0.012250317
     12        1           0.006210079   -0.000583116   -0.002798946
     13        1          -0.000114232    0.004183594    0.004776489
     14        1          -0.003888730   -0.004834254   -0.001726247
     15        1           0.002922940    0.005377211    0.001162437
     16        1          -0.000981837   -0.002857985   -0.003478349
     17        1          -0.000847123    0.006378820    0.001729568
     18        1          -0.003308834   -0.003485876   -0.002719509
     19        1           0.006814980    0.009846203    0.004648347
     20        1          -0.007309144    0.007168476    0.008633687
     21        1          -0.001713189   -0.009275543   -0.003803865
     22        1           0.005013081    0.000726360   -0.001929809
     23        1          -0.000667716    0.005390101    0.001910178
     24        1          -0.004927153   -0.001654484    0.001426558
     25        1           0.003035513   -0.008093002   -0.005458670
 -------------------------------------------------------------------
 Cartesian Forces:  Max     0.021966692 RMS     0.006217012
 Leave Link  716 at Sat Aug 21 09:32:45 2021, MaxMem=   104857600 cpu:               0.7 elap:               0.1
 (Enter /sw/arch/RedHatEnterpriseServer7/EB_production/2020/software/Gaussian/g16.c01/l103.exe)

 GradGradGradGradGradGradGradGradGradGradGradGradGradGradGradGradGradGrad
 Berny optimization.
 FormGI is forming the generalized inverse of G from B-inverse, IUseBI=4.
 Internal  Forces:  Max     0.014753462 RMS     0.003902548
 Search for a local minimum.
 Step number   1 out of a maximum of  150
 All quantities printed in internal units (Hartrees-Bohrs-Radians)
 RMS Force = .39025D-02 SwitMx=.10000D-02 MixMth= 1
 Mixed Optimization -- RFO/linear search
 Second derivative matrix not updated -- first step.
 ITU=  0
     Eigenvalues ---    0.00304   0.00309   0.00426   0.01242   0.02109
     Eigenvalues ---    0.02114   0.02116   0.02129   0.02145   0.02149
     Eigenvalues ---    0.02158   0.02169   0.02339   0.03014   0.03355
     Eigenvalues ---    0.03565   0.03742   0.04507   0.04845   0.04910
     Eigenvalues ---    0.05022   0.05673   0.05792   0.07230   0.08030
     Eigenvalues ---    0.08167   0.08183   0.11788   0.11969   0.12104
     Eigenvalues ---    0.14037   0.15873   0.16000   0.16000   0.16000
     Eigenvalues ---    0.16000   0.16000   0.16000   0.16000   0.16000
     Eigenvalues ---    0.20197   0.21942   0.21944   0.22000   0.22000
     Eigenvalues ---    0.28970   0.29007   0.29823   0.30330   0.32276
     Eigenvalues ---    0.32379   0.32408   0.32417   0.32503   0.32510
     Eigenvalues ---    0.32560   0.32632   0.33422   0.35558   0.35566
     Eigenvalues ---    0.35719   0.35720   0.35720   0.42169   0.42902
     Eigenvalues ---    0.46100   0.46537   0.49640   0.50758
 RFO step:  Lambda=-1.22338734D-02 EMin= 3.03521456D-03
 Linear search not attempted -- first point.
 Maximum step size (   0.300) exceeded in Quadratic search.
    -- Step size scaled by   0.904
 Iteration  1 RMS(Cart)=  0.04732436 RMS(Int)=  0.00083741
 Iteration  2 RMS(Cart)=  0.00113526 RMS(Int)=  0.00023862
 Iteration  3 RMS(Cart)=  0.00000095 RMS(Int)=  0.00023861
 ITry= 1 IFail=0 DXMaxC= 2.15D-01 DCOld= 1.00D+10 DXMaxT= 3.00D-01 DXLimC= 3.00D+00 Rises=F
 Variable       Old X    -DE/DX   Delta X   Delta X   Delta X     New X
                                 (Linear)    (Quad)   (Total)
    R1        2.88319   0.00754   0.00000   0.02196   0.02196   2.90514
    R2        2.09831  -0.00577   0.00000  -0.01543  -0.01543   2.08288
    R3        2.09921  -0.00586   0.00000  -0.01570  -0.01570   2.08351
    R4        2.09932  -0.00591   0.00000  -0.01583  -0.01583   2.08350
    R5        2.89988   0.00185   0.00000   0.00553   0.00553   2.90541
    R6        2.10088  -0.00517   0.00000  -0.01390  -0.01390   2.08698
    R7        2.09702  -0.00385   0.00000  -0.01026  -0.01026   2.08675
    R8        2.90065   0.00453   0.00000   0.01357   0.01357   2.91422
    R9        2.10155  -0.00627   0.00000  -0.01686  -0.01686   2.08469
   R10        2.10105  -0.00523   0.00000  -0.01406  -0.01406   2.08699
   R11        2.77892   0.00157   0.00000   0.00577   0.00539   2.78432
   R12        2.10342  -0.01086   0.00000  -0.02931  -0.02931   2.07411
   R13        2.10295  -0.00833   0.00000  -0.01933  -0.01935   2.08360
   R14        2.58642  -0.01475   0.00000  -0.02725  -0.02723   2.55919
   R15        2.58627  -0.01460   0.00000  -0.02695  -0.02693   2.55934
   R16        5.47343   0.00969   0.00000   0.19355   0.19322   5.66665
   R17        2.64035  -0.00849   0.00000  -0.01628  -0.01628   2.62406
   R18        2.04779   0.00270   0.00000   0.00663   0.00663   2.05442
   R19        2.63419   0.00253   0.00000   0.00675   0.00673   2.64091
   R20        2.04521   0.00442   0.00000   0.01082   0.01082   2.05603
   R21        2.63419   0.00200   0.00000   0.00577   0.00575   2.63993
   R22        2.04522   0.00575   0.00000   0.01406   0.01406   2.05928
   R23        2.64003  -0.00775   0.00000  -0.01479  -0.01479   2.62525
   R24        2.04523   0.00441   0.00000   0.01080   0.01080   2.05603
   R25        2.04765   0.00253   0.00000   0.00622   0.00622   2.05387
   R26        5.30419   0.00439   0.00000   0.14085   0.14139   5.44558
    A1        1.91215   0.00466   0.00000   0.02697   0.02676   1.93891
    A2        1.92591   0.00185   0.00000   0.00830   0.00822   1.93413
    A3        1.92519   0.00222   0.00000   0.01048   0.01037   1.93556
    A4        1.89633  -0.00294   0.00000  -0.01322  -0.01340   1.88293
    A5        1.89604  -0.00304   0.00000  -0.01320  -0.01342   1.88262
    A6        1.90773  -0.00291   0.00000  -0.02011  -0.02010   1.88763
    A7        1.93923   0.00455   0.00000   0.02353   0.02344   1.96267
    A8        1.89983   0.00048   0.00000   0.01248   0.01257   1.91241
    A9        1.89505  -0.00056   0.00000   0.00586   0.00588   1.90092
   A10        1.91457  -0.00253   0.00000  -0.01490  -0.01520   1.89937
   A11        1.92338  -0.00142   0.00000  -0.00678  -0.00704   1.91634
   A12        1.89090  -0.00060   0.00000  -0.02086  -0.02105   1.86986
   A13        1.95755   0.00780   0.00000   0.03502   0.03493   1.99248
   A14        1.89788   0.00006   0.00000   0.01116   0.01129   1.90916
   A15        1.92292  -0.00303   0.00000  -0.01057  -0.01060   1.91233
   A16        1.88970  -0.00404   0.00000  -0.02011  -0.02047   1.86924
   A17        1.91345  -0.00154   0.00000  -0.00370  -0.00379   1.90966
   A18        1.88037   0.00048   0.00000  -0.01375  -0.01388   1.86649
   A19        1.94610   0.00033   0.00000  -0.00200  -0.00180   1.94431
   A20        1.92258   0.00174   0.00000   0.01967   0.01880   1.94138
   A21        1.89659   0.00468   0.00000   0.04128   0.04130   1.93789
   A22        1.93480  -0.00354   0.00000  -0.05153  -0.05143   1.88336
   A23        1.91203  -0.00387   0.00000  -0.02071  -0.02108   1.89095
   A24        1.84882   0.00081   0.00000   0.01575   0.01405   1.86287
   A25        2.08734  -0.00232   0.00000  -0.00525  -0.00539   2.08196
   A26        2.09425  -0.00060   0.00000  -0.00021  -0.00028   2.09396
   A27        1.43711   0.00170   0.00000   0.01356   0.01325   1.45036
   A28        2.10135   0.00295   0.00000   0.00595   0.00592   2.10727
   A29        1.61721  -0.00086   0.00000   0.00645   0.00643   1.62364
   A30        1.63650  -0.00009   0.00000   0.00002   0.00031   1.63680
   A31        2.10371   0.00222   0.00000   0.00382   0.00385   2.10756
   A32        2.10343  -0.01111   0.00000  -0.05438  -0.05440   2.04903
   A33        2.07604   0.00889   0.00000   0.05057   0.05056   2.12659
   A34        2.08406  -0.00123   0.00000  -0.00130  -0.00133   2.08273
   A35        2.09975  -0.00258   0.00000  -0.01614  -0.01614   2.08361
   A36        2.09937   0.00382   0.00000   0.01747   0.01746   2.11683
   A37        2.08929  -0.00468   0.00000  -0.01043  -0.01047   2.07882
   A38        2.09693   0.00235   0.00000   0.00525   0.00527   2.10220
   A39        2.09697   0.00233   0.00000   0.00518   0.00520   2.10217
   A40        2.08440  -0.00152   0.00000  -0.00221  -0.00223   2.08217
   A41        2.09920   0.00392   0.00000   0.01768   0.01768   2.11688
   A42        2.09959  -0.00240   0.00000  -0.01548  -0.01548   2.08411
   A43        2.10355   0.00226   0.00000   0.00420   0.00423   2.10778
   A44        2.10447  -0.01122   0.00000  -0.05504  -0.05506   2.04941
   A45        2.07517   0.00896   0.00000   0.05085   0.05083   2.12600
   A46        0.76126  -0.00314   0.00000  -0.03284  -0.03200   0.72926
   A47        1.61874   0.00666   0.00000   0.04382   0.04368   1.66242
    D1        3.14091   0.00029   0.00000   0.00362   0.00360  -3.13867
    D2       -1.03212   0.00032   0.00000   0.00806   0.00817  -1.02394
    D3        1.02294  -0.00044   0.00000  -0.00660  -0.00666   1.01628
    D4       -1.05511   0.00073   0.00000   0.00939   0.00941  -1.04570
    D5        1.05504   0.00076   0.00000   0.01384   0.01399   1.06903
    D6        3.11010  -0.00000   0.00000  -0.00083  -0.00085   3.10925
    D7        1.05455  -0.00025   0.00000  -0.00349  -0.00358   1.05097
    D8       -3.11848  -0.00022   0.00000   0.00096   0.00099  -3.11748
    D9       -1.06342  -0.00098   0.00000  -0.01371  -0.01384  -1.07726
   D10        3.12697  -0.00039   0.00000  -0.00758  -0.00749   3.11948
   D11        1.03758  -0.00025   0.00000  -0.01173  -0.01191   1.02567
   D12       -1.01956   0.00088   0.00000   0.00441   0.00437  -1.01519
   D13        1.02550  -0.00225   0.00000  -0.02846  -0.02820   0.99730
   D14       -1.06388  -0.00211   0.00000  -0.03261  -0.03262  -1.09650
   D15       -3.12102  -0.00098   0.00000  -0.01648  -0.01634  -3.13736
[...]
 - repulsion  energy not included in the total energy.
 After PCM corrections, the energy is  -866.554366448     a.u.
 --------------------------------------------------------------------
 Writing COSMO formatted file "POKOASTYJWUQJG-UHFFFAOYSA-M.cosmo"
 Recomputed dielectric energy= -0.071747 old= -0.071507 diff=-2.40D-04

 **********************************************************************

            Population analysis using the SCF Density.

 **********************************************************************

 Orbital symmetries:
       Occupied  (A) (A) (A) (A) (A) (A) (A) (A) (A) (A) (A) (A)
                 (A) (A) (A) (A) (A) (A) (A) (A) (A) (A) (A) (A)
                 (A) (A) (A) (A) (A) (A) (A) (A) (A) (A) (A) (A)
                 (A) (A) (A) (A) (A) (A) (A) (A) (A) (A)
       Virtual   (A) (A) (A) (A) (A) (A) (A) (A) (A) (A) (A) (A)
                 (A) (A) (A) (A) (A) (A) (A) (A) (A) (A) (A) (A)
                 (A) (A) (A) (A) (A) (A) (A) (A) (A) (A) (A) (A)
                 (A) (A) (A) (A) (A) (A) (A) (A) (A) (A) (A) (A)
                 (A) (A) (A) (A) (A) (A) (A) (A) (A) (A) (A) (A)
                 (A) (A) (A) (A) (A) (A) (A) (A) (A) (A) (A) (A)
                 (A) (A) (A) (A) (A) (A) (A) (A) (A) (A) (A) (A)
                 (A) (A) (A) (A) (A) (A) (A) (A) (A) (A) (A) (A)
                 (A) (A) (A) (A) (A) (A) (A) (A) (A) (A) (A) (A)
                 (A) (A) (A) (A) (A) (A) (A) (A) (A) (A) (A) (A)
                 (A) (A) (A) (A) (A) (A) (A) (A) (A) (A) (A) (A)
                 (A) (A) (A) (A) (A) (A) (A) (A) (A) (A) (A) (A)
                 (A) (A) (A) (A) (A) (A) (A) (A) (A) (A) (A) (A)
                 (A) (A) (A) (A) (A) (A) (A) (A) (A) (A) (A) (A)
                 (A) (A) (A) (A) (A) (A) (A) (A) (A) (A) (A) (A)
                 (A) (A) (A) (A) (A) (A) (A) (A) (A) (A) (A) (A)
                 (A) (A) (A) (A) (A) (A) (A) (A) (A) (A) (A) (A)
                 (A) (A) (A) (A) (A) (A) (A) (A) (A) (A) (A) (A)
                 (A) (A) (A) (A) (A) (A) (A) (A) (A) (A) (A) (A)
                 (A) (A) (A) (A) (A) (A) (A) (A) (A) (A) (A) (A)
                 (A) (A) (A) (A) (A) (A) (A) (A) (A) (A)
 The electronic state is 1-A.
 Alpha  occ. eigenvalues -- -100.64704 -14.11816  -9.97999  -9.97309  -9.95004
 Alpha  occ. eigenvalues --   -9.94771  -9.94091  -9.93985  -9.90367  -9.89552
 Alpha  occ. eigenvalues --   -9.88409  -9.08579  -6.90405  -6.90390  -6.90379
 Alpha  occ. eigenvalues --   -0.95353  -0.78717  -0.74134  -0.73035  -0.67767
 Alpha  occ. eigenvalues --   -0.63748  -0.62409  -0.61483  -0.58099  -0.53519
 Alpha  occ. eigenvalues --   -0.50062  -0.48175  -0.45941  -0.44374  -0.43206
 Alpha  occ. eigenvalues --   -0.42394  -0.41007  -0.38795  -0.37590  -0.35880
 Alpha  occ. eigenvalues --   -0.35621  -0.34437  -0.32913  -0.31691  -0.29846
 Alpha  occ. eigenvalues --   -0.29159  -0.28777  -0.27708  -0.21656  -0.21615
 Alpha  occ. eigenvalues --   -0.21464
 Alpha virt. eigenvalues --   -0.11445  -0.08348   0.02413   0.03459   0.04171
 Alpha virt. eigenvalues --    0.05181   0.05596   0.06393   0.07603   0.07937
 Alpha virt. eigenvalues --    0.08318   0.09428   0.09704   0.09877   0.10864
 Alpha virt. eigenvalues --    0.12032   0.12494   0.13152   0.13210   0.14254
 Alpha virt. eigenvalues --    0.15534   0.17193   0.17946   0.19039   0.19244
 Alpha virt. eigenvalues --    0.19452   0.19869   0.20957   0.21466   0.22049
 Alpha virt. eigenvalues --    0.22241   0.23073   0.23794   0.25743   0.26352
 Alpha virt. eigenvalues --    0.27173   0.28133   0.29220   0.30168   0.30843
 Alpha virt. eigenvalues --    0.31294   0.32003   0.33439   0.34427   0.34639
 Alpha virt. eigenvalues --    0.36839   0.36984   0.37661   0.38172   0.38918
 Alpha virt. eigenvalues --    0.39360   0.40409   0.40704   0.41408   0.41907
 Alpha virt. eigenvalues --    0.42201   0.42622   0.42969   0.43921   0.44306
 Alpha virt. eigenvalues --    0.45108   0.45487   0.46389   0.46630   0.46938
 Alpha virt. eigenvalues --    0.47891   0.48606   0.50230   0.51113   0.52493
 Alpha virt. eigenvalues --    0.54404   0.56202   0.57229   0.57263   0.60311
 Alpha virt. eigenvalues --    0.60820   0.61388   0.65824   0.66885   0.67907
 Alpha virt. eigenvalues --    0.69656   0.72039   0.74337   0.75343   0.77906
 Alpha virt. eigenvalues --    0.80451   0.82659   0.83099   0.87140   1.00378
 Alpha virt. eigenvalues --    1.04400   1.09740   1.10943   1.13666   1.14136
 Alpha virt. eigenvalues --    1.16349   1.17838   1.18987   1.19382   1.20086
 Alpha virt. eigenvalues --    1.21019   1.21535   1.22507   1.23386   1.23901
 Alpha virt. eigenvalues --    1.25956   1.27056   1.27673   1.29360   1.30379
 Alpha virt. eigenvalues --    1.31088   1.31730   1.33126   1.34554   1.34943
 Alpha virt. eigenvalues --    1.35345   1.35732   1.36799   1.38097   1.39095
 Alpha virt. eigenvalues --    1.39940   1.40983   1.42025   1.42276   1.44343
 Alpha virt. eigenvalues --    1.45321   1.46036   1.47698   1.48629   1.50104
 Alpha virt. eigenvalues --    1.51340   1.54030   1.56649   1.58656   1.61111
 Alpha virt. eigenvalues --    1.61372   1.64442   1.65194   1.67187   1.68545
 Alpha virt. eigenvalues --    1.68659   1.69813   1.71172   1.72307   1.73022
 Alpha virt. eigenvalues --    1.73244   1.74111   1.74574   1.75772   1.76627
 Alpha virt. eigenvalues --    1.77604   1.78548   1.79231   1.80194   1.80273
 Alpha virt. eigenvalues --    1.82259   1.82396   1.83727   1.84326   1.87576
 Alpha virt. eigenvalues --    1.88341   1.90261   1.93290   1.93865   1.95668
 Alpha virt. eigenvalues --    1.96736   2.01053   2.06878   2.09300   2.13051
 Alpha virt. eigenvalues --    2.15295   2.16826   2.17273   2.19127   2.19916
 Alpha virt. eigenvalues --    2.21380   2.25081   2.25289   2.26257   2.26820
 Alpha virt. eigenvalues --    2.28070   2.28675   2.30152   2.31745   2.32387
 Alpha virt. eigenvalues --    2.33466   2.35869   2.36386   2.37621   2.39309
 Alpha virt. eigenvalues --    2.41836   2.43724   2.45580   2.46483   2.46832
 Alpha virt. eigenvalues --    2.48079   2.50084   2.50957   2.52173   2.55376
 Alpha virt. eigenvalues --    2.55874   2.58021   2.58880   2.60256   2.61338
 Alpha virt. eigenvalues --    2.62579   2.63011   2.66042   2.68214   2.69453
 Alpha virt. eigenvalues --    2.70453   2.72297   2.74358   2.77176   2.82336
 Alpha virt. eigenvalues --    2.87766   2.90415   2.93014   2.94614   3.02234
 Alpha virt. eigenvalues --    3.03746   3.05527   3.08967   3.10274   3.14678
 Alpha virt. eigenvalues --    3.20407   3.20908   3.22637   3.23612   3.28168
 Alpha virt. eigenvalues --    3.28967   3.31200   3.32822   3.35625   3.37996
 Alpha virt. eigenvalues --    3.40591   3.52446   3.68288   3.73911  21.28213
 Alpha virt. eigenvalues --   21.56552  21.66652  21.74165  21.78702  21.81463
 Alpha virt. eigenvalues --   21.84908  21.87839  21.92990  24.24070  31.59769
          Condensed to atoms (all electrons):
               1          2          3          4          5          6
     1  C    5.089701   0.237911  -0.056780   0.017415   0.000139  -0.000811
     2  C    0.237911   5.304064   0.128863  -0.049379   0.009160  -0.002243
     3  C   -0.056780   0.128863   5.455646   0.163117  -0.039269  -0.008033
     4  C    0.017415  -0.049379   0.163117   5.397349   0.144698  -0.074988
     5  N    0.000139   0.009160  -0.039269   0.144698   6.310936   0.423349
     6  C   -0.000811  -0.002243  -0.008033  -0.074988   0.423349   4.990935
     7  C   -0.000188   0.000398   0.005273   0.004330  -0.051252   0.389614
     8  C   -0.000004   0.000638  -0.002953   0.001031  -0.015580   0.013247
     9  C   -0.000133  -0.002927   0.001468   0.010006  -0.053658  -0.113418
    10  C   -0.000295   0.016686  -0.030121  -0.044663   0.430848  -0.020261
    11  Cl  -0.000022   0.002108  -0.009321  -0.035343  -0.001327  -0.032229
    12  H    0.395290  -0.036790   0.011657  -0.000680   0.000041   0.000022
    13  H    0.420512  -0.050905  -0.005148  -0.001918   0.000138   0.000020
    14  H    0.401298  -0.032951  -0.009964   0.000674  -0.000213   0.000025
    15  H   -0.043405   0.413607  -0.055984   0.014460  -0.005262   0.000220
    16  H   -0.020725   0.401769  -0.024298  -0.030310   0.012260   0.001393
    17  H   -0.001256  -0.028244   0.414967  -0.054363   0.009020   0.000802
    18  H   -0.005752  -0.041208   0.387057  -0.016511  -0.011469  -0.000667
    19  H   -0.000455  -0.015106  -0.025429   0.400196  -0.029648   0.008089
    20  H   -0.000930   0.016163  -0.055974   0.373295  -0.023024  -0.002185
    21  H   -0.000056  -0.000847  -0.007003  -0.003491  -0.053755   0.363814
    22  H    0.000000  -0.000022   0.000102  -0.000008   0.004689  -0.025143
    23  H    0.000001  -0.000002  -0.000003   0.000032  -0.000622   0.013873
    24  H   -0.000002  -0.000059   0.000033  -0.000240   0.003308   0.000796
    25  H   -0.000077   0.002773  -0.004384  -0.004158  -0.032546   0.010145
               7          8          9         10         11         12
     1  C   -0.000188  -0.000004  -0.000133  -0.000295  -0.000022   0.395290
     2  C    0.000398   0.000638  -0.002927   0.016686   0.002108  -0.036790
     3  C    0.005273  -0.002953   0.001468  -0.030121  -0.009321   0.011657
     4  C    0.004330   0.001031   0.010006  -0.044663  -0.035343  -0.000680
     5  N   -0.051252  -0.015580  -0.053658   0.430848  -0.001327   0.000041
     6  C    0.389614   0.013247  -0.113418  -0.020261  -0.032229   0.000022
     7  C    5.125473   0.354247   0.077020  -0.126856  -0.000859   0.000001
     8  C    0.354247   5.014412   0.360215   0.018088   0.000104   0.000001
     9  C    0.077020   0.360215   5.132041   0.337094  -0.000039  -0.000015
    10  C   -0.126856   0.018088   0.337094   5.041548  -0.000770   0.000039
    11  Cl  -0.000859   0.000104  -0.000039  -0.000770  17.845237   0.000000
    12  H    0.000001   0.000001  -0.000015   0.000039   0.000000   0.536287
    13  H    0.000001  -0.000000   0.000004  -0.000020  -0.000001  -0.025367
    14  H    0.000034  -0.000004   0.000006   0.000033  -0.000027  -0.023711
    15  H    0.000073  -0.000037   0.000304  -0.000148  -0.000031  -0.002663
    16  H    0.000761  -0.000912   0.000686  -0.006253   0.000002  -0.003537
    17  H   -0.000087   0.000006   0.000019   0.000145   0.001724  -0.000112
    18  H    0.000633  -0.000275   0.000629  -0.000717   0.018401  -0.000139
    19  H    0.000145  -0.000813   0.004611  -0.009660   0.000316  -0.000003
    20  H    0.004171  -0.000648  -0.000610   0.004052   0.044047   0.000026
    21  H   -0.034571   0.012421  -0.001465   0.009250   0.047405   0.000000
    22  H    0.389605  -0.031261   0.005864   0.000826   0.000863  -0.000000
    23  H   -0.055188   0.434166  -0.059632   0.014737   0.000006   0.000000
    24  H    0.007255  -0.031568   0.398921  -0.031950  -0.000000  -0.000000
    25  H   -0.003857   0.010006  -0.037912   0.411333   0.000011   0.000009
              13         14         15         16         17         18
     1  C    0.420512   0.401298  -0.043405  -0.020725  -0.001256  -0.005752
     2  C   -0.050905  -0.032951   0.413607   0.401769  -0.028244  -0.041208
     3  C   -0.005148  -0.009964  -0.055984  -0.024298   0.414967   0.387057
     4  C   -0.001918   0.000674   0.014460  -0.030310  -0.054363  -0.016511
     5  N    0.000138  -0.000213  -0.005262   0.012260   0.009020  -0.011469
     6  C    0.000020   0.000025   0.000220   0.001393   0.000802  -0.000667
     7  C    0.000001   0.000034   0.000073   0.000761  -0.000087   0.000633
     8  C   -0.000000  -0.000004  -0.000037  -0.000912   0.000006  -0.000275
     9  C    0.000004   0.000006   0.000304   0.000686   0.000019   0.000629
    10  C   -0.000020   0.000033  -0.000148  -0.006253   0.000145  -0.000717
    11  Cl  -0.000001  -0.000027  -0.000031   0.000002   0.001724   0.018401
    12  H   -0.025367  -0.023711  -0.002663  -0.003537  -0.000112  -0.000139
    13  H    0.551307  -0.032861  -0.007286   0.007783   0.005430  -0.000267
    14  H   -0.032861   0.556987   0.007916  -0.007349  -0.000571   0.004653
    15  H   -0.007286   0.007916   0.560917  -0.033630  -0.004980   0.007292
    16  H    0.007783  -0.007349  -0.033630   0.545629   0.005695  -0.003794
    17  H    0.005430  -0.000571  -0.004980   0.005695   0.505489  -0.021259
    18  H   -0.000267   0.004653   0.007292  -0.003794  -0.021259   0.536865
    19  H    0.000169  -0.000033   0.002822   0.001509  -0.001225   0.005210
    20  H   -0.000044   0.000049   0.000023  -0.000572  -0.002002  -0.005764
    21  H    0.000001  -0.000008   0.000019  -0.000195  -0.000094   0.003303
    22  H   -0.000000   0.000000   0.000001   0.000005  -0.000002   0.000047
    23  H   -0.000000  -0.000000  -0.000000  -0.000011   0.000000  -0.000001
    24  H   -0.000000   0.000000   0.000011  -0.000028  -0.000001   0.000002
    25  H    0.000001  -0.000000  -0.000316  -0.000622   0.000017  -0.000020
              19         20         21         22         23         24
     1  C   -0.000455  -0.000930  -0.000056   0.000000   0.000001  -0.000002
     2  C   -0.015106   0.016163  -0.000847  -0.000022  -0.000002  -0.000059
     3  C   -0.025429  -0.055974  -0.007003   0.000102  -0.000003   0.000033
     4  C    0.400196   0.373295  -0.003491  -0.000008   0.000032  -0.000240
     5  N   -0.029648  -0.023024  -0.053755   0.004689  -0.000622   0.003308
     6  C    0.008089  -0.002185   0.363814  -0.025143   0.013873   0.000796
     7  C    0.000145   0.004171  -0.034571   0.389605  -0.055188   0.007255
     8  C   -0.000813  -0.000648   0.012421  -0.031261   0.434166  -0.031568
     9  C    0.004611  -0.000610  -0.001465   0.005864  -0.059632   0.398921
    10  C   -0.009660   0.004052   0.009250   0.000826   0.014737  -0.031950
    11  Cl   0.000316   0.044047   0.047405   0.000863   0.000006  -0.000000
    12  H   -0.000003   0.000026   0.000000  -0.000000   0.000000  -0.000000
    13  H    0.000169  -0.000044   0.000001  -0.000000  -0.000000  -0.000000
    14  H   -0.000033   0.000049  -0.000008   0.000000  -0.000000   0.000000
    15  H    0.002822   0.000023   0.000019   0.000001  -0.000000   0.000011
    16  H    0.001509  -0.000572  -0.000195   0.000005  -0.000011  -0.000028
    17  H   -0.001225  -0.002002  -0.000094  -0.000002   0.000000  -0.000001
    18  H    0.005210  -0.005764   0.003303   0.000047  -0.000001   0.000002
    19  H    0.471677  -0.013426   0.001058   0.000010  -0.000003   0.000079
    20  H   -0.013426   0.498872  -0.009211  -0.000001  -0.000001   0.000015
    21  H    0.001058  -0.009211   0.581881  -0.005541  -0.000320   0.000055
    22  H    0.000010  -0.000001  -0.005541   0.462537  -0.004569  -0.000201
    23  H   -0.000003  -0.000001  -0.000320  -0.004569   0.485324  -0.005782
    24  H    0.000079   0.000015   0.000055  -0.000201  -0.005782   0.458644
    25  H   -0.000994   0.000353  -0.000098   0.000032  -0.000057  -0.002050
              25
     1  C   -0.000077
     2  C    0.002773
     3  C   -0.004384
     4  C   -0.004158
     5  N   -0.032546
     6  C    0.010145
     7  C   -0.003857
     8  C    0.010006
     9  C   -0.037912
    10  C    0.411333
    11  Cl   0.000011
    12  H    0.000009
    13  H    0.000001
    14  H   -0.000000
    15  H   -0.000316
    16  H   -0.000622
    17  H    0.000017
    18  H   -0.000020
    19  H   -0.000994
    20  H    0.000353
    21  H   -0.000098
    22  H    0.000032
    23  H   -0.000057
    24  H   -0.002050
    25  H    0.457403
 Mulliken charges:
               1
     1  C   -0.431375
     2  C   -0.273460
     3  C   -0.233517
     4  C   -0.210551
     5  N   -0.030960
     6  C    0.063637
     7  C   -0.086177
     8  C   -0.134525
     9  C   -0.059080
    10  C   -0.012966
    11  Cl  -0.880254
    12  H    0.149644
    13  H    0.138453
    14  H    0.136016
    15  H    0.146077
    16  H    0.154744
    17  H    0.170881
    18  H    0.143751
    19  H    0.200904
    20  H    0.173323
    21  H    0.097449
    22  H    0.202165
    23  H    0.178052
    24  H    0.202763
    25  H    0.195006
 Sum of Mulliken charges =  -0.00000
 Mulliken charges with hydrogens summed into heavy atoms:
               1
     1  C   -0.007262
     2  C    0.027360
     3  C    0.081116
     4  C    0.163677
     5  N   -0.030960
     6  C    0.161086
     7  C    0.115987
     8  C    0.043527
     9  C    0.143683
    10  C    0.182041
    11  Cl  -0.880254
 Electronic spatial extent (au):  <R**2>=           2764.3730
 Charge=             -0.0000 electrons
 Dipole moment (field-independent basis, Debye):
    X=             14.7723    Y=             12.0192    Z=             -1.7046  Tot=             19.1204
 Quadrupole moment (field-independent basis, Debye-Ang):
   XX=            -75.6486   YY=           -101.5245   ZZ=            -70.1241
   XY=            -26.2214   XZ=              3.8643   YZ=             -5.9607
 Traceless Quadrupole moment (field-independent basis, Debye-Ang):
   XX=              6.7838   YY=            -19.0921   ZZ=             12.3083
   XY=            -26.2214   XZ=              3.8643   YZ=             -5.9607
 Octapole moment (field-independent basis, Debye-Ang**2):
  XXX=            134.6690  YYY=            102.6223  ZZZ=             -9.0757  XYY=             85.8437
  XXY=             67.1069  XXZ=              4.3063  XZZ=             11.2956  YZZ=              5.2206
  YYZ=             -2.3802  XYZ=            -13.1999
 Hexadecapole moment (field-independent basis, Debye-Ang**3):
 XXXX=          -1658.4902 YYYY=          -1936.5956 ZZZZ=           -324.3079 XXXY=           -142.0926
 XXXZ=             57.0162 YYYX=           -223.0634 YYYZ=            -19.2456 ZZZX=              8.8598
 ZZZY=            -24.4952 XXYY=           -728.1968 XXZZ=           -342.8036 YYZZ=           -326.3259
 XXYZ=            -36.3869 YYXZ=             15.2593 ZZXY=            -13.0436
 N-N= 6.665275408832D+02 E-N=-3.368105291240D+03  KE= 8.631166121975D+02
 Unable to Open any file for archive entry.
 1\1\GINC-TCN1394\SP\RBP86\TZVP\C9H14Cl1N1\ELENAA\21-Aug-2021\0\\# BP86
 /TZVP SCRF=COSMORS geom=CHECKPOINT guess=CHECKPOINT\\COSMO-file for #P
 OKOASTYJWUQJG-UHFFFAOYSA-M\\0,1\C,0,-0.361851579,-2.590792673,1.903892
 0172\C,0,-1.243774253,-1.5560651647,1.1942981443\C,0,-0.7732558073,-1.
 2808431415,-0.2382248827\C,0,-1.6544127632,-0.3070491214,-1.0257805849
 \N,0,-1.7128492086,1.0306800137,-0.3616986088\C,0,-0.6612163525,1.8778
 424065,-0.5178175379\C,0,-0.6529495092,3.1019038704,0.1368378196\C,0,-
 1.7246221554,3.4532456391,0.9628229947\C,0,-2.7946013396,2.5642190791,
 1.106866625\C,0,-2.7662125074,1.3526794506,0.4324817066\Cl,0,1.2961022
 073,0.4800633948,-2.9581531106\H,0,-0.7070113458,-2.7718913057,2.93265
 78141\H,0,-0.3736479298,-3.5534253828,1.3686581581\H,0,0.6840133302,-2
 .2485866415,1.9538779503\H,0,-2.2906010301,-1.9061004238,1.1753024371\
 H,0,-1.2404949384,-0.6175725399,1.7748934755\H,0,-0.7578200791,-2.2196
 125281,-0.8167724765\H,0,0.2615701731,-0.8994050447,-0.2435532758\H,0,
 -2.6874504613,-0.668076155,-1.1100738808\H,0,-1.2332227436,-0.14454322
 2,-2.0279215533\H,0,0.1303521596,1.5302104076,-1.1999495359\H,0,0.1956
 316387,3.7695507508,-0.0078079606\H,0,-1.7296988919,4.4103661656,1.485
 3844222\H,0,-3.6511369489,2.7987149471,1.7371572318\H,0,-3.5643397407,
 0.6158266548,0.4998723301\\Version=ES64L-G16RevC.01\State=1-A\HF=-866.
 5543664\RMSD=2.748e-09\Dipole=-5.2327351,1.6335114,5.1515641\Quadrupol
 e=-2.3520338,18.5431827,-16.1911488,0.3372434,15.4340522,4.3802416\PG=
 C01 [X(C9H14Cl1N1)]\\@
 The archive entry for this job was punched.


 MOM AND DAD WENT TO ALPHA CENTAURI AND ALL
 I GOT WAS THIS DUMB T-SHIRT.
 Job cpu time:       0 days  0 hours  8 minutes  8.9 seconds.
 Elapsed time:       0 days  0 hours  0 minutes 20.9 seconds.
 File lengths (MBytes):  RWF=     75 Int=      0 D2E=      0 Chk=     12 Scr=      1
 Normal termination of Gaussian 16 at Sat Aug 21 10:01:17 2021.
