 Entering Gaussian System, Link 0=g16
 Input=POULHZVOKOAJMA-UHFFFAOYSA-N.gjf
 Output=POULHZVOKOAJMA-UHFFFAOYSA-N.log
 Initial command:
 /sw/arch/RedHatEnterpriseServer7/EB_production/2019/software/Gaussian/g16.c01/l1.exe "/scratch-local/elenaa.9715258/Gau-30333.inp" -scrdir="/scratch-local/elenaa.9715258/"
 Entering Link 1 = /sw/arch/RedHatEnterpriseServer7/EB_production/2019/software/Gaussian/g16.c01/l1.exe PID=     30335.
  
 Copyright (c) 1988-2019, Gaussian, Inc.  All Rights Reserved.
  
 This is part of the Gaussian(R) 16 program.  It is based on
 the Gaussian(R) 09 system (copyright 2009, Gaussian, Inc.),
 the Gaussian(R) 03 system (copyright 2003, Gaussian, Inc.),
 the Gaussian(R) 98 system (copyright 1998, Gaussian, Inc.),
 the Gaussian(R) 94 system (copyright 1995, Gaussian, Inc.),
 the Gaussian 92(TM) system (copyright 1992, Gaussian, Inc.),
 the Gaussian 90(TM) system (copyright 1990, Gaussian, Inc.),
 the Gaussian 88(TM) system (copyright 1988, Gaussian, Inc.),
 the Gaussian 86(TM) system (copyright 1986, Carnegie Mellon
 University), and the Gaussian 82(TM) system (copyright 1983,
 Carnegie Mellon University). Gaussian is a federally registered
 trademark of Gaussian, Inc.
  
 This software contains proprietary and confidential information,
 including trade secrets, belonging to Gaussian, Inc.
  
 This software is provided under written license and may be
 used, copied, transmitted, or stored only in accord with that
 written license.
  
 The following legend is applicable only to US Government
 contracts under FAR:
  
                    RESTRICTED RIGHTS LEGEND
  
 Use, reproduction and disclosure by the US Government is
 subject to restrictions as set forth in subparagraphs (a)
 and (c) of the Commercial Computer Software - Restricted
 Rights clause in FAR 52.227-19.
  
 Gaussian, Inc.
 340 Quinnipiac St., Bldg. 40, Wallingford CT 06492
  
  
 ---------------------------------------------------------------
 Warning -- This program may not be used in any manner that
 competes with the business of Gaussian, Inc. or will provide
 assistance to any competitor of Gaussian, Inc.  The licensee
 of this program is prohibited from giving any competitor of
 Gaussian, Inc. access to this program.  By using this program,
 the user acknowledges that Gaussian, Inc. is engaged in the
 business of creating and licensing software in the field of
 computational chemistry and represents and warrants to the
 licensee that it is not a competitor of Gaussian, Inc. and that
 it will not use this program in any manner prohibited above.
 ---------------------------------------------------------------
  

 Cite this work as:
 Gaussian 16, Revision C.01,
 M. J. Frisch, G. W. Trucks, H. B. Schlegel, G. E. Scuseria, 
 M. A. Robb, J. R. Cheeseman, G. Scalmani, V. Barone, 
 G. A. Petersson, H. Nakatsuji, X. Li, M. Caricato, A. V. Marenich, 
 J. Bloino, B. G. Janesko, R. Gomperts, B. Mennucci, H. P. Hratchian, 
 J. V. Ortiz, A. F. Izmaylov, J. L. Sonnenberg, D. Williams-Young, 
 F. Ding, F. Lipparini, F. Egidi, J. Goings, B. Peng, A. Petrone, 
 T. Henderson, D. Ranasinghe, V. G. Zakrzewski, J. Gao, N. Rega, 
 G. Zheng, W. Liang, M. Hada, M. Ehara, K. Toyota, R. Fukuda, 
 J. Hasegawa, M. Ishida, T. Nakajima, Y. Honda, O. Kitao, H. Nakai, 
 T. Vreven, K. Throssell, J. A. Montgomery, Jr., J. E. Peralta, 
 F. Ogliaro, M. J. Bearpark, J. J. Heyd, E. N. Brothers, K. N. Kudin, 
 V. N. Staroverov, T. A. Keith, R. Kobayashi, J. Normand, 
 K. Raghavachari, A. P. Rendell, J. C. Burant, S. S. Iyengar, 
 J. Tomasi, M. Cossi, J. M. Millam, M. Klene, C. Adamo, R. Cammi, 
 J. W. Ochterski, R. L. Martin, K. Morokuma, O. Farkas, 
 J. B. Foresman, and D. J. Fox, Gaussian, Inc., Wallingford CT, 2019.
 
 ******************************************
 Gaussian 16:  ES64L-G16RevC.01  3-Jul-2019
                22-Feb-2021 
 ******************************************
 %chk=POULHZVOKOAJMA-UHFFFAOYSA-N.chk
 %NProcShared=32
 Will use up to   32 processors via shared memory.
 -------------------------------------------------------------
 #P BP86/TZVP EmpiricalDispersion=GD3 SCRF=(Solvent=Water) Opt
 -------------------------------------------------------------
 1/18=20,19=15,26=3,38=1/1,3;
 2/9=110,12=2,17=6,18=5,40=1/2;
 3/5=19,7=101,11=2,25=1,30=1,70=2201,71=1,72=1,74=404,124=31/1,2,3;
 4//1;
 5/5=2,38=5,53=1/2;
 6/7=2,8=2,9=2,10=2,28=1/1;
 7//1,2,3,16;
 1/18=20,19=15,26=3/3(2);
 2/9=110/2;
 99//99;
 2/9=110/2;
 3/5=19,7=101,11=2,25=1,30=1,70=2205,71=1,72=1,74=404,124=31/1,2,3;
 4/5=5,16=3,69=1/1;
 5/5=2,38=5,53=1/2;
 7//1,2,3,16;
 1/18=20,19=15,26=3/3(-5);
 2/9=110/2;
 6/7=2,8=2,9=2,10=2,19=2,28=1/1;
 99/9=1/99;
 Leave Link    1 at Mon Feb 22 21:17:15 2021, MaxMem=           0 cpu:               1.5 elap:               0.1
 (Enter /sw/arch/RedHatEnterpriseServer7/EB_production/2019/software/Gaussian/g16.c01/l101.exe)
 -------------------------------------
 Particle #POULHZVOKOAJMA-UHFFFAOYSA-N
 -------------------------------------
 Symbolic Z-matrix:
 Charge =  0 Multiplicity = 1
 C                     4.5516   -3.75694  -9.27405 
 C                     4.23817  -3.94895  -7.77318 
 C                     3.67301  -2.66678  -7.10676 
 C                     3.35832  -2.86206  -5.59742 
 C                     2.7943   -1.57423  -4.94183 
 C                     2.47372  -1.74373  -3.43572 
 C                     1.91395  -0.43506  -2.8113 
 C                     1.59295  -0.58902  -1.30132 
 C                     1.03929   0.70121  -0.6322 
 C                     0.72339   0.48516   0.87387 
 C                     0.18459   1.75578   1.58263 
 C                    -0.22022   1.46896   2.9733 
 O                     0.39728   1.95146   3.94965 
 O                    -1.29246   0.67712   3.21414 
 H                     5.2977   -2.97123  -9.41068 
 H                     3.64634  -3.48553  -9.82132 
 H                     4.94461  -4.68583  -9.69115 
 H                     3.51278  -4.76077  -7.67173 
 H                     5.15757  -4.24837  -7.26268 
 H                     4.40203  -1.85942  -7.21643 
 H                     2.7571   -2.37163  -7.62572 
 H                     4.27412  -3.15618  -5.07754 
 H                     2.62849  -3.66862  -5.48667 
 H                     1.88015  -1.28248  -5.46574 
 H                     3.52554  -0.76979  -5.05825 
 H                     3.38426  -2.03582  -2.90474 
 H                     1.73857  -2.54422  -3.31198 
 H                     1.00245  -0.14847  -3.34282 
 H                     2.64951   0.36365  -2.94108 
 H                     2.50862  -0.8868   -0.78246 
 H                     0.85923  -1.39009  -1.18203 
 H                     1.77609   1.50198  -0.73965 
 H                     0.12693   1.01     -1.14965 
 H                     1.63344   0.16136   1.38536 
 H                    -0.01817  -0.31519   0.95937 
 H                     0.95117   2.53439   1.57225 
 H                    -0.68616   2.14061   1.0457 
 H                    -1.56209   0.48434   4.13626 
 
 ITRead=  0  0  0  0  0  0  0  0  0  0  0  0  0  0  0  0  0  0  0  0
 ITRead=  0  0  0  0  0  0  0  0  0  0  0  0  0  0  0  0  0  0
 MicOpt= -1 -1 -1 -1 -1 -1 -1 -1 -1 -1 -1 -1 -1 -1 -1 -1 -1 -1 -1 -1
 MicOpt= -1 -1 -1 -1 -1 -1 -1 -1 -1 -1 -1 -1 -1 -1 -1 -1 -1 -1
 NAtoms=     38 NQM=       38 NQMF=       0 NMMI=      0 NMMIF=      0
                NMic=       0 NMicF=      0.
                    Isotopes and Nuclear Properties:
 (Nuclear quadrupole moments (NQMom) in fm**2, nuclear magnetic moments (NMagM)
  in nuclear magnetons)

  Atom         1           2           3           4           5           6           7           8           9          10
 IAtWgt=          12          12          12          12          12          12          12          12          12          12
 AtmWgt=  12.0000000  12.0000000  12.0000000  12.0000000  12.0000000  12.0000000  12.0000000  12.0000000  12.0000000  12.0000000
 NucSpn=           0           0           0           0           0           0           0           0           0           0
 AtZEff=  -0.0000000  -0.0000000  -0.0000000  -0.0000000  -0.0000000  -0.0000000  -0.0000000  -0.0000000  -0.0000000  -0.0000000
 NQMom=    0.0000000   0.0000000   0.0000000   0.0000000   0.0000000   0.0000000   0.0000000   0.0000000   0.0000000   0.0000000
 NMagM=    0.0000000   0.0000000   0.0000000   0.0000000   0.0000000   0.0000000   0.0000000   0.0000000   0.0000000   0.0000000
 AtZNuc=   6.0000000   6.0000000   6.0000000   6.0000000   6.0000000   6.0000000   6.0000000   6.0000000   6.0000000   6.0000000

  Atom        11          12          13          14          15          16          17          18          19          20
 IAtWgt=          12          12          16          16           1           1           1           1           1           1
 AtmWgt=  12.0000000  12.0000000  15.9949146  15.9949146   1.0078250   1.0078250   1.0078250   1.0078250   1.0078250   1.0078250
 NucSpn=           0           0           0           0           1           1           1           1           1           1
 AtZEff=  -0.0000000  -0.0000000  -0.0000000  -0.0000000  -0.0000000  -0.0000000  -0.0000000  -0.0000000  -0.0000000  -0.0000000
 NQMom=    0.0000000   0.0000000   0.0000000   0.0000000   0.0000000   0.0000000   0.0000000   0.0000000   0.0000000   0.0000000
 NMagM=    0.0000000   0.0000000   0.0000000   0.0000000   2.7928460   2.7928460   2.7928460   2.7928460   2.7928460   2.7928460
 AtZNuc=   6.0000000   6.0000000   8.0000000   8.0000000   1.0000000   1.0000000   1.0000000   1.0000000   1.0000000   1.0000000

  Atom        21          22          23          24          25          26          27          28          29          30
 IAtWgt=           1           1           1           1           1           1           1           1           1           1
 AtmWgt=   1.0078250   1.0078250   1.0078250   1.0078250   1.0078250   1.0078250   1.0078250   1.0078250   1.0078250   1.0078250
 NucSpn=           1           1           1           1           1           1           1           1           1           1
 AtZEff=  -0.0000000  -0.0000000  -0.0000000  -0.0000000  -0.0000000  -0.0000000  -0.0000000  -0.0000000  -0.0000000  -0.0000000
 NQMom=    0.0000000   0.0000000   0.0000000   0.0000000   0.0000000   0.0000000   0.0000000   0.0000000   0.0000000   0.0000000
 NMagM=    2.7928460   2.7928460   2.7928460   2.7928460   2.7928460   2.7928460   2.7928460   2.7928460   2.7928460   2.7928460
 AtZNuc=   1.0000000   1.0000000   1.0000000   1.0000000   1.0000000   1.0000000   1.0000000   1.0000000   1.0000000   1.0000000

  Atom        31          32          33          34          35          36          37          38
 IAtWgt=           1           1           1           1           1           1           1           1
 AtmWgt=   1.0078250   1.0078250   1.0078250   1.0078250   1.0078250   1.0078250   1.0078250   1.0078250
 NucSpn=           1           1           1           1           1           1           1           1
 AtZEff=  -0.0000000  -0.0000000  -0.0000000  -0.0000000  -0.0000000  -0.0000000  -0.0000000  -0.0000000
 NQMom=    0.0000000   0.0000000   0.0000000   0.0000000   0.0000000   0.0000000   0.0000000   0.0000000
 NMagM=    2.7928460   2.7928460   2.7928460   2.7928460   2.7928460   2.7928460   2.7928460   2.7928460
 AtZNuc=   1.0000000   1.0000000   1.0000000   1.0000000   1.0000000   1.0000000   1.0000000   1.0000000
 Leave Link  101 at Mon Feb 22 21:17:15 2021, MaxMem=   104857600 cpu:               3.2 elap:               0.1
 (Enter /sw/arch/RedHatEnterpriseServer7/EB_production/2019/software/Gaussian/g16.c01/l103.exe)

 GradGradGradGradGradGradGradGradGradGradGradGradGradGradGradGradGradGrad
 Berny optimization.
 Initialization pass.
                           ----------------------------
                           !    Initial Parameters    !
                           ! (Angstroms and Degrees)  !
 --------------------------                            --------------------------
 ! Name  Definition              Value          Derivative Info.                !
 --------------------------------------------------------------------------------
 ! R1    R(1,2)                  1.5452         estimate D2E/DX2                !
 ! R2    R(1,15)                 1.0921         estimate D2E/DX2                !
 ! R3    R(1,16)                 1.0921         estimate D2E/DX2                !
 ! R4    R(1,17)                 1.0915         estimate D2E/DX2                !
 ! R5    R(2,3)                  1.5516         estimate D2E/DX2                !
 ! R6    R(2,18)                 1.0934         estimate D2E/DX2                !
 ! R7    R(2,19)                 1.0934         estimate D2E/DX2                !
 ! R8    R(3,4)                  1.5541         estimate D2E/DX2                !
 ! R9    R(3,20)                 1.0933         estimate D2E/DX2                !
 ! R10   R(3,21)                 1.0933         estimate D2E/DX2                !
 ! R11   R(4,5)                  1.5513         estimate D2E/DX2                !
 ! R12   R(4,22)                 1.0934         estimate D2E/DX2                !
 ! R13   R(4,23)                 1.0934         estimate D2E/DX2                !
 ! R14   R(5,6)                  1.5492         estimate D2E/DX2                !
 ! R15   R(5,24)                 1.0933         estimate D2E/DX2                !
 ! R16   R(5,25)                 1.0933         estimate D2E/DX2                !
 ! R17   R(6,7)                  1.5543         estimate D2E/DX2                !
 ! R18   R(6,26)                 1.0938         estimate D2E/DX2                !
 ! R19   R(6,27)                 1.0939         estimate D2E/DX2                !
 ! R20   R(7,8)                  1.5514         estimate D2E/DX2                !
 ! R21   R(7,28)                 1.0934         estimate D2E/DX2                !
 ! R22   R(7,29)                 1.0935         estimate D2E/DX2                !
 ! R23   R(8,9)                  1.5553         estimate D2E/DX2                !
 ! R24   R(8,30)                 1.0938         estimate D2E/DX2                !
 ! R25   R(8,31)                 1.0928         estimate D2E/DX2                !
 ! R26   R(9,10)                 1.5539         estimate D2E/DX2                !
 ! R27   R(9,32)                 1.0935         estimate D2E/DX2                !
 ! R28   R(9,33)                 1.0934         estimate D2E/DX2                !
 ! R29   R(10,11)                1.5515         estimate D2E/DX2                !
 ! R30   R(10,34)                1.093          estimate D2E/DX2                !
 ! R31   R(10,35)                1.0944         estimate D2E/DX2                !
 ! R32   R(11,12)                1.4765         estimate D2E/DX2                !
 ! R33   R(11,36)                1.0927         estimate D2E/DX2                !
 ! R34   R(11,37)                1.093          estimate D2E/DX2                !
 ! R35   R(12,13)                1.2519         estimate D2E/DX2                !
 ! R36   R(12,14)                1.3545         estimate D2E/DX2                !
 ! R37   R(14,38)                0.9799         estimate D2E/DX2                !
 ! A1    A(2,1,15)             110.4562         estimate D2E/DX2                !
 ! A2    A(2,1,16)             110.4556         estimate D2E/DX2                !
 ! A3    A(2,1,17)             109.7835         estimate D2E/DX2                !
 ! A4    A(15,1,16)            108.9541         estimate D2E/DX2                !
 ! A5    A(15,1,17)            108.5714         estimate D2E/DX2                !
 ! A6    A(16,1,17)            108.5712         estimate D2E/DX2                !
 ! A7    A(1,2,3)              112.8534         estimate D2E/DX2                !
 ! A8    A(1,2,18)             108.4784         estimate D2E/DX2                !
 ! A9    A(1,2,19)             108.4789         estimate D2E/DX2                !
 ! A10   A(3,2,18)             109.3928         estimate D2E/DX2                !
 ! A11   A(3,2,19)             109.3921         estimate D2E/DX2                !
 ! A12   A(18,2,19)            108.1318         estimate D2E/DX2                !
 ! A13   A(2,3,4)              112.7711         estimate D2E/DX2                !
 ! A14   A(2,3,20)             108.9209         estimate D2E/DX2                !
 ! A15   A(2,3,21)             108.9262         estimate D2E/DX2                !
 ! A16   A(4,3,20)             108.9794         estimate D2E/DX2                !
 ! A17   A(4,3,21)             108.9827         estimate D2E/DX2                !
 ! A18   A(20,3,21)            108.158          estimate D2E/DX2                !
 ! A19   A(3,4,5)              112.3181         estimate D2E/DX2                !
 ! A20   A(3,4,22)             109.0251         estimate D2E/DX2                !
 ! A21   A(3,4,23)             109.04           estimate D2E/DX2                !
 ! A22   A(5,4,22)             109.0814         estimate D2E/DX2                !
 ! A23   A(5,4,23)             109.0811         estimate D2E/DX2                !
 ! A24   A(22,4,23)            108.2096         estimate D2E/DX2                !
 ! A25   A(4,5,6)              113.2835         estimate D2E/DX2                !
 ! A26   A(4,5,24)             108.8464         estimate D2E/DX2                !
 ! A27   A(4,5,25)             108.8229         estimate D2E/DX2                !
 ! A28   A(6,5,24)             108.7875         estimate D2E/DX2                !
 ! A29   A(6,5,25)             108.8099         estimate D2E/DX2                !
 ! A30   A(24,5,25)            108.1713         estimate D2E/DX2                !
 ! A31   A(5,6,7)              111.8994         estimate D2E/DX2                !
 ! A32   A(5,6,26)             109.203          estimate D2E/DX2                !
 ! A33   A(5,6,27)             109.2157         estimate D2E/DX2                !
 ! A34   A(7,6,26)             109.2463         estimate D2E/DX2                !
 ! A35   A(7,6,27)             109.1878         estimate D2E/DX2                !
 ! A36   A(26,6,27)            108.0073         estimate D2E/DX2                !
 ! A37   A(6,7,8)              112.4561         estimate D2E/DX2                !
 ! A38   A(6,7,28)             109.0038         estimate D2E/DX2                !
 ! A39   A(6,7,29)             108.9679         estimate D2E/DX2                !
 ! A40   A(8,7,28)             109.0669         estimate D2E/DX2                !
 ! A41   A(8,7,29)             109.0973         estimate D2E/DX2                !
 ! A42   A(28,7,29)            108.1564         estimate D2E/DX2                !
 ! A43   A(7,8,9)              114.2091         estimate D2E/DX2                !
 ! A44   A(7,8,30)             108.3919         estimate D2E/DX2                !
 ! A45   A(7,8,31)             108.5365         estimate D2E/DX2                !
 ! A46   A(9,8,30)             108.6497         estimate D2E/DX2                !
 ! A47   A(9,8,31)             108.7916         estimate D2E/DX2                !
 ! A48   A(30,8,31)            108.1026         estimate D2E/DX2                !
 ! A49   A(8,9,10)             111.9623         estimate D2E/DX2                !
 ! A50   A(8,9,32)             108.9881         estimate D2E/DX2                !
 ! A51   A(8,9,33)             109.1307         estimate D2E/DX2                !
 ! A52   A(10,9,32)            109.5142         estimate D2E/DX2                !
 ! A53   A(10,9,33)            109.1661         estimate D2E/DX2                !
 ! A54   A(32,9,33)            107.9951         estimate D2E/DX2                !
 ! A55   A(9,10,11)            113.5462         estimate D2E/DX2                !
 ! A56   A(9,10,34)            108.9946         estimate D2E/DX2                !
 ! A57   A(9,10,35)            108.369          estimate D2E/DX2                !
 ! A58   A(11,10,34)           108.5412         estimate D2E/DX2                !
 ! A59   A(11,10,35)           109.1419         estimate D2E/DX2                !
 ! A60   A(34,10,35)           108.1168         estimate D2E/DX2                !
 ! A61   A(10,11,12)           111.4931         estimate D2E/DX2                !
 ! A62   A(10,11,36)           109.6084         estimate D2E/DX2                !
 ! A63   A(10,11,37)           109.9138         estimate D2E/DX2                !
 ! A64   A(12,11,36)           109.8589         estimate D2E/DX2                !
 ! A65   A(12,11,37)           108.2201         estimate D2E/DX2                !
 ! A66   A(36,11,37)           107.6592         estimate D2E/DX2                !
 ! A67   A(11,12,13)           121.6299         estimate D2E/DX2                !
 ! A68   A(11,12,14)           119.8716         estimate D2E/DX2                !
 ! A69   A(13,12,14)           118.495          estimate D2E/DX2                !
 ! A70   A(12,14,38)           120.0104         estimate D2E/DX2                !
 ! D1    D(15,1,2,3)            60.3076         estimate D2E/DX2                !
 ! D2    D(15,1,2,18)         -178.3094         estimate D2E/DX2                !
 ! D3    D(15,1,2,19)          -61.0748         estimate D2E/DX2                !
 ! D4    D(16,1,2,3)           -60.2988         estimate D2E/DX2                !
 ! D5    D(16,1,2,18)           61.0842         estimate D2E/DX2                !
 ! D6    D(16,1,2,19)          178.3188         estimate D2E/DX2                !
 ! D7    D(17,1,2,3)          -179.9953         estimate D2E/DX2                !
 ! D8    D(17,1,2,18)          -58.6123         estimate D2E/DX2                !
 ! D9    D(17,1,2,19)           58.6223         estimate D2E/DX2                !
 ! D10   D(1,2,3,4)            179.9936         estimate D2E/DX2                !
 ! D11   D(1,2,3,20)           -58.8915         estimate D2E/DX2                !
 ! D12   D(1,2,3,21)            58.8708         estimate D2E/DX2                !
 ! D13   D(18,2,3,4)            59.1302         estimate D2E/DX2                !
 ! D14   D(18,2,3,20)         -179.7549         estimate D2E/DX2                !
 ! D15   D(18,2,3,21)          -61.9926         estimate D2E/DX2                !
 ! D16   D(19,2,3,4)           -59.1429         estimate D2E/DX2                !
 ! D17   D(19,2,3,20)           61.9721         estimate D2E/DX2                !
 ! D18   D(19,2,3,21)          179.7343         estimate D2E/DX2                !
 ! D19   D(2,3,4,5)            179.9923         estimate D2E/DX2                !
 ! D20   D(2,3,4,22)            58.9716         estimate D2E/DX2                !
 ! D21   D(2,3,4,23)           -58.9771         estimate D2E/DX2                !
 ! D22   D(20,3,4,5)            58.9107         estimate D2E/DX2                !
 ! D23   D(20,3,4,22)          -62.11           estimate D2E/DX2                !
 ! D24   D(20,3,4,23)          179.9413         estimate D2E/DX2                !
 ! D25   D(21,3,4,5)           -58.9171         estimate D2E/DX2                !
 ! D26   D(21,3,4,22)         -179.9378         estimate D2E/DX2                !
 ! D27   D(21,3,4,23)           62.1135         estimate D2E/DX2                !
 ! D28   D(3,4,5,6)           -179.9502         estimate D2E/DX2                !
 ! D29   D(3,4,5,24)            58.8946         estimate D2E/DX2                !
 ! D30   D(3,4,5,25)           -58.783          estimate D2E/DX2                !
 ! D31   D(22,4,5,6)           -58.9618         estimate D2E/DX2                !
 ! D32   D(22,4,5,24)          179.8829         estimate D2E/DX2                !
 ! D33   D(22,4,5,25)           62.2054         estimate D2E/DX2                !
 ! D34   D(23,4,5,6)            59.0428         estimate D2E/DX2                !
 ! D35   D(23,4,5,24)          -62.1124         estimate D2E/DX2                !
 ! D36   D(23,4,5,25)         -179.79           estimate D2E/DX2                !
 ! D37   D(4,5,6,7)            179.8886         estimate D2E/DX2                !
 ! D38   D(4,5,6,26)            58.8104         estimate D2E/DX2                !
 ! D39   D(4,5,6,27)           -59.0982         estimate D2E/DX2                !
 ! D40   D(24,5,6,7)           -58.923          estimate D2E/DX2                !
 ! D41   D(24,5,6,26)          179.9988         estimate D2E/DX2                !
 ! D42   D(24,5,6,27)           62.0902         estimate D2E/DX2                !
 ! D43   D(25,5,6,7)            58.7141         estimate D2E/DX2                !
 ! D44   D(25,5,6,26)          -62.3641         estimate D2E/DX2                !
 ! D45   D(25,5,6,27)          179.7273         estimate D2E/DX2                !
 ! D46   D(5,6,7,8)           -179.8013         estimate D2E/DX2                !
 ! D47   D(5,6,7,28)            59.1212         estimate D2E/DX2                !
 ! D48   D(5,6,7,29)           -58.71           estimate D2E/DX2                !
 ! D49   D(26,6,7,8)           -58.7481         estimate D2E/DX2                !
 ! D50   D(26,6,7,28)         -179.8257         estimate D2E/DX2                !
 ! D51   D(26,6,7,29)           62.3431         estimate D2E/DX2                !
 ! D52   D(27,6,7,8)            59.1693         estimate D2E/DX2                !
 ! D53   D(27,6,7,28)          -61.9082         estimate D2E/DX2                !
 ! D54   D(27,6,7,29)         -179.7394         estimate D2E/DX2                !
 ! D55   D(6,7,8,9)            179.5758         estimate D2E/DX2                !
 ! D56   D(6,7,8,30)            58.3117         estimate D2E/DX2                !
 ! D57   D(6,7,8,31)           -58.8724         estimate D2E/DX2                !
 ! D58   D(28,7,8,9)           -59.3828         estimate D2E/DX2                !
 ! D59   D(28,7,8,30)          179.353          estimate D2E/DX2                !
 ! D60   D(28,7,8,31)           62.169          estimate D2E/DX2                !
 ! D61   D(29,7,8,9)            58.5587         estimate D2E/DX2                !
 ! D62   D(29,7,8,30)          -62.7054         estimate D2E/DX2                !
 ! D63   D(29,7,8,31)         -179.8895         estimate D2E/DX2                !
 ! D64   D(7,8,9,10)           179.4569         estimate D2E/DX2                !
 ! D65   D(7,8,9,32)           -59.2334         estimate D2E/DX2                !
 ! D66   D(7,8,9,33)            58.4879         estimate D2E/DX2                !
 ! D67   D(30,8,9,10)          -59.4216         estimate D2E/DX2                !
 ! D68   D(30,8,9,32)           61.8881         estimate D2E/DX2                !
 ! D69   D(30,8,9,33)          179.6094         estimate D2E/DX2                !
 ! D70   D(31,8,9,10)           58.0458         estimate D2E/DX2                !
 ! D71   D(31,8,9,32)          179.3556         estimate D2E/DX2                !
 ! D72   D(31,8,9,33)          -62.9231         estimate D2E/DX2                !
 ! D73   D(8,9,10,11)          179.2862         estimate D2E/DX2                !
 ! D74   D(8,9,10,34)           58.1654         estimate D2E/DX2                !
 ! D75   D(8,9,10,35)          -59.2745         estimate D2E/DX2                !
 ! D76   D(32,9,10,11)          58.2804         estimate D2E/DX2                !
 ! D77   D(32,9,10,34)         -62.8404         estimate D2E/DX2                !
 ! D78   D(32,9,10,35)         179.7196         estimate D2E/DX2                !
 ! D79   D(33,9,10,11)         -59.7653         estimate D2E/DX2                !
 ! D80   D(33,9,10,34)         179.1139         estimate D2E/DX2                !
 ! D81   D(33,9,10,35)          61.6739         estimate D2E/DX2                !
 ! D82   D(9,10,11,12)         174.6125         estimate D2E/DX2                !
 ! D83   D(9,10,11,36)         -63.5272         estimate D2E/DX2                !
 ! D84   D(9,10,11,37)          54.6089         estimate D2E/DX2                !
 ! D85   D(34,10,11,12)        -64.0128         estimate D2E/DX2                !
 ! D86   D(34,10,11,36)         57.8475         estimate D2E/DX2                !
 ! D87   D(34,10,11,37)        175.9835         estimate D2E/DX2                !
 ! D88   D(35,10,11,12)         53.6063         estimate D2E/DX2                !
 ! D89   D(35,10,11,36)        175.4665         estimate D2E/DX2                !
 ! D90   D(35,10,11,37)        -66.3974         estimate D2E/DX2                !
 ! D91   D(10,11,12,13)        112.9138         estimate D2E/DX2                !
 ! D92   D(10,11,12,14)        -67.7806         estimate D2E/DX2                !
 ! D93   D(36,11,12,13)         -8.8014         estimate D2E/DX2                !
 ! D94   D(36,11,12,14)        170.5042         estimate D2E/DX2                !
 ! D95   D(37,11,12,13)       -126.0887         estimate D2E/DX2                !
 ! D96   D(37,11,12,14)         53.2169         estimate D2E/DX2                !
 ! D97   D(11,12,14,38)        179.9077         estimate D2E/DX2                !
 ! D98   D(13,12,14,38)         -0.765          estimate D2E/DX2                !
 --------------------------------------------------------------------------------
 Trust Radius=3.00D-01 FncErr=1.00D-07 GrdErr=1.00D-06 EigMax=2.50D+02 EigMin=1.00D-04
 Number of steps in this run=    215 maximum allowed number of steps=    228.
 GradGradGradGradGradGradGradGradGradGradGradGradGradGradGradGradGradGrad

 Leave Link  103 at Mon Feb 22 21:17:16 2021, MaxMem=   104857600 cpu:               0.7 elap:               0.1
 (Enter /sw/arch/RedHatEnterpriseServer7/EB_production/2019/software/Gaussian/g16.c01/l202.exe)
                          Input orientation:                          
 ---------------------------------------------------------------------
 Center     Atomic      Atomic             Coordinates (Angstroms)
 Number     Number       Type             X           Y           Z
 ---------------------------------------------------------------------
      1          6           0        4.551600   -3.756940   -9.274050
      2          6           0        4.238170   -3.948950   -7.773180
      3          6           0        3.673010   -2.666780   -7.106760
      4          6           0        3.358320   -2.862060   -5.597420
      5          6           0        2.794300   -1.574230   -4.941830
      6          6           0        2.473720   -1.743730   -3.435720
      7          6           0        1.913950   -0.435060   -2.811300
      8          6           0        1.592950   -0.589020   -1.301320
      9          6           0        1.039290    0.701210   -0.632200
     10          6           0        0.723390    0.485160    0.873870
     11          6           0        0.184590    1.755780    1.582630
     12          6           0       -0.220220    1.468960    2.973300
     13          8           0        0.397280    1.951460    3.949650
     14          8           0       -1.292460    0.677120    3.214140
     15          1           0        5.297700   -2.971230   -9.410680
     16          1           0        3.646340   -3.485530   -9.821320
     17          1           0        4.944610   -4.685830   -9.691150
     18          1           0        3.512780   -4.760770   -7.671730
     19          1           0        5.157570   -4.248370   -7.262680
     20          1           0        4.402030   -1.859420   -7.216430
     21          1           0        2.757100   -2.371630   -7.625720
     22          1           0        4.274120   -3.156180   -5.077540
     23          1           0        2.628490   -3.668620   -5.486670
     24          1           0        1.880150   -1.282480   -5.465740
     25          1           0        3.525540   -0.769790   -5.058250
     26          1           0        3.384260   -2.035820   -2.904740
     27          1           0        1.738570   -2.544220   -3.311980
     28          1           0        1.002450   -0.148470   -3.342820
     29          1           0        2.649510    0.363650   -2.941080
     30          1           0        2.508620   -0.886800   -0.782460
     31          1           0        0.859230   -1.390090   -1.182030
     32          1           0        1.776090    1.501980   -0.739650
     33          1           0        0.126930    1.010000   -1.149650
     34          1           0        1.633440    0.161360    1.385360
     35          1           0       -0.018170   -0.315190    0.959370
     36          1           0        0.951170    2.534390    1.572250
     37          1           0       -0.686160    2.140610    1.045700
     38          1           0       -1.562090    0.484340    4.136260
 ---------------------------------------------------------------------
                    Distance matrix (angstroms):
                    1          2          3          4          5
     1  C    0.000000
     2  C    1.545224   0.000000
     3  C    2.580216   1.551606   0.000000
     4  C    3.967661   2.586387   1.554114   0.000000
     5  C    5.159502   3.967442   2.579286   1.551265   0.000000
     6  C    6.515880   5.175890   3.970750   2.589619   1.549151
     7  C    7.730409   6.509199   5.150325   3.967241   2.571358
     8  C    9.074897   7.757016   6.507447   5.171046   3.958181
     9  C   10.338907   9.102220   7.758851   6.536681   5.179826
    10  C   11.646067  10.333755   9.073337   7.747537   6.507851
    11  C   12.935546  11.683605  10.355366   9.107696   7.776126
    12  C   14.144889  12.834244  11.570186  10.247972   8.999868
    13  O   14.990345  13.674502  12.421866  11.094335   9.860761
    14  O   14.483398  13.141902  11.931410  10.573511   9.396277
    15  H    1.092096   2.181730   2.835552   4.279494   5.309354
    16  H    1.092091   2.181719   2.835472   4.279369   5.309281
    17  H    1.091451   2.172708   3.517471   4.754059   6.071402
    18  H    2.157371   1.093405   2.174778   2.816331   4.257065
    19  H    2.157386   1.093416   2.174777   2.816424   4.257043
    20  H    2.802990   2.168630   1.093310   2.171592   2.799988
    21  H    2.802910   2.168698   1.093309   2.171633   2.800089
    22  H    4.248365   2.810027   2.172229   1.093376   2.170449
    23  H    4.248576   2.810299   2.172417   1.093369   2.170441
    24  H    5.269044   4.242004   2.797066   2.167348   1.093284
    25  H    5.267716   4.240960   2.795838   2.167086   1.093339
    26  H    6.700227   5.300088   4.258927   2.816713   2.170450
    27  H    6.702992   5.303166   4.261154   2.819193   2.170681
    28  H    7.797244   6.673951   5.257473   4.242277   2.792911
    29  H    7.791259   6.668699   5.252042   4.238367   2.789147
    30  H    9.193398   7.825489   6.672399   5.273280   4.225462
    31  H    9.204149   7.836342   6.682045   5.282785   4.232552
    32  H   10.401715   9.232823   7.843275   6.719094   5.306424
    33  H   10.407079   9.239298   7.847328   6.724388   5.307894
    34  H   11.725688  10.371023   9.180105   7.802275   6.662822
    35  H   11.723964  10.371985   9.176995   7.802482   6.657277
    36  H   13.045542  11.839558  10.477872   9.290867   7.919036
    37  H   12.988936  11.794253  10.419979   9.247463   7.859017
    38  H   15.336299  13.968960  12.796145  11.408477  10.277527
                    6          7          8          9         10
     6  C    0.000000
     7  C    1.554304   0.000000
     8  C    2.581622   1.551381   0.000000
     9  C    3.986859   2.608566   1.555299   0.000000
    10  C    5.157923   3.980542   2.577101   1.553936   0.000000
    11  C    6.532268   5.205486   3.974762   2.597711   1.551490
    12  C    7.658605   6.453028   5.078902   3.895566   2.503172
    13  O    8.515264   7.328452   5.954524   4.792562   3.422982
    14  O    8.016562   6.915485   5.506186   4.497996   3.094732
    15  H    6.721738   7.837968   9.228316  10.425094  11.774673
    16  H    6.721963   7.838809   9.230199  10.429066  11.776974
    17  H    7.341094   8.636335   9.920016  11.239942  12.497099
    18  H    5.303391   6.700135   7.853112   9.246965  10.408062
    19  H    5.303008   6.699044   7.850807   9.242393  10.405369
    20  H    4.245649   5.255903   6.670335   7.824125   9.191431
    21  H    4.246253   5.257361   6.673154   7.829594   9.194578
    22  H    2.816386   4.255672   5.295170   6.715998   7.828558
    23  H    2.817011   4.257239   5.298437   6.722116   7.831971
    24  H    2.164730   2.786631   4.231520   5.291992   6.682312
    25  H    2.165061   2.785328   4.228724   5.285376   6.679595
    26  H    1.093773   2.175540   2.805883   4.260828   5.264358
    27  H    1.093865   2.174855   2.808339   4.266501   5.265840
    28  H    2.172123   1.093380   2.170368   2.840911   4.273153
    29  H    2.171778   1.093540   2.170878   2.835081   4.275342
    30  H    2.788429   2.161919   1.093773   2.168706   2.795130
    31  H    2.794773   2.163108   1.092835   2.169855   2.785990
    32  H    4.276694   2.839518   2.172854   1.093459   2.178428
    33  H    4.279786   2.835969   2.174646   1.093392   2.173903
    34  H    5.251500   4.248100   2.789796   2.171405   1.093005
    35  H    5.250434   4.238562   2.789518   2.164344   1.094432
    36  H    6.760195   5.381458   4.292432   2.868434   2.176916
    37  H    6.719826   5.317057   4.260719   2.804353   2.181025
    38  H    8.864927   7.822835   6.377590   5.436214   3.983291
                   11         12         13         14         15
    11  C    0.000000
    12  C    1.476516   0.000000
    13  O    2.384599   1.251947   0.000000
    14  O    2.450920   1.354516   2.240567   0.000000
    15  H   13.013123  14.266243  15.058068  14.701250   0.000000
    16  H   13.019413  14.254808  15.157733  14.547942   1.777673
    17  H   13.829326  14.998173  15.836769  15.303881   1.772904
    18  H   11.797688  12.886485  13.777403  13.082933   3.067954
    19  H   11.790668  12.898983  13.668014  13.252437   2.502924
    20  H   10.405764  11.673642  12.459622  12.151463   2.617839
    21  H   10.413790  11.659922  12.579628  11.966469   3.162317
    22  H    9.230898  10.315379  11.072851  10.697334   4.456234
    23  H    9.239684  10.299562  11.207486  10.486343   4.796758
    24  H    7.860373   9.121369  10.065130   9.447000   5.485807
    25  H    7.851225   9.140488   9.916324   9.681896   5.189464
    26  H    6.689590   7.734799   8.473672   8.165320   6.845692
    27  H    6.697915   7.710202   8.645315   7.883807   7.074170
    28  H    5.343699   6.633579   7.612887   6.995851   7.952111
    29  H    5.336460   6.666105   7.421310   7.316018   7.745325
    30  H    4.240047   5.205949   5.908159   5.732963   9.304300
    31  H    4.242049   5.158115   6.141131   5.313138   9.482125
    32  H    2.826707   4.215726   4.908430   5.072361  10.372951
    33  H    2.832820   4.162917   5.192523   4.600885  10.527662
    34  H    2.163390   2.769012   3.362757   3.488744  11.823468
    35  H    2.172207   2.698134   3.775192   2.773532  11.952027
    36  H    1.092697   2.114293   2.509708   3.343521  13.031843
    37  H    1.092975   2.093766   3.105245   2.685430  13.087145
    38  H    3.344918   2.030411   2.454872   0.979883  15.572966
                   16         17         18         19         20
    16  H    0.000000
    17  H    1.772899   0.000000
    18  H    2.502961   2.476653   0.000000
    19  H    3.067960   2.476730   1.770652   0.000000
    20  H    3.162397   3.795685   3.068533   2.506005   0.000000
    21  H    2.617667   3.795619   2.506224   3.068584   1.770783
    22  H    4.796460   4.906606   3.143910   2.597730   2.504555
    23  H    4.456314   4.906810   2.597931   3.144291   3.067689
    24  H    5.190755   6.231195   4.430618   4.771476   3.123724
    25  H    5.484220   6.229999   4.770572   4.429848   2.571628
    26  H    7.071734   7.450678   5.492364   5.199197   4.433694
    27  H    6.848150   7.453791   5.202724   5.495609   4.775741
    28  H    7.752231   8.742400   6.805478   7.031323   5.430410
    29  H    7.946544   8.736600   7.027373   6.799803   5.127571
    30  H    9.473584   9.986563   7.967310   7.765973   6.776943
    31  H    9.316447   9.997868   7.779397   7.976202   7.013251
    32  H   10.528524  11.333925   9.502203   9.330105   7.755208
    33  H   10.382384  11.340624   9.343623   9.504048   7.957127
    34  H   11.955804  12.535875  10.478080  10.327333   9.259559
    35  H   11.819601  12.536557  10.330860  10.481426   9.421599
    36  H   13.164984  13.962210  12.051239  11.906117  10.414168
    37  H   12.981376  13.913511  11.885021  11.999893  10.495366
    38  H   15.417576  16.132733  13.881430  14.053050  13.036392
                   21         22         23         24         25
    21  H    0.000000
    22  H    3.067587   0.000000
    23  H    2.504847   1.771463   0.000000
    24  H    2.573092   3.064726   2.500823   0.000000
    25  H    3.122226   2.501120   3.064549   1.770934   0.000000
    26  H    4.774280   2.601561   3.146996   3.064080   2.502079
    27  H    4.435712   3.149716   2.604901   2.500143   3.064526
    28  H    5.134634   4.770681   4.430751   2.561860   3.113635
    29  H    5.425789   4.426401   4.768613   3.110557   2.556271
    30  H    7.006902   5.168635   5.466487   4.741798   4.396612
    31  H    6.788702   5.473166   5.181882   4.405000   4.745425
    32  H    7.961482   6.837828   7.070777   5.486344   5.183804
    33  H    7.764837   7.069976   6.852520   5.192098   5.476802
    34  H    9.427524   7.729705   7.929922   7.005934   6.779911
    35  H    9.253909   7.933427   7.733158   6.769144   6.998306
    36  H   10.579843   9.361853   9.545632   8.060075   7.842737
    37  H   10.363874   9.494969   9.349113   7.791171   7.966621
    38  H   12.851309  11.498210  11.287552  10.352250  10.582808
                   26         27         28         29         30
    26  H    0.000000
    27  H    1.769918   0.000000
    28  H    3.070346   2.506480   0.000000
    29  H    2.509708   3.069705   1.771008   0.000000
    30  H    2.567307   3.120655   3.060902   2.498623   0.000000
    31  H    3.124176   2.577197   2.496226   3.061856   1.770154
    32  H    4.448579   4.794791   3.177892   2.627727   2.498940
    33  H    4.792448   4.461562   2.630320   3.160759   3.066778
    34  H    5.128151   5.421828   4.780149   4.448753   2.562035
    35  H    5.428484   5.128269   4.424737   4.773976   3.121759
    36  H    6.844720   7.089992   5.599846   5.288347   4.435634
    37  H    7.043924   6.842245   5.229761   5.493514   4.765921
    38  H    8.966229   8.691537   7.931832   8.236558   6.530277
                   31         32         33         34         35
    31  H    0.000000
    32  H    3.066007   0.000000
    33  H    2.509531   1.769145   0.000000
    34  H    3.098046   2.516601   3.068556   0.000000
    35  H    2.551634   3.067270   2.495025   1.770984   0.000000
    36  H    4.795420   2.662939   3.226744   2.476225   3.071701
    37  H    4.451612   3.107732   2.599799   3.068117   2.546491
    38  H    6.136814   5.996127   5.574043   4.228851   3.621542
                   36         37         38
    36  H    0.000000
    37  H    1.764417   0.000000
    38  H    4.134408   3.614145   0.000000
 Stoichiometry    C12H24O2
 Framework group  C1[X(C12H24O2)]
 Deg. of freedom   108
 Full point group                 C1      NOp   1
 Largest Abelian subgroup         C1      NOp   1
 Largest concise Abelian subgroup C1      NOp   1
                         Standard orientation:                         
 ---------------------------------------------------------------------
 Center     Atomic      Atomic             Coordinates (Angstroms)
 Number     Number       Type             X           Y           Z
 ---------------------------------------------------------------------
      1          6           0       -8.062583   -0.142489   -0.125441
      2          6           0       -6.742776    0.555888    0.272171
      3          6           0       -5.484606   -0.246331   -0.153196
      4          6           0       -4.158367    0.457818    0.247470
      5          6           0       -2.907692   -0.352981   -0.182461
      6          6           0       -1.572283    0.328623    0.207371
      7          6           0       -0.341762   -0.511301   -0.235580
      8          6           0        1.003082    0.157417    0.153001
      9          6           0        2.262713   -0.654864   -0.262310
     10          6           0        3.578580    0.067592    0.139272
     11          6           0        4.859530   -0.720098   -0.242611
     12          6           0        6.079853    0.060863    0.042015
     13          8           0        6.889796   -0.287384    0.930884
     14          8           0        6.350086    1.176270   -0.677398
     15          1           0       -8.133843   -1.123043    0.350068
     16          1           0       -8.116136   -0.268919   -1.208867
     17          1           0       -8.912149    0.462453    0.196348
     18          1           0       -6.718812    1.543804   -0.195784
     19          1           0       -6.736355    0.692957    1.356943
     20          1           0       -5.518575   -1.233648    0.315183
     21          1           0       -5.501116   -0.383000   -1.237803
     22          1           0       -4.140635    0.593848    1.332207
     23          1           0       -4.122887    1.444964   -0.221295
     24          1           0       -2.930355   -0.488510   -1.267075
     25          1           0       -2.949329   -1.340249    0.285467
     26          1           0       -1.542453    0.467581    1.291871
     27          1           0       -1.521512    1.315585   -0.261532
     28          1           0       -0.373840   -0.645123   -1.320265
     29          1           0       -0.398534   -1.498494    0.231385
     30          1           0        1.018577    0.296520    1.237782
     31          1           0        1.049326    1.143199   -0.316448
     32          1           0        2.225440   -1.637935    0.215009
     33          1           0        2.251523   -0.804578   -1.345346
     34          1           0        3.579686    0.229947    1.220151
     35          1           0        3.598843    1.045471   -0.351770
     36          1           0        4.886676   -1.664428    0.306470
     37          1           0        4.846593   -0.957155   -1.309489
     38          1           0        7.158671    1.696835   -0.489319
 ---------------------------------------------------------------------
 Rotational constants (GHZ):           4.1237145           0.1013904           0.1007787
 Leave Link  202 at Mon Feb 22 21:17:16 2021, MaxMem=   104857600 cpu:               0.8 elap:               0.1
 (Enter /sw/arch/RedHatEnterpriseServer7/EB_production/2019/software/Gaussian/g16.c01/l301.exe)
 Standard basis: TZVP (5D, 7F)
 Ernie: Thresh=  0.10000D-02 Tol=  0.10000D-05 Strict=F.
 There are   424 symmetry adapted cartesian basis functions of A   symmetry.
 There are   410 symmetry adapted basis functions of A   symmetry.
   410 basis functions,   682 primitive gaussians,   424 cartesian basis functions
    56 alpha electrons       56 beta electrons
       nuclear repulsion energy       821.8809630970 Hartrees.
 IExCor=  404 DFT=T Ex=B Corr=P86 ExCW=0 ScaHFX=  0.000000
 ScaDFX=  1.000000  1.000000  1.000000  1.000000 ScalE2=  1.000000  1.000000
 IRadAn=      5 IRanWt=     -1 IRanGd=            0 ICorTp=0 IEmpDi=131
 NAtoms=   38 NActive=   38 NUniq=   38 SFac= 1.00D+00 NAtFMM=   60 NAOKFM=F Big=F
 Integral buffers will be    131072 words long.
 Raffenetti 2 integral format.
 Two-electron integral symmetry is turned on.
 R6Disp:  Grimme-D3 Dispersion energy=       -0.0349634482 Hartrees.
 Nuclear repulsion after empirical dispersion term =      821.8459996488 Hartrees.
 ------------------------------------------------------------------------------
 Polarizable Continuum Model (PCM)
 =================================
 Model                : PCM.
 Atomic radii         : UFF (Universal Force Field).
 Polarization charges : Total charges.
 Charge compensation  : None.
 Solution method      : On-the-fly selection.
 Cavity type          : Scaled VdW (van der Waals Surface) (Alpha=1.100).
 Cavity algorithm     : GePol (No added spheres)
                        Default sphere list used, NSphG=   38.
                        Lebedev-Laikov grids with approx.  5.0 points / Ang**2.
                        Smoothing algorithm: York/Karplus (Gamma=1.0000).
                        Polarization charges: spherical gaussians, with
                                              point-specific exponents (IZeta= 3).
                        Self-potential: point-specific (ISelfS= 7).
                        Self-field    : sphere-specific E.n sum rule (ISelfD= 2).
 1st derivatives      : Analytical E(r).r(x)/FMM algorithm (CHGder, D1EAlg=3).
                        Cavity 1st derivative terms included.
 Solvent              : Water, Eps=  78.355300 Eps(inf)=   1.777849
 ------------------------------------------------------------------------------
 GePol: Number of generator spheres                  =      38
 GePol: Total number of spheres                      =      38
 GePol: Number of exposed spheres                    =      38 (100.00%)
 GePol: Number of points                             =    2721
 GePol: Average weight of points                     =       0.13
 GePol: Minimum weight of points                     =   0.18D-09
 GePol: Maximum weight of points                     =    0.20577
 GePol: Number of points with low weight             =     201
 GePol: Fraction of low-weight points (<1% of avg)   =       7.39%
 GePol: Cavity surface area                          =    357.508 Ang**2
 GePol: Cavity volume                                =    356.226 Ang**3
 Leave Link  301 at Mon Feb 22 21:17:16 2021, MaxMem=   104857600 cpu:               2.4 elap:               0.1
 (Enter /sw/arch/RedHatEnterpriseServer7/EB_production/2019/software/Gaussian/g16.c01/l302.exe)
 NPDir=0 NMtPBC=     1 NCelOv=     1 NCel=       1 NClECP=     1 NCelD=      1
         NCelK=      1 NCelE2=     1 NClLst=     1 CellRange=     0.0.
 One-electron integrals computed using PRISM.
 One-electron integral symmetry used in STVInt
 PrsmSu:  requested number of processors reduced to:  26 ShMem   1 Linda.
 NBasis=   410 RedAO= T EigKep=  5.53D-05  NBF=   410
 NBsUse=   410 1.00D-06 EigRej= -1.00D+00 NBFU=   410
 Precomputing XC quadrature grid using
 IXCGrd= 4 IRadAn=           5 IRanWt=          -1 IRanGd=           0 AccXCQ= 0.00D+00.
 Generated NRdTot=       0 NPtTot=           0 NUsed=           0 NTot=          32
 NSgBfM=   400   400   400   400   400 MxSgAt=    38 MxSgA2=    38.
 Leave Link  302 at Mon Feb 22 21:17:16 2021, MaxMem=   104857600 cpu:              13.1 elap:               0.4
 (Enter /sw/arch/RedHatEnterpriseServer7/EB_production/2019/software/Gaussian/g16.c01/l303.exe)
 DipDrv:  MaxL=1.
 Leave Link  303 at Mon Feb 22 21:17:17 2021, MaxMem=   104857600 cpu:               1.7 elap:               0.1
 (Enter /sw/arch/RedHatEnterpriseServer7/EB_production/2019/software/Gaussian/g16.c01/l401.exe)
 ExpMin= 9.52D-02 ExpMax= 2.70D+04 ExpMxC= 9.22D+02 IAcc=3 IRadAn=         5 AccDes= 0.00D+00
 Harris functional with IExCor=  404 and IRadAn=       5 diagonalized for initial guess.
 HarFok:  IExCor=  404 AccDes= 0.00D+00 IRadAn=         5 IDoV= 1 UseB2=F ITyADJ=14
 ICtDFT=  3500011 ScaDFX=  1.000000  1.000000  1.000000  1.000000
 FoFCou: FMM=F IPFlag=           0 FMFlag=      100000 FMFlg1=           0
         NFxFlg=           0 DoJE=T BraDBF=F KetDBF=T FulRan=T
         wScrn=  0.000000 ICntrl=       500 IOpCl=  0 I1Cent=   200000004 NGrid=           0
         NMat0=    1 NMatS0=      1 NMatT0=    0 NMatD0=    1 NMtDS0=    0 NMtDT0=    0
 Petite list used in FoFCou.
 Harris En= -622.843384883283    
 JPrj=0 DoOrth=F DoCkMO=F.
 Leave Link  401 at Mon Feb 22 21:17:18 2021, MaxMem=   104857600 cpu:              23.2 elap:               0.8
 (Enter /sw/arch/RedHatEnterpriseServer7/EB_production/2019/software/Gaussian/g16.c01/l502.exe)
 Integral symmetry usage will be decided dynamically.
 Closed shell SCF:
 Using DIIS extrapolation, IDIIS=  1040.
 NGot=   104857600 LenX=   104479086 LenY=   104298869
 Requested convergence on RMS density matrix=1.00D-08 within 128 cycles.
 Requested convergence on MAX density matrix=1.00D-06.
 Requested convergence on             energy=1.00D-06.
 No special actions if energy rises.
 Fock matrices will be formed incrementally for  20 cycles.

 Cycle   1  Pass 1  IDiag  1:
 FoFJK:  IHMeth= 1 ICntrl=     500 DoSepK=F KAlg= 0 I1Cent=           0 FoldK=F
 IRaf= 690000000 NMat=       1 IRICut=       1 DoRegI=T DoRafI=F ISym2E= 0 IDoP0=0 IntGTp=1.
 FoFCou: FMM=F IPFlag=           0 FMFlag=      100000 FMFlg1=           0
         NFxFlg=           0 DoJE=T BraDBF=F KetDBF=F FulRan=T
         wScrn=  0.000000 ICntrl=       500 IOpCl=  0 I1Cent=           0 NGrid=           0
         NMat0=    1 NMatS0=      1 NMatT0=    0 NMatD0=    1 NMtDS0=    0 NMtDT0=    0
 Symmetry not used in FoFCou.
 Inv3:  Mode=1 IEnd=    22211523.
 Iteration    1 A*A^-1 deviation from unit magnitude is 3.44D-15 for    567.
 Iteration    1 A*A^-1 deviation from orthogonality  is 2.33D-15 for   2677    932.
 Iteration    1 A^-1*A deviation from unit magnitude is 3.22D-15 for    567.
 Iteration    1 A^-1*A deviation from orthogonality  is 1.89D-15 for   2563   1203.
 E= -621.941021790390    
 DIIS: error= 3.73D-02 at cycle   1 NSaved=   1.
 NSaved= 1 IEnMin= 1 EnMin= -621.941021790390     IErMin= 1 ErrMin= 3.73D-02
 ErrMax= 3.73D-02  0.00D+00 EMaxC= 1.00D-01 BMatC= 5.07D-01 BMatP= 5.07D-01
 IDIUse=3 WtCom= 6.27D-01 WtEn= 3.73D-01
 Coeff-Com:  0.100D+01
 Coeff-En:   0.100D+01
 Coeff:      0.100D+01
 Gap=     0.065 Goal=   None    Shift=    0.000
 GapD=    0.065 DampG=0.500 DampE=0.500 DampFc=0.2500 IDamp=-1.
 Damping current iteration by 2.50D-01
 RMSDP=5.67D-03 MaxDP=5.80D-01              OVMax= 2.76D-01

 Cycle   2  Pass 1  IDiag  1:
 RMSU=  1.41D-03    CP:  9.89D-01
 E= -622.126059239774     Delta-E=       -0.185037449384 Rises=F Damp=T
 DIIS: error= 1.55D-02 at cycle   2 NSaved=   2.
 NSaved= 2 IEnMin= 2 EnMin= -622.126059239774     IErMin= 2 ErrMin= 1.55D-02
 ErrMax= 1.55D-02  0.00D+00 EMaxC= 1.00D-01 BMatC= 7.75D-02 BMatP= 5.07D-01
 IDIUse=3 WtCom= 8.45D-01 WtEn= 1.55D-01
 Coeff-Com: -0.458D+00 0.146D+01
 Coeff-En:   0.000D+00 0.100D+01
 Coeff:     -0.386D+00 0.139D+01
 Gap=     0.163 Goal=   None    Shift=    0.000
 RMSDP=1.07D-03 MaxDP=6.21D-02 DE=-1.85D-01 OVMax= 2.21D-01

 Cycle   3  Pass 1  IDiag  1:
 RMSU=  1.06D-03    CP:  9.73D-01  1.03D+00
 E= -622.369049987129     Delta-E=       -0.242990747355 Rises=F Damp=F
 DIIS: error= 3.05D-02 at cycle   3 NSaved=   3.
 NSaved= 3 IEnMin= 3 EnMin= -622.369049987129     IErMin= 2 ErrMin= 1.55D-02
 ErrMax= 3.05D-02  0.00D+00 EMaxC= 1.00D-01 BMatC= 9.67D-02 BMatP= 7.75D-02
 IDIUse=2 WtCom= 0.00D+00 WtEn= 1.00D+00
 Coeff-En:   0.000D+00 0.000D+00 0.100D+01
 Coeff:      0.000D+00 0.000D+00 0.100D+01
 Gap=     0.202 Goal=   None    Shift=    0.000
 RMSDP=3.15D-03 MaxDP=3.01D-01 DE=-2.43D-01 OVMax= 4.95D-01

 Cycle   4  Pass 1  IDiag  1:
 RMSU=  1.74D-03    CP:  1.00D+00  2.08D+00 -1.02D+00
 E= -621.689077239158     Delta-E=        0.679972747971 Rises=F Damp=F
 DIIS: error= 7.70D-02 at cycle   4 NSaved=   4.
 NSaved= 4 IEnMin= 3 EnMin= -622.369049987129     IErMin= 2 ErrMin= 1.55D-02
 ErrMax= 7.70D-02  0.00D+00 EMaxC= 1.00D-01 BMatC= 9.30D-01 BMatP= 7.75D-02
 IDIUse=2 WtCom= 0.00D+00 WtEn= 1.00D+00
 Coeff-En:   0.000D+00 0.000D+00 0.846D+00 0.154D+00
 Coeff:      0.000D+00 0.000D+00 0.846D+00 0.154D+00
 Gap=     0.134 Goal=   None    Shift=    0.000
 RMSDP=2.06D-03 MaxDP=2.21D-01 DE= 6.80D-01 OVMax= 2.22D-01

 Cycle   5  Pass 1  IDiag  1:
 RMSU=  4.08D-04    CP:  9.88D-01  1.21D+00  8.40D-02  3.79D-01
 E= -622.372645460922     Delta-E=       -0.683568221765 Rises=F Damp=F
 DIIS: error= 2.82D-02 at cycle   5 NSaved=   5.
 NSaved= 5 IEnMin= 5 EnMin= -622.372645460922     IErMin= 2 ErrMin= 1.55D-02
 ErrMax= 2.82D-02  0.00D+00 EMaxC= 1.00D-01 BMatC= 9.58D-02 BMatP= 7.75D-02
 IDIUse=2 WtCom= 0.00D+00 WtEn= 1.00D+00
 Coeff-En:   0.000D+00 0.000D+00 0.492D+00 0.000D+00 0.508D+00
 Coeff:      0.000D+00 0.000D+00 0.492D+00 0.000D+00 0.508D+00
 Gap=     0.178 Goal=   None    Shift=    0.000
 RMSDP=7.20D-04 MaxDP=6.11D-02 DE=-6.84D-01 OVMax= 8.58D-02

 Cycle   6  Pass 1  IDiag  1:
 RMSU=  1.02D-04    CP:  9.80D-01  1.03D+00  5.61D-01  1.48D-01  6.97D-01
 E= -622.447485276789     Delta-E=       -0.074839815867 Rises=F Damp=F
 DIIS: error= 2.19D-03 at cycle   6 NSaved=   6.
 NSaved= 6 IEnMin= 6 EnMin= -622.447485276789     IErMin= 6 ErrMin= 2.19D-03
 ErrMax= 2.19D-03  0.00D+00 EMaxC= 1.00D-01 BMatC= 6.57D-04 BMatP= 7.75D-02
 IDIUse=3 WtCom= 9.78D-01 WtEn= 2.19D-02
 Coeff-Com: -0.251D-01 0.414D-01 0.206D+00-0.356D-01 0.330D+00 0.483D+00
 Coeff-En:   0.000D+00 0.000D+00 0.000D+00 0.000D+00 0.000D+00 0.100D+01
 Coeff:     -0.245D-01 0.405D-01 0.201D+00-0.348D-01 0.323D+00 0.494D+00
 Gap=     0.178 Goal=   None    Shift=    0.000
 RMSDP=1.02D-04 MaxDP=9.37D-03 DE=-7.48D-02 OVMax= 1.34D-02

 Cycle   7  Pass 1  IDiag  1:
 RMSU=  4.55D-05    CP:  9.81D-01  1.07D+00  5.35D-01  1.76D-01  7.23D-01
                    CP:  6.94D-01
 E= -622.447853780427     Delta-E=       -0.000368503638 Rises=F Damp=F
 DIIS: error= 1.31D-03 at cycle   7 NSaved=   7.
 NSaved= 7 IEnMin= 7 EnMin= -622.447853780427     IErMin= 7 ErrMin= 1.31D-03
 ErrMax= 1.31D-03  0.00D+00 EMaxC= 1.00D-01 BMatC= 2.17D-04 BMatP= 6.57D-04
 IDIUse=3 WtCom= 9.87D-01 WtEn= 1.31D-02
 Coeff-Com: -0.837D-02 0.909D-02 0.543D-01-0.122D-01 0.967D-01 0.381D+00
 Coeff-Com:  0.480D+00
 Coeff-En:   0.000D+00 0.000D+00 0.000D+00 0.000D+00 0.000D+00 0.286D+00
 Coeff-En:   0.714D+00
 Coeff:     -0.826D-02 0.897D-02 0.536D-01-0.120D-01 0.954D-01 0.379D+00
 Coeff:      0.483D+00
 Gap=     0.178 Goal=   None    Shift=    0.000
 RMSDP=2.54D-05 MaxDP=1.40D-03 DE=-3.69D-04 OVMax= 3.56D-03

 Cycle   8  Pass 1  IDiag  1:
 RMSU=  1.42D-05    CP:  9.81D-01  1.06D+00  5.39D-01  1.72D-01  7.19D-01
                    CP:  7.15D-01  6.38D-01
 E= -622.448003799848     Delta-E=       -0.000150019421 Rises=F Damp=F
 DIIS: error= 1.92D-04 at cycle   8 NSaved=   8.
 NSaved= 8 IEnMin= 8 EnMin= -622.448003799848     IErMin= 8 ErrMin= 1.92D-04
 ErrMax= 1.92D-04  0.00D+00 EMaxC= 1.00D-01 BMatC= 1.27D-05 BMatP= 2.17D-04
 IDIUse=3 WtCom= 9.98D-01 WtEn= 1.92D-03
 Coeff-Com:  0.309D-03-0.246D-02 0.608D-02-0.359D-03 0.522D-02 0.162D+00
 Coeff-Com:  0.243D+00 0.586D+00
 Coeff-En:   0.000D+00 0.000D+00 0.000D+00 0.000D+00 0.000D+00 0.000D+00
 Coeff-En:   0.000D+00 0.100D+01
 Coeff:      0.308D-03-0.245D-02 0.607D-02-0.358D-03 0.521D-02 0.162D+00
 Coeff:      0.243D+00 0.586D+00
 Gap=     0.179 Goal=   None    Shift=    0.000
 RMSDP=1.24D-05 MaxDP=1.32D-03 DE=-1.50D-04 OVMax= 9.39D-04

 Cycle   9  Pass 1  IDiag  1:
 RMSU=  3.98D-06    CP:  9.81D-01  1.06D+00  5.44D-01  1.69D-01  7.16D-01
                    CP:  7.56D-01  6.25D-01  6.55D-01
 E= -622.448013800859     Delta-E=       -0.000010001011 Rises=F Damp=F
 DIIS: error= 5.42D-05 at cycle   9 NSaved=   9.
 NSaved= 9 IEnMin= 9 EnMin= -622.448013800859     IErMin= 9 ErrMin= 5.42D-05
 ErrMax= 5.42D-05  0.00D+00 EMaxC= 1.00D-01 BMatC= 2.63D-07 BMatP= 1.27D-05
 IDIUse=1 WtCom= 1.00D+00 WtEn= 0.00D+00
 Coeff-Com:  0.417D-03-0.926D-03 0.896D-03 0.551D-04-0.118D-02 0.462D-01
 Coeff-Com:  0.761D-01 0.238D+00 0.640D+00
 Coeff:      0.417D-03-0.926D-03 0.896D-03 0.551D-04-0.118D-02 0.462D-01
 Coeff:      0.761D-01 0.238D+00 0.640D+00
 Gap=     0.179 Goal=   None    Shift=    0.000
 RMSDP=1.43D-06 MaxDP=6.13D-05 DE=-1.00D-05 OVMax= 1.11D-04

 Cycle  10  Pass 1  IDiag  1:
 RMSU=  7.14D-07    CP:  9.81D-01  1.06D+00  5.44D-01  1.69D-01  7.16D-01
                    CP:  7.56D-01  6.32D-01  6.76D-01  7.13D-01
 E= -622.448014034380     Delta-E=       -0.000000233520 Rises=F Damp=F
 DIIS: error= 5.24D-06 at cycle  10 NSaved=  10.
 NSaved=10 IEnMin=10 EnMin= -622.448014034380     IErMin=10 ErrMin= 5.24D-06
 ErrMax= 5.24D-06  0.00D+00 EMaxC= 1.00D-01 BMatC= 2.73D-08 BMatP= 2.63D-07
 IDIUse=1 WtCom= 1.00D+00 WtEn= 0.00D+00
 Coeff-Com:  0.237D-03-0.396D-03 0.334D-03 0.226D-04-0.819D-03 0.183D-01
 Coeff-Com:  0.320D-01 0.108D+00 0.372D+00 0.471D+00
 Coeff:      0.237D-03-0.396D-03 0.334D-03 0.226D-04-0.819D-03 0.183D-01
 Coeff:      0.320D-01 0.108D+00 0.372D+00 0.471D+00
 Gap=     0.179 Goal=   None    Shift=    0.000
 RMSDP=3.67D-07 MaxDP=1.79D-05 DE=-2.34D-07 OVMax= 2.79D-05

 Cycle  11  Pass 1  IDiag  1:
 RMSU=  2.40D-07    CP:  9.81D-01  1.06D+00  5.44D-01  1.69D-01  7.16D-01
                    CP:  7.56D-01  6.33D-01  6.75D-01  7.15D-01  6.72D-01
 E= -622.448014065197     Delta-E=       -0.000000030817 Rises=F Damp=F
 DIIS: error= 9.03D-07 at cycle  11 NSaved=  11.
 NSaved=11 IEnMin=11 EnMin= -622.448014065197     IErMin=11 ErrMin= 9.03D-07
 ErrMax= 9.03D-07  0.00D+00 EMaxC= 1.00D-01 BMatC= 7.58D-10 BMatP= 2.73D-08
 IDIUse=1 WtCom= 1.00D+00 WtEn= 0.00D+00
 Coeff-Com:  0.727D-04-0.102D-03 0.289D-04 0.145D-04-0.228D-03 0.239D-02
 Coeff-Com:  0.464D-02 0.158D-01 0.780D-01 0.179D+00 0.720D+00
 Coeff:      0.727D-04-0.102D-03 0.289D-04 0.145D-04-0.228D-03 0.239D-02
 Coeff:      0.464D-02 0.158D-01 0.780D-01 0.179D+00 0.720D+00
 Gap=     0.179 Goal=   None    Shift=    0.000
 RMSDP=1.14D-07 MaxDP=8.27D-06 DE=-3.08D-08 OVMax= 4.89D-06

 Cycle  12  Pass 1  IDiag  1:
 RMSU=  6.10D-08    CP:  9.81D-01  1.06D+00  5.44D-01  1.69D-01  7.16D-01
                    CP:  7.56D-01  6.33D-01  6.76D-01  7.27D-01  6.83D-01
                    CP:  7.65D-01
 E= -622.448014065881     Delta-E=       -0.000000000684 Rises=F Damp=F
 DIIS: error= 2.37D-07 at cycle  12 NSaved=  12.
 NSaved=12 IEnMin=12 EnMin= -622.448014065881     IErMin=12 ErrMin= 2.37D-07
 ErrMax= 2.37D-07  0.00D+00 EMaxC= 1.00D-01 BMatC= 4.93D-11 BMatP= 7.58D-10
 IDIUse=1 WtCom= 1.00D+00 WtEn= 0.00D+00
 Coeff-Com:  0.250D-04-0.330D-04 0.527D-05 0.430D-05-0.687D-04 0.526D-03
 Coeff-Com:  0.115D-02 0.380D-02 0.241D-01 0.681D-01 0.339D+00 0.563D+00
 Coeff:      0.250D-04-0.330D-04 0.527D-05 0.430D-05-0.687D-04 0.526D-03
 Coeff:      0.115D-02 0.380D-02 0.241D-01 0.681D-01 0.339D+00 0.563D+00
 Gap=     0.179 Goal=   None    Shift=    0.000
 RMSDP=2.87D-08 MaxDP=2.27D-06 DE=-6.84D-10 OVMax= 1.16D-06

 Cycle  13  Pass 1  IDiag  1:
 RMSU=  1.39D-08    CP:  9.81D-01  1.06D+00  5.44D-01  1.69D-01  7.16D-01
                    CP:  7.56D-01  6.33D-01  6.76D-01  7.27D-01  6.88D-01
                    CP:  7.95D-01  6.79D-01
 E= -622.448014065923     Delta-E=       -0.000000000042 Rises=F Damp=F
 DIIS: error= 9.57D-08 at cycle  13 NSaved=  13.
 NSaved=13 IEnMin=13 EnMin= -622.448014065923     IErMin=13 ErrMin= 9.57D-08
 ErrMax= 9.57D-08  0.00D+00 EMaxC= 1.00D-01 BMatC= 6.72D-12 BMatP= 4.93D-11
 IDIUse=1 WtCom= 1.00D+00 WtEn= 0.00D+00
 Coeff-Com:  0.587D-05-0.659D-05 0.117D-05 0.505D-06-0.122D-04 0.362D-04
 Coeff-Com:  0.157D-03 0.495D-03 0.559D-02 0.203D-01 0.118D+00 0.309D+00
 Coeff-Com:  0.547D+00
 Coeff:      0.587D-05-0.659D-05 0.117D-05 0.505D-06-0.122D-04 0.362D-04
 Coeff:      0.157D-03 0.495D-03 0.559D-02 0.203D-01 0.118D+00 0.309D+00
 Coeff:      0.547D+00
 Gap=     0.179 Goal=   None    Shift=    0.000
 RMSDP=7.83D-09 MaxDP=2.98D-07 DE=-4.21D-11 OVMax= 3.73D-07

 Error on total polarization charges =  0.01905
 SCF Done:  E(RB-P86) =  -622.448014066     A.U. after   13 cycles
            NFock= 13  Conv=0.78D-08     -V/T= 2.0052
 KE= 6.192491661849D+02 PE=-3.091432899587D+03 EE= 1.027889719687D+03
 Leave Link  502 at Mon Feb 22 21:17:50 2021, MaxMem=   104857600 cpu:            1001.8 elap:              32.2
 (Enter /sw/arch/RedHatEnterpriseServer7/EB_production/2019/software/Gaussian/g16.c01/l601.exe)
 Copying SCF densities to generalized density rwf, IOpCl= 0 IROHF=0.

 **********************************************************************

            Population analysis using the SCF Density.

 **********************************************************************

 Orbital symmetries:
       Occupied  (A) (A) (A) (A) (A) (A) (A) (A) (A) (A) (A) (A)
                 (A) (A) (A) (A) (A) (A) (A) (A) (A) (A) (A) (A)
                 (A) (A) (A) (A) (A) (A) (A) (A) (A) (A) (A) (A)
                 (A) (A) (A) (A) (A) (A) (A) (A) (A) (A) (A) (A)
                 (A) (A) (A) (A) (A) (A) (A) (A)
       Virtual   (A) (A) (A) (A) (A) (A) (A) (A) (A) (A) (A) (A)
                 (A) (A) (A) (A) (A) (A) (A) (A) (A) (A) (A) (A)
                 (A) (A) (A) (A) (A) (A) (A) (A) (A) (A) (A) (A)
                 (A) (A) (A) (A) (A) (A) (A) (A) (A) (A) (A) (A)
                 (A) (A) (A) (A) (A) (A) (A) (A) (A) (A) (A) (A)
                 (A) (A) (A) (A) (A) (A) (A) (A) (A) (A) (A) (A)
                 (A) (A) (A) (A) (A) (A) (A) (A) (A) (A) (A) (A)
                 (A) (A) (A) (A) (A) (A) (A) (A) (A) (A) (A) (A)
                 (A) (A) (A) (A) (A) (A) (A) (A) (A) (A) (A) (A)
                 (A) (A) (A) (A) (A) (A) (A) (A) (A) (A) (A) (A)
                 (A) (A) (A) (A) (A) (A) (A) (A) (A) (A) (A) (A)
                 (A) (A) (A) (A) (A) (A) (A) (A) (A) (A) (A) (A)
                 (A) (A) (A) (A) (A) (A) (A) (A) (A) (A) (A) (A)
                 (A) (A) (A) (A) (A) (A) (A) (A) (A) (A) (A) (A)
                 (A) (A) (A) (A) (A) (A) (A) (A) (A) (A) (A) (A)
                 (A) (A) (A) (A) (A) (A) (A) (A) (A) (A) (A) (A)
                 (A) (A) (A) (A) (A) (A) (A) (A) (A) (A) (A) (A)
                 (A) (A) (A) (A) (A) (A) (A) (A) (A) (A) (A) (A)
                 (A) (A) (A) (A) (A) (A) (A) (A) (A) (A) (A) (A)
                 (A) (A) (A) (A) (A) (A) (A) (A) (A) (A) (A) (A)
                 (A) (A) (A) (A) (A) (A) (A) (A) (A) (A) (A) (A)
                 (A) (A) (A) (A) (A) (A) (A) (A) (A) (A) (A) (A)
                 (A) (A) (A) (A) (A) (A) (A) (A) (A) (A) (A) (A)
                 (A) (A) (A) (A) (A) (A) (A) (A) (A) (A) (A) (A)
                 (A) (A) (A) (A) (A) (A) (A) (A) (A) (A) (A) (A)
                 (A) (A) (A) (A) (A) (A) (A) (A) (A) (A) (A) (A)
                 (A) (A) (A) (A) (A) (A) (A) (A) (A) (A) (A) (A)
                 (A) (A) (A) (A) (A) (A) (A) (A) (A) (A) (A) (A)
                 (A) (A) (A) (A) (A) (A) (A) (A) (A) (A) (A) (A)
                 (A) (A) (A) (A) (A) (A)
 The electronic state is 1-A.
 Alpha  occ. eigenvalues --  -18.82094 -18.75832 -10.03512  -9.91654  -9.90596
 Alpha  occ. eigenvalues --   -9.89539  -9.89076  -9.88909  -9.88873  -9.88813
 Alpha  occ. eigenvalues --   -9.88726  -9.88716  -9.88707  -9.88086  -1.01616
 Alpha  occ. eigenvalues --   -0.92207  -0.74429  -0.73162  -0.71421  -0.68954
 Alpha  occ. eigenvalues --   -0.65847  -0.62244  -0.58898  -0.56696  -0.54023
 Alpha  occ. eigenvalues --   -0.52264  -0.51659  -0.51425  -0.45332  -0.44021
 Alpha  occ. eigenvalues --   -0.43209  -0.42414  -0.41575  -0.40815  -0.38966
 Alpha  occ. eigenvalues --   -0.38401  -0.37436  -0.36532  -0.36211  -0.35201
 Alpha  occ. eigenvalues --   -0.34011  -0.33686  -0.33461  -0.31699  -0.31555
 Alpha  occ. eigenvalues --   -0.30067  -0.29988  -0.29745  -0.28996  -0.28724
 Alpha  occ. eigenvalues --   -0.28507  -0.28376  -0.28289  -0.28188  -0.25885
 Alpha  occ. eigenvalues --   -0.23234
 Alpha virt. eigenvalues --   -0.05378   0.01198   0.02011   0.02770   0.03815
 Alpha virt. eigenvalues --    0.04890   0.05088   0.05224   0.06168   0.06323
 Alpha virt. eigenvalues --    0.06576   0.08247   0.08652   0.08837   0.10232
 Alpha virt. eigenvalues --    0.10402   0.10824   0.11147   0.11452   0.11523
 Alpha virt. eigenvalues --    0.11932   0.12123   0.12525   0.12615   0.13186
 Alpha virt. eigenvalues --    0.13321   0.13611   0.14762   0.15083   0.15595
 Alpha virt. eigenvalues --    0.16049   0.16876   0.17332   0.18119   0.18688
 Alpha virt. eigenvalues --    0.19133   0.19662   0.21249   0.22454   0.23129
 Alpha virt. eigenvalues --    0.23945   0.24728   0.25045   0.25094   0.25614
 Alpha virt. eigenvalues --    0.26473   0.27419   0.27615   0.27826   0.28466
 Alpha virt. eigenvalues --    0.28499   0.29369   0.30039   0.30052   0.30781
 Alpha virt. eigenvalues --    0.32196   0.32756   0.34870   0.35252   0.35418
 Alpha virt. eigenvalues --    0.36039   0.37252   0.37822   0.37872   0.38628
 Alpha virt. eigenvalues --    0.38855   0.39454   0.40074   0.40337   0.40410
 Alpha virt. eigenvalues --    0.41106   0.41611   0.41902   0.42309   0.42403
 Alpha virt. eigenvalues --    0.43420   0.43640   0.44162   0.44339   0.44496
 Alpha virt. eigenvalues --    0.45258   0.45788   0.45950   0.46175   0.46683
 Alpha virt. eigenvalues --    0.46993   0.47599   0.47854   0.48224   0.48341
 Alpha virt. eigenvalues --    0.48652   0.48957   0.49291   0.49704   0.49863
 Alpha virt. eigenvalues --    0.51574   0.51835   0.53042   0.54715   0.55315
 Alpha virt. eigenvalues --    0.56260   0.57094   0.57515   0.58498   0.59982
 Alpha virt. eigenvalues --    0.61232   0.62221   0.62506   0.64370   0.66412
 Alpha virt. eigenvalues --    0.68670   0.70302   0.73221   0.74287   0.74981
 Alpha virt. eigenvalues --    0.78483   0.79884   0.87434   1.05371   1.06937
 Alpha virt. eigenvalues --    1.08192   1.09680   1.13645   1.15104   1.16408
 Alpha virt. eigenvalues --    1.16857   1.17955   1.18696   1.18863   1.19620
 Alpha virt. eigenvalues --    1.20616   1.20888   1.21069   1.22474   1.23342
 Alpha virt. eigenvalues --    1.23882   1.24219   1.24489   1.24773   1.24973
 Alpha virt. eigenvalues --    1.25584   1.26644   1.28375   1.28940   1.29757
 Alpha virt. eigenvalues --    1.30808   1.30925   1.32133   1.32602   1.33173
 Alpha virt. eigenvalues --    1.33420   1.34715   1.35227   1.35615   1.36248
 Alpha virt. eigenvalues --    1.36813   1.37098   1.38082   1.38729   1.41245
 Alpha virt. eigenvalues --    1.41769   1.42905   1.43663   1.44140   1.44632
 Alpha virt. eigenvalues --    1.45556   1.46262   1.46695   1.47448   1.48420
 Alpha virt. eigenvalues --    1.48631   1.49833   1.51270   1.52494   1.54036
 Alpha virt. eigenvalues --    1.54713   1.55193   1.56295   1.58525   1.59173
 Alpha virt. eigenvalues --    1.59897   1.60168   1.62269   1.62897   1.63612
 Alpha virt. eigenvalues --    1.65677   1.66421   1.67432   1.67728   1.67860
 Alpha virt. eigenvalues --    1.69817   1.70911   1.72151   1.73570   1.73659
 Alpha virt. eigenvalues --    1.74113   1.74264   1.74932   1.76008   1.76454
 Alpha virt. eigenvalues --    1.76889   1.77318   1.77646   1.77986   1.78377
 Alpha virt. eigenvalues --    1.78958   1.79438   1.79914   1.80322   1.80699
 Alpha virt. eigenvalues --    1.80834   1.81856   1.82361   1.82401   1.82563
 Alpha virt. eigenvalues --    1.82766   1.83366   1.87300   1.88976   1.90832
 Alpha virt. eigenvalues --    1.92965   1.96854   1.97883   1.99022   2.03346
 Alpha virt. eigenvalues --    2.05644   2.06025   2.07945   2.08323   2.09884
 Alpha virt. eigenvalues --    2.10721   2.11792   2.12656   2.13227   2.14055
 Alpha virt. eigenvalues --    2.15018   2.15441   2.17218   2.18877   2.19275
 Alpha virt. eigenvalues --    2.20754   2.22225   2.25489   2.25954   2.26261
 Alpha virt. eigenvalues --    2.27667   2.31742   2.32297   2.32621   2.34342
 Alpha virt. eigenvalues --    2.34625   2.37999   2.39815   2.40688   2.42767
 Alpha virt. eigenvalues --    2.45187   2.45695   2.47181   2.47420   2.48763
 Alpha virt. eigenvalues --    2.48877   2.49637   2.50023   2.50307   2.50968
 Alpha virt. eigenvalues --    2.51271   2.51628   2.52478   2.52868   2.53442
 Alpha virt. eigenvalues --    2.53970   2.54415   2.54544   2.55331   2.55984
 Alpha virt. eigenvalues --    2.56264   2.57124   2.57517   2.58120   2.58726
 Alpha virt. eigenvalues --    2.59501   2.60008   2.60576   2.61167   2.61572
 Alpha virt. eigenvalues --    2.63564   2.64831   2.65370   2.66585   2.66663
 Alpha virt. eigenvalues --    2.67216   2.68039   2.68392   2.68603   2.70665
 Alpha virt. eigenvalues --    2.71054   2.74182   2.76680   2.80650   2.84417
 Alpha virt. eigenvalues --    2.86743   2.88527   2.91446   2.93330   2.98394
 Alpha virt. eigenvalues --    3.00814   3.02606   3.04669   3.05665   3.07326
 Alpha virt. eigenvalues --    3.09769   3.12756   3.14445   3.16999   3.20764
 Alpha virt. eigenvalues --    3.23922   3.24078   3.27698   3.28225   3.28897
 Alpha virt. eigenvalues --    3.29006   3.29822   3.31007   3.32150   3.33044
 Alpha virt. eigenvalues --    3.33191   3.34607   3.35521   3.35832   3.36161
 Alpha virt. eigenvalues --    3.37397   3.38092   3.41179   3.44652   3.44747
 Alpha virt. eigenvalues --    3.46448   3.51449   3.81844   4.00785   4.18211
 Alpha virt. eigenvalues --   21.65530  21.74979  21.75359  21.76851  21.78648
 Alpha virt. eigenvalues --   21.80092  21.81870  21.82909  21.83420  21.84707
 Alpha virt. eigenvalues --   21.87293  21.89071  43.04923  43.11904
          Condensed to atoms (all electrons):
               1          2          3          4          5          6
     1  C    5.070435   0.263822  -0.071901   0.019460  -0.001749   0.000131
     2  C    0.263822   5.146459   0.250630  -0.056033   0.017210  -0.001493
     3  C   -0.071901   0.250630   5.237596   0.230060  -0.048389   0.016577
     4  C    0.019460  -0.056033   0.230060   5.227565   0.216205  -0.043054
     5  C   -0.001749   0.017210  -0.048389   0.216205   5.250988   0.208972
     6  C    0.000131  -0.001493   0.016577  -0.043054   0.208972   5.248904
     7  C   -0.000006   0.000121  -0.001484   0.016726  -0.042387   0.206091
     8  C    0.000000  -0.000006   0.000119  -0.001470   0.013870  -0.036242
     9  C   -0.000000   0.000000  -0.000006   0.000119  -0.001069   0.013771
    10  C    0.000000  -0.000000   0.000000  -0.000005   0.000056  -0.000892
    11  C   -0.000000   0.000000  -0.000000   0.000000  -0.000004   0.000068
    12  C    0.000000  -0.000000  -0.000000  -0.000000  -0.000000  -0.000002
    13  O    0.000000  -0.000000  -0.000000   0.000000  -0.000000   0.000000
    14  O    0.000000  -0.000000   0.000000  -0.000000  -0.000000   0.000000
    15  H    0.407385  -0.041814  -0.007032  -0.000523  -0.000027  -0.000002
    16  H    0.407414  -0.041854  -0.007025  -0.000524  -0.000027  -0.000002
    17  H    0.399734  -0.043894   0.014234  -0.000930   0.000066  -0.000002
    18  H   -0.043806   0.416281  -0.044532  -0.007275  -0.000200  -0.000053
    19  H   -0.043792   0.416238  -0.044504  -0.007285  -0.000195  -0.000052
    20  H   -0.003223  -0.042375   0.413158  -0.044022  -0.005352  -0.000244
    21  H   -0.003216  -0.042444   0.413140  -0.044039  -0.005308  -0.000236
    22  H   -0.000291  -0.004528  -0.043742   0.416840  -0.045050  -0.004572
    23  H   -0.000294  -0.004527  -0.043697   0.416638  -0.044854  -0.004562
    24  H   -0.000002  -0.000260  -0.004549  -0.045196   0.418246  -0.045413
    25  H   -0.000003  -0.000258  -0.004534  -0.045494   0.418669  -0.045697
    26  H   -0.000001  -0.000004  -0.000290  -0.004057  -0.044713   0.417507
    27  H   -0.000001  -0.000006  -0.000306  -0.004335  -0.044606   0.417085
    28  H    0.000000  -0.000001  -0.000002  -0.000281  -0.003490  -0.045366
    29  H    0.000000  -0.000001  -0.000011  -0.000321  -0.004259  -0.045366
    30  H   -0.000000   0.000000  -0.000000  -0.000006  -0.000073  -0.004307
    31  H   -0.000000   0.000000  -0.000001  -0.000016  -0.000217  -0.004822
    32  H    0.000000  -0.000000   0.000000  -0.000002   0.000012  -0.000566
    33  H    0.000000  -0.000000   0.000000   0.000000  -0.000029  -0.000092
    34  H   -0.000000   0.000000  -0.000000   0.000000  -0.000006   0.000002
    35  H   -0.000000  -0.000000   0.000000  -0.000000   0.000002  -0.000073
    36  H    0.000000  -0.000000   0.000000  -0.000000  -0.000000   0.000001
    37  H   -0.000000   0.000000  -0.000000   0.000000  -0.000000   0.000005
    38  H    0.000000  -0.000000   0.000000  -0.000000   0.000000  -0.000000
               7          8          9         10         11         12
     1  C   -0.000006   0.000000  -0.000000   0.000000  -0.000000   0.000000
     2  C    0.000121  -0.000006   0.000000  -0.000000   0.000000  -0.000000
     3  C   -0.001484   0.000119  -0.000006   0.000000  -0.000000  -0.000000
     4  C    0.016726  -0.001470   0.000119  -0.000005   0.000000  -0.000000
     5  C   -0.042387   0.013870  -0.001069   0.000056  -0.000004  -0.000000
     6  C    0.206091  -0.036242   0.013771  -0.000892   0.000068  -0.000002
     7  C    5.258238   0.180229  -0.018187   0.006795  -0.000532  -0.000198
     8  C    0.180229   5.297117   0.169631  -0.019502   0.008455   0.000186
     9  C   -0.018187   0.169631   5.294712   0.159767   0.006606  -0.013996
    10  C    0.006795  -0.019502   0.159767   5.402284   0.123414  -0.038895
    11  C   -0.000532   0.008455   0.006606   0.123414   5.596641   0.071355
    12  C   -0.000198   0.000186  -0.013996  -0.038895   0.071355   4.874682
    13  O   -0.000002   0.000007  -0.001559  -0.011952  -0.130132   0.631579
    14  O   -0.000005   0.000176  -0.003099   0.009615  -0.131177   0.342510
    15  H    0.000000  -0.000000   0.000000  -0.000000   0.000000  -0.000000
    16  H    0.000000  -0.000000   0.000000  -0.000000   0.000000  -0.000000
    17  H    0.000000  -0.000000   0.000000  -0.000000   0.000000  -0.000000
    18  H   -0.000000  -0.000000  -0.000000  -0.000000  -0.000000   0.000000
    19  H   -0.000000  -0.000000  -0.000000   0.000000  -0.000000   0.000000
    20  H   -0.000030  -0.000000   0.000000  -0.000000   0.000000   0.000000
    21  H   -0.000029  -0.000000  -0.000000  -0.000000   0.000000  -0.000000
    22  H   -0.000289  -0.000015  -0.000001   0.000000  -0.000000  -0.000000
    23  H   -0.000288  -0.000015  -0.000001   0.000000  -0.000000   0.000000
    24  H   -0.004591  -0.000210  -0.000016  -0.000001   0.000000  -0.000000
    25  H   -0.004646  -0.000155  -0.000017   0.000001   0.000000   0.000000
    26  H   -0.044215  -0.004867  -0.000169  -0.000055  -0.000000  -0.000000
    27  H   -0.044655  -0.003673  -0.000279   0.000013   0.000000   0.000000
    28  H    0.419878  -0.045763  -0.004479  -0.000513  -0.000017  -0.000002
    29  H    0.415023  -0.040697  -0.005967   0.000318  -0.000002   0.000007
    30  H   -0.041698   0.415302  -0.040178  -0.008543  -0.000351  -0.000151
    31  H   -0.044661   0.417047  -0.044901  -0.003107  -0.000015  -0.000025
    32  H   -0.002219  -0.047353   0.419819  -0.043282  -0.001547  -0.001293
    33  H   -0.004464  -0.039726   0.416706  -0.042784  -0.006920   0.000934
    34  H   -0.001215  -0.002899  -0.052597   0.402976  -0.046582   0.017623
    35  H    0.000246  -0.005319  -0.035168   0.415746  -0.038570  -0.012017
    36  H   -0.000050   0.000170  -0.002370  -0.026082   0.427004  -0.057759
    37  H   -0.000299   0.000695  -0.017134  -0.038986   0.345476   0.012628
    38  H    0.000000  -0.000007   0.000169   0.000320   0.013915  -0.019619
              13         14         15         16         17         18
     1  C    0.000000   0.000000   0.407385   0.407414   0.399734  -0.043806
     2  C   -0.000000  -0.000000  -0.041814  -0.041854  -0.043894   0.416281
     3  C   -0.000000   0.000000  -0.007032  -0.007025   0.014234  -0.044532
     4  C    0.000000  -0.000000  -0.000523  -0.000524  -0.000930  -0.007275
     5  C   -0.000000  -0.000000  -0.000027  -0.000027   0.000066  -0.000200
     6  C    0.000000   0.000000  -0.000002  -0.000002  -0.000002  -0.000053
     7  C   -0.000002  -0.000005   0.000000   0.000000   0.000000  -0.000000
     8  C    0.000007   0.000176  -0.000000  -0.000000  -0.000000  -0.000000
     9  C   -0.001559  -0.003099   0.000000   0.000000   0.000000  -0.000000
    10  C   -0.011952   0.009615  -0.000000  -0.000000  -0.000000  -0.000000
    11  C   -0.130132  -0.131177   0.000000   0.000000   0.000000  -0.000000
    12  C    0.631579   0.342510  -0.000000  -0.000000  -0.000000   0.000000
[...]
    22  H   -0.000283  -0.000022  -0.000001  -0.000000  -0.000000  -0.000000
    23  H   -0.000265  -0.000018  -0.000001   0.000000  -0.000000   0.000000
    24  H   -0.004619  -0.000265  -0.000026  -0.000001  -0.000000  -0.000000
    25  H   -0.004534  -0.000201  -0.000023   0.000000   0.000000   0.000000
    26  H   -0.045263  -0.005123  -0.000180  -0.000046   0.000000  -0.000000
    27  H   -0.045878  -0.004450  -0.000236  -0.000005  -0.000001   0.000000
    28  H    0.420105  -0.045701  -0.004953  -0.000318  -0.000007  -0.000002
    29  H    0.417437  -0.043172  -0.005735   0.000134  -0.000020   0.000005
    30  H   -0.042962   0.416832  -0.041905  -0.006500  -0.000364  -0.000088
    31  H   -0.044017   0.418071  -0.043287  -0.005583  -0.000220  -0.000043
    32  H   -0.003153  -0.045319   0.423394  -0.046552  -0.003721  -0.000874
    33  H   -0.005164  -0.041147   0.413527  -0.038313  -0.006315   0.000381
    34  H   -0.000820  -0.002756  -0.052884   0.420367  -0.051918   0.008573
    35  H   -0.000355  -0.003331  -0.041730   0.417674  -0.043760  -0.003407
    36  H   -0.000162   0.000699  -0.007002  -0.030280   0.412122  -0.044979
    37  H   -0.000220   0.000478  -0.015476  -0.027353   0.357794  -0.003662
    38  H    0.000000  -0.000007   0.000141   0.000227   0.014370  -0.017216
              13         14         15         16         17         18
     1  C   -0.000000   0.000000   0.407416   0.407511   0.396535  -0.041226
     2  C   -0.000000  -0.000000  -0.041987  -0.042060  -0.040452   0.416901
     3  C   -0.000000  -0.000000  -0.007167  -0.007165   0.013909  -0.046843
     4  C   -0.000000   0.000000  -0.000534  -0.000545  -0.000844  -0.007348
     5  C   -0.000000  -0.000000  -0.000028  -0.000028   0.000062  -0.000257
     6  C   -0.000000   0.000000  -0.000002  -0.000002  -0.000002  -0.000059
     7  C   -0.000003  -0.000006   0.000000   0.000000   0.000000  -0.000001
     8  C    0.000002   0.000082  -0.000000  -0.000000  -0.000000  -0.000000
     9  C   -0.001862  -0.003162   0.000000  -0.000000   0.000000  -0.000000
    10  C   -0.012986  -0.008268  -0.000000  -0.000000  -0.000000  -0.000000
    11  C   -0.106709  -0.128392   0.000000  -0.000000   0.000000  -0.000000
    12  C    0.605410   0.328589  -0.000000  -0.000000  -0.000000   0.000000
    13  O    7.977171  -0.111459   0.000000   0.000000   0.000000   0.000000
    14  O   -0.111459   7.902203   0.000000   0.000000   0.000000   0.000000
    15  H    0.000000   0.000000   0.561340  -0.032406  -0.025318   0.008462
    16  H    0.000000   0.000000  -0.032406   0.561350  -0.025330  -0.007039
    17  H    0.000000   0.000000  -0.025318  -0.025330   0.542610  -0.002628
    18  H    0.000000   0.000000   0.008462  -0.007039  -0.002628   0.583016
    19  H    0.000000   0.000000  -0.007030   0.008460  -0.002633  -0.036680
    20  H    0.000000   0.000000   0.006197  -0.000706  -0.000166   0.009265
    21  H    0.000000   0.000000  -0.000711   0.006192  -0.000164  -0.007830
    22  H   -0.000000   0.000000   0.000096   0.000005   0.000007  -0.000308
    23  H    0.000000  -0.000000   0.000005   0.000097   0.000007   0.005817
    24  H   -0.000000   0.000000   0.000019  -0.000027   0.000000   0.000170
    25  H    0.000000   0.000000  -0.000027   0.000019  -0.000000  -0.000044
    26  H    0.000000   0.000000   0.000001  -0.000000   0.000000   0.000030
    27  H    0.000000  -0.000000  -0.000000   0.000001   0.000000  -0.000044
    28  H   -0.000000   0.000000   0.000000  -0.000000  -0.000000   0.000001
    29  H    0.000000   0.000000  -0.000000   0.000000  -0.000000  -0.000000
    30  H   -0.000014   0.000005   0.000000  -0.000000   0.000000   0.000000
    31  H    0.000003  -0.000029  -0.000000   0.000000   0.000000  -0.000000
    32  H    0.000036  -0.000029  -0.000000   0.000000  -0.000000  -0.000000
    33  H    0.000005   0.000133   0.000000  -0.000000  -0.000000   0.000000
    34  H    0.005750   0.000699  -0.000000   0.000000   0.000000  -0.000000
    35  H    0.000333   0.006148   0.000000  -0.000000   0.000000   0.000000
    36  H    0.004179   0.004649   0.000000  -0.000000  -0.000000   0.000000
    37  H    0.005005   0.005945  -0.000000   0.000000  -0.000000  -0.000000
    38  H    0.002342   0.283497  -0.000000  -0.000000  -0.000000   0.000000
              19         20         21         22         23         24
     1  C   -0.041150  -0.003262  -0.003192  -0.000207  -0.000221  -0.000006
     2  C    0.416878  -0.043270  -0.043315  -0.005014  -0.005074  -0.000267
     3  C   -0.046769   0.414135   0.414426  -0.044373  -0.044605  -0.004525
     4  C   -0.007428  -0.044943  -0.045166   0.417813   0.417981  -0.046031
     5  C   -0.000262  -0.005657  -0.005691  -0.045787  -0.045891   0.419521
     6  C   -0.000061  -0.000237  -0.000266  -0.004700  -0.004526  -0.046118
     7  C   -0.000001  -0.000036  -0.000036  -0.000283  -0.000265  -0.004619
     8  C   -0.000000  -0.000001  -0.000001  -0.000022  -0.000018  -0.000265
     9  C   -0.000000  -0.000000  -0.000000  -0.000001  -0.000001  -0.000026
    10  C   -0.000000  -0.000000  -0.000000  -0.000000   0.000000  -0.000001
    11  C   -0.000000  -0.000000  -0.000000  -0.000000  -0.000000  -0.000000
    12  C    0.000000   0.000000  -0.000000  -0.000000   0.000000  -0.000000
    13  O    0.000000   0.000000   0.000000  -0.000000   0.000000  -0.000000
    14  O    0.000000   0.000000   0.000000   0.000000  -0.000000   0.000000
    15  H   -0.007030   0.006197  -0.000711   0.000096   0.000005   0.000019
    16  H    0.008460  -0.000706   0.006192   0.000005   0.000097  -0.000027
    17  H   -0.002633  -0.000166  -0.000164   0.000007   0.000007   0.000000
    18  H   -0.036680   0.009265  -0.007830  -0.000308   0.005817   0.000170
    19  H    0.582929  -0.007839   0.009262   0.005815  -0.000300  -0.000044
    20  H   -0.007839   0.586095  -0.038912  -0.007388   0.008981   0.000018
    21  H    0.009262  -0.038912   0.586025   0.008977  -0.007401   0.004916
    22  H    0.005815  -0.007388   0.008977   0.583028  -0.038082   0.008758
    23  H   -0.000300   0.008981  -0.007401  -0.038082   0.583107  -0.006953
    24  H   -0.000044   0.000018   0.004916   0.008758  -0.006953   0.580657
    25  H    0.000171   0.004915   0.000027  -0.006980   0.008760  -0.037302
    26  H   -0.000044   0.000205  -0.000065   0.004563   0.000153   0.008613
    27  H    0.000030  -0.000065   0.000208   0.000162   0.004568  -0.006718
    28  H   -0.000000   0.000033  -0.000051  -0.000073   0.000217   0.004386
    29  H    0.000001  -0.000051   0.000033   0.000218  -0.000072   0.000237
    30  H   -0.000000   0.000001  -0.000001  -0.000053   0.000034  -0.000075
    31  H    0.000000  -0.000001   0.000001   0.000034  -0.000053   0.000221
    32  H    0.000000  -0.000000   0.000000   0.000001  -0.000000   0.000032
    33  H   -0.000000   0.000000  -0.000000  -0.000001   0.000001  -0.000052
    34  H    0.000000   0.000000  -0.000000  -0.000000   0.000000  -0.000000
    35  H   -0.000000  -0.000000   0.000000   0.000000  -0.000000   0.000001
    36  H   -0.000000   0.000000  -0.000000   0.000000  -0.000000   0.000000
    37  H    0.000000  -0.000000   0.000000  -0.000000   0.000000  -0.000000
    38  H    0.000000  -0.000000  -0.000000   0.000000   0.000000  -0.000000
              25         26         27         28         29         30
     1  C   -0.000007  -0.000001  -0.000001   0.000000   0.000000  -0.000000
     2  C   -0.000284  -0.000006  -0.000009  -0.000001  -0.000001   0.000000
     3  C   -0.004698  -0.000264  -0.000295  -0.000010  -0.000014  -0.000001
     4  C   -0.045980  -0.004285  -0.004415  -0.000266  -0.000301  -0.000011
     5  C    0.419029  -0.045649  -0.046212  -0.004121  -0.004648  -0.000173
     6  C   -0.045680   0.418944   0.419538  -0.045840  -0.045260  -0.004276
     7  C   -0.004534  -0.045263  -0.045878   0.420105   0.417437  -0.042962
     8  C   -0.000201  -0.005123  -0.004450  -0.045701  -0.043172   0.416832
     9  C   -0.000023  -0.000180  -0.000236  -0.004953  -0.005735  -0.041905
    10  C    0.000000  -0.000046  -0.000005  -0.000318   0.000134  -0.006500
    11  C    0.000000   0.000000  -0.000001  -0.000007  -0.000020  -0.000364
    12  C    0.000000  -0.000000   0.000000  -0.000002   0.000005  -0.000088
    13  O    0.000000   0.000000   0.000000  -0.000000   0.000000  -0.000014
    14  O    0.000000   0.000000  -0.000000   0.000000   0.000000   0.000005
    15  H   -0.000027   0.000001  -0.000000   0.000000  -0.000000   0.000000
    16  H    0.000019  -0.000000   0.000001  -0.000000   0.000000  -0.000000
    17  H   -0.000000   0.000000   0.000000  -0.000000  -0.000000   0.000000
    18  H   -0.000044   0.000030  -0.000044   0.000001  -0.000000   0.000000
    19  H    0.000171  -0.000044   0.000030  -0.000000   0.000001  -0.000000
    20  H    0.004915   0.000205  -0.000065   0.000033  -0.000051   0.000001
    21  H    0.000027  -0.000065   0.000208  -0.000051   0.000033  -0.000001
    22  H   -0.006980   0.004563   0.000162  -0.000073   0.000218  -0.000053
    23  H    0.008760   0.000153   0.004568   0.000217  -0.000072   0.000034
    24  H   -0.037302   0.008613  -0.006718   0.004386   0.000237  -0.000075
    25  H    0.580739  -0.006712   0.008621   0.000223   0.004398   0.000217
    26  H   -0.006712   0.579133  -0.036813   0.008507  -0.006622   0.004268
    27  H    0.008621  -0.036813   0.579184  -0.006559   0.008517   0.000253
    28  H    0.000223   0.008507  -0.006559   0.577083  -0.036371   0.008367
    29  H    0.004398  -0.006622   0.008517  -0.036371   0.577483  -0.006532
    30  H    0.000217   0.004268   0.000253   0.008367  -0.006532   0.574905
    31  H   -0.000075   0.000277   0.004269  -0.006508   0.008360  -0.036387
    32  H   -0.000052   0.000220  -0.000073   0.000252   0.004106  -0.006657
    33  H    0.000033  -0.000077   0.000220   0.004073   0.000328   0.008178
    34  H    0.000001  -0.000051   0.000034  -0.000080   0.000242   0.002871
    35  H   -0.000000   0.000033  -0.000051   0.000236  -0.000080   0.000504
    36  H   -0.000000   0.000001  -0.000000   0.000031  -0.000042   0.000192
    37  H    0.000000  -0.000000   0.000001  -0.000044   0.000034  -0.000094
    38  H   -0.000000  -0.000000   0.000000  -0.000000   0.000000   0.000000
              31         32         33         34         35         36
     1  C   -0.000000   0.000000   0.000000  -0.000000  -0.000000  -0.000000
     2  C    0.000000  -0.000000  -0.000000  -0.000000  -0.000000  -0.000000
     3  C   -0.000001   0.000000   0.000000  -0.000000  -0.000000  -0.000000
     4  C   -0.000015  -0.000001  -0.000001   0.000000  -0.000000   0.000000
     5  C   -0.000210  -0.000004  -0.000035  -0.000003  -0.000001  -0.000000
     6  C   -0.004413  -0.000312  -0.000134  -0.000022  -0.000030   0.000004
     7  C   -0.044017  -0.003153  -0.005164  -0.000820  -0.000355  -0.000162
     8  C    0.418071  -0.045319  -0.041147  -0.002756  -0.003331   0.000699
     9  C   -0.043287   0.423394   0.413527  -0.052884  -0.041730  -0.007002
    10  C   -0.005583  -0.046552  -0.038313   0.420367   0.417674  -0.030280
    11  C   -0.000220  -0.003721  -0.006315  -0.051918  -0.043760   0.412122
    12  C   -0.000043  -0.000874   0.000381   0.008573  -0.003407  -0.044979
    13  O    0.000003   0.000036   0.000005   0.005750   0.000333   0.004179
    14  O   -0.000029  -0.000029   0.000133   0.000699   0.006148   0.004649
    15  H   -0.000000  -0.000000   0.000000  -0.000000   0.000000   0.000000
    16  H    0.000000   0.000000  -0.000000   0.000000  -0.000000  -0.000000
    17  H    0.000000  -0.000000  -0.000000   0.000000   0.000000  -0.000000
    18  H   -0.000000  -0.000000   0.000000  -0.000000   0.000000   0.000000
    19  H    0.000000   0.000000  -0.000000   0.000000  -0.000000  -0.000000
    20  H   -0.000001  -0.000000   0.000000   0.000000  -0.000000   0.000000
    21  H    0.000001   0.000000  -0.000000  -0.000000   0.000000  -0.000000
    22  H    0.000034   0.000001  -0.000001  -0.000000   0.000000   0.000000
    23  H   -0.000053  -0.000000   0.000001   0.000000  -0.000000  -0.000000
    24  H    0.000221   0.000032  -0.000052  -0.000000   0.000001   0.000000
    25  H   -0.000075  -0.000052   0.000033   0.000001  -0.000000  -0.000000
    26  H    0.000277   0.000220  -0.000077  -0.000051   0.000033   0.000001
    27  H    0.004269  -0.000073   0.000220   0.000034  -0.000051  -0.000000
    28  H   -0.006508   0.000252   0.004073  -0.000080   0.000236   0.000031
    29  H    0.008360   0.004106   0.000328   0.000242  -0.000080  -0.000042
    30  H   -0.036387  -0.006657   0.008178   0.002871   0.000504   0.000192
    31  H    0.574796   0.008219  -0.006548   0.000611   0.003057  -0.000090
    32  H    0.008219   0.565364  -0.034854  -0.004301   0.006853   0.002756
    33  H   -0.006548  -0.034854   0.566273   0.006886  -0.004748   0.000596
    34  H    0.000611  -0.004301   0.006886   0.545490  -0.025790  -0.003395
    35  H    0.003057   0.006853  -0.004748  -0.025790   0.537595   0.006352
    36  H   -0.000090   0.002756   0.000596  -0.003395   0.006352   0.507854
    37  H    0.000203   0.000561   0.003564   0.007374  -0.003877  -0.019044
    38  H    0.000000  -0.000000  -0.000001  -0.000106  -0.000423  -0.000676
              37         38
     1  C   -0.000000   0.000000
     2  C   -0.000000  -0.000000
     3  C   -0.000000   0.000000
     4  C    0.000000  -0.000000
     5  C   -0.000000   0.000000
     6  C    0.000002  -0.000000
     7  C   -0.000220   0.000000
     8  C    0.000478  -0.000007
     9  C   -0.015476   0.000141
    10  C   -0.027353   0.000227
    11  C    0.357794   0.014370
    12  C   -0.003662  -0.017216
    13  O    0.005005   0.002342
    14  O    0.005945   0.283497
    15  H   -0.000000  -0.000000
    16  H    0.000000  -0.000000
    17  H   -0.000000  -0.000000
    18  H   -0.000000   0.000000
    19  H    0.000000   0.000000
    20  H   -0.000000  -0.000000
    21  H    0.000000  -0.000000
    22  H   -0.000000   0.000000
    23  H    0.000000   0.000000
    24  H   -0.000000  -0.000000
    25  H    0.000000  -0.000000
    26  H   -0.000000  -0.000000
    27  H    0.000001   0.000000
    28  H   -0.000044  -0.000000
    29  H    0.000034   0.000000
    30  H   -0.000094   0.000000
    31  H    0.000203   0.000000
    32  H    0.000561  -0.000000
    33  H    0.003564  -0.000001
    34  H    0.007374  -0.000106
    35  H   -0.003877  -0.000423
    36  H   -0.019044  -0.000676
    37  H    0.525568  -0.000387
    38  H   -0.000387   0.389064
 Mulliken charges:
               1
     1  C   -0.418446
     2  C   -0.228031
     3  C   -0.259728
     4  C   -0.243863
     5  C   -0.253106
     6  C   -0.251993
     7  C   -0.254200
     8  C   -0.250780
     9  C   -0.250700
    10  C   -0.279918
    11  C   -0.263262
    12  C    0.212411
    13  O   -0.367204
    14  O   -0.280606
    15  H    0.131675
    16  H    0.131672
    17  H    0.144408
    18  H    0.126644
    19  H    0.126695
    20  H    0.122690
    21  H    0.122735
    22  H    0.123793
    23  H    0.123736
    24  H    0.125480
    25  H    0.125446
    26  H    0.126257
    27  H    0.126221
    28  H    0.127392
    29  H    0.127392
    30  H    0.129465
    31  H    0.129358
    32  H    0.134108
    33  H    0.133193
    34  H    0.143232
    35  H    0.148796
    36  H    0.166238
    37  H    0.163629
    38  H    0.329173
 Sum of Mulliken charges =  -0.00000
 Mulliken charges with hydrogens summed into heavy atoms:
               1
     1  C   -0.010691
     2  C    0.025308
     3  C   -0.014304
     4  C    0.003667
     5  C   -0.002180
     6  C    0.000485
     7  C    0.000583
     8  C    0.008043
     9  C    0.016601
    10  C    0.012110
    11  C    0.066605
    12  C    0.212411
    13  O   -0.367204
    14  O    0.048567
 Electronic spatial extent (au):  <R**2>=          10185.1372
 Charge=              0.0000 electrons
 Dipole moment (field-independent basis, Debye):
    X=             -1.4621    Y=              0.3540    Z=             -1.9602  Tot=              2.4709
 Quadrupole moment (field-independent basis, Debye-Ang):
   XX=           -105.8076   YY=            -89.4799   ZZ=            -94.9026
   XY=              4.4723   XZ=            -14.7609   YZ=             -0.6187
 Traceless Quadrupole moment (field-independent basis, Debye-Ang):
   XX=             -9.0776   YY=              7.2502   ZZ=              1.8274
   XY=              4.4723   XZ=            -14.7609   YZ=             -0.6187
 Octapole moment (field-independent basis, Debye-Ang**2):
  XXX=              3.0478  YYY=              5.8692  ZZZ=             -4.1566  XYY=             41.4427
  XXY=             57.4601  XXZ=           -106.0203  XZZ=            -15.3887  YZZ=             -0.3747
  YYZ=             -0.8794  XYZ=              1.0836
 Hexadecapole moment (field-independent basis, Debye-Ang**3):
 XXXX=         -13596.0335 YYYY=           -316.2859 ZZZZ=           -273.6131 XXXY=            430.9269
 XXXZ=           -818.3733 YYYX=             45.6737 YYYZ=            -14.6121 ZZZX=            -23.9787
 ZZZY=              2.0870 XXYY=          -2102.4777 XXZZ=          -2421.4929 YYZZ=            -94.9409
 XXYZ=            -32.2098 YYXZ=            -11.6564 ZZXY=              3.4078
 N-N= 8.260172712081D+02 E-N=-3.099616057611D+03  KE= 6.192107499501D+02
 Unable to Open any file for archive entry.
 1\1\GINC-TCN1683\SP\RBP86\TZVP\C12H24O2\ELENAA\22-Feb-2021\0\\# BP86/T
 ZVP SCRF=COSMORS geom=CHECKPOINT guess=CHECKPOINT\\COSMO-file for #POU
 LHZVOKOAJMA-UHFFFAOYSA-N\\0,1\C,0,4.54797756,-3.7237877107,-9.23378641
 15\C,0,4.2372279217,-3.9132467574,-7.7438203358\C,0,3.6718099171,-2.64
 89321468,-7.0824186289\C,0,3.3556042155,-2.8249407554,-5.5915112577\C,
 0,2.7911897282,-1.56003923,-4.9315687514\C,0,2.4732557719,-1.737116611
 9,-3.4410503373\C,0,1.9096728283,-0.4717017029,-2.7815831304\C,0,1.589
 3376023,-0.6512916051,-1.2918121939\C,0,1.0263609241,0.6160257063,-0.6
 355370616\C,0,0.7047283214,0.4257184444,0.8517936884\C,0,0.1435944171,
 1.7140765146,1.4967829572\C,0,-0.134050542,1.5001012386,2.9642991027\O
 ,0,0.6445679286,1.7363224677,3.8769194548\O,0,-1.3643517549,0.94822240
 39,3.1754428038\H,0,5.2891799576,-2.9219774206,-9.3837071631\H,0,3.640
 5255683,-3.4454231259,-9.7939576031\H,0,4.9521525289,-4.6429938311,-9.
 6853012852\H,0,3.5162999592,-4.7405120101,-7.6172151511\H,0,5.15362589
 63,-4.221500948,-7.2096924483\H,0,4.3926686336,-1.8198793887,-7.207431
 3904\H,0,2.7543368624,-2.3388735519,-7.6160115068\H,0,4.2729681229,-3.
 1356682189,-5.0584424417\H,0,2.634244255,-3.6534976044,-5.4673383405\H
 ,0,1.8744073744,-1.2486397434,-5.465191472\H,0,3.5129407384,-0.7317042
 172,-5.0544681207\H,0,3.3896325928,-2.0491588985,-2.9072106576\H,0,1.7
 507053439,-2.5647587428,-3.3183694074\H,0,0.9941024201,-0.1587350004,-
 3.3161116614\H,0,2.6328917272,0.3555376218,-2.9020354473\H,0,2.5042888
 462,-0.9640828181,-0.7565403943\H,0,0.8649795274,-1.477309459,-1.17137
 4369\H,0,1.751147927,1.4418710252,-0.7502611037\H,0,0.111393968,0.9301
 873666,-1.1691738314\H,0,1.6161475751,0.1184613662,1.3920998213\H,0,-0
 .0282422395,-0.3894513985,0.9714760206\H,0,0.8763889676,2.5283212707,1
 .4082493788\H,0,-0.7820007079,2.0135259134,0.9828373492\H,0,-1.4535406
 842,0.7856615584,4.1394513267\\Version=ES64L-G16RevC.01\State=1-A\HF=-
 622.4309307\RMSD=3.414e-09\Dipole=-0.5385797,-0.3535856,-0.7279658\Qua
 drupole=7.9063269,1.1992945,-9.1056214,-1.0478767,-6.0989662,-7.629123
 1\PG=C01 [X(C12H24O2)]\\@
 The archive entry for this job was punched.


 EDUCATION WITHOUT COMMON SENSE IS A LOAD OF BOOKS ON THE BACK OF AN ASS.
 Job cpu time:       0 days  0 hours 13 minutes 16.7 seconds.
 Elapsed time:       0 days  0 hours  0 minutes 26.0 seconds.
 File lengths (MBytes):  RWF=    141 Int=      0 D2E=      0 Chk=     19 Scr=      1
 Normal termination of Gaussian 16 at Mon Feb 22 21:51:29 2021.
