 Entering Gaussian System, Link 0=g16
 Input=QAIPRVGONGVQAS-DUXPYHPUSA-N.gjf
 Output=QAIPRVGONGVQAS-DUXPYHPUSA-N.log
 Initial command:
 /sw/arch/RedHatEnterpriseServer7/EB_production/2019/software/Gaussian/g16.c01/l1.exe "/scratch-local/elenaa.9715260/Gau-17482.inp" -scrdir="/scratch-local/elenaa.9715260/"
 Entering Link 1 = /sw/arch/RedHatEnterpriseServer7/EB_production/2019/software/Gaussian/g16.c01/l1.exe PID=     17484.
  
 Copyright (c) 1988-2019, Gaussian, Inc.  All Rights Reserved.
  
 This is part of the Gaussian(R) 16 program.  It is based on
 the Gaussian(R) 09 system (copyright 2009, Gaussian, Inc.),
 the Gaussian(R) 03 system (copyright 2003, Gaussian, Inc.),
 the Gaussian(R) 98 system (copyright 1998, Gaussian, Inc.),
 the Gaussian(R) 94 system (copyright 1995, Gaussian, Inc.),
 the Gaussian 92(TM) system (copyright 1992, Gaussian, Inc.),
 the Gaussian 90(TM) system (copyright 1990, Gaussian, Inc.),
 the Gaussian 88(TM) system (copyright 1988, Gaussian, Inc.),
 the Gaussian 86(TM) system (copyright 1986, Carnegie Mellon
 University), and the Gaussian 82(TM) system (copyright 1983,
 Carnegie Mellon University). Gaussian is a federally registered
 trademark of Gaussian, Inc.
  
 This software contains proprietary and confidential information,
 including trade secrets, belonging to Gaussian, Inc.
  
 This software is provided under written license and may be
 used, copied, transmitted, or stored only in accord with that
 written license.
  
 The following legend is applicable only to US Government
 contracts under FAR:
  
                    RESTRICTED RIGHTS LEGEND
  
 Use, reproduction and disclosure by the US Government is
 subject to restrictions as set forth in subparagraphs (a)
 and (c) of the Commercial Computer Software - Restricted
 Rights clause in FAR 52.227-19.
  
 Gaussian, Inc.
 340 Quinnipiac St., Bldg. 40, Wallingford CT 06492
  
  
 ---------------------------------------------------------------
 Warning -- This program may not be used in any manner that
 competes with the business of Gaussian, Inc. or will provide
 assistance to any competitor of Gaussian, Inc.  The licensee
 of this program is prohibited from giving any competitor of
 Gaussian, Inc. access to this program.  By using this program,
 the user acknowledges that Gaussian, Inc. is engaged in the
 business of creating and licensing software in the field of
 computational chemistry and represents and warrants to the
 licensee that it is not a competitor of Gaussian, Inc. and that
 it will not use this program in any manner prohibited above.
 ---------------------------------------------------------------
  

 Cite this work as:
 Gaussian 16, Revision C.01,
 M. J. Frisch, G. W. Trucks, H. B. Schlegel, G. E. Scuseria, 
 M. A. Robb, J. R. Cheeseman, G. Scalmani, V. Barone, 
 G. A. Petersson, H. Nakatsuji, X. Li, M. Caricato, A. V. Marenich, 
 J. Bloino, B. G. Janesko, R. Gomperts, B. Mennucci, H. P. Hratchian, 
 J. V. Ortiz, A. F. Izmaylov, J. L. Sonnenberg, D. Williams-Young, 
 F. Ding, F. Lipparini, F. Egidi, J. Goings, B. Peng, A. Petrone, 
 T. Henderson, D. Ranasinghe, V. G. Zakrzewski, J. Gao, N. Rega, 
 G. Zheng, W. Liang, M. Hada, M. Ehara, K. Toyota, R. Fukuda, 
 J. Hasegawa, M. Ishida, T. Nakajima, Y. Honda, O. Kitao, H. Nakai, 
 T. Vreven, K. Throssell, J. A. Montgomery, Jr., J. E. Peralta, 
 F. Ogliaro, M. J. Bearpark, J. J. Heyd, E. N. Brothers, K. N. Kudin, 
 V. N. Staroverov, T. A. Keith, R. Kobayashi, J. Normand, 
 K. Raghavachari, A. P. Rendell, J. C. Burant, S. S. Iyengar, 
 J. Tomasi, M. Cossi, J. M. Millam, M. Klene, C. Adamo, R. Cammi, 
 J. W. Ochterski, R. L. Martin, K. Morokuma, O. Farkas, 
 J. B. Foresman, and D. J. Fox, Gaussian, Inc., Wallingford CT, 2019.
 
 ******************************************
 Gaussian 16:  ES64L-G16RevC.01  3-Jul-2019
                22-Feb-2021 
 ******************************************
 %chk=QAIPRVGONGVQAS-DUXPYHPUSA-N.chk
 %NProcShared=32
 Will use up to   32 processors via shared memory.
 -------------------------------------------------------------
 #P BP86/TZVP EmpiricalDispersion=GD3 SCRF=(Solvent=Water) Opt
 -------------------------------------------------------------
 1/18=20,19=15,26=3,38=1/1,3;
 2/9=110,12=2,17=6,18=5,40=1/2;
 3/5=19,7=101,11=2,25=1,30=1,70=2201,71=1,72=1,74=404,124=31/1,2,3;
 4//1;
 5/5=2,38=5,53=1/2;
 6/7=2,8=2,9=2,10=2,28=1/1;
 7//1,2,3,16;
 1/18=20,19=15,26=3/3(2);
 2/9=110/2;
 99//99;
 2/9=110/2;
 3/5=19,7=101,11=2,25=1,30=1,70=2205,71=1,72=1,74=404,124=31/1,2,3;
 4/5=5,16=3,69=1/1;
 5/5=2,38=5,53=1/2;
 7//1,2,3,16;
 1/18=20,19=15,26=3/3(-5);
 2/9=110/2;
 6/7=2,8=2,9=2,10=2,19=2,28=1/1;
 99/9=1/99;
 Leave Link    1 at Mon Feb 22 21:17:26 2021, MaxMem=           0 cpu:               1.8 elap:               0.1
 (Enter /sw/arch/RedHatEnterpriseServer7/EB_production/2019/software/Gaussian/g16.c01/l101.exe)
 -------------------------------------
 Particle #QAIPRVGONGVQAS-DUXPYHPUSA-N
 -------------------------------------
 Symbolic Z-matrix:
 Charge =  0 Multiplicity = 1
 O                    -4.14192   1.10874  -3.74778 
 C                    -3.26043   1.40016  -4.58893 
 O                    -3.56208   1.19838  -5.89469 
 C                    -2.0423    1.90756  -4.17081 
 C                    -1.04152   2.26313  -5.00125 
 C                     0.20377   2.79145  -4.62739 
 C                     0.44743   3.42052  -3.37919 
 C                     1.71886   3.92692  -3.05312 
 C                     2.77304   3.85067  -3.98081 
 O                     3.99539   4.35384  -3.66966 
 C                     2.55195   3.25151  -5.23631 
 O                     3.53864   3.176    -6.16551 
 C                     1.28477   2.72004  -5.54373 
 H                    -4.445     0.85452  -6.14606 
 H                    -1.91613   1.99747  -3.19025 
 H                    -1.19198   2.13413  -5.97716 
 H                    -0.29834   3.53362  -2.68931 
 H                     1.87381   4.35646  -2.13799 
 H                     3.9475    4.62249  -2.7277 
 H                     4.24403   3.7814   -5.85732 
 H                     1.15513   2.27759  -6.45795 
 
 ITRead=  0  0  0  0  0  0  0  0  0  0  0  0  0  0  0  0  0  0  0  0
 ITRead=  0
 MicOpt= -1 -1 -1 -1 -1 -1 -1 -1 -1 -1 -1 -1 -1 -1 -1 -1 -1 -1 -1 -1
 MicOpt= -1
 NAtoms=     21 NQM=       21 NQMF=       0 NMMI=      0 NMMIF=      0
                NMic=       0 NMicF=      0.
                    Isotopes and Nuclear Properties:
 (Nuclear quadrupole moments (NQMom) in fm**2, nuclear magnetic moments (NMagM)
  in nuclear magnetons)

  Atom         1           2           3           4           5           6           7           8           9          10
 IAtWgt=          16          12          16          12          12          12          12          12          12          16
 AtmWgt=  15.9949146  12.0000000  15.9949146  12.0000000  12.0000000  12.0000000  12.0000000  12.0000000  12.0000000  15.9949146
 NucSpn=           0           0           0           0           0           0           0           0           0           0
 AtZEff=  -0.0000000  -0.0000000  -0.0000000  -0.0000000  -0.0000000  -0.0000000  -0.0000000  -0.0000000  -0.0000000  -0.0000000
 NQMom=    0.0000000   0.0000000   0.0000000   0.0000000   0.0000000   0.0000000   0.0000000   0.0000000   0.0000000   0.0000000
 NMagM=    0.0000000   0.0000000   0.0000000   0.0000000   0.0000000   0.0000000   0.0000000   0.0000000   0.0000000   0.0000000
 AtZNuc=   8.0000000   6.0000000   8.0000000   6.0000000   6.0000000   6.0000000   6.0000000   6.0000000   6.0000000   8.0000000

  Atom        11          12          13          14          15          16          17          18          19          20
 IAtWgt=          12          16          12           1           1           1           1           1           1           1
 AtmWgt=  12.0000000  15.9949146  12.0000000   1.0078250   1.0078250   1.0078250   1.0078250   1.0078250   1.0078250   1.0078250
 NucSpn=           0           0           0           1           1           1           1           1           1           1
 AtZEff=  -0.0000000  -0.0000000  -0.0000000  -0.0000000  -0.0000000  -0.0000000  -0.0000000  -0.0000000  -0.0000000  -0.0000000
 NQMom=    0.0000000   0.0000000   0.0000000   0.0000000   0.0000000   0.0000000   0.0000000   0.0000000   0.0000000   0.0000000
 NMagM=    0.0000000   0.0000000   0.0000000   2.7928460   2.7928460   2.7928460   2.7928460   2.7928460   2.7928460   2.7928460
 AtZNuc=   6.0000000   8.0000000   6.0000000   1.0000000   1.0000000   1.0000000   1.0000000   1.0000000   1.0000000   1.0000000

  Atom        21
 IAtWgt=           1
 AtmWgt=   1.0078250
 NucSpn=           1
 AtZEff=  -0.0000000
 NQMom=    0.0000000
 NMagM=    2.7928460
 AtZNuc=   1.0000000
 Leave Link  101 at Mon Feb 22 21:17:26 2021, MaxMem=   104857600 cpu:               2.7 elap:               0.1
 (Enter /sw/arch/RedHatEnterpriseServer7/EB_production/2019/software/Gaussian/g16.c01/l103.exe)

 GradGradGradGradGradGradGradGradGradGradGradGradGradGradGradGradGradGrad
 Berny optimization.
 Initialization pass.
                           ----------------------------
                           !    Initial Parameters    !
                           ! (Angstroms and Degrees)  !
 --------------------------                            --------------------------
 ! Name  Definition              Value          Derivative Info.                !
 --------------------------------------------------------------------------------
 ! R1    R(1,2)                  1.2528         estimate D2E/DX2                !
 ! R2    R(2,3)                  1.3553         estimate D2E/DX2                !
 ! R3    R(2,4)                  1.3842         estimate D2E/DX2                !
 ! R4    R(3,14)                 0.9803         estimate D2E/DX2                !
 ! R5    R(4,5)                  1.3482         estimate D2E/DX2                !
 ! R6    R(4,15)                 0.9927         estimate D2E/DX2                !
 ! R7    R(5,6)                  1.4034         estimate D2E/DX2                !
 ! R8    R(5,16)                 0.9958         estimate D2E/DX2                !
 ! R9    R(6,7)                  1.4188         estimate D2E/DX2                !
 ! R10   R(6,13)                 1.4189         estimate D2E/DX2                !
 ! R11   R(7,8)                  1.4069         estimate D2E/DX2                !
 ! R12   R(7,17)                 1.0222         estimate D2E/DX2                !
 ! R13   R(8,9)                  1.4063         estimate D2E/DX2                !
 ! R14   R(8,18)                 1.0227         estimate D2E/DX2                !
 ! R15   R(9,10)                 1.358          estimate D2E/DX2                !
 ! R16   R(9,11)                 1.4086         estimate D2E/DX2                !
 ! R17   R(10,19)                0.9807         estimate D2E/DX2                !
 ! R18   R(11,12)                1.3575         estimate D2E/DX2                !
 ! R19   R(11,13)                1.4081         estimate D2E/DX2                !
 ! R20   R(12,20)                0.9793         estimate D2E/DX2                !
 ! R21   R(13,21)                1.0239         estimate D2E/DX2                !
 ! A1    A(1,2,3)              117.1071         estimate D2E/DX2                !
 ! A2    A(1,2,4)              120.1089         estimate D2E/DX2                !
 ! A3    A(3,2,4)              122.7838         estimate D2E/DX2                !
 ! A4    A(2,3,14)             119.9837         estimate D2E/DX2                !
 ! A5    A(2,4,5)              124.3226         estimate D2E/DX2                !
 ! A6    A(2,4,15)             116.3209         estimate D2E/DX2                !
 ! A7    A(5,4,15)             119.3529         estimate D2E/DX2                !
 ! A8    A(4,5,6)              126.4315         estimate D2E/DX2                !
 ! A9    A(4,5,16)             117.2145         estimate D2E/DX2                !
 ! A10   A(6,5,16)             116.3523         estimate D2E/DX2                !
 ! A11   A(5,6,7)              123.6168         estimate D2E/DX2                !
 ! A12   A(5,6,13)             119.0136         estimate D2E/DX2                !
 ! A13   A(7,6,13)             117.3621         estimate D2E/DX2                !
 ! A14   A(6,7,8)              121.244          estimate D2E/DX2                !
 ! A15   A(6,7,17)             121.1643         estimate D2E/DX2                !
 ! A16   A(8,7,17)             117.5865         estimate D2E/DX2                !
 ! A17   A(7,8,9)              120.3335         estimate D2E/DX2                !
 ! A18   A(7,8,18)             119.7014         estimate D2E/DX2                !
 ! A19   A(9,8,18)             119.9643         estimate D2E/DX2                !
 ! A20   A(8,9,10)             120.2317         estimate D2E/DX2                !
 ! A21   A(8,9,11)             119.5623         estimate D2E/DX2                !
 ! A22   A(10,9,11)            120.2059         estimate D2E/DX2                !
 ! A23   A(9,10,19)            106.1184         estimate D2E/DX2                !
 ! A24   A(9,11,12)            121.3116         estimate D2E/DX2                !
 ! A25   A(9,11,13)            119.7616         estimate D2E/DX2                !
 ! A26   A(12,11,13)           118.9266         estimate D2E/DX2                !
 ! A27   A(11,12,20)           105.8876         estimate D2E/DX2                !
 ! A28   A(6,13,11)            121.7099         estimate D2E/DX2                !
 ! A29   A(6,13,21)            120.1265         estimate D2E/DX2                !
 ! A30   A(11,13,21)           118.1631         estimate D2E/DX2                !
 ! D1    D(1,2,3,14)             1.1344         estimate D2E/DX2                !
 ! D2    D(4,2,3,14)          -178.7068         estimate D2E/DX2                !
 ! D3    D(1,2,4,5)           -179.2132         estimate D2E/DX2                !
 ! D4    D(1,2,4,15)             1.4787         estimate D2E/DX2                !
 ! D5    D(3,2,4,5)              0.6233         estimate D2E/DX2                !
 ! D6    D(3,2,4,15)          -178.6847         estimate D2E/DX2                !
 ! D7    D(2,4,5,6)            179.416          estimate D2E/DX2                !
 ! D8    D(2,4,5,16)            -1.0847         estimate D2E/DX2                !
 ! D9    D(15,4,5,6)            -1.2955         estimate D2E/DX2                !
 ! D10   D(15,4,5,16)          178.2037         estimate D2E/DX2                !
 ! D11   D(4,5,6,7)            -20.8208         estimate D2E/DX2                !
 ! D12   D(4,5,6,13)           160.2026         estimate D2E/DX2                !
 ! D13   D(16,5,6,7)           159.6761         estimate D2E/DX2                !
 ! D14   D(16,5,6,13)          -19.3004         estimate D2E/DX2                !
 ! D15   D(5,6,7,8)            179.6587         estimate D2E/DX2                !
 ! D16   D(5,6,7,17)            -1.196          estimate D2E/DX2                !
 ! D17   D(13,6,7,8)            -1.3491         estimate D2E/DX2                !
 ! D18   D(13,6,7,17)          177.7962         estimate D2E/DX2                !
 ! D19   D(5,6,13,11)          178.9368         estimate D2E/DX2                !
 ! D20   D(5,6,13,21)           -0.7793         estimate D2E/DX2                !
 ! D21   D(7,6,13,11)           -0.1035         estimate D2E/DX2                !
 ! D22   D(7,6,13,21)         -179.8196         estimate D2E/DX2                !
 ! D23   D(6,7,8,9)              1.728          estimate D2E/DX2                !
 ! D24   D(6,7,8,18)          -178.5779         estimate D2E/DX2                !
 ! D25   D(17,7,8,9)          -177.4468         estimate D2E/DX2                !
 ! D26   D(17,7,8,18)            2.2473         estimate D2E/DX2                !
 ! D27   D(7,8,9,10)           179.2471         estimate D2E/DX2                !
 ! D28   D(7,8,9,11)            -0.6119         estimate D2E/DX2                !
 ! D29   D(18,8,9,10)           -0.4462         estimate D2E/DX2                !
 ! D30   D(18,8,9,11)          179.6948         estimate D2E/DX2                !
 ! D31   D(8,9,10,19)            6.4066         estimate D2E/DX2                !
 ! D32   D(11,9,10,19)        -173.7353         estimate D2E/DX2                !
 ! D33   D(8,9,11,12)          179.0491         estimate D2E/DX2                !
 ! D34   D(8,9,11,13)           -0.8169         estimate D2E/DX2                !
 ! D35   D(10,9,11,12)          -0.8099         estimate D2E/DX2                !
 ! D36   D(10,9,11,13)         179.3241         estimate D2E/DX2                !
 ! D37   D(9,11,12,20)         -13.5743         estimate D2E/DX2                !
 ! D38   D(13,11,12,20)        166.2928         estimate D2E/DX2                !
 ! D39   D(9,11,13,6)            1.1827         estimate D2E/DX2                !
 ! D40   D(9,11,13,21)        -179.0959         estimate D2E/DX2                !
 ! D41   D(12,11,13,6)        -178.6866         estimate D2E/DX2                !
 ! D42   D(12,11,13,21)          1.0349         estimate D2E/DX2                !
 --------------------------------------------------------------------------------
 Trust Radius=3.00D-01 FncErr=1.00D-07 GrdErr=1.00D-06 EigMax=2.50D+02 EigMin=1.00D-04
 Number of steps in this run=    103 maximum allowed number of steps=    126.
 GradGradGradGradGradGradGradGradGradGradGradGradGradGradGradGradGradGrad

 Leave Link  103 at Mon Feb 22 21:17:27 2021, MaxMem=   104857600 cpu:               0.4 elap:               0.0
 (Enter /sw/arch/RedHatEnterpriseServer7/EB_production/2019/software/Gaussian/g16.c01/l202.exe)
                          Input orientation:                          
 ---------------------------------------------------------------------
 Center     Atomic      Atomic             Coordinates (Angstroms)
 Number     Number       Type             X           Y           Z
 ---------------------------------------------------------------------
      1          8           0       -4.141920    1.108740   -3.747780
      2          6           0       -3.260430    1.400160   -4.588930
      3          8           0       -3.562080    1.198380   -5.894690
      4          6           0       -2.042300    1.907560   -4.170810
      5          6           0       -1.041520    2.263130   -5.001250
      6          6           0        0.203770    2.791450   -4.627390
      7          6           0        0.447430    3.420520   -3.379190
      8          6           0        1.718860    3.926920   -3.053120
      9          6           0        2.773040    3.850670   -3.980810
     10          8           0        3.995390    4.353840   -3.669660
     11          6           0        2.551950    3.251510   -5.236310
     12          8           0        3.538640    3.176000   -6.165510
     13          6           0        1.284770    2.720040   -5.543730
     14          1           0       -4.445000    0.854520   -6.146060
     15          1           0       -1.916130    1.997470   -3.190250
     16          1           0       -1.191980    2.134130   -5.977160
     17          1           0       -0.298340    3.533620   -2.689310
     18          1           0        1.873810    4.356460   -2.137990
     19          1           0        3.947500    4.622490   -2.727700
     20          1           0        4.244030    3.781400   -5.857320
     21          1           0        1.155130    2.277590   -6.457950
 ---------------------------------------------------------------------
                    Distance matrix (angstroms):
                    1          2          3          4          5
     1  O    0.000000
     2  C    1.252790   0.000000
     3  O    2.225640   1.355255   0.000000
     4  C    2.285929   1.384240   2.405084   0.000000
     5  C    3.537836   2.416255   2.878394   1.348192   0.000000
     6  C    4.742388   3.733343   4.280835   2.456534   1.403439
     7  C    5.151924   4.392443   5.228940   3.019017   2.487489
     8  C    6.540140   5.791076   6.588458   4.412864   3.766046
     9  C    7.442389   6.540456   7.129609   5.196083   4.255872
    10  O    8.760856   7.887725   8.486639   6.533693   5.613792
    11  C    7.184364   6.134359   6.483068   4.903940   3.734324
    12  O    8.313241   7.201845   7.375944   6.060912   4.813180
    13  C    5.938913   4.828309   5.092207   3.689773   2.432011
    14  H    2.430686   2.031153   0.980293   3.283820   3.857259
    15  H    2.460655   2.029834   3.265225   0.992724   2.028605
    16  H    3.837148   2.596994   2.549471   2.009298   0.995831
    17  H    4.666209   4.115117   5.136127   2.807189   2.740717
    18  H    7.023398   6.411493   7.323603   5.046324   4.591235
    19  H    8.878385   8.111833   8.840144   6.732839   5.968746
    20  H    9.050825   7.974712   8.222454   6.773001   5.565522
    21  H    6.063825   4.874453   4.871758   3.948606   2.635803
                    6          7          8          9         10
     6  C    0.000000
     7  C    1.418838   0.000000
     8  C    2.462340   1.406875   0.000000
     9  C    2.853272   2.440377   1.406314   0.000000
    10  O    4.211258   3.680147   2.396867   1.357989   0.000000
    11  C    2.469086   2.811843   2.432393   1.408600   2.398550
    12  O    3.692567   4.168807   3.682723   2.411273   2.797355
    13  C    1.418922   2.424262   2.801452   2.436389   3.678166
    14  H    5.260144   6.178657   7.549774   8.109582   9.466677
    15  H    2.681371   2.765354   4.117613   5.103690   6.381879
    16  H    2.049894   3.330452   4.498566   4.759549   6.095939
    17  H    2.135201   1.022203   2.087136   3.346919   4.479951
    18  H    3.381627   2.109768   1.022730   2.111972   2.616701
    19  H    4.580070   3.757614   2.357234   1.882909   0.980691
    20  H    4.337791   4.548135   3.776400   2.385351   2.274943
    21  H    2.126050   3.359448   3.825042   3.350886   4.489148
                   11         12         13         14         15
    11  C    0.000000
    12  O    1.357450   0.000000
    13  C    1.408088   2.382108   0.000000
    14  H    7.451880   8.314334   6.055843   0.000000
    15  H    5.071757   6.324209   4.038160   4.054421   0.000000
    16  H    3.976733   4.847652   2.581752   3.499724   2.882696
    17  H    3.832877   5.189824   3.363906   6.026731   2.286469
    18  H    3.358627   4.515093   3.824121   8.261693   4.586473
    19  H    3.181237   3.752071   4.317345   9.814114   6.441028
    20  H    1.878715   0.979319   3.159437   9.173289   6.945735
    21  H    2.095717   2.563939   1.023898   5.786524   4.493214
                   16         17         18         19         20
    16  H    0.000000
    17  H    3.683357   0.000000
    18  H    5.392314   2.387311   0.000000
    19  H    6.570021   4.383408   2.172262   0.000000
    20  H    5.681379   5.543537   4.447702   3.254210   0.000000
    21  H    2.400139   4.229992   4.847706   5.216383   3.487622
                   21
    21  H    0.000000
 Stoichiometry    C9H8O4
 Framework group  C1[X(C9H8O4)]
 Deg. of freedom    57
 Full point group                 C1      NOp   1
 Largest Abelian subgroup         C1      NOp   1
 Largest concise Abelian subgroup C1      NOp   1
                         Standard orientation:                         
 ---------------------------------------------------------------------
 Center     Atomic      Atomic             Coordinates (Angstroms)
 Number     Number       Type             X           Y           Z
 ---------------------------------------------------------------------
      1          8           0        4.589234   -0.924099    0.303899
      2          6           0        3.691583   -0.083267    0.065766
      3          8           0        4.090276    1.172246   -0.252744
      4          6           0        2.359155   -0.452849    0.130292
      5          6           0        1.327064    0.376517   -0.123799
      6          6           0       -0.036522    0.046964   -0.082962
      7          6           0       -0.527181   -1.280532   -0.183514
      8          6           0       -1.905972   -1.554946   -0.129408
      9          6           0       -2.834775   -0.505809   -0.009587
     10          8           0       -4.165925   -0.771944    0.027094
     11          6           0       -2.375394    0.823447    0.069150
     12          8           0       -3.241153    1.864461    0.166230
     13          6           0       -0.992539    1.087683    0.044613
     14          1           0        5.045921    1.384346   -0.304993
     15          1           0        2.175193   -1.392470    0.392533
     16          1           0        1.547195    1.319209   -0.357369
     17          1           0        0.108173   -2.071098   -0.310911
     18          1           0       -2.232507   -2.522701   -0.182349
     19          1           0       -4.247459   -1.748631    0.061585
     20          1           0       -4.123221    1.501112   -0.055125
     21          1           0       -0.685274    2.061666    0.117503
 ---------------------------------------------------------------------
 Rotational constants (GHZ):           2.4095613           0.3152978           0.2802641
 Leave Link  202 at Mon Feb 22 21:17:27 2021, MaxMem=   104857600 cpu:               1.3 elap:               0.1
 (Enter /sw/arch/RedHatEnterpriseServer7/EB_production/2019/software/Gaussian/g16.c01/l301.exe)
 Standard basis: TZVP (5D, 7F)
 Ernie: Thresh=  0.10000D-02 Tol=  0.10000D-05 Strict=F.
 There are   308 symmetry adapted cartesian basis functions of A   symmetry.
 There are   295 symmetry adapted basis functions of A   symmetry.
   295 basis functions,   519 primitive gaussians,   308 cartesian basis functions
    47 alpha electrons       47 beta electrons
       nuclear repulsion energy       721.7124819459 Hartrees.
 IExCor=  404 DFT=T Ex=B Corr=P86 ExCW=0 ScaHFX=  0.000000
 ScaDFX=  1.000000  1.000000  1.000000  1.000000 ScalE2=  1.000000  1.000000
 IRadAn=      5 IRanWt=     -1 IRanGd=            0 ICorTp=0 IEmpDi=131
 NAtoms=   21 NActive=   21 NUniq=   21 SFac= 1.00D+00 NAtFMM=   60 NAOKFM=F Big=F
 Integral buffers will be    131072 words long.
 Raffenetti 2 integral format.
 Two-electron integral symmetry is turned on.
 R6Disp:  Grimme-D3 Dispersion energy=       -0.0178340963 Hartrees.
 Nuclear repulsion after empirical dispersion term =      721.6946478496 Hartrees.
 ------------------------------------------------------------------------------
 Polarizable Continuum Model (PCM)
 =================================
 Model                : PCM.
 Atomic radii         : UFF (Universal Force Field).
 Polarization charges : Total charges.
 Charge compensation  : None.
 Solution method      : On-the-fly selection.
 Cavity type          : Scaled VdW (van der Waals Surface) (Alpha=1.100).
 Cavity algorithm     : GePol (No added spheres)
                        Default sphere list used, NSphG=   21.
                        Lebedev-Laikov grids with approx.  5.0 points / Ang**2.
                        Smoothing algorithm: York/Karplus (Gamma=1.0000).
                        Polarization charges: spherical gaussians, with
                                              point-specific exponents (IZeta= 3).
                        Self-potential: point-specific (ISelfS= 7).
                        Self-field    : sphere-specific E.n sum rule (ISelfD= 2).
 1st derivatives      : Analytical E(r).r(x)/FMM algorithm (CHGder, D1EAlg=3).
                        Cavity 1st derivative terms included.
 Solvent              : Water, Eps=  78.355300 Eps(inf)=   1.777849
 ------------------------------------------------------------------------------
 GePol: Number of generator spheres                  =      21
 GePol: Total number of spheres                      =      21
 GePol: Number of exposed spheres                    =      21 (100.00%)
 GePol: Number of points                             =    1813
 GePol: Average weight of points                     =       0.13
 GePol: Minimum weight of points                     =   0.14D-10
 GePol: Maximum weight of points                     =    0.20577
 GePol: Number of points with low weight             =      84
 GePol: Fraction of low-weight points (<1% of avg)   =       4.63%
 GePol: Cavity surface area                          =    237.155 Ang**2
 GePol: Cavity volume                                =    239.996 Ang**3
 Leave Link  301 at Mon Feb 22 21:17:27 2021, MaxMem=   104857600 cpu:               1.9 elap:               0.1
 (Enter /sw/arch/RedHatEnterpriseServer7/EB_production/2019/software/Gaussian/g16.c01/l302.exe)
 NPDir=0 NMtPBC=     1 NCelOv=     1 NCel=       1 NClECP=     1 NCelD=      1
         NCelK=      1 NCelE2=     1 NClLst=     1 CellRange=     0.0.
 One-electron integrals computed using PRISM.
 One-electron integral symmetry used in STVInt
 PrsmSu:  requested number of processors reduced to:  28 ShMem   1 Linda.
 NBasis=   295 RedAO= T EigKep=  1.04D-05  NBF=   295
 NBsUse=   295 1.00D-06 EigRej= -1.00D+00 NBFU=   295
 Precomputing XC quadrature grid using
 IXCGrd= 4 IRadAn=           5 IRanWt=          -1 IRanGd=           0 AccXCQ= 0.00D+00.
 Generated NRdTot=       0 NPtTot=           0 NUsed=           0 NTot=          32
 NSgBfM=   300   300   300   300   300 MxSgAt=    21 MxSgA2=    21.
 Leave Link  302 at Mon Feb 22 21:17:27 2021, MaxMem=   104857600 cpu:               8.5 elap:               0.3
 (Enter /sw/arch/RedHatEnterpriseServer7/EB_production/2019/software/Gaussian/g16.c01/l303.exe)
 DipDrv:  MaxL=1.
 Leave Link  303 at Mon Feb 22 21:17:28 2021, MaxMem=   104857600 cpu:               4.2 elap:               0.2
 (Enter /sw/arch/RedHatEnterpriseServer7/EB_production/2019/software/Gaussian/g16.c01/l401.exe)
 ExpMin= 9.52D-02 ExpMax= 2.70D+04 ExpMxC= 9.22D+02 IAcc=3 IRadAn=         5 AccDes= 0.00D+00
 Harris functional with IExCor=  404 and IRadAn=       5 diagonalized for initial guess.
 HarFok:  IExCor=  404 AccDes= 0.00D+00 IRadAn=         5 IDoV= 1 UseB2=F ITyADJ=14
 ICtDFT=  3500011 ScaDFX=  1.000000  1.000000  1.000000  1.000000
 FoFCou: FMM=F IPFlag=           0 FMFlag=      100000 FMFlg1=           0
         NFxFlg=           0 DoJE=T BraDBF=F KetDBF=T FulRan=T
         wScrn=  0.000000 ICntrl=       500 IOpCl=  0 I1Cent=   200000004 NGrid=           0
         NMat0=    1 NMatS0=      1 NMatT0=    0 NMatD0=    1 NMtDS0=    0 NMtDT0=    0
 Petite list used in FoFCou.
 Harris En= -649.096895312944    
 JPrj=0 DoOrth=F DoCkMO=F.
 Leave Link  401 at Mon Feb 22 21:17:28 2021, MaxMem=   104857600 cpu:              14.1 elap:               0.5
 (Enter /sw/arch/RedHatEnterpriseServer7/EB_production/2019/software/Gaussian/g16.c01/l502.exe)
 Integral symmetry usage will be decided dynamically.
 Closed shell SCF:
 Using DIIS extrapolation, IDIIS=  1040.
 NGot=   104857600 LenX=   104654466 LenY=   104559161
 Requested convergence on RMS density matrix=1.00D-08 within 128 cycles.
 Requested convergence on MAX density matrix=1.00D-06.
 Requested convergence on             energy=1.00D-06.
 No special actions if energy rises.
 Fock matrices will be formed incrementally for  20 cycles.

 Cycle   1  Pass 1  IDiag  1:
 FoFJK:  IHMeth= 1 ICntrl=     500 DoSepK=F KAlg= 0 I1Cent=           0 FoldK=F
 IRaf= 840000000 NMat=       1 IRICut=       1 DoRegI=T DoRafI=F ISym2E= 0 IDoP0=0 IntGTp=1.
 FoFCou: FMM=F IPFlag=           0 FMFlag=      100000 FMFlg1=           0
         NFxFlg=           0 DoJE=T BraDBF=F KetDBF=F FulRan=T
         wScrn=  0.000000 ICntrl=       500 IOpCl=  0 I1Cent=           0 NGrid=           0
         NMat0=    1 NMatS0=      1 NMatT0=    0 NMatD0=    1 NMtDS0=    0 NMtDT0=    0
 Symmetry not used in FoFCou.
 Inv3:  Mode=1 IEnd=     9860907.
 Iteration    1 A*A^-1 deviation from unit magnitude is 3.11D-15 for   1087.
 Iteration    1 A*A^-1 deviation from orthogonality  is 1.60D-15 for   1800   1666.
 Iteration    1 A^-1*A deviation from unit magnitude is 2.89D-15 for   1087.
 Iteration    1 A^-1*A deviation from orthogonality  is 1.90D-15 for   1806    633.
 E= -648.602954545739    
 DIIS: error= 3.04D-02 at cycle   1 NSaved=   1.
 NSaved= 1 IEnMin= 1 EnMin= -648.602954545739     IErMin= 1 ErrMin= 3.04D-02
 ErrMax= 3.04D-02  0.00D+00 EMaxC= 1.00D-01 BMatC= 3.52D-01 BMatP= 3.52D-01
 IDIUse=3 WtCom= 6.96D-01 WtEn= 3.04D-01
 Coeff-Com:  0.100D+01
 Coeff-En:   0.100D+01
 Coeff:      0.100D+01
 Gap=     0.110 Goal=   None    Shift=    0.000
 GapD=    0.110 DampG=1.000 DampE=0.500 DampFc=0.5000 IDamp=-1.
 Damping current iteration by 5.00D-01
 RMSDP=1.45D-02 MaxDP=1.47D+00              OVMax= 3.39D-01

 Cycle   2  Pass 1  IDiag  1:
 RMSU=  7.13D-03    CP:  1.10D+00
 E= -648.645589839962     Delta-E=       -0.042635294223 Rises=F Damp=T
 DIIS: error= 1.92D-02 at cycle   2 NSaved=   2.
 NSaved= 2 IEnMin= 2 EnMin= -648.645589839962     IErMin= 2 ErrMin= 1.92D-02
 ErrMax= 1.92D-02  0.00D+00 EMaxC= 1.00D-01 BMatC= 8.57D-02 BMatP= 3.52D-01
 IDIUse=3 WtCom= 8.08D-01 WtEn= 1.92D-01
 Coeff-Com:  0.289D+00 0.711D+00
 Coeff-En:   0.435D+00 0.565D+00
 Coeff:      0.317D+00 0.683D+00
 Gap=     0.141 Goal=   None    Shift=    0.000
 RMSDP=4.33D-03 MaxDP=4.36D-01 DE=-4.26D-02 OVMax= 2.87D-01

 Cycle   3  Pass 1  IDiag  1:
 RMSU=  2.71D-03    CP:  1.03D+00  5.43D-01
 E= -648.821938872644     Delta-E=       -0.176349032682 Rises=F Damp=F
 DIIS: error= 2.61D-02 at cycle   3 NSaved=   3.
 NSaved= 3 IEnMin= 3 EnMin= -648.821938872644     IErMin= 2 ErrMin= 1.92D-02
 ErrMax= 2.61D-02  0.00D+00 EMaxC= 1.00D-01 BMatC= 9.43D-02 BMatP= 8.57D-02
 IDIUse=2 WtCom= 0.00D+00 WtEn= 1.00D+00
 Coeff-En:   0.000D+00 0.136D-01 0.986D+00
 Coeff:      0.000D+00 0.136D-01 0.986D+00
 Gap=     0.100 Goal=   None    Shift=    0.000
 RMSDP=1.03D-02 MaxDP=9.64D-01 DE=-1.76D-01 OVMax= 5.74D-01

 Cycle   4  Pass 1  IDiag  1:
 RMSU=  4.73D-03    CP:  1.16D+00  1.38D+00 -1.50D+00
 E= -648.028230350013     Delta-E=        0.793708522631 Rises=F Damp=F
 DIIS: error= 7.72D-02 at cycle   4 NSaved=   4.
 NSaved= 4 IEnMin= 3 EnMin= -648.821938872644     IErMin= 2 ErrMin= 1.92D-02
 ErrMax= 7.72D-02  0.00D+00 EMaxC= 1.00D-01 BMatC= 9.51D-01 BMatP= 8.57D-02
 IDIUse=2 WtCom= 0.00D+00 WtEn= 1.00D+00
 Coeff-En:   0.000D+00 0.000D+00 0.858D+00 0.142D+00
 Coeff:      0.000D+00 0.000D+00 0.858D+00 0.142D+00
 Gap=     0.063 Goal=   None    Shift=    0.000
 RMSDP=7.33D-03 MaxDP=7.68D-01 DE= 7.94D-01 OVMax= 2.86D-01

 Cycle   5  Pass 1  IDiag  1:
 RMSU=  1.29D-03    CP:  1.07D+00  6.77D-01 -1.30D-01  2.72D-01
 E= -648.810767844113     Delta-E=       -0.782537494100 Rises=F Damp=F
 DIIS: error= 2.68D-02 at cycle   5 NSaved=   5.
 NSaved= 5 IEnMin= 3 EnMin= -648.821938872644     IErMin= 2 ErrMin= 1.92D-02
 ErrMax= 2.68D-02  0.00D+00 EMaxC= 1.00D-01 BMatC= 1.11D-01 BMatP= 8.57D-02
 IDIUse=2 WtCom= 0.00D+00 WtEn= 1.00D+00
 Coeff-En:   0.000D+00 0.000D+00 0.523D+00 0.000D+00 0.477D+00
 Coeff:      0.000D+00 0.000D+00 0.523D+00 0.000D+00 0.477D+00
 Gap=     0.116 Goal=   None    Shift=    0.000
 RMSDP=2.10D-03 MaxDP=1.69D-01 DE=-7.83D-01 OVMax= 1.00D-01

 Cycle   6  Pass 1  IDiag  1:
 RMSU=  3.21D-04    CP:  1.05D+00  5.37D-01  4.38D-01  1.16D-01  5.36D-01
 E= -648.900674144682     Delta-E=       -0.089906300569 Rises=F Damp=F
 DIIS: error= 2.17D-03 at cycle   6 NSaved=   6.
 NSaved= 6 IEnMin= 6 EnMin= -648.900674144682     IErMin= 6 ErrMin= 2.17D-03
 ErrMax= 2.17D-03  0.00D+00 EMaxC= 1.00D-01 BMatC= 1.27D-03 BMatP= 8.57D-02
 IDIUse=3 WtCom= 9.78D-01 WtEn= 2.17D-02
 Coeff-Com: -0.414D-02 0.143D-01 0.229D+00-0.254D-01 0.289D+00 0.498D+00
 Coeff-En:   0.000D+00 0.000D+00 0.000D+00 0.000D+00 0.000D+00 0.100D+01
 Coeff:     -0.405D-02 0.140D-01 0.224D+00-0.249D-01 0.283D+00 0.509D+00
 Gap=     0.092 Goal=   None    Shift=    0.000
 RMSDP=2.79D-04 MaxDP=9.76D-03 DE=-8.99D-02 OVMax= 1.76D-02

 Cycle   7  Pass 1  IDiag  1:
 RMSU=  1.87D-04    CP:  1.04D+00  5.55D-01  4.25D-01  1.18D-01  5.94D-01
                    CP:  5.57D-01
 E= -648.901679911985     Delta-E=       -0.001005767303 Rises=F Damp=F
 DIIS: error= 1.42D-03 at cycle   7 NSaved=   7.
 NSaved= 7 IEnMin= 7 EnMin= -648.901679911985     IErMin= 7 ErrMin= 1.42D-03
 ErrMax= 1.42D-03  0.00D+00 EMaxC= 1.00D-01 BMatC= 2.96D-04 BMatP= 1.27D-03
 IDIUse=3 WtCom= 9.86D-01 WtEn= 1.42D-02
 Coeff-Com: -0.557D-02 0.115D-01 0.398D-01-0.640D-02 0.408D-01 0.322D+00
 Coeff-Com:  0.597D+00
 Coeff-En:   0.000D+00 0.000D+00 0.000D+00 0.000D+00 0.000D+00 0.180D+00
 Coeff-En:   0.820D+00
 Coeff:     -0.549D-02 0.114D-01 0.393D-01-0.631D-02 0.402D-01 0.320D+00
 Coeff:      0.601D+00
 Gap=     0.092 Goal=   None    Shift=    0.000
 RMSDP=9.93D-05 MaxDP=3.02D-03 DE=-1.01D-03 OVMax= 5.55D-03

 Cycle   8  Pass 1  IDiag  1:
 RMSU=  4.18D-05    CP:  1.04D+00  5.57D-01  4.37D-01  1.16D-01  5.85D-01
                    CP:  6.62D-01  6.17D-01
 E= -648.901887249052     Delta-E=       -0.000207337067 Rises=F Damp=F
 DIIS: error= 3.03D-04 at cycle   8 NSaved=   8.
 NSaved= 8 IEnMin= 8 EnMin= -648.901887249052     IErMin= 8 ErrMin= 3.03D-04
 ErrMax= 3.03D-04  0.00D+00 EMaxC= 1.00D-01 BMatC= 2.77D-05 BMatP= 2.96D-04
 IDIUse=3 WtCom= 9.97D-01 WtEn= 3.03D-03
 Coeff-Com: -0.344D-02 0.368D-02 0.990D-02-0.527D-03 0.162D-02 0.183D+00
 Coeff-Com:  0.373D+00 0.432D+00
 Coeff-En:   0.000D+00 0.000D+00 0.000D+00 0.000D+00 0.000D+00 0.000D+00
 Coeff-En:   0.000D+00 0.100D+01
 Coeff:     -0.343D-02 0.367D-02 0.987D-02-0.525D-03 0.161D-02 0.183D+00
 Coeff:      0.372D+00 0.434D+00
 Gap=     0.092 Goal=   None    Shift=    0.000
 RMSDP=2.90D-05 MaxDP=1.44D-03 DE=-2.07D-04 OVMax= 1.77D-03

 Cycle   9  Pass 1  IDiag  1:
 RMSU=  1.09D-05    CP:  1.04D+00  5.56D-01  4.38D-01  1.16D-01  5.79D-01
                    CP:  6.71D-01  6.42D-01  4.90D-01
 E= -648.901911018990     Delta-E=       -0.000023769938 Rises=F Damp=F
 DIIS: error= 7.65D-05 at cycle   9 NSaved=   9.
 NSaved= 9 IEnMin= 9 EnMin= -648.901911018990     IErMin= 9 ErrMin= 7.65D-05
 ErrMax= 7.65D-05  0.00D+00 EMaxC= 1.00D-01 BMatC= 1.41D-06 BMatP= 2.77D-05
 IDIUse=1 WtCom= 1.00D+00 WtEn= 0.00D+00
 Coeff-Com: -0.134D-02 0.109D-02 0.296D-02 0.228D-03-0.253D-02 0.758D-01
 Coeff-Com:  0.158D+00 0.254D+00 0.511D+00
 Coeff:     -0.134D-02 0.109D-02 0.296D-02 0.228D-03-0.253D-02 0.758D-01
 Coeff:      0.158D+00 0.254D+00 0.511D+00
 Gap=     0.092 Goal=   None    Shift=    0.000
 RMSDP=8.31D-06 MaxDP=4.54D-04 DE=-2.38D-05 OVMax= 5.64D-04

 Cycle  10  Pass 1  IDiag  1:
 RMSU=  4.45D-06    CP:  1.04D+00  5.56D-01  4.39D-01  1.16D-01  5.78D-01
                    CP:  6.74D-01  6.51D-01  5.13D-01  5.13D-01
 E= -648.901912024596     Delta-E=       -0.000001005606 Rises=F Damp=F
 DIIS: error= 3.19D-05 at cycle  10 NSaved=  10.
 NSaved=10 IEnMin=10 EnMin= -648.901912024596     IErMin=10 ErrMin= 3.19D-05
 ErrMax= 3.19D-05  0.00D+00 EMaxC= 1.00D-01 BMatC= 2.81D-07 BMatP= 1.41D-06
 IDIUse=1 WtCom= 1.00D+00 WtEn= 0.00D+00
 Coeff-Com: -0.407D-03 0.618D-03 0.123D-02 0.174D-04-0.142D-02 0.293D-01
 Coeff-Com:  0.645D-01 0.128D+00 0.356D+00 0.423D+00
 Coeff:     -0.407D-03 0.618D-03 0.123D-02 0.174D-04-0.142D-02 0.293D-01
 Coeff:      0.645D-01 0.128D+00 0.356D+00 0.423D+00
 Gap=     0.092 Goal=   None    Shift=    0.000
 RMSDP=2.87D-06 MaxDP=1.89D-04 DE=-1.01D-06 OVMax= 2.13D-04

 Cycle  11  Pass 1  IDiag  1:
 RMSU=  1.18D-06    CP:  1.04D+00  5.55D-01  4.39D-01  1.16D-01  5.78D-01
                    CP:  6.74D-01  6.53D-01  5.16D-01  5.63D-01  5.96D-01
 E= -648.901912300098     Delta-E=       -0.000000275502 Rises=F Damp=F
 DIIS: error= 3.89D-06 at cycle  11 NSaved=  11.
 NSaved=11 IEnMin=11 EnMin= -648.901912300098     IErMin=11 ErrMin= 3.89D-06
 ErrMax= 3.89D-06  0.00D+00 EMaxC= 1.00D-01 BMatC= 5.90D-09 BMatP= 2.81D-07
 IDIUse=1 WtCom= 1.00D+00 WtEn= 0.00D+00
 Coeff-Com: -0.715D-04 0.167D-03 0.337D-03 0.701D-05-0.527D-03 0.738D-02
 Coeff-Com:  0.173D-01 0.401D-01 0.127D+00 0.193D+00 0.615D+00
 Coeff:     -0.715D-04 0.167D-03 0.337D-03 0.701D-05-0.527D-03 0.738D-02
 Coeff:      0.173D-01 0.401D-01 0.127D+00 0.193D+00 0.615D+00
 Gap=     0.092 Goal=   None    Shift=    0.000
 RMSDP=7.75D-07 MaxDP=7.32D-05 DE=-2.76D-07 OVMax= 3.06D-05

 Cycle  12  Pass 1  IDiag  1:
 RMSU=  4.03D-07    CP:  1.04D+00  5.55D-01  4.39D-01  1.16D-01  5.78D-01
                    CP:  6.74D-01  6.53D-01  5.22D-01  5.72D-01  6.05D-01
                    CP:  7.98D-01
 E= -648.901912295803     Delta-E=        0.000000004295 Rises=F Damp=F
 DIIS: error= 2.97D-06 at cycle  12 NSaved=  12.
 NSaved=12 IEnMin=11 EnMin= -648.901912300098     IErMin=12 ErrMin= 2.97D-06
 ErrMax= 2.97D-06  0.00D+00 EMaxC= 1.00D-01 BMatC= 1.99D-09 BMatP= 5.90D-09
 IDIUse=1 WtCom= 1.00D+00 WtEn= 0.00D+00
 Coeff-Com: -0.449D-05 0.165D-04 0.791D-04 0.652D-05-0.169D-03 0.150D-02
 Coeff-Com:  0.387D-02 0.110D-01 0.405D-01 0.762D-01 0.405D+00 0.462D+00
 Coeff:     -0.449D-05 0.165D-04 0.791D-04 0.652D-05-0.169D-03 0.150D-02
 Coeff:      0.387D-02 0.110D-01 0.405D-01 0.762D-01 0.405D+00 0.462D+00
 Gap=     0.092 Goal=   None    Shift=    0.000
 RMSDP=2.06D-07 MaxDP=7.18D-06 DE= 4.30D-09 OVMax= 2.39D-05

 Cycle  13  Pass 1  IDiag  1:
 RMSU=  1.24D-07    CP:  1.04D+00  5.55D-01  4.39D-01  1.16D-01  5.78D-01
                    CP:  6.74D-01  6.53D-01  5.22D-01  5.75D-01  6.14D-01
                    CP:  8.16D-01  6.89D-01
 E= -648.901912281038     Delta-E=        0.000000014765 Rises=F Damp=F
 DIIS: error= 5.47D-07 at cycle  13 NSaved=  13.
 NSaved=13 IEnMin=11 EnMin= -648.901912300098     IErMin=13 ErrMin= 5.47D-07
 ErrMax= 5.47D-07  0.00D+00 EMaxC= 1.00D-01 BMatC= 1.18D-10 BMatP= 1.99D-09
 IDIUse=1 WtCom= 1.00D+00 WtEn= 0.00D+00
 Coeff-Com:  0.159D-05-0.565D-05 0.193D-04 0.189D-05-0.450D-04 0.288D-03
 Coeff-Com:  0.859D-03 0.303D-02 0.134D-01 0.299D-01 0.185D+00 0.263D+00
 Coeff-Com:  0.505D+00
 Coeff:      0.159D-05-0.565D-05 0.193D-04 0.189D-05-0.450D-04 0.288D-03
 Coeff:      0.859D-03 0.303D-02 0.134D-01 0.299D-01 0.185D+00 0.263D+00
 Coeff:      0.505D+00
 Gap=     0.092 Goal=   None    Shift=    0.000
 RMSDP=7.32D-08 MaxDP=3.60D-06 DE= 1.48D-08 OVMax= 8.83D-06

 Cycle  14  Pass 1  IDiag  1:
 RMSU=  4.97D-08    CP:  1.04D+00  5.55D-01  4.39D-01  1.16D-01  5.78D-01
                    CP:  6.74D-01  6.53D-01  5.22D-01  5.74D-01  6.16D-01
                    CP:  8.21D-01  7.34D-01  7.47D-01
 E= -648.901912281141     Delta-E=       -0.000000000103 Rises=F Damp=F
 DIIS: error= 2.79D-07 at cycle  14 NSaved=  14.
 NSaved=14 IEnMin=11 EnMin= -648.901912300098     IErMin=14 ErrMin= 2.79D-07
 ErrMax= 2.79D-07  0.00D+00 EMaxC= 1.00D-01 BMatC= 1.81D-11 BMatP= 1.18D-10
 IDIUse=1 WtCom= 1.00D+00 WtEn= 0.00D+00
 Coeff-Com:  0.157D-05-0.467D-05 0.849D-06 0.609D-06-0.721D-05-0.213D-04
 Coeff-Com:  0.200D-04 0.441D-03 0.327D-02 0.932D-02 0.641D-01 0.105D+00
 Coeff-Com:  0.326D+00 0.492D+00
 Coeff:      0.157D-05-0.467D-05 0.849D-06 0.609D-06-0.721D-05-0.213D-04
 Coeff:      0.200D-04 0.441D-03 0.327D-02 0.932D-02 0.641D-01 0.105D+00
 Coeff:      0.326D+00 0.492D+00
 Gap=     0.092 Goal=   None    Shift=    0.000
 RMSDP=2.90D-08 MaxDP=1.47D-06 DE=-1.03D-10 OVMax= 2.97D-06

 Cycle  15  Pass 1  IDiag  1:
 RMSU=  1.64D-08    CP:  1.04D+00  5.55D-01  4.39D-01  1.16D-01  5.78D-01
                    CP:  6.74D-01  6.53D-01  5.22D-01  5.74D-01  6.17D-01
                    CP:  8.23D-01  7.26D-01  8.10D-01  6.13D-01
 E= -648.901912281152     Delta-E=       -0.000000000010 Rises=F Damp=F
 DIIS: error= 7.25D-08 at cycle  15 NSaved=  15.
 NSaved=15 IEnMin=11 EnMin= -648.901912300098     IErMin=15 ErrMin= 7.25D-08
 ErrMax= 7.25D-08  0.00D+00 EMaxC= 1.00D-01 BMatC= 2.29D-12 BMatP= 1.81D-11
 IDIUse=1 WtCom= 1.00D+00 WtEn= 0.00D+00
 Coeff-Com:  0.105D-05-0.213D-05-0.216D-05 0.156D-06-0.327D-06-0.543D-04
 Coeff-Com: -0.962D-04-0.433D-04 0.795D-03 0.319D-02 0.238D-01 0.431D-01
 Coeff-Com:  0.167D+00 0.322D+00 0.441D+00
 Coeff:      0.105D-05-0.213D-05-0.216D-05 0.156D-06-0.327D-06-0.543D-04
 Coeff:     -0.962D-04-0.433D-04 0.795D-03 0.319D-02 0.238D-01 0.431D-01
 Coeff:      0.167D+00 0.322D+00 0.441D+00
 Gap=     0.092 Goal=   None    Shift=    0.000
 RMSDP=8.01D-09 MaxDP=3.39D-07 DE=-1.01D-11 OVMax= 7.74D-07

 Error on total polarization charges =  0.01265
 SCF Done:  E(RB-P86) =  -648.901912281     A.U. after   15 cycles
            NFock= 15  Conv=0.80D-08     -V/T= 2.0029
 KE= 6.470010046741D+02 PE=-2.962464830260D+03 EE= 9.448672654554D+02
 Leave Link  502 at Mon Feb 22 21:17:47 2021, MaxMem=   104857600 cpu:             585.6 elap:              18.7
 (Enter /sw/arch/RedHatEnterpriseServer7/EB_production/2019/software/Gaussian/g16.c01/l601.exe)
 Copying SCF densities to generalized density rwf, IOpCl= 0 IROHF=0.

 **********************************************************************

            Population analysis using the SCF Density.

 **********************************************************************

 Orbital symmetries:
       Occupied  (A) (A) (A) (A) (A) (A) (A) (A) (A) (A) (A) (A)
                 (A) (A) (A) (A) (A) (A) (A) (A) (A) (A) (A) (A)
                 (A) (A) (A) (A) (A) (A) (A) (A) (A) (A) (A) (A)
                 (A) (A) (A) (A) (A) (A) (A) (A) (A) (A) (A)
       Virtual   (A) (A) (A) (A) (A) (A) (A) (A) (A) (A) (A) (A)
                 (A) (A) (A) (A) (A) (A) (A) (A) (A) (A) (A) (A)
                 (A) (A) (A) (A) (A) (A) (A) (A) (A) (A) (A) (A)
                 (A) (A) (A) (A) (A) (A) (A) (A) (A) (A) (A) (A)
                 (A) (A) (A) (A) (A) (A) (A) (A) (A) (A) (A) (A)
                 (A) (A) (A) (A) (A) (A) (A) (A) (A) (A) (A) (A)
                 (A) (A) (A) (A) (A) (A) (A) (A) (A) (A) (A) (A)
                 (A) (A) (A) (A) (A) (A) (A) (A) (A) (A) (A) (A)
                 (A) (A) (A) (A) (A) (A) (A) (A) (A) (A) (A) (A)
                 (A) (A) (A) (A) (A) (A) (A) (A) (A) (A) (A) (A)
                 (A) (A) (A) (A) (A) (A) (A) (A) (A) (A) (A) (A)
                 (A) (A) (A) (A) (A) (A) (A) (A) (A) (A) (A) (A)
                 (A) (A) (A) (A) (A) (A) (A) (A) (A) (A) (A) (A)
                 (A) (A) (A) (A) (A) (A) (A) (A) (A) (A) (A) (A)
                 (A) (A) (A) (A) (A) (A) (A) (A) (A) (A) (A) (A)
                 (A) (A) (A) (A) (A) (A) (A) (A) (A) (A) (A) (A)
                 (A) (A) (A) (A) (A) (A) (A) (A) (A) (A) (A) (A)
                 (A) (A) (A) (A) (A) (A) (A) (A) (A) (A) (A) (A)
                 (A) (A) (A) (A) (A) (A) (A) (A) (A) (A) (A) (A)
                 (A) (A) (A) (A) (A) (A) (A) (A) (A) (A) (A) (A)
                 (A) (A) (A) (A) (A) (A) (A) (A)
 The electronic state is 1-A.
 Alpha  occ. eigenvalues --  -18.82745 -18.81527 -18.81095 -18.74727 -10.02089
 Alpha  occ. eigenvalues --   -9.98062  -9.97605  -9.92233  -9.91719  -9.91352
 Alpha  occ. eigenvalues --   -9.91212  -9.91093  -9.90041  -1.01331  -1.00998
 Alpha  occ. eigenvalues --   -0.98898  -0.91439  -0.80173  -0.75560  -0.70069
 Alpha  occ. eigenvalues --   -0.69116  -0.62729  -0.59128  -0.58204  -0.55555
 Alpha  occ. eigenvalues --   -0.52267  -0.50192  -0.47694  -0.45833  -0.43384
 Alpha  occ. eigenvalues --   -0.41650  -0.41310  -0.40612  -0.40351  -0.39181
 Alpha  occ. eigenvalues --   -0.38128  -0.35771  -0.34677  -0.34176  -0.33222
 Alpha  occ. eigenvalues --   -0.33084  -0.31992  -0.28235  -0.26626  -0.22987
 Alpha  occ. eigenvalues --   -0.22849  -0.20277
 Alpha virt. eigenvalues --   -0.11106  -0.05592  -0.02147  -0.00095   0.02022
 Alpha virt. eigenvalues --    0.03750   0.04095   0.06293   0.06844   0.08979
 Alpha virt. eigenvalues --    0.09267   0.10416   0.11275   0.12296   0.13616
 Alpha virt. eigenvalues --    0.14818   0.15310   0.16389   0.17619   0.17673
 Alpha virt. eigenvalues --    0.18744   0.19208   0.19939   0.20665   0.21942
 Alpha virt. eigenvalues --    0.22166   0.23112   0.23554   0.25044   0.25869
 Alpha virt. eigenvalues --    0.27018   0.27594   0.28732   0.29362   0.29577
 Alpha virt. eigenvalues --    0.30606   0.30755   0.31467   0.32589   0.33076
 Alpha virt. eigenvalues --    0.34165   0.34438   0.35866   0.35978   0.36950
 Alpha virt. eigenvalues --    0.38396   0.39494   0.40765   0.41740   0.42360
 Alpha virt. eigenvalues --    0.43465   0.44059   0.44511   0.45178   0.45722
 Alpha virt. eigenvalues --    0.46655   0.46986   0.48653   0.49685   0.49936
 Alpha virt. eigenvalues --    0.51264   0.51569   0.54181   0.54724   0.55741
 Alpha virt. eigenvalues --    0.56320   0.57832   0.58654   0.59314   0.61591
 Alpha virt. eigenvalues --    0.62476   0.62677   0.64400   0.65392   0.67260
 Alpha virt. eigenvalues --    0.68777   0.71611   0.72945   0.73497   0.74591
 Alpha virt. eigenvalues --    0.77430   0.78534   0.83962   0.87819   0.89172
 Alpha virt. eigenvalues --    0.90180   1.12569   1.15366   1.16016   1.16837
 Alpha virt. eigenvalues --    1.18595   1.19383   1.21084   1.21269   1.21361
 Alpha virt. eigenvalues --    1.22180   1.25254   1.26546   1.28236   1.28549
 Alpha virt. eigenvalues --    1.28961   1.29248   1.30216   1.31566   1.32416
 Alpha virt. eigenvalues --    1.33876   1.34118   1.35591   1.35838   1.36617
 Alpha virt. eigenvalues --    1.37572   1.38815   1.39212   1.40138   1.41377
 Alpha virt. eigenvalues --    1.42614   1.43134   1.43704   1.44778   1.45119
 Alpha virt. eigenvalues --    1.46101   1.46770   1.48834   1.50152   1.50898
 Alpha virt. eigenvalues --    1.54088   1.55073   1.55789   1.58973   1.61135
 Alpha virt. eigenvalues --    1.64050   1.69718   1.71661   1.73538   1.74525
 Alpha virt. eigenvalues --    1.75596   1.78954   1.80724   1.82085   1.82928
 Alpha virt. eigenvalues --    1.83556   1.85289   1.86110   1.88150   1.90887
 Alpha virt. eigenvalues --    1.92054   1.92266   1.93056   1.95548   1.97237
 Alpha virt. eigenvalues --    2.01541   2.03335   2.05073   2.07523   2.08456
 Alpha virt. eigenvalues --    2.12766   2.13280   2.14478   2.16706   2.18379
 Alpha virt. eigenvalues --    2.18763   2.20298   2.20816   2.22004   2.23115
 Alpha virt. eigenvalues --    2.24172   2.27001   2.27880   2.32391   2.34053
 Alpha virt. eigenvalues --    2.34612   2.38045   2.41685   2.46072   2.48359
 Alpha virt. eigenvalues --    2.49029   2.49493   2.51706   2.53388   2.54236
 Alpha virt. eigenvalues --    2.54910   2.55826   2.56227   2.56998   2.57948
 Alpha virt. eigenvalues --    2.58720   2.59975   2.60836   2.62762   2.63546
 Alpha virt. eigenvalues --    2.67473   2.69032   2.71335   2.73273   2.74758
 Alpha virt. eigenvalues --    2.77633   2.77699   2.80654   2.82617   2.83653
 Alpha virt. eigenvalues --    2.88556   2.90076   2.90658   2.92482   2.93611
 Alpha virt. eigenvalues --    2.94985   2.97720   3.01130   3.02660   3.04447
 Alpha virt. eigenvalues --    3.06317   3.07122   3.07934   3.08679   3.11108
 Alpha virt. eigenvalues --    3.13596   3.15027   3.15512   3.17415   3.18614
 Alpha virt. eigenvalues --    3.27015   3.28694   3.30692   3.38737   3.44312
 Alpha virt. eigenvalues --    3.48428   3.53095   3.62506   3.76967   3.86880
 Alpha virt. eigenvalues --    4.01576   4.02450   4.13318   4.20807   4.23761
 Alpha virt. eigenvalues --   21.09015  21.44808  21.59870  21.67064  21.78003
 Alpha virt. eigenvalues --   21.82265  21.87134  21.95667  22.04811  43.06425
 Alpha virt. eigenvalues --   43.09589  43.14429  43.24066
          Condensed to atoms (all electrons):
               1          2          3          4          5          6
     1  O    8.039145   0.642048  -0.131470  -0.192421   0.032066  -0.003767
     2  C    0.642048   4.950648   0.405587  -0.332312   0.291034  -0.045704
     3  O   -0.131470   0.405587   7.893000  -0.229683   0.059075  -0.002430
     4  C   -0.192421  -0.332312  -0.229683   6.832030  -0.492558   0.186964
     5  C    0.032066   0.291034   0.059075  -0.492558   6.130038  -0.035103
     6  C   -0.003767  -0.045704  -0.002430   0.186964  -0.035103   5.394793
     7  C   -0.000133   0.011790   0.000156  -0.056323  -0.067055   0.282116
     8  C   -0.000020  -0.002258  -0.000005   0.008115   0.030269   0.059373
     9  C    0.000001   0.000193   0.000000  -0.001921  -0.003225  -0.129167
    10  O   -0.000000   0.000000   0.000000  -0.000001   0.000070   0.000149
    11  C   -0.000001   0.000669   0.000005  -0.009535   0.028063   0.084372
    12  O    0.000000  -0.000001   0.000000   0.000016   0.000307   0.010721
    13  C    0.000037  -0.007194  -0.000063   0.050302  -0.137073   0.321592
    14  H    0.003208  -0.029212   0.294682   0.028162  -0.004424   0.000228
    15  H    0.003688  -0.061463   0.003840   0.460568  -0.060869  -0.007251
    16  H    0.001054   0.005584   0.014474  -0.088001   0.424411  -0.032458
    17  H   -0.000022   0.001028   0.000006   0.004189  -0.023932  -0.050662
    18  H   -0.000000  -0.000028  -0.000000   0.000439  -0.002218   0.009350
    19  H   -0.000000  -0.000000   0.000000   0.000001  -0.000025  -0.000649
    20  H   -0.000000  -0.000000   0.000000  -0.000001   0.000093  -0.001019
    21  H   -0.000002  -0.000620  -0.000054   0.004028  -0.022605  -0.075891
               7          8          9         10         11         12
     1  O   -0.000133  -0.000020   0.000001  -0.000000  -0.000001   0.000000
     2  C    0.011790  -0.002258   0.000193   0.000000   0.000669  -0.000001
     3  O    0.000156  -0.000005   0.000000   0.000000   0.000005   0.000000
     4  C   -0.056323   0.008115  -0.001921  -0.000001  -0.009535   0.000016
     5  C   -0.067055   0.030269  -0.003225   0.000070   0.028063   0.000307
     6  C    0.282116   0.059373  -0.129167   0.000149   0.084372   0.010721
     7  C    5.542840   0.036043   0.151718   0.014611  -0.064207  -0.004107
     8  C    0.036043   5.719125   0.047859  -0.107998   0.009892   0.017601
     9  C    0.151718   0.047859   6.055268   0.377031  -0.136934  -0.121106
    10  O    0.014611  -0.107998   0.377031   7.790796  -0.106268   0.005539
    11  C   -0.064207   0.009892  -0.136934  -0.106268   5.540432   0.392325
    12  O   -0.004107   0.017601  -0.121106   0.005539   0.392325   7.762466
    13  C   -0.142608  -0.045624  -0.171188   0.005184   0.273077  -0.092493
    14  H    0.000004  -0.000000  -0.000000  -0.000000   0.000000  -0.000000
    15  H    0.004623   0.000906  -0.000028  -0.000000  -0.000178   0.000001
    16  H    0.020087  -0.002108   0.000364   0.000001   0.004378  -0.000058
    17  H    0.416512  -0.029654   0.010732  -0.000136   0.000525  -0.000004
    18  H   -0.008467   0.394773  -0.057546  -0.005124   0.007349   0.000037
    19  H    0.005992  -0.026034  -0.017673   0.310516   0.012958  -0.000280
    20  H   -0.001681   0.006665  -0.054534   0.012672  -0.007522   0.304676
    21  H    0.019918  -0.007419   0.036813  -0.000130  -0.071474   0.003661
              13         14         15         16         17         18
     1  O    0.000037   0.003208   0.003688   0.001054  -0.000022  -0.000000
     2  C   -0.007194  -0.029212  -0.061463   0.005584   0.001028  -0.000028
     3  O   -0.000063   0.294682   0.003840   0.014474   0.000006  -0.000000
     4  C    0.050302   0.028162   0.460568  -0.088001   0.004189   0.000439
     5  C   -0.137073  -0.004424  -0.060869   0.424411  -0.023932  -0.002218
     6  C    0.321592   0.000228  -0.007251  -0.032458  -0.050662   0.009350
     7  C   -0.142608   0.000004   0.004623   0.020087   0.416512  -0.008467
     8  C   -0.045624  -0.000000   0.000906  -0.002108  -0.029654   0.394773
     9  C   -0.171188  -0.000000  -0.000028   0.000364   0.010732  -0.057546
    10  O    0.005184  -0.000000  -0.000000   0.000001  -0.000136  -0.005124
    11  C    0.273077   0.000000  -0.000178   0.004378   0.000525   0.007349
    12  O   -0.092493  -0.000000   0.000001  -0.000058  -0.000004   0.000037
    13  C    5.697200  -0.000017   0.002329  -0.020698   0.010872   0.007465
    14  H   -0.000017   0.376796  -0.000084  -0.000394   0.000000   0.000000
    15  H    0.002329  -0.000084   0.461380   0.002457   0.001663   0.000020
    16  H   -0.020698  -0.000394   0.002457   0.490278   0.000252  -0.000015
    17  H    0.010872   0.000000   0.001663   0.000252   0.501708  -0.002648
    18  H    0.007465   0.000000   0.000020  -0.000015  -0.002648   0.492333
    19  H   -0.000881  -0.000000   0.000000   0.000000  -0.000033   0.002453
    20  H    0.016651   0.000000  -0.000000  -0.000003  -0.000002   0.000019
    21  H    0.439741   0.000001   0.000024   0.000729  -0.000020   0.000004
              19         20         21
     1  O   -0.000000  -0.000000  -0.000002
     2  C   -0.000000  -0.000000  -0.000620
     3  O    0.000000   0.000000  -0.000054
     4  C    0.000001  -0.000001   0.004028
     5  C   -0.000025   0.000093  -0.022605
     6  C   -0.000649  -0.001019  -0.075891
     7  C    0.005992  -0.001681   0.019918
     8  C   -0.026034   0.006665  -0.007419
     9  C   -0.017673  -0.054534   0.036813
    10  O    0.310516   0.012672  -0.000130
    11  C    0.012958  -0.007522  -0.071474
    12  O   -0.000280   0.304676   0.003661
    13  C   -0.000881   0.016651   0.439741
    14  H   -0.000000   0.000000   0.000001
    15  H    0.000000  -0.000000   0.000024
    16  H    0.000000  -0.000003   0.000729
    17  H   -0.000033  -0.000002  -0.000020
    18  H    0.002453   0.000019   0.000004
    19  H    0.388611  -0.000773   0.000045
    20  H   -0.000773   0.414317  -0.000701
    21  H    0.000045  -0.000701   0.518378
 Mulliken charges:
               1
     1  O   -0.393410
     2  C    0.170211
     3  O   -0.307120
     4  C   -0.172060
     5  C   -0.146337
     6  C    0.034442
     7  C   -0.161829
     8  C   -0.109500
     9  C    0.013343
    10  O   -0.296911
    11  C    0.042074
    12  O   -0.279300
    13  C   -0.206611
    14  H    0.331049
    15  H    0.188375
    16  H    0.179664
    17  H    0.159625
    18  H    0.161805
    19  H    0.325773
    20  H    0.311145
    21  H    0.155573
 Sum of Mulliken charges =  -0.00000
 Mulliken charges with hydrogens summed into heavy atoms:
               1
     1  O   -0.393410
     2  C    0.170211
     3  O    0.023929
     4  C    0.016316
     5  C    0.033327
     6  C    0.034442
     7  C   -0.002204
     8  C    0.052305
     9  C    0.013343
    10  O    0.028861
    11  C    0.042074
    12  O    0.031844
    13  C   -0.051038
 Electronic spatial extent (au):  <R**2>=           3569.6629
 Charge=              0.0000 electrons
 Dipole moment (field-independent basis, Debye):
    X=             -6.6020    Y=             -0.8828    Z=             -1.1304  Tot=              6.7560
 Quadrupole moment (field-independent basis, Debye-Ang):
   XX=            -74.9605   YY=            -68.3634   ZZ=            -78.1947
   XY=             24.0084   XZ=             -2.5949   YZ=             -0.2051
 Traceless Quadrupole moment (field-independent basis, Debye-Ang):
   XX=             -1.1210   YY=              5.4761   ZZ=             -4.3552
   XY=             24.0084   XZ=             -2.5949   YZ=             -0.2051
 Octapole moment (field-independent basis, Debye-Ang**2):
  XXX=           -127.1490  YYY=            -18.0492  ZZZ=              0.7315  XYY=            -23.5729
  XXY=             46.1360  XXZ=            -26.9449  XZZ=              2.5208  YZZ=              2.8704
  YYZ=             -3.0493  XYZ=              5.1393
 Hexadecapole moment (field-independent basis, Debye-Ang**3):
 XXXX=          -3582.2731 YYYY=           -550.5110 ZZZZ=            -93.3323 XXXY=            534.7906
 XXXZ=           -101.9593 YYYX=            115.9313 YYYZ=             -1.6581 ZZZX=             -3.9643
 ZZZY=             -2.4011 XXYY=           -634.8200 XXZZ=           -657.5085 YYZZ=           -119.3914
 XXYZ=             -8.4846 YYXZ=             -2.6864 ZZXY=              3.0902
 N-N= 7.216946478496D+02 E-N=-2.962464834632D+03  KE= 6.470010046741D+02
 No NMR shielding tensors so no spin-rotation constants.
 Leave Link  601 at Mon Feb 22 21:17:48 2021, MaxMem=   104857600 cpu:               9.3 elap:               0.4
 (Enter /sw/arch/RedHatEnterpriseServer7/EB_production/2019/software/Gaussian/g16.c01/l701.exe)
 ... and contract with generalized density number  0.
 Compute integral first derivatives.
 R6Disp: Adding Grimme-D3 dispersion energy 1st derivatives to the gradient.
 PrsmSu:  requested number of processors reduced to:  28 ShMem   1 Linda.
 D1PCM: PCM CHGder 1st derivatives, ID1Alg=3 FixD1E=F DoIter=F DoCFld=F I1PDM=0.
 GePol: Maximum number of non-zero 1st derivatives   =     214
 CoulSu:  requested number of processors reduced to:  28 ShMem   1 Linda.
 CoulSu:  requested number of processors reduced to:  29 ShMem   1 Linda.
 Leave Link  701 at Mon Feb 22 21:17:49 2021, MaxMem=   104857600 cpu:              26.0 elap:               0.9
 (Enter /sw/arch/RedHatEnterpriseServer7/EB_production/2019/software/Gaussian/g16.c01/l702.exe)
 L702 exits ... SP integral derivatives will be done elsewhere.
 Leave Link  702 at Mon Feb 22 21:17:49 2021, MaxMem=   104857600 cpu:               0.8 elap:               0.1
 (Enter /sw/arch/RedHatEnterpriseServer7/EB_production/2019/software/Gaussian/g16.c01/l703.exe)
 Integral derivatives from FoFJK, PRISM(SPDF).
 Compute integral first derivatives, UseDBF=F ICtDFT=           0.
 Calling FoFJK, ICntrl=      2527 FMM=F ISym2X=0 I1Cent= 0 IOpClX= 0 NMat=1 NMatS=1 NMatT=0.
 FoFJK:  IHMeth= 1 ICntrl=    2527 DoSepK=F KAlg= 0 I1Cent=           0 FoldK=F
 IRaf=         0 NMat=       1 IRICut=       1 DoRegI=T DoRafI=F ISym2E= 0 IDoP0=0 IntGTp=1.
 FoFCou: FMM=F IPFlag=           0 FMFlag=      100000 FMFlg1=         800
         NFxFlg=           0 DoJE=F BraDBF=F KetDBF=F FulRan=T
         wScrn=  0.000000 ICntrl=      2527 IOpCl=  0 I1Cent=           0 NGrid=           0
         NMat0=    1 NMatS0=      1 NMatT0=    0 NMatD0=    1 NMtDS0=    0 NMtDT0=    0
 Symmetry not used in FoFCou.
 Leave Link  703 at Mon Feb 22 21:17:51 2021, MaxMem=   104857600 cpu:              76.2 elap:               2.4
 (Enter /sw/arch/RedHatEnterpriseServer7/EB_production/2019/software/Gaussian/g16.c01/l716.exe)
 Dipole        =-2.59744390D+00-3.47332791D-01-4.44717263D-01
 ***** Axes restored to original set *****
 -------------------------------------------------------------------
 Center     Atomic                   Forces (Hartrees/Bohr)
 Number     Number              X              Y              Z
 -------------------------------------------------------------------
      1        8           0.004902274    0.001745320    0.002049248
      2        6          -0.088941674   -0.033011581    0.011630254
      3        8           0.032421546    0.010735727   -0.030076222
      4        6           0.029850700    0.009870086   -0.071966409
      5        6          -0.006407387    0.001596380    0.058292182
      6        6           0.038660620    0.016931048    0.011106244
      7        6           0.048577226   -0.003716912   -0.030368636
      8        6          -0.023425791   -0.031413730   -0.058391283
      9        6          -0.017295769   -0.002285067    0.011581216
     10        8           0.007980744    0.001059533    0.000355207
     11        6          -0.018406983   -0.004262753    0.001301848
     12        8           0.011091004    0.004562068   -0.003474343
     13        6           0.014107243    0.028994701    0.049969947
     14        1           0.001263881    0.001483599    0.019993587
     15        1           0.005491541    0.005653774    0.084431216
     16        1          -0.011481282   -0.012958046   -0.083376711
     17        1          -0.041239303    0.004925700    0.035799362
     18        1           0.008510822    0.024388995    0.048891684
     19        1           0.006745267    0.001831358   -0.004965004
     20        1           0.003885984   -0.003625874   -0.004320182
     21        1          -0.006290663   -0.022504325   -0.048463206
 -------------------------------------------------------------------
 Cartesian Forces:  Max     0.088941674 RMS     0.030724703
 Leave Link  716 at Mon Feb 22 21:17:52 2021, MaxMem=   104857600 cpu:               0.7 elap:               0.1
 (Enter /sw/arch/RedHatEnterpriseServer7/EB_production/2019/software/Gaussian/g16.c01/l103.exe)

 GradGradGradGradGradGradGradGradGradGradGradGradGradGradGradGradGradGrad
 Berny optimization.
 FormGI is forming the generalized inverse of G from B-inverse, IUseBI=4.
 Internal  Forces:  Max     0.085120398 RMS     0.018807422
 Search for a local minimum.
 Step number   1 out of a maximum of  103
 All quantities printed in internal units (Hartrees-Bohrs-Radians)
 RMS Force = .18807D-01 SwitMx=.10000D-02 MixMth= 1
 Mixed Optimization -- RFO/linear search
 Second derivative matrix not updated -- first step.
 ITU=  0
     Eigenvalues ---    0.01856   0.01904   0.01913   0.01927   0.01964
     Eigenvalues ---    0.01988   0.02002   0.02027   0.02037   0.02043
     Eigenvalues ---    0.02248   0.02255   0.02284   0.02293   0.02297
     Eigenvalues ---    0.02412   0.02543   0.02774   0.15998   0.15999
     Eigenvalues ---    0.16000   0.16000   0.16000   0.16000   0.16000
     Eigenvalues ---    0.16000   0.22000   0.22000   0.22368   0.23472
     Eigenvalues ---    0.24606   0.24996   0.25000   0.25000   0.25000
     Eigenvalues ---    0.25000   0.40042   0.40187   0.43076   0.43674
     Eigenvalues ---    0.43722   0.43905   0.43988   0.44375   0.44464
     Eigenvalues ---    0.45055   0.48335   0.48429   0.48991   0.51251
     Eigenvalues ---    0.51328   0.51517   0.53356   0.53466   0.53918
     Eigenvalues ---    0.55408   0.82214
 RFO step:  Lambda=-6.88510929D-02 EMin= 1.85597277D-02
 Linear search not attempted -- first point.
 Maximum step size (   0.300) exceeded in Quadratic search.
    -- Step size scaled by   0.760
 Iteration  1 RMS(Cart)=  0.04562176 RMS(Int)=  0.00128169
 Iteration  2 RMS(Cart)=  0.00154981 RMS(Int)=  0.00002726
 Iteration  3 RMS(Cart)=  0.00000082 RMS(Int)=  0.00002725
 ITry= 1 IFail=0 DXMaxC= 1.77D-01 DCOld= 1.00D+10 DXMaxT= 3.00D-01 DXLimC= 3.00D+00 Rises=F
 Variable       Old X    -DE/DX   Delta X   Delta X   Delta X     New X
                                 (Linear)    (Quad)   (Total)
    R1        2.36743  -0.00248   0.00000  -0.00211  -0.00211   2.36532
    R2        2.56106   0.00039   0.00000   0.00048   0.00048   2.56154
    R3        2.61583   0.05020   0.00000   0.06908   0.06908   2.68491
    R4        1.85249  -0.00679   0.00000  -0.00886  -0.00886   1.84363
    R5        2.54771   0.02198   0.00000   0.02682   0.02682   2.57453
    R6        1.87598   0.08461   0.00000   0.11505   0.11505   1.99103
    R7        2.65211   0.03719   0.00000   0.05441   0.05441   2.70652
    R8        1.88185   0.08512   0.00000   0.11692   0.11692   1.99877
    R9        2.68122  -0.00205   0.00000  -0.00319  -0.00319   2.67802
   R10        2.68137  -0.00086   0.00000  -0.00139  -0.00139   2.67999
   R11        2.65861  -0.01223   0.00000  -0.01807  -0.01807   2.64054
   R12        1.93168   0.05479   0.00000   0.08183   0.08183   2.01351
   R13        2.65755   0.00067   0.00000   0.00105   0.00105   2.65860
   R14        1.93268   0.05528   0.00000   0.08269   0.08269   2.01537
   R15        2.56623   0.01327   0.00000   0.01674   0.01674   2.58297
   R16        2.66187   0.00071   0.00000   0.00111   0.00111   2.66297
   R17        1.85324  -0.00460   0.00000  -0.00601  -0.00601   1.84722
   R18        2.56521   0.01617   0.00000   0.02036   0.02036   2.58557
   R19        2.66090  -0.01227   0.00000  -0.01823  -0.01823   2.64267
   R20        1.85064  -0.00081   0.00000  -0.00105  -0.00105   1.84960
   R21        1.93489   0.05379   0.00000   0.08076   0.08076   2.01565
    A1        2.04391   0.02404   0.00000   0.05730   0.05730   2.10120
    A2        2.09630   0.01219   0.00000   0.02904   0.02904   2.12533
    A3        2.14298  -0.03623   0.00000  -0.08633  -0.08633   2.05665
    A4        2.09411  -0.03503   0.00000  -0.11631  -0.11631   1.97780
    A5        2.16984  -0.00135   0.00000  -0.00355  -0.00355   2.16628
    A6        2.03018  -0.00466   0.00000  -0.01595  -0.01595   2.01423
    A7        2.08310   0.00602   0.00000   0.01951   0.01951   2.10261
    A8        2.20665  -0.00042   0.00000  -0.00111  -0.00111   2.20553
    A9        2.04578   0.00074   0.00000   0.00231   0.00231   2.04809
   A10        2.03073  -0.00032   0.00000  -0.00121  -0.00121   2.02952
   A11        2.15752  -0.00273   0.00000  -0.00646  -0.00646   2.15106
   A12        2.07718  -0.00096   0.00000  -0.00225  -0.00225   2.07493
   A13        2.04835   0.00369   0.00000   0.00873   0.00873   2.05709
   A14        2.11611  -0.00298   0.00000  -0.00778  -0.00778   2.10832
   A15        2.11472  -0.00050   0.00000  -0.00275  -0.00274   2.11197
   A16        2.05227   0.00348   0.00000   0.01049   0.01049   2.06276
   A17        2.10022   0.00076   0.00000   0.00228   0.00228   2.10249
   A18        2.08918   0.00009   0.00000   0.00040   0.00040   2.08959
   A19        2.09377  -0.00084   0.00000  -0.00268  -0.00267   2.09110
   A20        2.09844   0.01682   0.00000   0.03992   0.03991   2.13835
   A21        2.08676   0.00105   0.00000   0.00283   0.00282   2.08957
   A22        2.09799  -0.01787   0.00000  -0.04276  -0.04276   2.05522
   A23        1.85212   0.01329   0.00000   0.04413   0.04413   1.89625
   A24        2.11729   0.00027   0.00000   0.00053   0.00053   2.11782
   A25        2.09024  -0.00179   0.00000  -0.00406  -0.00407   2.08617
   A26        2.07566   0.00153   0.00000   0.00353   0.00353   2.07919
   A27        1.84809   0.01194   0.00000   0.03965   0.03965   1.88773
   A28        2.12424  -0.00069   0.00000  -0.00180  -0.00181   2.12243
   A29        2.09660   0.00106   0.00000   0.00329   0.00328   2.09988
   A30        2.06233  -0.00037   0.00000  -0.00146  -0.00146   2.06087
    D1        0.01980  -0.00008   0.00000  -0.00062  -0.00061   0.01919
    D2       -3.11902  -0.00047   0.00000  -0.00393  -0.00394  -3.12297
    D3       -3.12786  -0.00026   0.00000  -0.00227  -0.00226  -3.13012
    D4        0.02581  -0.00037   0.00000  -0.00293  -0.00292   0.02289
    D5        0.01088   0.00015   0.00000   0.00117   0.00116   0.01204
    D6       -3.11864   0.00005   0.00000   0.00051   0.00051  -3.11813
    D7        3.13140  -0.00009   0.00000  -0.00075  -0.00075   3.13065
    D8       -0.01893  -0.00023   0.00000  -0.00193  -0.00194  -0.02087
    D9       -0.02261  -0.00005   0.00000  -0.00031  -0.00030  -0.02291
   D10        3.11024  -0.00020   0.00000  -0.00149  -0.00149   3.10876
   D11       -0.36339   0.00168   0.00000   0.01419   0.01419  -0.34921
   D12        2.79606   0.00150   0.00000   0.01289   0.01289   2.80896
   D13        2.78687   0.00182   0.00000   0.01534   0.01534   2.80221
   D14       -0.33686   0.00164   0.00000   0.01405   0.01405  -0.32281
   D15        3.13564  -0.00007   0.00000  -0.00053  -0.00051   3.13512
   D16       -0.02087  -0.00042   0.00000  -0.00355  -0.00354  -0.02442
   D17       -0.02355   0.00006   0.00000   0.00064   0.00067  -0.02288
   D18        3.10313  -0.00029   0.00000  -0.00237  -0.00236   3.10076
   D19        3.12304   0.00091   0.00000   0.00813   0.00816   3.13120
   D20       -0.01360   0.00017   0.00000   0.00172   0.00172  -0.01188
   D21       -0.00181   0.00081   0.00000   0.00706   0.00709   0.00528
   D22       -3.13844   0.00007   0.00000   0.00065   0.00064  -3.13780
   D23        0.03016  -0.00098   0.00000  -0.00811  -0.00812   0.02203
   D24       -3.11677  -0.00086   0.00000  -0.00707  -0.00711  -3.12388
   D25       -3.09703  -0.00061   0.00000  -0.00509  -0.00507  -3.10210
   D26        0.03922  -0.00049   0.00000  -0.00405  -0.00406   0.03517
   D27        3.12845   0.00006   0.00000   0.00088   0.00076   3.12921
   D28       -0.01068   0.00087   0.00000   0.00762   0.00765  -0.00303
   D29       -0.00779  -0.00006   0.00000  -0.00017  -0.00027  -0.00806
   D30        3.13627   0.00075   0.00000   0.00657   0.00662  -3.14030
   D31        0.11182  -0.00048   0.00000  -0.00390  -0.00391   0.10791
   D32       -3.03225  -0.00127   0.00000  -0.01062  -0.01061  -3.04287
   D33        3.12500   0.00060   0.00000   0.00524   0.00530   3.13029
   D34       -0.01426  -0.00004   0.00000  -0.00016  -0.00011  -0.01437
   D35       -0.01413   0.00136   0.00000   0.01186   0.01175  -0.00238
   D36        3.12980   0.00071   0.00000   0.00646   0.00634   3.13614
   D37       -0.23692   0.00160   0.00000   0.01330   0.01328  -0.22364
   D38        2.90236   0.00224   0.00000   0.01864   0.01866   2.92102
   D39        0.02064  -0.00088   0.00000  -0.00745  -0.00746   0.01318
   D40       -3.12581  -0.00015   0.00000  -0.00115  -0.00114  -3.12695
   D41       -3.11867  -0.00151   0.00000  -0.01272  -0.01275  -3.13141
   D42        0.01806  -0.00077   0.00000  -0.00641  -0.00643   0.01164
         Item               Value     Threshold  Converged?
 Maximum Force            0.085120     0.000450     NO 
 RMS     Force            0.018807     0.000300     NO 
 Maximum Displacement     0.177311     0.001800     NO 
 RMS     Displacement     0.045743     0.001200     NO 
 Predicted change in Energy=-3.561786D-02
 Lowest energy point so far.  Saving SCF results.
 GradGradGradGradGradGradGradGradGradGradGradGradGradGradGradGradGradGrad

 Leave Link  103 at Mon Feb 22 21:17:52 2021, MaxMem=   104857600 cpu:               1.2 elap:               0.1
 (Enter /sw/arch/RedHatEnterpriseServer7/EB_production/2019/software/Gaussian/g16.c01/l202.exe)
                          Input orientation:                          
 ---------------------------------------------------------------------
 Center     Atomic      Atomic             Coordinates (Angstroms)
 Number     Number       Type             X           Y           Z
 ---------------------------------------------------------------------
      1          8           0       -4.220448    1.078011   -3.776462
      2          6           0       -3.315943    1.378517   -4.587788
      3          8           0       -3.505003    1.208910   -5.919291
      4          6           0       -2.067862    1.902744   -4.156359
      5          6           0       -1.056282    2.257465   -4.997170
      6          6           0        0.213118    2.800818   -4.616805
      7          6           0        0.448937    3.421371   -3.364762
      8          6           0        1.711072    3.927718   -3.043659
      9          6           0        2.766397    3.853657   -3.971066
     10          8           0        4.013023    4.347882   -3.706614
     11          6           0        2.549013    3.261201   -5.231043
     12          8           0        3.547959    3.183388   -6.162757
     13          6           0        1.289239    2.737582   -5.538337
     14          1           0       -4.388858    0.861499   -6.142705
     15          1           0       -1.953865    1.998063   -3.113284
     16          1           0       -1.212372    2.112872   -6.033251
     17          1           0       -0.333520    3.529348   -2.649636
     18          1           0        1.873724    4.376872   -2.090137
     19          1           0        4.041329    4.642349   -2.774942
     20          1           0        4.280834    3.764053   -5.873446
     21          1           0        1.154128    2.282279   -6.493407
 ---------------------------------------------------------------------
                    Distance matrix (angstroms):
                    1          2          3          4          5
     1  O    0.000000
     2  C    1.251673   0.000000
     3  O    2.262900   1.355511   0.000000
     4  C    2.336265   1.420793   2.377964   0.000000
     5  C    3.590709   2.458905   2.818867   1.362382   0.000000
     6  C    4.830192   3.805004   4.249125   2.494277   1.432231
     7  C    5.240610   4.454589   5.201369   3.044196   2.507013
     8  C    6.621236   5.844112   6.547413   4.429329   3.776797
     9  C    7.520512   6.595569   7.079600   5.216364   4.267738
    10  O    8.859288   7.956591   8.442144   6.569484   5.633225
    11  C    7.260009   6.193220   6.429362   4.931114   3.749711
    12  O    8.394949   7.269885   7.328172   6.099436   4.838901
    13  C    6.017893   4.894721   5.046456   3.725177   2.454555
    14  H    2.382089   1.958627   0.975607   3.227505   3.790388
    15  H    2.534502   2.100775   3.301889   1.053606   2.102849
    16  H    3.900328   2.655871   2.467041   2.073341   1.057703
    17  H    4.731490   4.156604   5.112082   2.814959   2.766041
    18  H    7.131978   6.493153   7.323190   5.091825   4.639791
    19  H    9.053426   8.250361   8.866936   6.836370   6.050752
    20  H    9.158819   8.065651   8.194518   6.835115   5.614488
    21  H    6.141509   4.942641   4.815520   3.998382   2.669317
                    6          7          8          9         10
     6  C    0.000000
     7  C    1.417148   0.000000
     8  C    2.447153   1.397312   0.000000
     9  C    2.836315   2.434153   1.406868   0.000000
    10  O    4.202515   3.698377   2.432082   1.366846   0.000000
    11  C    2.458789   2.814068   2.435372   1.409185   2.376570
    12  O    3.695605   4.182027   3.695531   2.421489   2.757712
    13  C    1.418187   2.428601   2.796030   2.425687   3.656129
    14  H    5.221830   6.137929   7.497662   8.053987   9.417060
    15  H    2.756956   2.804016   4.142485   5.143919   6.440298
    16  H    2.124055   3.404842   4.558273   4.807655   6.141113
    17  H    2.167792   1.065506   2.119979   3.385386   4.547487
    18  H    3.409635   2.137211   1.066490   2.146745   2.681499
    19  H    4.630216   3.839786   2.452143   1.917863   0.977509
    20  H    4.365007   4.592860   3.825984   2.433228   2.260031
    21  H    2.162410   3.403416   3.862436   3.380953   4.495132
                   11         12         13         14         15
    11  C    0.000000
    12  O    1.368225   0.000000
    13  C    1.398441   2.385469   0.000000
    14  H    7.397550   8.269500   6.010469   0.000000
    15  H    5.133842   6.401121   4.116490   4.049489   0.000000
    16  H    4.013753   4.880935   2.625502   3.415842   3.014830
    17  H    3.878732   5.246674   3.406586   5.980361   2.277130
    18  H    3.400886   4.562204   3.862509   8.246277   4.621256
    19  H    3.188574   3.721461   4.340333   9.833855   6.561180
    20  H    1.914353   0.978764   3.180501   9.146633   7.043344
    21  H    2.120743   2.579099   1.066637   5.732914   4.600612
                   16         17         18         19         20
    16  H    0.000000
    17  H    3.771954   0.000000
    18  H    5.495256   2.429663   0.000000
    19  H    6.679536   4.515947   2.288657   0.000000
    20  H    5.738227   5.633853   4.525832   3.229472   0.000000
    21  H    2.416768   4.306141   4.928887   5.266197   3.515152
                   21
    21  H    0.000000
 Stoichiometry    C9H8O4
 Framework group  C1[X(C9H8O4)]
 Deg. of freedom    57
 Full point group                 C1      NOp   1
 RotChk:  IX=0 Diff= 2.59D-03
 Largest Abelian subgroup         C1      NOp   1
 Largest concise Abelian subgroup C1      NOp   1
                         Standard orientation:                         
 ---------------------------------------------------------------------
 Center     Atomic      Atomic             Coordinates (Angstroms)
 Number     Number       Type             X           Y           Z
 ---------------------------------------------------------------------
      1          8           0        4.670959   -0.895431    0.295037
      2          6           0        3.746332   -0.083232    0.066819
      3          8           0        4.027371    1.204146   -0.251118
      4          6           0        2.380065   -0.467844    0.130381
      5          6           0        1.337260    0.372036   -0.121099
      6          6           0       -0.053905    0.033607   -0.083520
      7          6           0       -0.532715   -1.296783   -0.178970
      8          6           0       -1.902218   -1.569592   -0.128784
[...]
 Iteration    1 A^-1*A deviation from orthogonality  is 4.11D-15 for   1258    770.
 Error on nuclear    polarization charges =  0.02665
 Error on electronic polarization charges = -0.05593
 SCF Done:  E(RB-P86) =  -648.938858097     A.U. after   12 cycles
            NFock= 12  Conv=0.25D-08     -V/T= 2.0043
 --------------------------------------------------------------------
 Variational C-PCM results
 =========================
 <psi(f)|   H    |psi(f)>                     (a.u.) =    -648.906624
 <psi(f)|H+V(f)/2|psi(f)>                     (a.u.) =    -648.938858
 Total free energy in solution:
 - with all non electrostatic terms           (a.u.) =    -648.925124
 --------------------------------------------------------------------
 (Polarized solute)-Solvent               (kcal/mol) =     -20.23
 --------------------------------------------------------------------
 Cavitation energy                        (kcal/mol) =      26.74
 Dispersion energy                        (kcal/mol) =     -19.68
 Repulsion energy                         (kcal/mol) =       1.56
 Total non electrostatic                  (kcal/mol) =       8.62
 --------------------------------------------------------------------
 Partition over spheres:
 Sphere  on Atom  Surface  Charge   GEl     GCav    GDR
    1      O1      20.45   0.267   -5.51    2.54   -1.77
    2      C2      10.77  -0.014   -0.00    1.26   -0.75
    3      O3      14.73   0.092   -0.99    1.83   -1.28
    4      C4      12.21   0.020   -0.16    1.43   -0.86
    5      C5      11.24   0.011   -0.12    1.32   -0.83
    6      C6       5.72   0.021   -0.10    0.67   -0.36
    7      C7      12.54   0.025   -0.13    1.47   -0.95
    8      C8      13.48   0.007   -0.46    1.58   -1.05
    9      C9       7.97  -0.003   -0.14    0.94   -0.57
   10      O10     14.28   0.070   -0.04    1.77   -1.33
   11      C11      7.91   0.006   -0.10    0.93   -0.57
   12      O12     16.32   0.124   -1.45    2.03   -1.59
   13      C13     12.55   0.019   -0.15    1.47   -0.96
   14      H14      8.38  -0.145   -1.92    1.18   -0.88
   15      H15      5.69  -0.043   -0.25    0.80   -0.51
   16      H16      5.60  -0.043   -0.22    0.79   -0.41
   17      H17      5.60  -0.045   -0.53    0.79   -0.56
   18      H18      6.45  -0.053   -1.09    0.91   -0.74
   19      H19      8.31  -0.158   -4.78    1.17   -0.86
   20      H20      6.54  -0.109   -1.76    0.92   -0.63
   21      H21      6.42  -0.049   -0.33    0.91   -0.68
 --------------------------------------------------------------------
 - cavitation energy not included in the total energy.
 - dispersion energy not included in the total energy.
 - repulsion  energy not included in the total energy.
 After PCM corrections, the energy is  -648.938858097     a.u.
 --------------------------------------------------------------------
 Writing COSMO formatted file "QAIPRVGONGVQAS-DUXPYHPUSA-N.cosmo"
 Recomputed dielectric energy= -0.032295 old= -0.032234 diff=-6.08D-05

 **********************************************************************

            Population analysis using the SCF Density.

 **********************************************************************

 Orbital symmetries:
       Occupied  (A) (A) (A) (A) (A) (A) (A) (A) (A) (A) (A) (A)
                 (A) (A) (A) (A) (A) (A) (A) (A) (A) (A) (A) (A)
                 (A) (A) (A) (A) (A) (A) (A) (A) (A) (A) (A) (A)
                 (A) (A) (A) (A) (A) (A) (A) (A) (A) (A) (A)
       Virtual   (A) (A) (A) (A) (A) (A) (A) (A) (A) (A) (A) (A)
                 (A) (A) (A) (A) (A) (A) (A) (A) (A) (A) (A) (A)
                 (A) (A) (A) (A) (A) (A) (A) (A) (A) (A) (A) (A)
                 (A) (A) (A) (A) (A) (A) (A) (A) (A) (A) (A) (A)
                 (A) (A) (A) (A) (A) (A) (A) (A) (A) (A) (A) (A)
                 (A) (A) (A) (A) (A) (A) (A) (A) (A) (A) (A) (A)
                 (A) (A) (A) (A) (A) (A) (A) (A) (A) (A) (A) (A)
                 (A) (A) (A) (A) (A) (A) (A) (A) (A) (A) (A) (A)
                 (A) (A) (A) (A) (A) (A) (A) (A) (A) (A) (A) (A)
                 (A) (A) (A) (A) (A) (A) (A) (A) (A) (A) (A) (A)
                 (A) (A) (A) (A) (A) (A) (A) (A) (A) (A) (A) (A)
                 (A) (A) (A) (A) (A) (A) (A) (A) (A) (A) (A) (A)
                 (A) (A) (A) (A) (A) (A) (A) (A) (A) (A) (A) (A)
                 (A) (A) (A) (A) (A) (A) (A) (A) (A) (A) (A) (A)
                 (A) (A) (A) (A) (A) (A) (A) (A) (A) (A) (A) (A)
                 (A) (A) (A) (A) (A) (A) (A) (A) (A) (A) (A) (A)
                 (A) (A) (A) (A) (A) (A) (A) (A) (A) (A) (A) (A)
                 (A) (A) (A) (A) (A) (A) (A) (A) (A) (A) (A) (A)
                 (A) (A) (A) (A) (A) (A) (A) (A) (A) (A) (A) (A)
                 (A) (A) (A) (A) (A) (A) (A) (A) (A) (A) (A) (A)
                 (A) (A) (A) (A) (A) (A) (A) (A)
 The electronic state is 1-A.
 Alpha  occ. eigenvalues --  -18.81918 -18.81461 -18.80866 -18.76352 -10.02867
 Alpha  occ. eigenvalues --   -9.97693  -9.97029  -9.92848  -9.92315  -9.91470
 Alpha  occ. eigenvalues --   -9.91273  -9.91258  -9.91199  -1.01504  -1.00133
 Alpha  occ. eigenvalues --   -0.97451  -0.93164  -0.79605  -0.74017  -0.69279
 Alpha  occ. eigenvalues --   -0.68257  -0.61508  -0.57745  -0.56761  -0.53331
 Alpha  occ. eigenvalues --   -0.51143  -0.49040  -0.45998  -0.44518  -0.42683
 Alpha  occ. eigenvalues --   -0.41875  -0.40526  -0.39905  -0.39709  -0.37840
 Alpha  occ. eigenvalues --   -0.36968  -0.35478  -0.33906  -0.33830  -0.33415
 Alpha  occ. eigenvalues --   -0.32653  -0.31304  -0.28805  -0.26659  -0.24686
 Alpha  occ. eigenvalues --   -0.22738  -0.19894
 Alpha virt. eigenvalues --   -0.10595  -0.04807  -0.02147   0.00978   0.03147
 Alpha virt. eigenvalues --    0.03601   0.04584   0.05651   0.06223   0.09130
 Alpha virt. eigenvalues --    0.10177   0.10272   0.10731   0.11632   0.13985
 Alpha virt. eigenvalues --    0.14829   0.15141   0.15931   0.16953   0.17293
 Alpha virt. eigenvalues --    0.18439   0.19373   0.19851   0.21140   0.21456
 Alpha virt. eigenvalues --    0.22130   0.22499   0.23245   0.25183   0.26318
 Alpha virt. eigenvalues --    0.26542   0.28161   0.28633   0.29096   0.29558
 Alpha virt. eigenvalues --    0.30500   0.31110   0.31368   0.31780   0.33620
 Alpha virt. eigenvalues --    0.34131   0.34245   0.35161   0.35953   0.36253
 Alpha virt. eigenvalues --    0.38462   0.39037   0.39397   0.40575   0.40739
 Alpha virt. eigenvalues --    0.42056   0.43764   0.44265   0.44413   0.44851
 Alpha virt. eigenvalues --    0.46282   0.48176   0.48940   0.50263   0.50804
 Alpha virt. eigenvalues --    0.51015   0.52660   0.54866   0.55050   0.55757
 Alpha virt. eigenvalues --    0.56714   0.57722   0.58586   0.60290   0.62013
 Alpha virt. eigenvalues --    0.62381   0.64298   0.64973   0.66140   0.68127
 Alpha virt. eigenvalues --    0.69985   0.73612   0.74328   0.76540   0.78622
 Alpha virt. eigenvalues --    0.79825   0.83346   0.84231   0.89106   0.89892
 Alpha virt. eigenvalues --    0.92058   1.13376   1.13594   1.14528   1.17375
 Alpha virt. eigenvalues --    1.18900   1.18957   1.21193   1.21828   1.22092
 Alpha virt. eigenvalues --    1.22455   1.23621   1.26688   1.27895   1.29209
 Alpha virt. eigenvalues --    1.29342   1.30835   1.30972   1.31900   1.33361
 Alpha virt. eigenvalues --    1.33445   1.34856   1.35321   1.35378   1.35960
 Alpha virt. eigenvalues --    1.36728   1.37755   1.38588   1.39423   1.39952
 Alpha virt. eigenvalues --    1.42279   1.42422   1.42975   1.43960   1.46221
 Alpha virt. eigenvalues --    1.47768   1.47794   1.49396   1.49948   1.50575
 Alpha virt. eigenvalues --    1.52194   1.54734   1.57438   1.60879   1.62434
 Alpha virt. eigenvalues --    1.64075   1.67730   1.69343   1.72509   1.74607
 Alpha virt. eigenvalues --    1.75723   1.76963   1.79959   1.80159   1.80866
 Alpha virt. eigenvalues --    1.82567   1.82760   1.84851   1.85645   1.88653
 Alpha virt. eigenvalues --    1.90839   1.91882   1.91945   1.92596   1.97761
 Alpha virt. eigenvalues --    1.98453   1.98568   2.05023   2.07522   2.09526
 Alpha virt. eigenvalues --    2.10882   2.11023   2.13471   2.15106   2.17366
 Alpha virt. eigenvalues --    2.17829   2.18325   2.19634   2.21519   2.22124
 Alpha virt. eigenvalues --    2.23247   2.25303   2.26969   2.28529   2.31917
 Alpha virt. eigenvalues --    2.35034   2.37597   2.38983   2.42900   2.45471
 Alpha virt. eigenvalues --    2.47082   2.47774   2.49340   2.49606   2.51886
 Alpha virt. eigenvalues --    2.53330   2.53601   2.55762   2.55909   2.57494
 Alpha virt. eigenvalues --    2.57625   2.59153   2.59821   2.60417   2.61705
 Alpha virt. eigenvalues --    2.65255   2.66864   2.69768   2.72763   2.73194
 Alpha virt. eigenvalues --    2.78393   2.80185   2.80437   2.82969   2.85303
 Alpha virt. eigenvalues --    2.86794   2.89095   2.91582   2.91861   2.93381
 Alpha virt. eigenvalues --    2.94715   2.97354   2.98206   3.01000   3.02414
 Alpha virt. eigenvalues --    3.04065   3.05156   3.06311   3.08081   3.09550
 Alpha virt. eigenvalues --    3.12550   3.13045   3.14933   3.16362   3.18714
 Alpha virt. eigenvalues --    3.20496   3.25563   3.26586   3.31493   3.36075
 Alpha virt. eigenvalues --    3.42517   3.51250   3.54480   3.78732   3.81239
 Alpha virt. eigenvalues --    4.00383   4.09401   4.14754   4.19172   4.23181
 Alpha virt. eigenvalues --   21.04424  21.37607  21.58310  21.61877  21.73685
 Alpha virt. eigenvalues --   21.79230  21.81621  21.90065  21.95407  43.06565
 Alpha virt. eigenvalues --   43.10984  43.13301  43.23314
          Condensed to atoms (all electrons):
               1          2          3          4          5          6
     1  O    8.002497   0.627175  -0.107267  -0.169186   0.024527  -0.002105
     2  C    0.627175   4.808655   0.362842   0.000643   0.103301   0.005047
     3  O   -0.107267   0.362842   7.910068  -0.236375   0.054475   0.001523
     4  C   -0.169186   0.000643  -0.236375   6.230294  -0.109322   0.081055
     5  C    0.024527   0.103301   0.054475  -0.109322   5.846661   0.061379
     6  C   -0.002105   0.005047   0.001523   0.081055   0.061379   5.418097
     7  C    0.000002   0.002692  -0.000004  -0.021357  -0.100334   0.333180
     8  C   -0.000016  -0.001469  -0.000009   0.005060   0.038405   0.027270
     9  C    0.000000   0.000095   0.000001  -0.001226   0.000252  -0.153787
    10  O    0.000000   0.000000   0.000000  -0.000002   0.000075   0.001549
    11  C    0.000000   0.000442   0.000013  -0.009669   0.040254   0.085252
    12  O    0.000000  -0.000000   0.000000   0.000012   0.000078   0.011200
    13  C    0.000026  -0.003779  -0.000113   0.040755  -0.139394   0.299221
    14  H    0.002898  -0.023176   0.288326   0.027630  -0.004242   0.000161
    15  H    0.007725  -0.058074   0.004068   0.388686   0.011118  -0.030476
    16  H    0.000800  -0.010386   0.015247  -0.084204   0.439382  -0.049107
    17  H   -0.000137   0.000364  -0.000016   0.014694  -0.041113  -0.039382
    18  H   -0.000000  -0.000004  -0.000000   0.000338  -0.001944   0.009460
    19  H    0.000000  -0.000000   0.000000   0.000001  -0.000011  -0.000332
    20  H   -0.000000  -0.000000   0.000000  -0.000003   0.000048  -0.000753
    21  H   -0.000001  -0.000322  -0.000059   0.003663  -0.020349  -0.079144
               7          8          9         10         11         12
     1  O    0.000002  -0.000016   0.000000   0.000000   0.000000   0.000000
     2  C    0.002692  -0.001469   0.000095   0.000000   0.000442  -0.000000
     3  O   -0.000004  -0.000009   0.000001   0.000000   0.000013   0.000000
     4  C   -0.021357   0.005060  -0.001226  -0.000002  -0.009669   0.000012
     5  C   -0.100334   0.038405   0.000252   0.000075   0.040254   0.000078
     6  C    0.333180   0.027270  -0.153787   0.001549   0.085252   0.011200
     7  C    5.410749   0.127999   0.116462   0.011226  -0.072389  -0.003706
     8  C    0.127999   5.588898   0.104416  -0.092024   0.026316   0.015410
     9  C    0.116462   0.104416   5.975252   0.371650  -0.147242  -0.134742
    10  O    0.011226  -0.092024   0.371650   7.820456  -0.109258   0.004468
    11  C   -0.072389   0.026316  -0.147242  -0.109258   5.576525   0.410773
    12  O   -0.003706   0.015410  -0.134742   0.004468   0.410773   7.779878
    13  C   -0.117482  -0.059066  -0.111530   0.004193   0.221613  -0.085418
    14  H    0.000005  -0.000000  -0.000000  -0.000000  -0.000000  -0.000000
    15  H    0.009960   0.001531  -0.000011   0.000000   0.000024   0.000001
    16  H    0.015942  -0.001153  -0.000040   0.000001   0.004247  -0.000000
    17  H    0.408579  -0.034679   0.011164  -0.000158  -0.001310   0.000002
    18  H   -0.012027   0.386691  -0.047978  -0.003008   0.007002  -0.000023
    19  H    0.003289  -0.015743  -0.023903   0.312433   0.012953  -0.000115
    20  H   -0.001090   0.005337  -0.047570   0.016069  -0.010766   0.307852
    21  H    0.019893  -0.008107   0.034833  -0.000155  -0.082737   0.003268
              13         14         15         16         17         18
     1  O    0.000026   0.002898   0.007725   0.000800  -0.000137  -0.000000
     2  C   -0.003779  -0.023176  -0.058074  -0.010386   0.000364  -0.000004
     3  O   -0.000113   0.288326   0.004068   0.015247  -0.000016  -0.000000
     4  C    0.040755   0.027630   0.388686  -0.084204   0.014694   0.000338
     5  C   -0.139394  -0.004242   0.011118   0.439382  -0.041113  -0.001944
     6  C    0.299221   0.000161  -0.030476  -0.049107  -0.039382   0.009460
     7  C   -0.117482   0.000005   0.009960   0.015942   0.408579  -0.012027
     8  C   -0.059066  -0.000000   0.001531  -0.001153  -0.034679   0.386691
     9  C   -0.111530  -0.000000  -0.000011  -0.000040   0.011164  -0.047978
    10  O    0.004193  -0.000000   0.000000   0.000001  -0.000158  -0.003008
    11  C    0.221613  -0.000000   0.000024   0.004247  -0.001310   0.007002
    12  O   -0.085418  -0.000000   0.000001  -0.000000   0.000002  -0.000023
    13  C    5.702850  -0.000029   0.001884  -0.012817   0.013523   0.005067
    14  H   -0.000029   0.380243  -0.000354  -0.000385   0.000001   0.000000
    15  H    0.001884  -0.000354   0.466548   0.003514   0.004992   0.000005
    16  H   -0.012817  -0.000385   0.003514   0.502142   0.000224  -0.000004
    17  H    0.013523   0.000001   0.004992   0.000224   0.508572  -0.003953
    18  H    0.005067   0.000000   0.000005  -0.000004  -0.003953   0.493237
    19  H   -0.000848  -0.000000   0.000000  -0.000000  -0.000035   0.002584
    20  H    0.014232   0.000000  -0.000000   0.000002   0.000001  -0.000024
    21  H    0.448612  -0.000000  -0.000004   0.001423   0.000014   0.000019
              19         20         21
     1  O    0.000000  -0.000000  -0.000001
     2  C   -0.000000  -0.000000  -0.000322
     3  O    0.000000   0.000000  -0.000059
     4  C    0.000001  -0.000003   0.003663
     5  C   -0.000011   0.000048  -0.020349
     6  C   -0.000332  -0.000753  -0.079144
     7  C    0.003289  -0.001090   0.019893
     8  C   -0.015743   0.005337  -0.008107
     9  C   -0.023903  -0.047570   0.034833
    10  O    0.312433   0.016069  -0.000155
    11  C    0.012953  -0.010766  -0.082737
    12  O   -0.000115   0.307852   0.003268
    13  C   -0.000848   0.014232   0.448612
    14  H   -0.000000   0.000000  -0.000000
    15  H    0.000000  -0.000000  -0.000004
    16  H   -0.000000   0.000002   0.001423
    17  H   -0.000035   0.000001   0.000014
    18  H    0.002584  -0.000024   0.000019
    19  H    0.362417  -0.000773   0.000036
    20  H   -0.000773   0.388431  -0.000606
    21  H    0.000036  -0.000606   0.523057
 Mulliken charges:
               1
     1  O   -0.386940
     2  C    0.185955
     3  O   -0.292722
     4  C   -0.161487
     5  C   -0.203247
     6  C    0.020692
     7  C   -0.131590
     8  C   -0.115067
     9  C    0.053906
    10  O   -0.337515
    11  C    0.047957
    12  O   -0.308937
    13  C   -0.221501
    14  H    0.328922
    15  H    0.188862
    16  H    0.175170
    17  H    0.158655
    18  H    0.164561
    19  H    0.348047
    20  H    0.329613
    21  H    0.156665
 Sum of Mulliken charges =  -0.00000
 Mulliken charges with hydrogens summed into heavy atoms:
               1
     1  O   -0.386940
     2  C    0.185955
     3  O    0.036201
     4  C    0.027375
     5  C   -0.028077
     6  C    0.020692
     7  C    0.027065
     8  C    0.049494
     9  C    0.053906
    10  O    0.010532
    11  C    0.047957
    12  O    0.020676
    13  C   -0.064835
 Electronic spatial extent (au):  <R**2>=           3632.0239
 Charge=             -0.0000 electrons
 Dipole moment (field-independent basis, Debye):
    X=             -6.7636    Y=             -1.5602    Z=              0.0004  Tot=              6.9412
 Quadrupole moment (field-independent basis, Debye-Ang):
   XX=            -71.9014   YY=            -68.1112   ZZ=            -78.9952
   XY=             24.8865   XZ=              0.0021   YZ=              0.0071
 Traceless Quadrupole moment (field-independent basis, Debye-Ang):
   XX=              1.1012   YY=              4.8914   ZZ=             -5.9926
   XY=             24.8865   XZ=              0.0021   YZ=              0.0071
 Octapole moment (field-independent basis, Debye-Ang**2):
  XXX=           -164.6889  YYY=            -19.2626  ZZZ=              0.0008  XYY=            -21.4100
  XXY=             34.2324  XXZ=             -0.0302  XZZ=              2.9159  YZZ=              3.1979
  YYZ=             -0.0030  XYZ=              0.0217
 Hexadecapole moment (field-independent basis, Debye-Ang**3):
 XXXX=          -3640.3171 YYYY=           -561.7797 ZZZZ=            -82.9285 XXXY=            573.0762
 XXXZ=             -0.0305 YYYX=            113.7149 YYYZ=              0.0147 ZZZX=              0.0099
 ZZZY=              0.0018 XXYY=           -644.1680 XXZZ=           -668.0892 YYZZ=           -122.3964
 XXYZ=              0.1152 YYXZ=              0.0363 ZZXY=              1.1720
 N-N= 7.157795071137D+02 E-N=-2.950198474100D+03  KE= 6.461569326233D+02
 Unable to Open any file for archive entry.
 1\1\GINC-TCN1634\SP\RBP86\TZVP\C9H8O4\ELENAA\22-Feb-2021\0\\# BP86/TZV
 P SCRF=COSMORS geom=CHECKPOINT guess=CHECKPOINT\\COSMO-file for #QAIPR
 VGONGVQAS-DUXPYHPUSA-N\\0,1\O,0,-4.4024998433,1.3389566196,-3.91282824
 84\C,0,-3.4038531497,1.4550950531,-4.6243852962\O,0,-3.3927996461,1.02
 29137345,-5.926133792\C,0,-2.1459681146,2.0523755214,-4.1745476308\C,0
 ,-1.0408708348,2.1822628494,-4.9526558421\C,0,0.2406339975,2.762168217
 9,-4.5779325546\C,0,0.5087833572,3.28850371,-3.2938801039\C,0,1.756436
 1392,3.8309219265,-2.9949389393\C,0,2.7640298017,3.8621737093,-3.96784
 08212\O,0,4.0220740013,4.3723766086,-3.7773124433\C,0,2.516274585,3.34
 07626381,-5.2582154444\O,0,3.4897234417,3.3615030251,-6.224372964\C,0,
 1.2680720187,2.8004628053,-5.5501934363\H,0,-4.2798423462,0.6474217228
 ,-6.1056099953\H,0,-2.1714047806,2.3919453336,-3.1377079639\H,0,-1.103
 7075805,1.8139671841,-5.9819520738\H,0,-0.2574483961,3.2767244964,-2.5
 181346542\H,0,1.9585704935,4.2365617652,-2.0005830802\H,0,4.1227307447
 ,4.7129756628,-2.8692525126\H,0,4.2901851466,3.7739857343,-5.841798057
 8\H,0,1.0955009649,2.4025416819,-6.5526441456\\Version=ES64L-G16RevC.0
 1\State=1-A\HF=-648.9388581\RMSD=2.501e-09\Dipole=2.4132726,1.0831265,
 0.6786624\Quadrupole=-4.3707363,0.233997,4.1367393,5.258685,15.5779139
 ,8.4116562\PG=C01 [X(C9H8O4)]\\@
 The archive entry for this job was punched.


 WE LEARN WISDOM FROM FAILURE MUCH MORE THAN FROM SUCCESS.
 WE DISCOVER WHAT WILL DO BY FINDING OUT WHAT WILL NOT DO...
 AND HE WHO NEVER MADE A MISTAKE NEVER MADE A DISCOVERY
 Job cpu time:       0 days  0 hours  7 minutes 54.0 seconds.
 Elapsed time:       0 days  0 hours  0 minutes 15.4 seconds.
 File lengths (MBytes):  RWF=     71 Int=      0 D2E=      0 Chk=     11 Scr=      1
 Normal termination of Gaussian 16 at Mon Feb 22 21:21:29 2021.
