 Entering Gaussian System, Link 0=g16
 Input=QIQXTHQIDYTFRH-UHFFFAOYSA-N.gjf
 Output=QIQXTHQIDYTFRH-UHFFFAOYSA-N.log
 Initial command:
 /sw/arch/RedHatEnterpriseServer7/EB_production/2019/software/Gaussian/g16.c01/l1.exe "/scratch-local/elenaa.9715264/Gau-19650.inp" -scrdir="/scratch-local/elenaa.9715264/"
 Entering Link 1 = /sw/arch/RedHatEnterpriseServer7/EB_production/2019/software/Gaussian/g16.c01/l1.exe PID=     19651.
  
 Copyright (c) 1988-2019, Gaussian, Inc.  All Rights Reserved.
  
 This is part of the Gaussian(R) 16 program.  It is based on
 the Gaussian(R) 09 system (copyright 2009, Gaussian, Inc.),
 the Gaussian(R) 03 system (copyright 2003, Gaussian, Inc.),
 the Gaussian(R) 98 system (copyright 1998, Gaussian, Inc.),
 the Gaussian(R) 94 system (copyright 1995, Gaussian, Inc.),
 the Gaussian 92(TM) system (copyright 1992, Gaussian, Inc.),
 the Gaussian 90(TM) system (copyright 1990, Gaussian, Inc.),
 the Gaussian 88(TM) system (copyright 1988, Gaussian, Inc.),
 the Gaussian 86(TM) system (copyright 1986, Carnegie Mellon
 University), and the Gaussian 82(TM) system (copyright 1983,
 Carnegie Mellon University). Gaussian is a federally registered
 trademark of Gaussian, Inc.
  
 This software contains proprietary and confidential information,
 including trade secrets, belonging to Gaussian, Inc.
  
 This software is provided under written license and may be
 used, copied, transmitted, or stored only in accord with that
 written license.
  
 The following legend is applicable only to US Government
 contracts under FAR:
  
                    RESTRICTED RIGHTS LEGEND
  
 Use, reproduction and disclosure by the US Government is
 subject to restrictions as set forth in subparagraphs (a)
 and (c) of the Commercial Computer Software - Restricted
 Rights clause in FAR 52.227-19.
  
 Gaussian, Inc.
 340 Quinnipiac St., Bldg. 40, Wallingford CT 06492
  
  
 ---------------------------------------------------------------
 Warning -- This program may not be used in any manner that
 competes with the business of Gaussian, Inc. or will provide
 assistance to any competitor of Gaussian, Inc.  The licensee
 of this program is prohibited from giving any competitor of
 Gaussian, Inc. access to this program.  By using this program,
 the user acknowledges that Gaussian, Inc. is engaged in the
 business of creating and licensing software in the field of
 computational chemistry and represents and warrants to the
 licensee that it is not a competitor of Gaussian, Inc. and that
 it will not use this program in any manner prohibited above.
 ---------------------------------------------------------------
  

 Cite this work as:
 Gaussian 16, Revision C.01,
 M. J. Frisch, G. W. Trucks, H. B. Schlegel, G. E. Scuseria, 
 M. A. Robb, J. R. Cheeseman, G. Scalmani, V. Barone, 
 G. A. Petersson, H. Nakatsuji, X. Li, M. Caricato, A. V. Marenich, 
 J. Bloino, B. G. Janesko, R. Gomperts, B. Mennucci, H. P. Hratchian, 
 J. V. Ortiz, A. F. Izmaylov, J. L. Sonnenberg, D. Williams-Young, 
 F. Ding, F. Lipparini, F. Egidi, J. Goings, B. Peng, A. Petrone, 
 T. Henderson, D. Ranasinghe, V. G. Zakrzewski, J. Gao, N. Rega, 
 G. Zheng, W. Liang, M. Hada, M. Ehara, K. Toyota, R. Fukuda, 
 J. Hasegawa, M. Ishida, T. Nakajima, Y. Honda, O. Kitao, H. Nakai, 
 T. Vreven, K. Throssell, J. A. Montgomery, Jr., J. E. Peralta, 
 F. Ogliaro, M. J. Bearpark, J. J. Heyd, E. N. Brothers, K. N. Kudin, 
 V. N. Staroverov, T. A. Keith, R. Kobayashi, J. Normand, 
 K. Raghavachari, A. P. Rendell, J. C. Burant, S. S. Iyengar, 
 J. Tomasi, M. Cossi, J. M. Millam, M. Klene, C. Adamo, R. Cammi, 
 J. W. Ochterski, R. L. Martin, K. Morokuma, O. Farkas, 
 J. B. Foresman, and D. J. Fox, Gaussian, Inc., Wallingford CT, 2019.
 
 ******************************************
 Gaussian 16:  ES64L-G16RevC.01  3-Jul-2019
                22-Feb-2021 
 ******************************************
 %chk=QIQXTHQIDYTFRH-UHFFFAOYSA-N.chk
 %NProcShared=32
 Will use up to   32 processors via shared memory.
 -------------------------------------------------------------
 #P BP86/TZVP EmpiricalDispersion=GD3 SCRF=(Solvent=Water) Opt
 -------------------------------------------------------------
 1/18=20,19=15,26=3,38=1/1,3;
 2/9=110,12=2,17=6,18=5,40=1/2;
 3/5=19,7=101,11=2,25=1,30=1,70=2201,71=1,72=1,74=404,124=31/1,2,3;
 4//1;
 5/5=2,38=5,53=1/2;
 6/7=2,8=2,9=2,10=2,28=1/1;
 7//1,2,3,16;
 1/18=20,19=15,26=3/3(2);
 2/9=110/2;
 99//99;
 2/9=110/2;
 3/5=19,7=101,11=2,25=1,30=1,70=2205,71=1,72=1,74=404,124=31/1,2,3;
 4/5=5,16=3,69=1/1;
 5/5=2,38=5,53=1/2;
 7//1,2,3,16;
 1/18=20,19=15,26=3/3(-5);
 2/9=110/2;
 6/7=2,8=2,9=2,10=2,19=2,28=1/1;
 99/9=1/99;
 Leave Link    1 at Mon Feb 22 21:17:51 2021, MaxMem=           0 cpu:               1.5 elap:               0.1
 (Enter /sw/arch/RedHatEnterpriseServer7/EB_production/2019/software/Gaussian/g16.c01/l101.exe)
 -------------------------------------
 Particle #QIQXTHQIDYTFRH-UHFFFAOYSA-N
 -------------------------------------
 Symbolic Z-matrix:
 Charge =  0 Multiplicity = 1
 C                     5.78473  -1.31176   9.53445 
 C                     5.56665   0.07778   8.89517 
 C                     4.14879   0.23577   8.28505 
 C                     3.92715   1.62975   7.64262 
 C                     2.50762   1.7779    7.03578 
 C                     2.28426   3.1711    6.39301 
 C                     0.86533   3.31953   5.78636 
 C                     0.64739   4.71291   5.14579 
 C                    -0.77084   4.85892   4.54071 
 C                    -1.00158   6.2486    3.89703 
 C                    -2.42732   6.37355   3.29712 
 C                    -2.68287   7.75496   2.64433 
 C                    -4.10807   7.88032   2.03784 
 C                    -4.33409   9.26886   1.38632 
 C                    -5.74179   9.44034   0.75669 
 C                    -5.94386   10.85294   0.14489 
 C                    -7.34062   11.02959  -0.50494 
 C                    -7.56132   12.41032  -0.98557 
 O                    -7.71068   12.65143  -2.20519 
 O                    -7.61268   13.43768  -0.10068 
 H                     5.66568  -2.09802   8.78564 
 H                     5.06596  -1.47697   10.34015 
 H                     6.79204  -1.3749    9.94829 
 H                     6.31688   0.22429   8.11346 
 H                     5.71975   0.84266   9.66127 
 H                     4.0009   -0.53405   7.52182 
 H                     3.4031    0.08501   9.07134 
 H                     4.07169   2.40235   8.40346 
 H                     4.66949   1.78329   6.85394 
 H                     1.76302   1.62554   7.82325 
 H                     2.36089   1.0064    6.27353 
 H                     3.02708   3.324     5.60433 
 H                     2.42908   3.94331   7.15452 
 H                     0.12217   3.16615   6.57472 
 H                     0.72001   2.5472    5.02496 
 H                     1.39032   4.86534   4.35741 
 H                     0.79269   5.48452   5.90751 
 H                    -0.91458   4.08534   3.78058 
 H                    -1.51215   4.70394   5.33021 
 H                    -0.26217   6.40604   3.10582 
 H                    -0.85981   7.02475   4.65537 
 H                    -3.1616    6.21359   4.09231 
 H                    -2.5637    5.59288   2.54287 
 H                    -1.94384   7.91391   1.85386 
 H                    -2.5464    8.53347   3.40052 
 H                    -4.84714   7.72478   2.82874 
 H                    -4.24669   7.09919   1.28524 
 H                    -3.58065   9.41879   0.60841 
 H                    -4.19073   10.03894   2.14862 
 H                    -5.87946   8.68561  -0.02224 
 H                    -6.49885   9.2784    1.52858 
 H                    -5.17408   11.02799  -0.61414 
 H                    -5.8209    11.59895   0.93568 
 H                    -7.43663   10.32477  -1.33466 
 H                    -8.12075   10.79167   0.21972 
 H                    -7.76995   14.35389  -0.40763 
 
 ITRead=  0  0  0  0  0  0  0  0  0  0  0  0  0  0  0  0  0  0  0  0
 ITRead=  0  0  0  0  0  0  0  0  0  0  0  0  0  0  0  0  0  0  0  0
 ITRead=  0  0  0  0  0  0  0  0  0  0  0  0  0  0  0  0
 MicOpt= -1 -1 -1 -1 -1 -1 -1 -1 -1 -1 -1 -1 -1 -1 -1 -1 -1 -1 -1 -1
 MicOpt= -1 -1 -1 -1 -1 -1 -1 -1 -1 -1 -1 -1 -1 -1 -1 -1 -1 -1 -1 -1
 MicOpt= -1 -1 -1 -1 -1 -1 -1 -1 -1 -1 -1 -1 -1 -1 -1 -1
 NAtoms=     56 NQM=       56 NQMF=       0 NMMI=      0 NMMIF=      0
                NMic=       0 NMicF=      0.
                    Isotopes and Nuclear Properties:
 (Nuclear quadrupole moments (NQMom) in fm**2, nuclear magnetic moments (NMagM)
  in nuclear magnetons)

  Atom         1           2           3           4           5           6           7           8           9          10
 IAtWgt=          12          12          12          12          12          12          12          12          12          12
 AtmWgt=  12.0000000  12.0000000  12.0000000  12.0000000  12.0000000  12.0000000  12.0000000  12.0000000  12.0000000  12.0000000
 NucSpn=           0           0           0           0           0           0           0           0           0           0
 AtZEff=  -0.0000000  -0.0000000  -0.0000000  -0.0000000  -0.0000000  -0.0000000  -0.0000000  -0.0000000  -0.0000000  -0.0000000
 NQMom=    0.0000000   0.0000000   0.0000000   0.0000000   0.0000000   0.0000000   0.0000000   0.0000000   0.0000000   0.0000000
 NMagM=    0.0000000   0.0000000   0.0000000   0.0000000   0.0000000   0.0000000   0.0000000   0.0000000   0.0000000   0.0000000
 AtZNuc=   6.0000000   6.0000000   6.0000000   6.0000000   6.0000000   6.0000000   6.0000000   6.0000000   6.0000000   6.0000000

  Atom        11          12          13          14          15          16          17          18          19          20
 IAtWgt=          12          12          12          12          12          12          12          12          16          16
 AtmWgt=  12.0000000  12.0000000  12.0000000  12.0000000  12.0000000  12.0000000  12.0000000  12.0000000  15.9949146  15.9949146
 NucSpn=           0           0           0           0           0           0           0           0           0           0
 AtZEff=  -0.0000000  -0.0000000  -0.0000000  -0.0000000  -0.0000000  -0.0000000  -0.0000000  -0.0000000  -0.0000000  -0.0000000
 NQMom=    0.0000000   0.0000000   0.0000000   0.0000000   0.0000000   0.0000000   0.0000000   0.0000000   0.0000000   0.0000000
 NMagM=    0.0000000   0.0000000   0.0000000   0.0000000   0.0000000   0.0000000   0.0000000   0.0000000   0.0000000   0.0000000
 AtZNuc=   6.0000000   6.0000000   6.0000000   6.0000000   6.0000000   6.0000000   6.0000000   6.0000000   8.0000000   8.0000000

  Atom        21          22          23          24          25          26          27          28          29          30
 IAtWgt=           1           1           1           1           1           1           1           1           1           1
 AtmWgt=   1.0078250   1.0078250   1.0078250   1.0078250   1.0078250   1.0078250   1.0078250   1.0078250   1.0078250   1.0078250
 NucSpn=           1           1           1           1           1           1           1           1           1           1
 AtZEff=  -0.0000000  -0.0000000  -0.0000000  -0.0000000  -0.0000000  -0.0000000  -0.0000000  -0.0000000  -0.0000000  -0.0000000
 NQMom=    0.0000000   0.0000000   0.0000000   0.0000000   0.0000000   0.0000000   0.0000000   0.0000000   0.0000000   0.0000000
 NMagM=    2.7928460   2.7928460   2.7928460   2.7928460   2.7928460   2.7928460   2.7928460   2.7928460   2.7928460   2.7928460
 AtZNuc=   1.0000000   1.0000000   1.0000000   1.0000000   1.0000000   1.0000000   1.0000000   1.0000000   1.0000000   1.0000000

  Atom        31          32          33          34          35          36          37          38          39          40
 IAtWgt=           1           1           1           1           1           1           1           1           1           1
 AtmWgt=   1.0078250   1.0078250   1.0078250   1.0078250   1.0078250   1.0078250   1.0078250   1.0078250   1.0078250   1.0078250
 NucSpn=           1           1           1           1           1           1           1           1           1           1
 AtZEff=  -0.0000000  -0.0000000  -0.0000000  -0.0000000  -0.0000000  -0.0000000  -0.0000000  -0.0000000  -0.0000000  -0.0000000
 NQMom=    0.0000000   0.0000000   0.0000000   0.0000000   0.0000000   0.0000000   0.0000000   0.0000000   0.0000000   0.0000000
 NMagM=    2.7928460   2.7928460   2.7928460   2.7928460   2.7928460   2.7928460   2.7928460   2.7928460   2.7928460   2.7928460
 AtZNuc=   1.0000000   1.0000000   1.0000000   1.0000000   1.0000000   1.0000000   1.0000000   1.0000000   1.0000000   1.0000000

  Atom        41          42          43          44          45          46          47          48          49          50
 IAtWgt=           1           1           1           1           1           1           1           1           1           1
 AtmWgt=   1.0078250   1.0078250   1.0078250   1.0078250   1.0078250   1.0078250   1.0078250   1.0078250   1.0078250   1.0078250
 NucSpn=           1           1           1           1           1           1           1           1           1           1
 AtZEff=  -0.0000000  -0.0000000  -0.0000000  -0.0000000  -0.0000000  -0.0000000  -0.0000000  -0.0000000  -0.0000000  -0.0000000
 NQMom=    0.0000000   0.0000000   0.0000000   0.0000000   0.0000000   0.0000000   0.0000000   0.0000000   0.0000000   0.0000000
 NMagM=    2.7928460   2.7928460   2.7928460   2.7928460   2.7928460   2.7928460   2.7928460   2.7928460   2.7928460   2.7928460
 AtZNuc=   1.0000000   1.0000000   1.0000000   1.0000000   1.0000000   1.0000000   1.0000000   1.0000000   1.0000000   1.0000000

  Atom        51          52          53          54          55          56
 IAtWgt=           1           1           1           1           1           1
 AtmWgt=   1.0078250   1.0078250   1.0078250   1.0078250   1.0078250   1.0078250
 NucSpn=           1           1           1           1           1           1
 AtZEff=  -0.0000000  -0.0000000  -0.0000000  -0.0000000  -0.0000000  -0.0000000
 NQMom=    0.0000000   0.0000000   0.0000000   0.0000000   0.0000000   0.0000000
 NMagM=    2.7928460   2.7928460   2.7928460   2.7928460   2.7928460   2.7928460
 AtZNuc=   1.0000000   1.0000000   1.0000000   1.0000000   1.0000000   1.0000000
 Leave Link  101 at Mon Feb 22 21:17:51 2021, MaxMem=   104857600 cpu:               3.6 elap:               0.1
 (Enter /sw/arch/RedHatEnterpriseServer7/EB_production/2019/software/Gaussian/g16.c01/l103.exe)

 GradGradGradGradGradGradGradGradGradGradGradGradGradGradGradGradGradGrad
 Berny optimization.
 Initialization pass.
                           ----------------------------
                           !    Initial Parameters    !
                           ! (Angstroms and Degrees)  !
 --------------------------                            --------------------------
 ! Name  Definition              Value          Derivative Info.                !
 --------------------------------------------------------------------------------
 ! R1    R(1,2)                  1.545          estimate D2E/DX2                !
 ! R2    R(1,21)                 1.0923         estimate D2E/DX2                !
 ! R3    R(1,22)                 1.0923         estimate D2E/DX2                !
 ! R4    R(1,23)                 1.0908         estimate D2E/DX2                !
 ! R5    R(2,3)                  1.5516         estimate D2E/DX2                !
 ! R6    R(2,24)                 1.0933         estimate D2E/DX2                !
 ! R7    R(2,25)                 1.0933         estimate D2E/DX2                !
 ! R8    R(3,4)                  1.5508         estimate D2E/DX2                !
 ! R9    R(3,26)                 1.0941         estimate D2E/DX2                !
 ! R10   R(3,27)                 1.0941         estimate D2E/DX2                !
 ! R11   R(4,5)                  1.5509         estimate D2E/DX2                !
 ! R12   R(4,28)                 1.0939         estimate D2E/DX2                !
 ! R13   R(4,29)                 1.0939         estimate D2E/DX2                !
 ! R14   R(5,6)                  1.5505         estimate D2E/DX2                !
 ! R15   R(5,30)                 1.0944         estimate D2E/DX2                !
 ! R16   R(5,31)                 1.0944         estimate D2E/DX2                !
 ! R17   R(6,7)                  1.5503         estimate D2E/DX2                !
 ! R18   R(6,32)                 1.0942         estimate D2E/DX2                !
 ! R19   R(6,33)                 1.0942         estimate D2E/DX2                !
 ! R20   R(7,8)                  1.549          estimate D2E/DX2                !
 ! R21   R(7,34)                 1.0942         estimate D2E/DX2                !
 ! R22   R(7,35)                 1.0942         estimate D2E/DX2                !
 ! R23   R(8,9)                  1.5488         estimate D2E/DX2                !
 ! R24   R(8,36)                 1.0939         estimate D2E/DX2                !
 ! R25   R(8,37)                 1.0939         estimate D2E/DX2                !
 ! R26   R(9,10)                 1.5488         estimate D2E/DX2                !
 ! R27   R(9,38)                 1.094          estimate D2E/DX2                !
 ! R28   R(9,39)                 1.094          estimate D2E/DX2                !
 ! R29   R(10,11)                1.5519         estimate D2E/DX2                !
 ! R30   R(10,40)                1.0943         estimate D2E/DX2                !
 ! R31   R(10,41)                1.0943         estimate D2E/DX2                !
 ! R32   R(11,12)                1.5491         estimate D2E/DX2                !
 ! R33   R(11,42)                1.0941         estimate D2E/DX2                !
 ! R34   R(11,43)                1.094          estimate D2E/DX2                !
 ! R35   R(12,13)                1.5539         estimate D2E/DX2                !
 ! R36   R(12,44)                1.0937         estimate D2E/DX2                !
 ! R37   R(12,45)                1.0939         estimate D2E/DX2                !
 ! R38   R(13,14)                1.5504         estimate D2E/DX2                !
 ! R39   R(13,46)                1.0936         estimate D2E/DX2                !
 ! R40   R(13,47)                1.0935         estimate D2E/DX2                !
 ! R41   R(14,15)                1.5516         estimate D2E/DX2                !
 ! R42   R(14,48)                1.0933         estimate D2E/DX2                !
 ! R43   R(14,49)                1.093          estimate D2E/DX2                !
 ! R44   R(15,16)                1.5526         estimate D2E/DX2                !
 ! R45   R(15,50)                1.0933         estimate D2E/DX2                !
 ! R46   R(15,51)                1.0932         estimate D2E/DX2                !
 ! R47   R(16,17)                1.5506         estimate D2E/DX2                !
 ! R48   R(16,52)                1.0951         estimate D2E/DX2                !
 ! R49   R(16,53)                1.0941         estimate D2E/DX2                !
 ! R50   R(17,18)                1.4786         estimate D2E/DX2                !
 ! R51   R(17,54)                1.0929         estimate D2E/DX2                !
 ! R52   R(17,55)                1.091          estimate D2E/DX2                !
 ! R53   R(18,19)                1.2522         estimate D2E/DX2                !
 ! R54   R(18,20)                1.3569         estimate D2E/DX2                !
 ! R55   R(20,56)                0.979          estimate D2E/DX2                !
 ! A1    A(2,1,21)             110.3865         estimate D2E/DX2                !
 ! A2    A(2,1,22)             110.3869         estimate D2E/DX2                !
 ! A3    A(2,1,23)             109.8389         estimate D2E/DX2                !
 ! A4    A(21,1,22)            108.9704         estimate D2E/DX2                !
 ! A5    A(21,1,23)            108.6061         estimate D2E/DX2                !
 ! A6    A(22,1,23)            108.6062         estimate D2E/DX2                !
 ! A7    A(1,2,3)              112.5357         estimate D2E/DX2                !
 ! A8    A(1,2,24)             108.6327         estimate D2E/DX2                !
 ! A9    A(1,2,25)             108.6321         estimate D2E/DX2                !
 ! A10   A(3,2,24)             109.4052         estimate D2E/DX2                !
 ! A11   A(3,2,25)             109.4053         estimate D2E/DX2                !
 ! A12   A(24,2,25)            108.1286         estimate D2E/DX2                !
 ! A13   A(2,3,4)              112.6446         estimate D2E/DX2                !
 ! A14   A(2,3,26)             109.0371         estimate D2E/DX2                !
 ! A15   A(2,3,27)             109.0373         estimate D2E/DX2                !
 ! A16   A(4,3,26)             108.9149         estimate D2E/DX2                !
 ! A17   A(4,3,27)             108.9149         estimate D2E/DX2                !
 ! A18   A(26,3,27)            108.1954         estimate D2E/DX2                !
 ! A19   A(3,4,5)              112.2575         estimate D2E/DX2                !
 ! A20   A(3,4,28)             109.1375         estimate D2E/DX2                !
 ! A21   A(3,4,29)             109.1378         estimate D2E/DX2                !
 ! A22   A(5,4,28)             109.0028         estimate D2E/DX2                !
 ! A23   A(5,4,29)             109.0029         estimate D2E/DX2                !
 ! A24   A(28,4,29)            108.2189         estimate D2E/DX2                !
 ! A25   A(4,5,6)              112.3274         estimate D2E/DX2                !
 ! A26   A(4,5,30)             109.141          estimate D2E/DX2                !
 ! A27   A(4,5,31)             109.1413         estimate D2E/DX2                !
 ! A28   A(6,5,30)             108.9879         estimate D2E/DX2                !
 ! A29   A(6,5,31)             108.9882         estimate D2E/DX2                !
 ! A30   A(30,5,31)            108.1671         estimate D2E/DX2                !
 ! A31   A(5,6,7)              112.3399         estimate D2E/DX2                !
 ! A32   A(5,6,32)             109.0615         estimate D2E/DX2                !
 ! A33   A(5,6,33)             109.0606         estimate D2E/DX2                !
 ! A34   A(7,6,32)             109.0219         estimate D2E/DX2                !
 ! A35   A(7,6,33)             109.0211         estimate D2E/DX2                !
 ! A36   A(32,6,33)            108.2515         estimate D2E/DX2                !
 ! A37   A(6,7,8)              112.1311         estimate D2E/DX2                !
 ! A38   A(6,7,34)             109.0423         estimate D2E/DX2                !
 ! A39   A(6,7,35)             109.0421         estimate D2E/DX2                !
 ! A40   A(8,7,34)             109.1766         estimate D2E/DX2                !
 ! A41   A(8,7,35)             109.1763         estimate D2E/DX2                !
 ! A42   A(34,7,35)            108.1916         estimate D2E/DX2                !
 ! A43   A(7,8,9)              112.0367         estimate D2E/DX2                !
 ! A44   A(7,8,36)             109.1365         estimate D2E/DX2                !
 ! A45   A(7,8,37)             109.1385         estimate D2E/DX2                !
 ! A46   A(9,8,36)             109.098          estimate D2E/DX2                !
 ! A47   A(9,8,37)             109.0964         estimate D2E/DX2                !
 ! A48   A(36,8,37)            108.2597         estimate D2E/DX2                !
 ! A49   A(8,9,10)             112.5426         estimate D2E/DX2                !
 ! A50   A(8,9,38)             108.9711         estimate D2E/DX2                !
 ! A51   A(8,9,39)             108.9771         estimate D2E/DX2                !
 ! A52   A(10,9,38)            109.0334         estimate D2E/DX2                !
 ! A53   A(10,9,39)            109.0309         estimate D2E/DX2                !
 ! A54   A(38,9,39)            108.1925         estimate D2E/DX2                !
 ! A55   A(9,10,11)            111.702          estimate D2E/DX2                !
 ! A56   A(9,10,40)            109.2028         estimate D2E/DX2                !
 ! A57   A(9,10,41)            109.2128         estimate D2E/DX2                !
 ! A58   A(11,10,40)           109.2498         estimate D2E/DX2                !
 ! A59   A(11,10,41)           109.2566         estimate D2E/DX2                !
 ! A60   A(40,10,41)           108.1468         estimate D2E/DX2                !
 ! A61   A(10,11,12)           112.7222         estimate D2E/DX2                !
 ! A62   A(10,11,42)           108.8959         estimate D2E/DX2                !
 ! A63   A(10,11,43)           108.8798         estimate D2E/DX2                !
 ! A64   A(12,11,42)           109.0219         estimate D2E/DX2                !
 ! A65   A(12,11,43)           108.9798         estimate D2E/DX2                !
 ! A66   A(42,11,43)           108.2447         estimate D2E/DX2                !
 ! A67   A(11,12,13)           112.8118         estimate D2E/DX2                !
 ! A68   A(11,12,44)           108.8252         estimate D2E/DX2                !
 ! A69   A(11,12,45)           108.8305         estimate D2E/DX2                !
 ! A70   A(13,12,44)           109.0209         estimate D2E/DX2                !
 ! A71   A(13,12,45)           109.0758         estimate D2E/DX2                !
 ! A72   A(44,12,45)           108.1732         estimate D2E/DX2                !
 ! A73   A(12,13,14)           111.7141         estimate D2E/DX2                !
 ! A74   A(12,13,46)           109.0317         estimate D2E/DX2                !
 ! A75   A(12,13,47)           109.1019         estimate D2E/DX2                !
 ! A76   A(14,13,46)           109.4377         estimate D2E/DX2                !
 ! A77   A(14,13,47)           109.3942         estimate D2E/DX2                !
 ! A78   A(46,13,47)           108.0878         estimate D2E/DX2                !
 ! A79   A(13,14,15)           113.6894         estimate D2E/DX2                !
 ! A80   A(13,14,48)           108.7456         estimate D2E/DX2                !
 ! A81   A(13,14,49)           108.5906         estimate D2E/DX2                !
 ! A82   A(15,14,48)           108.7442         estimate D2E/DX2                !
 ! A83   A(15,14,49)           108.9137         estimate D2E/DX2                !
 ! A84   A(48,14,49)           108.013          estimate D2E/DX2                !
 ! A85   A(14,15,16)           112.2429         estimate D2E/DX2                !
 ! A86   A(14,15,50)           109.0905         estimate D2E/DX2                !
 ! A87   A(14,15,51)           108.9888         estimate D2E/DX2                !
 ! A88   A(16,15,50)           109.3261         estimate D2E/DX2                !
 ! A89   A(16,15,51)           108.8362         estimate D2E/DX2                !
 ! A90   A(50,15,51)           108.2751         estimate D2E/DX2                !
 ! A91   A(15,16,17)           112.7072         estimate D2E/DX2                !
 ! A92   A(15,16,52)           109.0903         estimate D2E/DX2                !
 ! A93   A(15,16,53)           108.7196         estimate D2E/DX2                !
 ! A94   A(17,16,52)           108.9348         estimate D2E/DX2                !
 ! A95   A(17,16,53)           109.0542         estimate D2E/DX2                !
 ! A96   A(52,16,53)           108.2384         estimate D2E/DX2                !
 ! A97   A(16,17,18)           112.1523         estimate D2E/DX2                !
 ! A98   A(16,17,54)           108.8943         estimate D2E/DX2                !
 ! A99   A(16,17,55)           109.9316         estimate D2E/DX2                !
 ! A100  A(18,17,54)           110.0194         estimate D2E/DX2                !
 ! A101  A(18,17,55)           108.2292         estimate D2E/DX2                !
 ! A102  A(54,17,55)           107.5059         estimate D2E/DX2                !
 ! A103  A(17,18,19)           120.9465         estimate D2E/DX2                !
 ! A104  A(17,18,20)           120.0469         estimate D2E/DX2                !
 ! A105  A(19,18,20)           119.0054         estimate D2E/DX2                !
 ! A106  A(18,20,56)           120.6777         estimate D2E/DX2                !
 ! D1    D(21,1,2,3)            60.2685         estimate D2E/DX2                !
 ! D2    D(21,1,2,24)          -61.0314         estimate D2E/DX2                !
 ! D3    D(21,1,2,25)         -178.4317         estimate D2E/DX2                !
 ! D4    D(22,1,2,3)           -60.2681         estimate D2E/DX2                !
 ! D5    D(22,1,2,24)          178.432          estimate D2E/DX2                !
 ! D6    D(22,1,2,25)           61.0317         estimate D2E/DX2                !
 ! D7    D(23,1,2,3)          -179.9999         estimate D2E/DX2                !
 ! D8    D(23,1,2,24)           58.7002         estimate D2E/DX2                !
 ! D9    D(23,1,2,25)          -58.7001         estimate D2E/DX2                !
 ! D10   D(1,2,3,4)           -179.9999         estimate D2E/DX2                !
 ! D11   D(1,2,3,26)           -58.9684         estimate D2E/DX2                !
 ! D12   D(1,2,3,27)            58.9685         estimate D2E/DX2                !
 ! D13   D(24,2,3,4)           -59.1418         estimate D2E/DX2                !
 ! D14   D(24,2,3,26)           61.8897         estimate D2E/DX2                !
 ! D15   D(24,2,3,27)          179.8267         estimate D2E/DX2                !
 ! D16   D(25,2,3,4)            59.1425         estimate D2E/DX2                !
 ! D17   D(25,2,3,26)         -179.826          estimate D2E/DX2                !
 ! D18   D(25,2,3,27)          -61.8891         estimate D2E/DX2                !
 ! D19   D(2,3,4,5)            179.9998         estimate D2E/DX2                !
 ! D20   D(2,3,4,28)           -59.0409         estimate D2E/DX2                !
 ! D21   D(2,3,4,29)            59.04           estimate D2E/DX2                !
 ! D22   D(26,3,4,5)            58.8985         estimate D2E/DX2                !
 ! D23   D(26,3,4,28)          179.8579         estimate D2E/DX2                !
 ! D24   D(26,3,4,29)          -62.0612         estimate D2E/DX2                !
 ! D25   D(27,3,4,5)           -58.8988         estimate D2E/DX2                !
 ! D26   D(27,3,4,28)           62.0605         estimate D2E/DX2                !
 ! D27   D(27,3,4,29)         -179.8585         estimate D2E/DX2                !
 ! D28   D(3,4,5,6)            179.9996         estimate D2E/DX2                !
 ! D29   D(3,4,5,30)            59.0111         estimate D2E/DX2                !
 ! D30   D(3,4,5,31)           -59.0113         estimate D2E/DX2                !
 ! D31   D(28,4,5,6)            58.9627         estimate D2E/DX2                !
 ! D32   D(28,4,5,30)          -62.0257         estimate D2E/DX2                !
 ! D33   D(28,4,5,31)          179.9518         estimate D2E/DX2                !
 ! D34   D(29,4,5,6)           -58.9631         estimate D2E/DX2                !
 ! D35   D(29,4,5,30)         -179.9516         estimate D2E/DX2                !
 ! D36   D(29,4,5,31)           62.026          estimate D2E/DX2                !
 ! D37   D(4,5,6,7)           -179.9975         estimate D2E/DX2                !
 ! D38   D(4,5,6,32)            59.0176         estimate D2E/DX2                !
 ! D39   D(4,5,6,33)           -59.0143         estimate D2E/DX2                !
 ! D40   D(30,5,6,7)           -58.9211         estimate D2E/DX2                !
 ! D41   D(30,5,6,32)         -179.906          estimate D2E/DX2                !
 ! D42   D(30,5,6,33)           62.0621         estimate D2E/DX2                !
 ! D43   D(31,5,6,7)            58.9255         estimate D2E/DX2                !
 ! D44   D(31,5,6,32)          -62.0594         estimate D2E/DX2                !
 ! D45   D(31,5,6,33)          179.9087         estimate D2E/DX2                !
 ! D46   D(5,6,7,8)            179.9937         estimate D2E/DX2                !
 ! D47   D(5,6,7,34)            58.9624         estimate D2E/DX2                !
 ! D48   D(5,6,7,35)           -58.9756         estimate D2E/DX2                !
 ! D49   D(32,6,7,8)           -58.9987         estimate D2E/DX2                !
 ! D50   D(32,6,7,34)          179.9701         estimate D2E/DX2                !
 ! D51   D(32,6,7,35)           62.0321         estimate D2E/DX2                !
 ! D52   D(33,6,7,8)            58.9877         estimate D2E/DX2                !
 ! D53   D(33,6,7,34)          -62.0436         estimate D2E/DX2                !
 ! D54   D(33,6,7,35)         -179.9816         estimate D2E/DX2                !
 ! D55   D(6,7,8,9)           -179.9884         estimate D2E/DX2                !
 ! D56   D(6,7,8,36)            59.0763         estimate D2E/DX2                !
 ! D57   D(6,7,8,37)           -59.0537         estimate D2E/DX2                !
 ! D58   D(34,7,8,9)           -59.0346         estimate D2E/DX2                !
 ! D59   D(34,7,8,36)         -179.97           estimate D2E/DX2                !
 ! D60   D(34,7,8,37)           61.9001         estimate D2E/DX2                !
 ! D61   D(35,7,8,9)            59.0583         estimate D2E/DX2                !
 ! D62   D(35,7,8,36)          -61.877          estimate D2E/DX2                !
 ! D63   D(35,7,8,37)          179.993          estimate D2E/DX2                !
 ! D64   D(7,8,9,10)           179.9879         estimate D2E/DX2                !
 ! D65   D(7,8,9,38)           -58.9432         estimate D2E/DX2                !
 ! D66   D(7,8,9,39)            58.918          estimate D2E/DX2                !
 ! D67   D(36,8,9,10)          -59.0545         estimate D2E/DX2                !
 ! D68   D(36,8,9,38)           62.0144         estimate D2E/DX2                !
 ! D69   D(36,8,9,39)          179.8756         estimate D2E/DX2                !
 ! D70   D(37,8,9,10)           59.0288         estimate D2E/DX2                !
 ! D71   D(37,8,9,38)         -179.9022         estimate D2E/DX2                !
 ! D72   D(37,8,9,39)          -62.041          estimate D2E/DX2                !
 ! D73   D(8,9,10,11)          179.9882         estimate D2E/DX2                !
 ! D74   D(8,9,10,40)           59.0334         estimate D2E/DX2                !
 ! D75   D(8,9,10,41)          -59.0419         estimate D2E/DX2                !
 ! D76   D(38,9,10,11)          58.9548         estimate D2E/DX2                !
 ! D77   D(38,9,10,40)         -61.9999         estimate D2E/DX2                !
 ! D78   D(38,9,10,41)         179.9248         estimate D2E/DX2                !
 ! D79   D(39,9,10,11)         -58.9727         estimate D2E/DX2                !
 ! D80   D(39,9,10,40)        -179.9275         estimate D2E/DX2                !
 ! D81   D(39,9,10,41)          61.9973         estimate D2E/DX2                !
 ! D82   D(9,10,11,12)        -179.9005         estimate D2E/DX2                !
 ! D83   D(9,10,11,42)          58.9802         estimate D2E/DX2                !
 ! D84   D(9,10,11,43)         -58.8455         estimate D2E/DX2                !
 ! D85   D(40,10,11,12)        -58.9731         estimate D2E/DX2                !
 ! D86   D(40,10,11,42)        179.9076         estimate D2E/DX2                !
 ! D87   D(40,10,11,43)         62.0819         estimate D2E/DX2                !
 ! D88   D(41,10,11,12)         59.155          estimate D2E/DX2                !
 ! D89   D(41,10,11,42)        -61.9644         estimate D2E/DX2                !
 ! D90   D(41,10,11,43)       -179.7901         estimate D2E/DX2                !
 ! D91   D(10,11,12,13)        179.7685         estimate D2E/DX2                !
 ! D92   D(10,11,12,44)         58.6412         estimate D2E/DX2                !
 ! D93   D(10,11,12,45)        -59.031          estimate D2E/DX2                !
 ! D94   D(42,11,12,13)        -59.184          estimate D2E/DX2                !
 ! D95   D(42,11,12,44)        179.6887         estimate D2E/DX2                !
 ! D96   D(42,11,12,45)         62.0165         estimate D2E/DX2                !
 ! D97   D(43,11,12,13)         58.7706         estimate D2E/DX2                !
 ! D98   D(43,11,12,44)        -62.3568         estimate D2E/DX2                !
 ! D99   D(43,11,12,45)        179.9711         estimate D2E/DX2                !
 ! D100  D(11,12,13,14)       -179.743          estimate D2E/DX2                !
 ! D101  D(11,12,13,46)         59.174          estimate D2E/DX2                !
 ! D102  D(11,12,13,47)        -58.6673         estimate D2E/DX2                !
 ! D103  D(44,12,13,14)        -58.7271         estimate D2E/DX2                !
 ! D104  D(44,12,13,46)       -179.81           estimate D2E/DX2                !
 ! D105  D(44,12,13,47)         62.3486         estimate D2E/DX2                !
 ! D106  D(45,12,13,14)         59.196          estimate D2E/DX2                !
 ! D107  D(45,12,13,46)        -61.887          estimate D2E/DX2                !
 ! D108  D(45,12,13,47)       -179.7283         estimate D2E/DX2                !
 ! D109  D(12,13,14,15)        179.6047         estimate D2E/DX2                !
 ! D110  D(12,13,14,48)         58.3082         estimate D2E/DX2                !
 ! D111  D(12,13,14,49)        -58.9938         estimate D2E/DX2                !
 ! D112  D(46,13,14,15)        -59.5484         estimate D2E/DX2                !
 ! D113  D(46,13,14,48)        179.1551         estimate D2E/DX2                !
 ! D114  D(46,13,14,49)         61.8531         estimate D2E/DX2                !
 ! D115  D(47,13,14,15)         58.6989         estimate D2E/DX2                !
 ! D116  D(47,13,14,48)        -62.5975         estimate D2E/DX2                !
 ! D117  D(47,13,14,49)       -179.8996         estimate D2E/DX2                !
 ! D118  D(13,14,15,16)        178.6156         estimate D2E/DX2                !
 ! D119  D(13,14,15,50)        -60.0588         estimate D2E/DX2                !
 ! D120  D(13,14,15,51)         57.9768         estimate D2E/DX2                !
 ! D121  D(48,14,15,16)        -60.0871         estimate D2E/DX2                !
 ! D122  D(48,14,15,50)         61.2385         estimate D2E/DX2                !
 ! D123  D(48,14,15,51)        179.2741         estimate D2E/DX2                !
 ! D124  D(49,14,15,16)         57.3945         estimate D2E/DX2                !
 ! D125  D(49,14,15,50)        178.7201         estimate D2E/DX2                !
 ! D126  D(49,14,15,51)        -63.2443         estimate D2E/DX2                !
 ! D127  D(14,15,16,17)        179.205          estimate D2E/DX2                !
 ! D128  D(14,15,16,52)         58.0703         estimate D2E/DX2                !
 ! D129  D(14,15,16,53)        -59.7669         estimate D2E/DX2                !
 ! D130  D(50,15,16,17)         58.0146         estimate D2E/DX2                !
 ! D131  D(50,15,16,52)        -63.1201         estimate D2E/DX2                !
 ! D132  D(50,15,16,53)        179.0427         estimate D2E/DX2                !
 ! D133  D(51,15,16,17)        -60.0681         estimate D2E/DX2                !
 ! D134  D(51,15,16,52)        178.7972         estimate D2E/DX2                !
 ! D135  D(51,15,16,53)         60.96           estimate D2E/DX2                !
 ! D136  D(15,16,17,18)        175.3574         estimate D2E/DX2                !
 ! D137  D(15,16,17,54)        -62.636          estimate D2E/DX2                !
 ! D138  D(15,16,17,55)         54.8999         estimate D2E/DX2                !
 ! D139  D(52,16,17,18)        -63.4193         estimate D2E/DX2                !
 ! D140  D(52,16,17,54)         58.5872         estimate D2E/DX2                !
 ! D141  D(52,16,17,55)        176.1232         estimate D2E/DX2                !
 ! D142  D(53,16,17,18)         54.5204         estimate D2E/DX2                !
 ! D143  D(53,16,17,54)        176.5269         estimate D2E/DX2                !
 ! D144  D(53,16,17,55)        -65.9371         estimate D2E/DX2                !
 ! D145  D(16,17,18,19)        115.6353         estimate D2E/DX2                !
 ! D146  D(16,17,18,20)        -64.7688         estimate D2E/DX2                !
 ! D147  D(54,17,18,19)         -5.7273         estimate D2E/DX2                !
 ! D148  D(54,17,18,20)        173.8686         estimate D2E/DX2                !
 ! D149  D(55,17,18,19)       -122.9252         estimate D2E/DX2                !
 ! D150  D(55,17,18,20)         56.6708         estimate D2E/DX2                !
 ! D151  D(17,18,20,56)       -179.1994         estimate D2E/DX2                !
 ! D152  D(19,18,20,56)          0.4043         estimate D2E/DX2                !
 --------------------------------------------------------------------------------
 Trust Radius=3.00D-01 FncErr=1.00D-07 GrdErr=1.00D-06 EigMax=2.50D+02 EigMin=1.00D-04
 Number of steps in this run=    323 maximum allowed number of steps=    336.
 GradGradGradGradGradGradGradGradGradGradGradGradGradGradGradGradGradGrad

 Leave Link  103 at Mon Feb 22 21:17:51 2021, MaxMem=   104857600 cpu:               1.7 elap:               0.1
 (Enter /sw/arch/RedHatEnterpriseServer7/EB_production/2019/software/Gaussian/g16.c01/l202.exe)
 Stoichiometry    C18H36O2
 Framework group  C1[X(C18H36O2)]
 Deg. of freedom   162
 Full point group                 C1      NOp   1
 Largest Abelian subgroup         C1      NOp   1
 Largest concise Abelian subgroup C1      NOp   1
                         Standard orientation:                         
 ---------------------------------------------------------------------
 Center     Atomic      Atomic             Coordinates (Angstroms)
 Number     Number       Type             X           Y           Z
 ---------------------------------------------------------------------
      1          6           0      -11.953866   -0.228909   -0.115725
      2          6           0      -10.655311    0.560760    0.162191
      3          6           0       -9.379003   -0.276064   -0.117625
      4          6           0       -8.073977    0.514222    0.160542
      5          6           0       -6.804257   -0.330334   -0.121955
      6          6           0       -5.498474    0.458287    0.155634
      7          6           0       -4.229047   -0.385662   -0.126721
      8          6           0       -2.927597    0.406735    0.151971
      9          6           0       -1.660851   -0.438285   -0.131074
     10          6           0       -0.352186    0.343205    0.143595
     11          6           0        0.903808   -0.521073   -0.145791
     12          6           0        2.227264    0.237572    0.123755
     13          6           0        3.486336   -0.627887   -0.159897
     14          6           0        4.795121    0.153201    0.123985
     15          6           0        6.082764   -0.672737   -0.135364
     16          6           0        7.372292    0.151461    0.126138
     17          6           0        8.665994   -0.669853   -0.110932
     18          6           0        9.884483    0.154965    0.034289
     19          8           0       10.712556   -0.074431    0.945106
     20          8           0       10.123195    1.172549   -0.830971
     21          1           0      -12.003212   -1.115897    0.519814
     22          1           0      -11.993894   -0.539250   -1.162226
     23          1           0      -12.820969    0.398639    0.094611
     24          1           0      -10.657977    0.880649    1.207679
     25          1           0      -10.648705    1.454811   -0.467108
     26          1           0       -9.393284   -1.170279    0.512606
     27          1           0       -9.383990   -0.595483   -1.164038
     28          1           0       -8.054744    1.408082   -0.469795
     29          1           0       -8.064038    0.833286    1.206849
     30          1           0       -6.811477   -0.650070   -1.168601
     31          1           0       -6.820767   -1.224945    0.508256
     32          1           0       -5.489227    0.777119    1.202266
     33          1           0       -5.479978    1.352183   -0.475070
     34          1           0       -4.238223   -0.705147   -1.173224
     35          1           0       -4.247358   -1.279901    0.503631
     36          1           0       -2.918853    0.725342    1.198458
     37          1           0       -2.909871    1.300487   -0.478588
     38          1           0       -1.681529   -1.332270    0.499203
     39          1           0       -1.672715   -0.757674   -1.177363
     40          1           0       -0.336800    0.662986    1.190033
     41          1           0       -0.327836    1.237607   -0.486515
     42          1           0        0.881752   -0.838865   -1.192502
     43          1           0        0.871343   -1.414874    0.484291
     44          1           0        2.243461    0.558525    1.169222
     45          1           0        2.257411    1.130266   -0.507682
     46          1           0        3.472056   -0.946077   -1.206076
     47          1           0        3.454195   -1.522849    0.467636
     48          1           0        4.790727    0.478603    1.167723
     49          1           0        4.812839    1.044831   -0.507964
     50          1           0        6.078932   -1.553737    0.512037
     51          1           0        6.084924   -1.011210   -1.174888
     52          1           0        7.364068    0.510831    1.160602
     53          1           0        7.374246    1.020663   -0.538303
     54          1           0        8.691266   -1.502436    0.596594
     55          1           0        8.658527   -1.093617   -1.116272
     56          1           0       10.932746    1.717107   -0.750481
 ---------------------------------------------------------------------
 Rotational constants (GHZ):           3.1118703           0.0334408           0.0333374
 Leave Link  202 at Mon Feb 22 21:17:51 2021, MaxMem=   104857600 cpu:               0.9 elap:               0.1
 (Enter /sw/arch/RedHatEnterpriseServer7/EB_production/2019/software/Gaussian/g16.c01/l301.exe)
 Standard basis: TZVP (5D, 7F)
 Ernie: Thresh=  0.10000D-02 Tol=  0.10000D-05 Strict=F.
 There are   616 symmetry adapted cartesian basis functions of A   symmetry.
 There are   596 symmetry adapted basis functions of A   symmetry.
   596 basis functions,   988 primitive gaussians,   616 cartesian basis functions
    80 alpha electrons       80 beta electrons
       nuclear repulsion energy      1345.8861542513 Hartrees.
 IExCor=  404 DFT=T Ex=B Corr=P86 ExCW=0 ScaHFX=  0.000000
 ScaDFX=  1.000000  1.000000  1.000000  1.000000 ScalE2=  1.000000  1.000000
 IRadAn=      5 IRanWt=     -1 IRanGd=            0 ICorTp=0 IEmpDi=131
 NAtoms=   56 NActive=   56 NUniq=   56 SFac= 1.00D+00 NAtFMM=   60 NAOKFM=F Big=F
 Integral buffers will be    131072 words long.
 Raffenetti 2 integral format.
 Two-electron integral symmetry is turned on.
 R6Disp:  Grimme-D3 Dispersion energy=       -0.0540643009 Hartrees.
 Nuclear repulsion after empirical dispersion term =     1345.8320899504 Hartrees.
 ------------------------------------------------------------------------------
 Polarizable Continuum Model (PCM)
 =================================
 Model                : PCM.
 Atomic radii         : UFF (Universal Force Field).
 Polarization charges : Total charges.
 Charge compensation  : None.
 Solution method      : On-the-fly selection.
 Cavity type          : Scaled VdW (van der Waals Surface) (Alpha=1.100).
 Cavity algorithm     : GePol (No added spheres)
                        Default sphere list used, NSphG=   56.
                        Lebedev-Laikov grids with approx.  5.0 points / Ang**2.
                        Smoothing algorithm: York/Karplus (Gamma=1.0000).
                        Polarization charges: spherical gaussians, with
                                              point-specific exponents (IZeta= 3).
                        Self-potential: point-specific (ISelfS= 7).
                        Self-field    : sphere-specific E.n sum rule (ISelfD= 2).
 1st derivatives      : Analytical E(r).r(x)/FMM algorithm (CHGder, D1EAlg=3).
                        Cavity 1st derivative terms included.
 Solvent              : Water, Eps=  78.355300 Eps(inf)=   1.777849
 ------------------------------------------------------------------------------
 GePol: Number of generator spheres                  =      56
 GePol: Total number of spheres                      =      56
 GePol: Number of exposed spheres                    =      56 (100.00%)
 GePol: Number of points                             =    3873
 GePol: Average weight of points                     =       0.13
 GePol: Minimum weight of points                     =   0.10D-11
 GePol: Maximum weight of points                     =    0.20577
 GePol: Number of points with low weight             =     268
 GePol: Fraction of low-weight points (<1% of avg)   =       6.92%
 GePol: Cavity surface area                          =    496.214 Ang**2
 GePol: Cavity volume                                =    506.892 Ang**3
 Leave Link  301 at Mon Feb 22 21:17:52 2021, MaxMem=   104857600 cpu:              17.6 elap:               0.6
 (Enter /sw/arch/RedHatEnterpriseServer7/EB_production/2019/software/Gaussian/g16.c01/l302.exe)
 NPDir=0 NMtPBC=     1 NCelOv=     1 NCel=       1 NClECP=     1 NCelD=      1
         NCelK=      1 NCelE2=     1 NClLst=     1 CellRange=     0.0.
 One-electron integrals computed using PRISM.
 One-electron integral symmetry used in STVInt
 PrsmSu:  requested number of processors reduced to:  23 ShMem   1 Linda.
 NBasis=   596 RedAO= T EigKep=  4.51D-05  NBF=   596
 NBsUse=   596 1.00D-06 EigRej= -1.00D+00 NBFU=   596
 Precomputing XC quadrature grid using
 IXCGrd= 4 IRadAn=           5 IRanWt=          -1 IRanGd=           0 AccXCQ= 0.00D+00.
 Generated NRdTot=       0 NPtTot=           0 NUsed=           0 NTot=          32
 NSgBfM=   481   481   481   481   481 MxSgAt=    56 MxSgA2=    56.
 Leave Link  302 at Mon Feb 22 21:17:53 2021, MaxMem=   104857600 cpu:              26.0 elap:               0.9
 (Enter /sw/arch/RedHatEnterpriseServer7/EB_production/2019/software/Gaussian/g16.c01/l303.exe)
 DipDrv:  MaxL=1.
 Leave Link  303 at Mon Feb 22 21:17:53 2021, MaxMem=   104857600 cpu:               3.2 elap:               0.1
 (Enter /sw/arch/RedHatEnterpriseServer7/EB_production/2019/software/Gaussian/g16.c01/l401.exe)
 ExpMin= 9.52D-02 ExpMax= 2.70D+04 ExpMxC= 9.22D+02 IAcc=3 IRadAn=         5 AccDes= 0.00D+00
 Harris functional with IExCor=  404 and IRadAn=       5 diagonalized for initial guess.
 HarFok:  IExCor=  404 AccDes= 0.00D+00 IRadAn=         5 IDoV= 1 UseB2=F ITyADJ=14
 ICtDFT=  3500011 ScaDFX=  1.000000  1.000000  1.000000  1.000000
 FoFCou: FMM=F IPFlag=           0 FMFlag=      100000 FMFlg1=           0
         NFxFlg=           0 DoJE=T BraDBF=F KetDBF=T FulRan=T
         wScrn=  0.000000 ICntrl=       500 IOpCl=  0 I1Cent=   200000004 NGrid=           0
         NMat0=    1 NMatS0=      1 NMatT0=    0 NMatD0=    1 NMtDS0=    0 NMtDT0=    0
 Petite list used in FoFCou.
 Harris En= -858.997118426443    
 JPrj=0 DoOrth=F DoCkMO=F.
 Leave Link  401 at Mon Feb 22 21:17:55 2021, MaxMem=   104857600 cpu:              39.6 elap:               1.3
 (Enter /sw/arch/RedHatEnterpriseServer7/EB_production/2019/software/Gaussian/g16.c01/l502.exe)
 Integral symmetry usage will be decided dynamically.
 Closed shell SCF:
 Using DIIS extrapolation, IDIIS=  1040.
 NGot=   104857600 LenX=   104071170 LenY=   103691098
 Requested convergence on RMS density matrix=1.00D-08 within 128 cycles.
 Requested convergence on MAX density matrix=1.00D-06.
 Requested convergence on             energy=1.00D-06.
 No special actions if energy rises.
 Fock matrices will be formed incrementally for  20 cycles.

 Cycle   1  Pass 1  IDiag  1:
 FoFJK:  IHMeth= 1 ICntrl=     500 DoSepK=F KAlg= 0 I1Cent=           0 FoldK=F
 IRaf= 540000000 NMat=       1 IRICut=       1 DoRegI=T DoRafI=F ISym2E= 0 IDoP0=0 IntGTp=1.
 FoFCou: FMM=F IPFlag=           0 FMFlag=      100000 FMFlg1=           0
         NFxFlg=           0 DoJE=T BraDBF=F KetDBF=F FulRan=T
         wScrn=  0.000000 ICntrl=       500 IOpCl=  0 I1Cent=           0 NGrid=           0
         NMat0=    1 NMatS0=      1 NMatT0=    0 NMatD0=    1 NMtDS0=    0 NMtDT0=    0
 Symmetry not used in FoFCou.
 CoulSu:  requested number of processors reduced to:  28 ShMem   1 Linda.
 Inv3:  Mode=1 IEnd=    45000387.
 Iteration    1 A*A^-1 deviation from unit magnitude is 3.77D-15 for    640.
 Iteration    1 A*A^-1 deviation from orthogonality  is 1.96D-15 for   3655   2479.
 Iteration    1 A^-1*A deviation from unit magnitude is 3.11D-15 for    762.
 Iteration    1 A^-1*A deviation from orthogonality  is 2.00D-15 for   3601   1147.
 CoulSu:  requested number of processors reduced to:  28 ShMem   1 Linda.
 CoulSu:  requested number of processors reduced to:  28 ShMem   1 Linda.
 E= -857.683797263675    
 DIIS: error= 3.51D-02 at cycle   1 NSaved=   1.
 NSaved= 1 IEnMin= 1 EnMin= -857.683797263675     IErMin= 1 ErrMin= 3.51D-02
 ErrMax= 3.51D-02  0.00D+00 EMaxC= 1.00D-01 BMatC= 7.00D-01 BMatP= 7.00D-01
 IDIUse=3 WtCom= 6.49D-01 WtEn= 3.51D-01
 Coeff-Com:  0.100D+01
 Coeff-En:   0.100D+01
 Coeff:      0.100D+01
 Gap=     0.064 Goal=   None    Shift=    0.000
 GapD=    0.064 DampG=0.500 DampE=0.500 DampFc=0.2500 IDamp=-1.
 Damping current iteration by 2.50D-01
 RMSDP=4.48D-03 MaxDP=6.03D-01              OVMax= 2.51D-01

 Cycle   2  Pass 1  IDiag  1:
 RMSU=  1.12D-03    CP:  9.87D-01
 E= -857.950848085642     Delta-E=       -0.267050821968 Rises=F Damp=T
 DIIS: error= 1.44D-02 at cycle   2 NSaved=   2.
 NSaved= 2 IEnMin= 2 EnMin= -857.950848085642     IErMin= 2 ErrMin= 1.44D-02
 ErrMax= 1.44D-02  0.00D+00 EMaxC= 1.00D-01 BMatC= 1.12D-01 BMatP= 7.00D-01
 IDIUse=3 WtCom= 8.56D-01 WtEn= 1.44D-01
 Coeff-Com: -0.501D+00 0.150D+01
 Coeff-En:   0.000D+00 0.100D+01
 Coeff:     -0.428D+00 0.143D+01
 Gap=     0.155 Goal=   None    Shift=    0.000
 RMSDP=8.30D-04 MaxDP=7.02D-02 DE=-2.67D-01 OVMax= 2.20D-01

 Cycle   3  Pass 1  IDiag  1:
 RMSU=  8.20D-04    CP:  9.72D-01  1.06D+00
 E= -858.318076544947     Delta-E=       -0.367228459304 Rises=F Damp=F
 DIIS: error= 3.03D-02 at cycle   3 NSaved=   3.
 NSaved= 3 IEnMin= 3 EnMin= -858.318076544947     IErMin= 2 ErrMin= 1.44D-02
 ErrMax= 3.03D-02  0.00D+00 EMaxC= 1.00D-01 BMatC= 1.12D-01 BMatP= 1.12D-01
 IDIUse=3 WtCom= 6.97D-01 WtEn= 3.03D-01
 Coeff-Com: -0.340D+00 0.992D+00 0.349D+00
 Coeff-En:   0.000D+00 0.000D+00 0.100D+01
 Coeff:     -0.237D+00 0.692D+00 0.546D+00
 Gap=     0.195 Goal=   None    Shift=    0.000
 RMSDP=1.06D-03 MaxDP=1.31D-01 DE=-3.67D-01 OVMax= 2.57D-01

 Cycle   4  Pass 1  IDiag  1:
 RMSU=  6.77D-04    CP:  9.84D-01  1.34D+00  8.60D-02
 E= -858.306789950203     Delta-E=        0.011286594744 Rises=F Damp=F
 DIIS: error= 3.54D-02 at cycle   4 NSaved=   4.
 NSaved= 4 IEnMin= 3 EnMin= -858.318076544947     IErMin= 2 ErrMin= 1.44D-02
 ErrMax= 3.54D-02  0.00D+00 EMaxC= 1.00D-01 BMatC= 1.33D-01 BMatP= 1.12D-01
 IDIUse=2 WtCom= 0.00D+00 WtEn= 1.00D+00
 Coeff-En:   0.000D+00 0.000D+00 0.520D+00 0.480D+00
 Coeff:      0.000D+00 0.000D+00 0.520D+00 0.480D+00
 Gap=     0.177 Goal=   None    Shift=    0.000
 RMSDP=7.06D-04 MaxDP=1.11D-01 DE= 1.13D-02 OVMax= 1.31D-01

 Cycle   5  Pass 1  IDiag  1:
 RMSU=  1.67D-04    CP:  9.78D-01  9.98D-01  5.68D-01  3.91D-01
 E= -858.404770863052     Delta-E=       -0.097980912849 Rises=F Damp=F
 DIIS: error= 4.90D-03 at cycle   5 NSaved=   5.
 NSaved= 5 IEnMin= 5 EnMin= -858.404770863052     IErMin= 5 ErrMin= 4.90D-03
 ErrMax= 4.90D-03  0.00D+00 EMaxC= 1.00D-01 BMatC= 3.95D-03 BMatP= 1.12D-01
 IDIUse=3 WtCom= 9.51D-01 WtEn= 4.90D-02
 Coeff-Com: -0.300D-01 0.738D-01 0.266D+00 0.254D+00 0.437D+00
 Coeff-En:   0.000D+00 0.000D+00 0.000D+00 0.000D+00 0.100D+01
 Coeff:     -0.285D-01 0.702D-01 0.253D+00 0.241D+00 0.464D+00
 Gap=     0.179 Goal=   None    Shift=    0.000
 RMSDP=1.36D-04 MaxDP=1.46D-02 DE=-9.80D-02 OVMax= 1.76D-02

 Cycle   6  Pass 1  IDiag  1:
 RMSU=  6.51D-05    CP:  9.77D-01  1.09D+00  5.68D-01  4.51D-01  7.04D-01
 E= -858.407987482235     Delta-E=       -0.003216619183 Rises=F Damp=F
 DIIS: error= 1.70D-03 at cycle   6 NSaved=   6.
 NSaved= 6 IEnMin= 6 EnMin= -858.407987482235     IErMin= 6 ErrMin= 1.70D-03
 ErrMax= 1.70D-03  0.00D+00 EMaxC= 1.00D-01 BMatC= 5.04D-04 BMatP= 3.95D-03
 IDIUse=3 WtCom= 9.83D-01 WtEn= 1.70D-02
 Coeff-Com: -0.209D-01 0.229D-01 0.335D-01 0.401D-01 0.328D+00 0.596D+00
 Coeff-En:   0.000D+00 0.000D+00 0.000D+00 0.000D+00 0.645D-01 0.935D+00
 Coeff:     -0.206D-01 0.225D-01 0.329D-01 0.394D-01 0.324D+00 0.602D+00
 Gap=     0.178 Goal=   None    Shift=    0.000
 RMSDP=2.95D-05 MaxDP=2.35D-03 DE=-3.22D-03 OVMax= 3.20D-03

 Cycle   7  Pass 1  IDiag  1:
 RMSU=  1.68D-05    CP:  9.78D-01  1.08D+00  5.64D-01  4.51D-01  7.37D-01
                    CP:  6.56D-01
 E= -858.408353324692     Delta-E=       -0.000365842456 Rises=F Damp=F
 DIIS: error= 2.13D-04 at cycle   7 NSaved=   7.
 NSaved= 7 IEnMin= 7 EnMin= -858.408353324692     IErMin= 7 ErrMin= 2.13D-04
 ErrMax= 2.13D-04  0.00D+00 EMaxC= 1.00D-01 BMatC= 1.34D-05 BMatP= 5.04D-04
 IDIUse=3 WtCom= 9.98D-01 WtEn= 2.13D-03
 Coeff-Com: -0.955D-02 0.105D-01 0.100D-01 0.112D-01 0.141D+00 0.295D+00
 Coeff-Com:  0.542D+00
 Coeff-En:   0.000D+00 0.000D+00 0.000D+00 0.000D+00 0.000D+00 0.000D+00
 Coeff-En:   0.100D+01
 Coeff:     -0.953D-02 0.105D-01 0.100D-01 0.112D-01 0.140D+00 0.294D+00
 Coeff:      0.543D+00
 Gap=     0.178 Goal=   None    Shift=    0.000
 RMSDP=1.02D-05 MaxDP=1.32D-03 DE=-3.66D-04 OVMax= 6.06D-04

 Cycle   8  Pass 1  IDiag  1:
 RMSU=  5.10D-06    CP:  9.78D-01  1.08D+00  5.66D-01  4.46D-01  7.69D-01
                    CP:  6.76D-01  7.18D-01
 E= -858.408363349010     Delta-E=       -0.000010024318 Rises=F Damp=F
 DIIS: error= 7.16D-05 at cycle   8 NSaved=   8.
 NSaved= 8 IEnMin= 8 EnMin= -858.408363349010     IErMin= 8 ErrMin= 7.16D-05
 ErrMax= 7.16D-05  0.00D+00 EMaxC= 1.00D-01 BMatC= 1.71D-06 BMatP= 1.34D-05
 IDIUse=1 WtCom= 1.00D+00 WtEn= 0.00D+00
 Coeff-Com: -0.263D-02 0.315D-02 0.132D-02 0.165D-03 0.341D-01 0.859D-01
 Coeff-Com:  0.291D+00 0.587D+00
 Coeff:     -0.263D-02 0.315D-02 0.132D-02 0.165D-03 0.341D-01 0.859D-01
 Coeff:      0.291D+00 0.587D+00
 Gap=     0.178 Goal=   None    Shift=    0.000
 RMSDP=2.32D-06 MaxDP=8.82D-05 DE=-1.00D-05 OVMax= 1.98D-04

 Cycle   9  Pass 1  IDiag  1:
 RMSU=  1.22D-06    CP:  9.78D-01  1.08D+00  5.66D-01  4.46D-01  7.69D-01
                    CP:  6.84D-01  7.33D-01  6.32D-01
 E= -858.408364941031     Delta-E=       -0.000001592021 Rises=F Damp=F
 DIIS: error= 1.40D-05 at cycle   9 NSaved=   9.
 NSaved= 9 IEnMin= 9 EnMin= -858.408364941031     IErMin= 9 ErrMin= 1.40D-05
 ErrMax= 1.40D-05  0.00D+00 EMaxC= 1.00D-01 BMatC= 5.84D-08 BMatP= 1.71D-06
 IDIUse=1 WtCom= 1.00D+00 WtEn= 0.00D+00
 Coeff-Com: -0.762D-03 0.878D-03 0.318D-03-0.360D-03 0.102D-01 0.281D-01
 Coeff-Com:  0.105D+00 0.268D+00 0.588D+00
 Coeff:     -0.762D-03 0.878D-03 0.318D-03-0.360D-03 0.102D-01 0.281D-01
 Coeff:      0.105D+00 0.268D+00 0.588D+00
 Gap=     0.178 Goal=   None    Shift=    0.000
 RMSDP=5.60D-07 MaxDP=1.96D-05 DE=-1.59D-06 OVMax= 3.52D-05

 Cycle  10  Pass 1  IDiag  1:
 RMSU=  4.33D-07    CP:  9.78D-01  1.08D+00  5.66D-01  4.46D-01  7.68D-01
                    CP:  6.86D-01  7.38D-01  6.50D-01  7.76D-01
 E= -858.408364954591     Delta-E=       -0.000000013560 Rises=F Damp=F
 DIIS: error= 2.87D-06 at cycle  10 NSaved=  10.
 NSaved=10 IEnMin=10 EnMin= -858.408364954591     IErMin=10 ErrMin= 2.87D-06
 ErrMax= 2.87D-06  0.00D+00 EMaxC= 1.00D-01 BMatC= 6.58D-09 BMatP= 5.84D-08
 IDIUse=1 WtCom= 1.00D+00 WtEn= 0.00D+00
 Coeff-Com: -0.678D-04 0.534D-04 0.771D-04-0.156D-03 0.111D-02 0.403D-02
 Coeff-Com:  0.170D-01 0.677D-01 0.308D+00 0.602D+00
 Coeff:     -0.678D-04 0.534D-04 0.771D-04-0.156D-03 0.111D-02 0.403D-02
 Coeff:      0.170D-01 0.677D-01 0.308D+00 0.602D+00
 Gap=     0.178 Goal=   None    Shift=    0.000
 RMSDP=2.44D-07 MaxDP=3.57D-05 DE=-1.36D-08 OVMax= 1.30D-05

 Cycle  11  Pass 1  IDiag  1:
 RMSU=  1.36D-07    CP:  9.78D-01  1.08D+00  5.66D-01  4.46D-01  7.68D-01
                    CP:  6.86D-01  7.41D-01  6.65D-01  8.04D-01  7.63D-01
 E= -858.408364960766     Delta-E=       -0.000000006175 Rises=F Damp=F
 DIIS: error= 4.97D-07 at cycle  11 NSaved=  11.
 NSaved=11 IEnMin=11 EnMin= -858.408364960766     IErMin=11 ErrMin= 4.97D-07
 ErrMax= 4.97D-07  0.00D+00 EMaxC= 1.00D-01 BMatC= 2.90D-10 BMatP= 6.58D-09
 IDIUse=1 WtCom= 1.00D+00 WtEn= 0.00D+00
 Coeff-Com:  0.988D-05-0.243D-04 0.132D-04-0.424D-04-0.101D-03 0.115D-03
 Coeff-Com:  0.109D-02 0.134D-01 0.986D-01 0.262D+00 0.625D+00
 Coeff:      0.988D-05-0.243D-04 0.132D-04-0.424D-04-0.101D-03 0.115D-03
 Coeff:      0.109D-02 0.134D-01 0.986D-01 0.262D+00 0.625D+00
 Gap=     0.178 Goal=   None    Shift=    0.000
 RMSDP=4.96D-08 MaxDP=1.91D-06 DE=-6.18D-09 OVMax= 2.67D-06

 Cycle  12  Pass 1  IDiag  1:
 RMSU=  3.28D-08    CP:  9.78D-01  1.08D+00  5.66D-01  4.46D-01  7.68D-01
                    CP:  6.86D-01  7.41D-01  6.66D-01  8.21D-01  7.72D-01
                    CP:  7.96D-01
 E= -858.408364960984     Delta-E=       -0.000000000219 Rises=F Damp=F
 DIIS: error= 2.56D-07 at cycle  12 NSaved=  12.
 NSaved=12 IEnMin=12 EnMin= -858.408364960984     IErMin=12 ErrMin= 2.56D-07
 ErrMax= 2.56D-07  0.00D+00 EMaxC= 1.00D-01 BMatC= 5.25D-11 BMatP= 2.90D-10
 IDIUse=1 WtCom= 1.00D+00 WtEn= 0.00D+00
 Coeff-Com:  0.702D-05-0.137D-04-0.115D-06-0.120D-04-0.115D-03-0.183D-03
 Coeff-Com: -0.440D-03 0.272D-02 0.325D-01 0.102D+00 0.353D+00 0.510D+00
 Coeff:      0.702D-05-0.137D-04-0.115D-06-0.120D-04-0.115D-03-0.183D-03
 Coeff:     -0.440D-03 0.272D-02 0.325D-01 0.102D+00 0.353D+00 0.510D+00
 Gap=     0.178 Goal=   None    Shift=    0.000
 RMSDP=1.50D-08 MaxDP=1.21D-06 DE=-2.19D-10 OVMax= 9.34D-07

 Cycle  13  Pass 1  IDiag  1:
 RMSU=  1.03D-08    CP:  9.78D-01  1.08D+00  5.66D-01  4.46D-01  7.68D-01
                    CP:  6.86D-01  7.41D-01  6.66D-01  8.22D-01  7.77D-01
                    CP:  7.91D-01  7.41D-01
 E= -858.408364961044     Delta-E=       -0.000000000060 Rises=F Damp=F
 DIIS: error= 9.72D-08 at cycle  13 NSaved=  13.
 NSaved=13 IEnMin=13 EnMin= -858.408364961044     IErMin=13 ErrMin= 9.72D-08
 ErrMax= 9.72D-08  0.00D+00 EMaxC= 1.00D-01 BMatC= 2.37D-12 BMatP= 5.25D-11
 IDIUse=1 WtCom= 1.00D+00 WtEn= 0.00D+00
 Coeff-Com:  0.585D-06-0.114D-05-0.182D-05 0.218D-06-0.339D-04-0.899D-04
 Coeff-Com: -0.256D-03-0.373D-03 0.255D-02 0.139D-01 0.734D-01 0.199D+00
 Coeff-Com:  0.712D+00
 Coeff:      0.585D-06-0.114D-05-0.182D-05 0.218D-06-0.339D-04-0.899D-04
 Coeff:     -0.256D-03-0.373D-03 0.255D-02 0.139D-01 0.734D-01 0.199D+00
 Coeff:      0.712D+00
 Gap=     0.178 Goal=   None    Shift=    0.000
 RMSDP=3.79D-09 MaxDP=1.28D-07 DE=-5.98D-11 OVMax= 2.67D-07

 Error on total polarization charges =  0.02410
 SCF Done:  E(RB-P86) =  -858.408364961     A.U. after   13 cycles
            NFock= 13  Conv=0.38D-08     -V/T= 2.0053
 KE= 8.539008054223D+02 PE=-4.685400000927D+03 EE= 1.627258740593D+03
 Leave Link  502 at Mon Feb 22 21:18:59 2021, MaxMem=   104857600 cpu:            2016.4 elap:              64.9
 (Enter /sw/arch/RedHatEnterpriseServer7/EB_production/2019/software/Gaussian/g16.c01/l601.exe)
 Copying SCF densities to generalized density rwf, IOpCl= 0 IROHF=0.

 **********************************************************************

            Population analysis using the SCF Density.

 **********************************************************************

 Orbital symmetries:
       Occupied  (A) (A) (A) (A) (A) (A) (A) (A) (A) (A) (A) (A)
                 (A) (A) (A) (A) (A) (A) (A) (A) (A) (A) (A) (A)
                 (A) (A) (A) (A) (A) (A) (A) (A) (A) (A) (A) (A)
                 (A) (A) (A) (A) (A) (A) (A) (A) (A) (A) (A) (A)
                 (A) (A) (A) (A) (A) (A) (A) (A) (A) (A) (A) (A)
                 (A) (A) (A) (A) (A) (A) (A) (A) (A) (A) (A) (A)
                 (A) (A) (A) (A) (A) (A) (A) (A)
       Virtual   (A) (A) (A) (A) (A) (A) (A) (A) (A) (A) (A) (A)
                 (A) (A) (A) (A) (A) (A) (A) (A) (A) (A) (A) (A)
                 (A) (A) (A) (A) (A) (A) (A) (A) (A) (A) (A) (A)
                 (A) (A) (A) (A) (A) (A) (A) (A) (A) (A) (A) (A)
                 (A) (A) (A) (A) (A) (A) (A) (A) (A) (A) (A) (A)
                 (A) (A) (A) (A) (A) (A) (A) (A) (A) (A) (A) (A)
                 (A) (A) (A) (A) (A) (A) (A) (A) (A) (A) (A) (A)
                 (A) (A) (A) (A) (A) (A) (A) (A) (A) (A) (A) (A)
                 (A) (A) (A) (A) (A) (A) (A) (A) (A) (A) (A) (A)
                 (A) (A) (A) (A) (A) (A) (A) (A) (A) (A) (A) (A)
                 (A) (A) (A) (A) (A) (A) (A) (A) (A) (A) (A) (A)
                 (A) (A) (A) (A) (A) (A) (A) (A) (A) (A) (A) (A)
                 (A) (A) (A) (A) (A) (A) (A) (A) (A) (A) (A) (A)
                 (A) (A) (A) (A) (A) (A) (A) (A) (A) (A) (A) (A)
                 (A) (A) (A) (A) (A) (A) (A) (A) (A) (A) (A) (A)
                 (A) (A) (A) (A) (A) (A) (A) (A) (A) (A) (A) (A)
                 (A) (A) (A) (A) (A) (A) (A) (A) (A) (A) (A) (A)
                 (A) (A) (A) (A) (A) (A) (A) (A) (A) (A) (A) (A)
                 (A) (A) (A) (A) (A) (A) (A) (A) (A) (A) (A) (A)
                 (A) (A) (A) (A) (A) (A) (A) (A) (A) (A) (A) (A)
                 (A) (A) (A) (A) (A) (A) (A) (A) (A) (A) (A) (A)
                 (A) (A) (A) (A) (A) (A) (A) (A) (A) (A) (A) (A)
                 (A) (A) (A) (A) (A) (A) (A) (A) (A) (A) (A) (A)
                 (A) (A) (A) (A) (A) (A) (A) (A) (A) (A) (A) (A)
                 (A) (A) (A) (A) (A) (A) (A) (A) (A) (A) (A) (A)
                 (A) (A) (A) (A) (A) (A) (A) (A) (A) (A) (A) (A)
                 (A) (A) (A) (A) (A) (A) (A) (A) (A) (A) (A) (A)
                 (A) (A) (A) (A) (A) (A) (A) (A) (A) (A) (A) (A)
                 (A) (A) (A) (A) (A) (A) (A) (A) (A) (A) (A) (A)
                 (A) (A) (A) (A) (A) (A) (A) (A) (A) (A) (A) (A)
                 (A) (A) (A) (A) (A) (A) (A) (A) (A) (A) (A) (A)
                 (A) (A) (A) (A) (A) (A) (A) (A) (A) (A) (A) (A)
                 (A) (A) (A) (A) (A) (A) (A) (A) (A) (A) (A) (A)
                 (A) (A) (A) (A) (A) (A) (A) (A) (A) (A) (A) (A)
                 (A) (A) (A) (A) (A) (A) (A) (A) (A) (A) (A) (A)
                 (A) (A) (A) (A) (A) (A) (A) (A) (A) (A) (A) (A)
                 (A) (A) (A) (A) (A) (A) (A) (A) (A) (A) (A) (A)
                 (A) (A) (A) (A) (A) (A) (A) (A) (A) (A) (A) (A)
                 (A) (A) (A) (A) (A) (A) (A) (A) (A) (A) (A) (A)
                 (A) (A) (A) (A) (A) (A) (A) (A) (A) (A) (A) (A)
                 (A) (A) (A) (A) (A) (A) (A) (A) (A) (A) (A) (A)
                 (A) (A) (A) (A) (A) (A) (A) (A) (A) (A) (A) (A)
                 (A) (A) (A) (A) (A) (A) (A) (A) (A) (A) (A) (A)
 The electronic state is 1-A.
 Alpha  occ. eigenvalues --  -18.82124 -18.75867 -10.03573  -9.91612  -9.90535
 Alpha  occ. eigenvalues --   -9.89469  -9.89033  -9.88884  -9.88850  -9.88748
 Alpha  occ. eigenvalues --   -9.88683  -9.88674  -9.88673  -9.88659  -9.88651
 Alpha  occ. eigenvalues --   -9.88634  -9.88626  -9.88621  -9.88612  -9.88067
 Alpha  occ. eigenvalues --   -1.01509  -0.92270  -0.74446  -0.73658  -0.72870
 Alpha  occ. eigenvalues --   -0.71736  -0.70239  -0.68418  -0.66316  -0.63949
 Alpha  occ. eigenvalues --   -0.61426  -0.59062  -0.57308  -0.55330  -0.53389
 Alpha  occ. eigenvalues --   -0.52228  -0.51899  -0.51707  -0.51219  -0.51113
 Alpha  occ. eigenvalues --   -0.45316  -0.44108  -0.43718  -0.43037  -0.42439
 Alpha  occ. eigenvalues --   -0.41854  -0.41109  -0.40177  -0.38748  -0.38531
 Alpha  occ. eigenvalues --   -0.37908  -0.37408  -0.37040  -0.36450  -0.35818
 Alpha  occ. eigenvalues --   -0.35292  -0.34701  -0.34245  -0.33464  -0.32920
 Alpha  occ. eigenvalues --   -0.32763  -0.31905  -0.31428  -0.30640  -0.30181
 Alpha  occ. eigenvalues --   -0.30008  -0.29697  -0.29234  -0.28999  -0.28648
 Alpha  occ. eigenvalues --   -0.28593  -0.28418  -0.28369  -0.28330  -0.28304
 Alpha  occ. eigenvalues --   -0.28277  -0.28138  -0.27077  -0.24758  -0.23209
 Alpha virt. eigenvalues --   -0.05395   0.01150   0.01829   0.02246   0.02829
 Alpha virt. eigenvalues --    0.03528   0.04361   0.04648   0.04906   0.05219
 Alpha virt. eigenvalues --    0.05258   0.05565   0.06036   0.06288   0.06717
 Alpha virt. eigenvalues --    0.07416   0.07746   0.08284   0.09298   0.09516
 Alpha virt. eigenvalues --    0.09859   0.10539   0.10705   0.11008   0.11184
 Alpha virt. eigenvalues --    0.11325   0.11504   0.11716   0.11867   0.11930
 Alpha virt. eigenvalues --    0.12093   0.12169   0.12527   0.12716   0.12917
 Alpha virt. eigenvalues --    0.13110   0.13253   0.13701   0.14271   0.14466
 Alpha virt. eigenvalues --    0.14537   0.14840   0.15528   0.16022   0.16481
 Alpha virt. eigenvalues --    0.16570   0.16723   0.17473   0.18048   0.18349
 Alpha virt. eigenvalues --    0.18823   0.19035   0.19685   0.19978   0.22168
 Alpha virt. eigenvalues --    0.22485   0.22769   0.23549   0.23931   0.24228
 Alpha virt. eigenvalues --    0.24934   0.25043   0.25493   0.25710   0.26123
 Alpha virt. eigenvalues --    0.26381   0.26591   0.27113   0.27865   0.27916
 Alpha virt. eigenvalues --    0.28170   0.28375   0.28533   0.28596   0.29223
 Alpha virt. eigenvalues --    0.30062   0.30312   0.30525   0.30616   0.30823
 Alpha virt. eigenvalues --    0.31449   0.31663   0.34146   0.34677   0.34981
 Alpha virt. eigenvalues --    0.35165   0.35434   0.35641   0.36143   0.37264
 Alpha virt. eigenvalues --    0.37443   0.37736   0.37920   0.38224   0.38602
 Alpha virt. eigenvalues --    0.39048   0.39253   0.39741   0.39835   0.40239
 Alpha virt. eigenvalues --    0.40416   0.40840   0.41248   0.41648   0.41972
 Alpha virt. eigenvalues --    0.42169   0.42429   0.42648   0.42945   0.43044
 Alpha virt. eigenvalues --    0.43265   0.43621   0.43978   0.44496   0.44744
 Alpha virt. eigenvalues --    0.44956   0.45258   0.45597   0.45772   0.46401
 Alpha virt. eigenvalues --    0.46559   0.46853   0.47099   0.47269   0.47382
 Alpha virt. eigenvalues --    0.47632   0.47917   0.48025   0.48360   0.48560
 Alpha virt. eigenvalues --    0.48780   0.48855   0.49235   0.49593   0.49784
 Alpha virt. eigenvalues --    0.49953   0.50313   0.50386   0.50994   0.51063
 Alpha virt. eigenvalues --    0.51983   0.52626   0.53818   0.54481   0.54978
 Alpha virt. eigenvalues --    0.55557   0.55782   0.57241   0.57419   0.58057
 Alpha virt. eigenvalues --    0.58880   0.59157   0.60726   0.61687   0.62308
 Alpha virt. eigenvalues --    0.63320   0.64311   0.64750   0.65431   0.67156
 Alpha virt. eigenvalues --    0.67865   0.68837   0.71220   0.71728   0.73596
 Alpha virt. eigenvalues --    0.76205   0.77714   0.78618   0.78821   0.79802
 Alpha virt. eigenvalues --    0.80530   0.87548   1.05514   1.05938   1.07676
 Alpha virt. eigenvalues --    1.08429   1.09409   1.12495   1.13324   1.14073
 Alpha virt. eigenvalues --    1.15998   1.16959   1.17182   1.17317   1.17986
 Alpha virt. eigenvalues --    1.18666   1.18781   1.18834   1.19132   1.19360
 Alpha virt. eigenvalues --    1.19838   1.20608   1.21019   1.21475   1.21897
 Alpha virt. eigenvalues --    1.22767   1.23428   1.23788   1.24114   1.24252
 Alpha virt. eigenvalues --    1.24437   1.24827   1.25025   1.25106   1.25192
 Alpha virt. eigenvalues --    1.25258   1.25744   1.26752   1.27857   1.28984
 Alpha virt. eigenvalues --    1.29243   1.29958   1.30893   1.31019   1.31946
 Alpha virt. eigenvalues --    1.32578   1.32597   1.32967   1.33196   1.33966
 Alpha virt. eigenvalues --    1.34573   1.35129   1.35740   1.35987   1.36144
 Alpha virt. eigenvalues --    1.36250   1.36282   1.36478   1.37637   1.37775
 Alpha virt. eigenvalues --    1.38093   1.38873   1.40053   1.41223   1.42279
 Alpha virt. eigenvalues --    1.42732   1.43538   1.43685   1.44246   1.44546
 Alpha virt. eigenvalues --    1.45138   1.45399   1.45802   1.45855   1.46300
 Alpha virt. eigenvalues --    1.47637   1.48621   1.49014   1.49205   1.49841
 Alpha virt. eigenvalues --    1.50033   1.50812   1.51374   1.52541   1.53033
 Alpha virt. eigenvalues --    1.55038   1.55788   1.55829   1.56351   1.58616
 Alpha virt. eigenvalues --    1.59178   1.59625   1.59917   1.60248   1.60866
 Alpha virt. eigenvalues --    1.61052   1.61362   1.63313   1.63609   1.65594
 Alpha virt. eigenvalues --    1.65772   1.65949   1.66282   1.66496   1.66539
 Alpha virt. eigenvalues --    1.67347   1.68407   1.68513   1.69584   1.69868
 Alpha virt. eigenvalues --    1.71482   1.72469   1.72977   1.73554   1.73840
 Alpha virt. eigenvalues --    1.74361   1.74447   1.74616   1.74698   1.75761
 Alpha virt. eigenvalues --    1.76185   1.76418   1.76668   1.76728   1.77014
 Alpha virt. eigenvalues --    1.77381   1.77754   1.77885   1.78319   1.78769
 Alpha virt. eigenvalues --    1.78936   1.79075   1.79694   1.79775   1.79986
 Alpha virt. eigenvalues --    1.80062   1.80501   1.80813   1.81024   1.81554
 Alpha virt. eigenvalues --    1.81991   1.82038   1.82228   1.82250   1.83004
 Alpha virt. eigenvalues --    1.83056   1.83132   1.83665   1.84043   1.85214
 Alpha virt. eigenvalues --    1.85640   1.89143   1.89893   1.91702   1.93348
 Alpha virt. eigenvalues --    1.96363   1.96483   1.98483   2.00565   2.01353
 Alpha virt. eigenvalues --    2.02506   2.05856   2.06483   2.07288   2.08033
 Alpha virt. eigenvalues --    2.08165   2.09179   2.09588   2.10728   2.11344
 Alpha virt. eigenvalues --    2.11682   2.12118   2.12833   2.13487   2.13692
 Alpha virt. eigenvalues --    2.14346   2.14866   2.15375   2.16148   2.17939
 Alpha virt. eigenvalues --    2.19140   2.19259   2.20450   2.21142   2.24786
 Alpha virt. eigenvalues --    2.25234   2.25692   2.26102   2.27304   2.27535
 Alpha virt. eigenvalues --    2.28005   2.30333   2.31045   2.31494   2.32536
 Alpha virt. eigenvalues --    2.33142   2.33299   2.34334   2.36117   2.37457
 Alpha virt. eigenvalues --    2.38440   2.40004   2.41889   2.42385   2.44521
 Alpha virt. eigenvalues --    2.45341   2.45774   2.46976   2.47612   2.48243
 Alpha virt. eigenvalues --    2.48418   2.49356   2.49426   2.49668   2.49718
 Alpha virt. eigenvalues --    2.49853   2.50367   2.50717   2.51137   2.51403
 Alpha virt. eigenvalues --    2.51752   2.52029   2.52227   2.52701   2.52915
 Alpha virt. eigenvalues --    2.53449   2.53855   2.54000   2.54595   2.55012
 Alpha virt. eigenvalues --    2.55211   2.55384   2.55692   2.55993   2.56336
 Alpha virt. eigenvalues --    2.56951   2.57293   2.57490   2.58042   2.58483
 Alpha virt. eigenvalues --    2.59070   2.59381   2.59592   2.60177   2.60860
 Alpha virt. eigenvalues --    2.61082   2.61513   2.62914   2.63628   2.64434
 Alpha virt. eigenvalues --    2.65632   2.66020   2.66380   2.66629   2.67132
 Alpha virt. eigenvalues --    2.67677   2.67779   2.68703   2.68794   2.68845
 Alpha virt. eigenvalues --    2.69751   2.70993   2.71082   2.71499   2.72861
 Alpha virt. eigenvalues --    2.76273   2.76368   2.79034   2.81610   2.85809
 Alpha virt. eigenvalues --    2.87926   2.89916   2.92578   2.94078   2.94521
 Alpha virt. eigenvalues --    2.99055   3.00913   3.02129   3.02712   3.04356
 Alpha virt. eigenvalues --    3.04945   3.07220   3.08473   3.09220   3.11804
 Alpha virt. eigenvalues --    3.14150   3.14648   3.17188   3.19930   3.22430
 Alpha virt. eigenvalues --    3.23924   3.25338   3.27614   3.27716   3.28309
 Alpha virt. eigenvalues --    3.28420   3.28586   3.28939   3.29288   3.30265
 Alpha virt. eigenvalues --    3.30592   3.31791   3.32427   3.33345   3.33381
 Alpha virt. eigenvalues --    3.34549   3.35002   3.35256   3.35716   3.35977
 Alpha virt. eigenvalues --    3.36063   3.36138   3.37939   3.38313   3.39419
 Alpha virt. eigenvalues --    3.41810   3.42683   3.42843   3.45603   3.46748
 Alpha virt. eigenvalues --    3.46850   3.49664   3.54669   3.81834   4.00603
 Alpha virt. eigenvalues --    4.18364  21.64897  21.74901  21.74964  21.75287
 Alpha virt. eigenvalues --   21.76337  21.77771  21.79007  21.80329  21.81748
 Alpha virt. eigenvalues --   21.82729  21.83447  21.83848  21.83943  21.84771
 Alpha virt. eigenvalues --   21.86486  21.88276  21.89787  21.90156  43.04258
 Alpha virt. eigenvalues --   43.11892
          Condensed to atoms (all electrons):
 Mulliken charges:
               1
     1  C   -0.400021
     2  C   -0.230848
     3  C   -0.253209
     4  C   -0.240045
     5  C   -0.249492
     6  C   -0.248043
     7  C   -0.248666
     8  C   -0.246185
     9  C   -0.250331
    10  C   -0.244951
    11  C   -0.248879
    12  C   -0.251173
    13  C   -0.243718
    14  C   -0.253649
    15  C   -0.243743
    16  C   -0.284775
    17  C   -0.239634
    18  C    0.195786
    19  O   -0.364935
    20  O   -0.287646
    21  H    0.127378
    22  H    0.127363
    23  H    0.139227
    24  H    0.124836
    25  H    0.124830
    26  H    0.120392
    27  H    0.120381
    28  H    0.121921
    29  H    0.121922
    30  H    0.123250
    31  H    0.123265
    32  H    0.123737
    33  H    0.123738
    34  H    0.123910
    35  H    0.123929
    36  H    0.124011
    37  H    0.124007
    38  H    0.123966
    39  H    0.123954
    40  H    0.124120
    41  H    0.124118
    42  H    0.124018
    43  H    0.123925
    44  H    0.124617
    45  H    0.124503
    46  H    0.126296
    47  H    0.125467
    48  H    0.127254
    49  H    0.126829
    50  H    0.131015
    51  H    0.132266
    52  H    0.138843
    53  H    0.148572
    54  H    0.166195
    55  H    0.164955
    56  H    0.335149
 Sum of Mulliken charges =  -0.00000
 Mulliken charges with hydrogens summed into heavy atoms:
               1
     1  C   -0.006053
     2  C    0.018818
     3  C   -0.012436
     4  C    0.003798
     5  C   -0.002978
     6  C   -0.000569
     7  C   -0.000826
     8  C    0.001833
     9  C   -0.002411
    10  C    0.003287
    11  C   -0.000936
    12  C   -0.002052
    13  C    0.008044
    14  C    0.000434
    15  C    0.019538
    16  C    0.002640
    17  C    0.091515
    18  C    0.195786
    19  O   -0.364935
    20  O    0.047503
 Electronic spatial extent (au):  <R**2>=          30708.5343
 Charge=             -0.0000 electrons
 Dipole moment (field-independent basis, Debye):
    X=             -2.0102    Y=              0.7775    Z=             -1.9437  Tot=              2.9023
 Quadrupole moment (field-independent basis, Debye-Ang):
   XX=           -171.0665   YY=           -130.1178   ZZ=           -131.9160
   XY=             10.5013   XZ=            -23.3004   YZ=             -1.4521
 Traceless Quadrupole moment (field-independent basis, Debye-Ang):
   XX=            -26.6997   YY=             14.2490   ZZ=             12.4507
   XY=             10.5013   XZ=            -23.3004   YZ=             -1.4521
 Octapole moment (field-independent basis, Debye-Ang**2):
  XXX=           -333.0285  YYY=             11.0443  ZZZ=             -2.9948  XYY=             76.3673
  XXY=            171.5404  XXZ=           -261.6410  XZZ=             -4.2736  YZZ=              0.6127
  YYZ=             -1.7785  XYZ=              4.7318
 Hexadecapole moment (field-independent basis, Debye-Ang**3):
 XXXX=         -47314.2040 YYYY=           -486.4075 ZZZZ=           -334.6635 XXXY=           1898.2323
 XXXZ=          -3134.3120 YYYX=            126.0639 YYYZ=            -24.4254 ZZZX=            -27.8235
 ZZZY=              1.1227 XXYY=          -6475.9397 XXZZ=          -7067.6441 YYZZ=           -133.8066
 XXYZ=            -86.6862 YYXZ=            -27.2161 ZZXY=             13.8635
 N-N= 1.345832089950D+03 E-N=-4.685399993341D+03  KE= 8.539008054223D+02
 No NMR shielding tensors so no spin-rotation constants.
[...]
 --------------------------------------------------------------------
 Writing COSMO formatted file "QIQXTHQIDYTFRH-UHFFFAOYSA-N.cosmo"
 Recomputed dielectric energy= -0.015806 old= -0.015820 diff= 1.39D-05

 **********************************************************************

            Population analysis using the SCF Density.

 **********************************************************************

 Orbital symmetries:
       Occupied  (A) (A) (A) (A) (A) (A) (A) (A) (A) (A) (A) (A)
                 (A) (A) (A) (A) (A) (A) (A) (A) (A) (A) (A) (A)
                 (A) (A) (A) (A) (A) (A) (A) (A) (A) (A) (A) (A)
                 (A) (A) (A) (A) (A) (A) (A) (A) (A) (A) (A) (A)
                 (A) (A) (A) (A) (A) (A) (A) (A) (A) (A) (A) (A)
                 (A) (A) (A) (A) (A) (A) (A) (A) (A) (A) (A) (A)
                 (A) (A) (A) (A) (A) (A) (A) (A)
       Virtual   (A) (A) (A) (A) (A) (A) (A) (A) (A) (A) (A) (A)
                 (A) (A) (A) (A) (A) (A) (A) (A) (A) (A) (A) (A)
                 (A) (A) (A) (A) (A) (A) (A) (A) (A) (A) (A) (A)
                 (A) (A) (A) (A) (A) (A) (A) (A) (A) (A) (A) (A)
                 (A) (A) (A) (A) (A) (A) (A) (A) (A) (A) (A) (A)
                 (A) (A) (A) (A) (A) (A) (A) (A) (A) (A) (A) (A)
                 (A) (A) (A) (A) (A) (A) (A) (A) (A) (A) (A) (A)
                 (A) (A) (A) (A) (A) (A) (A) (A) (A) (A) (A) (A)
                 (A) (A) (A) (A) (A) (A) (A) (A) (A) (A) (A) (A)
                 (A) (A) (A) (A) (A) (A) (A) (A) (A) (A) (A) (A)
                 (A) (A) (A) (A) (A) (A) (A) (A) (A) (A) (A) (A)
                 (A) (A) (A) (A) (A) (A) (A) (A) (A) (A) (A) (A)
                 (A) (A) (A) (A) (A) (A) (A) (A) (A) (A) (A) (A)
                 (A) (A) (A) (A) (A) (A) (A) (A) (A) (A) (A) (A)
                 (A) (A) (A) (A) (A) (A) (A) (A) (A) (A) (A) (A)
                 (A) (A) (A) (A) (A) (A) (A) (A) (A) (A) (A) (A)
                 (A) (A) (A) (A) (A) (A) (A) (A) (A) (A) (A) (A)
                 (A) (A) (A) (A) (A) (A) (A) (A) (A) (A) (A) (A)
                 (A) (A) (A) (A) (A) (A) (A) (A) (A) (A) (A) (A)
                 (A) (A) (A) (A) (A) (A) (A) (A) (A) (A) (A) (A)
                 (A) (A) (A) (A) (A) (A) (A) (A) (A) (A) (A) (A)
                 (A) (A) (A) (A) (A) (A) (A) (A) (A) (A) (A) (A)
                 (A) (A) (A) (A) (A) (A) (A) (A) (A) (A) (A) (A)
                 (A) (A) (A) (A) (A) (A) (A) (A) (A) (A) (A) (A)
                 (A) (A) (A) (A) (A) (A) (A) (A) (A) (A) (A) (A)
                 (A) (A) (A) (A) (A) (A) (A) (A) (A) (A) (A) (A)
                 (A) (A) (A) (A) (A) (A) (A) (A) (A) (A) (A) (A)
                 (A) (A) (A) (A) (A) (A) (A) (A) (A) (A) (A) (A)
                 (A) (A) (A) (A) (A) (A) (A) (A) (A) (A) (A) (A)
                 (A) (A) (A) (A) (A) (A) (A) (A) (A) (A) (A) (A)
                 (A) (A) (A) (A) (A) (A) (A) (A) (A) (A) (A) (A)
                 (A) (A) (A) (A) (A) (A) (A) (A) (A) (A) (A) (A)
                 (A) (A) (A) (A) (A) (A) (A) (A) (A) (A) (A) (A)
                 (A) (A) (A) (A) (A) (A) (A) (A) (A) (A) (A) (A)
                 (A) (A) (A) (A) (A) (A) (A) (A) (A) (A) (A) (A)
                 (A) (A) (A) (A) (A) (A) (A) (A) (A) (A) (A) (A)
                 (A) (A) (A) (A) (A) (A) (A) (A) (A) (A) (A) (A)
                 (A) (A) (A) (A) (A) (A) (A) (A) (A) (A) (A) (A)
                 (A) (A) (A) (A) (A) (A) (A) (A) (A) (A) (A) (A)
                 (A) (A) (A) (A) (A) (A) (A) (A) (A) (A) (A) (A)
                 (A) (A) (A) (A) (A) (A) (A) (A) (A) (A) (A) (A)
                 (A) (A) (A) (A) (A) (A) (A) (A) (A) (A) (A) (A)
                 (A) (A) (A) (A) (A) (A) (A) (A) (A) (A) (A) (A)
 The electronic state is 1-A.
 Alpha  occ. eigenvalues --  -18.81950 -18.76904 -10.03174  -9.90952  -9.90096
 Alpha  occ. eigenvalues --   -9.89030  -9.88710  -9.88698  -9.88562  -9.88499
 Alpha  occ. eigenvalues --   -9.88475  -9.88472  -9.88468  -9.88466  -9.88463
 Alpha  occ. eigenvalues --   -9.88459  -9.88456  -9.88454  -9.88451  -9.88052
 Alpha  occ. eigenvalues --   -1.02067  -0.93832  -0.74162  -0.73622  -0.72801
 Alpha  occ. eigenvalues --   -0.71613  -0.70082  -0.68230  -0.66085  -0.63685
 Alpha  occ. eigenvalues --   -0.61094  -0.58436  -0.55978  -0.54187  -0.52776
 Alpha  occ. eigenvalues --   -0.51773  -0.51474  -0.51275  -0.50755  -0.50664
 Alpha  occ. eigenvalues --   -0.45191  -0.43471  -0.43317  -0.42998  -0.42189
 Alpha  occ. eigenvalues --   -0.41286  -0.41043  -0.39658  -0.38627  -0.38187
 Alpha  occ. eigenvalues --   -0.38020  -0.37462  -0.36853  -0.36274  -0.35717
 Alpha  occ. eigenvalues --   -0.35589  -0.34473  -0.34176  -0.33253  -0.32697
 Alpha  occ. eigenvalues --   -0.32593  -0.31181  -0.31128  -0.30330  -0.29975
 Alpha  occ. eigenvalues --   -0.29803  -0.29205  -0.29074  -0.28591  -0.28495
 Alpha  occ. eigenvalues --   -0.28156  -0.27997  -0.27986  -0.27622  -0.27484
 Alpha  occ. eigenvalues --   -0.27378  -0.27366  -0.27359  -0.25273  -0.24340
 Alpha virt. eigenvalues --   -0.04818   0.02099   0.02319   0.02708   0.03254
 Alpha virt. eigenvalues --    0.03940   0.04711   0.04791   0.04908   0.05335
 Alpha virt. eigenvalues --    0.05439   0.05902   0.06311   0.06396   0.07075
 Alpha virt. eigenvalues --    0.07616   0.07876   0.08587   0.09511   0.09704
 Alpha virt. eigenvalues --    0.10127   0.10787   0.11181   0.11359   0.11415
 Alpha virt. eigenvalues --    0.11646   0.11808   0.11922   0.12196   0.12299
 Alpha virt. eigenvalues --    0.12438   0.12545   0.12796   0.13023   0.13189
 Alpha virt. eigenvalues --    0.13343   0.13804   0.14145   0.14506   0.14671
 Alpha virt. eigenvalues --    0.14707   0.15000   0.16106   0.16245   0.16446
 Alpha virt. eigenvalues --    0.16812   0.17272   0.17875   0.18477   0.19142
 Alpha virt. eigenvalues --    0.19238   0.19454   0.20168   0.20726   0.22483
 Alpha virt. eigenvalues --    0.22647   0.23497   0.24614   0.24917   0.25128
 Alpha virt. eigenvalues --    0.25423   0.25701   0.25880   0.26286   0.26464
 Alpha virt. eigenvalues --    0.26948   0.27116   0.27354   0.27923   0.28325
 Alpha virt. eigenvalues --    0.28437   0.28548   0.28676   0.29488   0.29716
 Alpha virt. eigenvalues --    0.30540   0.30638   0.30964   0.31371   0.31677
 Alpha virt. eigenvalues --    0.32166   0.33078   0.34040   0.35138   0.35499
 Alpha virt. eigenvalues --    0.35519   0.35901   0.36166   0.36766   0.37100
 Alpha virt. eigenvalues --    0.37463   0.37701   0.38063   0.38398   0.38568
 Alpha virt. eigenvalues --    0.38927   0.39594   0.39859   0.40195   0.40223
 Alpha virt. eigenvalues --    0.40494   0.41092   0.41458   0.41807   0.42056
 Alpha virt. eigenvalues --    0.42306   0.42483   0.42924   0.43103   0.43540
 Alpha virt. eigenvalues --    0.43574   0.43859   0.44247   0.44912   0.45257
 Alpha virt. eigenvalues --    0.45310   0.45561   0.45846   0.46276   0.46732
 Alpha virt. eigenvalues --    0.46861   0.47241   0.47294   0.47679   0.47745
 Alpha virt. eigenvalues --    0.47928   0.48110   0.48336   0.48544   0.48714
 Alpha virt. eigenvalues --    0.48823   0.49506   0.50007   0.50142   0.50265
 Alpha virt. eigenvalues --    0.50389   0.50528   0.50934   0.51013   0.51565
 Alpha virt. eigenvalues --    0.52026   0.53049   0.54305   0.55220   0.55385
 Alpha virt. eigenvalues --    0.55977   0.56980   0.57535   0.57658   0.58255
 Alpha virt. eigenvalues --    0.59317   0.59668   0.61301   0.62005   0.62866
 Alpha virt. eigenvalues --    0.63858   0.64798   0.65366   0.65796   0.67110
 Alpha virt. eigenvalues --    0.68160   0.68831   0.71749   0.72345   0.72839
 Alpha virt. eigenvalues --    0.76270   0.77234   0.79159   0.79622   0.80523
 Alpha virt. eigenvalues --    0.82964   0.85815   1.05931   1.06433   1.07836
 Alpha virt. eigenvalues --    1.08977   1.09492   1.13051   1.13947   1.14212
 Alpha virt. eigenvalues --    1.16227   1.16715   1.17234   1.17264   1.17874
 Alpha virt. eigenvalues --    1.18716   1.19161   1.19215   1.19363   1.19667
 Alpha virt. eigenvalues --    1.20005   1.20747   1.21179   1.21578   1.22352
 Alpha virt. eigenvalues --    1.23003   1.23566   1.24438   1.24590   1.24825
 Alpha virt. eigenvalues --    1.24980   1.25236   1.25477   1.25604   1.25628
 Alpha virt. eigenvalues --    1.25710   1.26202   1.27548   1.28695   1.28860
 Alpha virt. eigenvalues --    1.29814   1.30543   1.31789   1.32130   1.32660
 Alpha virt. eigenvalues --    1.32888   1.33054   1.33743   1.34145   1.34813
 Alpha virt. eigenvalues --    1.34977   1.35874   1.36009   1.36654   1.36918
 Alpha virt. eigenvalues --    1.37351   1.37406   1.37691   1.38453   1.38688
 Alpha virt. eigenvalues --    1.38745   1.38884   1.40706   1.40942   1.42547
 Alpha virt. eigenvalues --    1.43126   1.43221   1.43522   1.43805   1.44567
 Alpha virt. eigenvalues --    1.44862   1.45007   1.45748   1.46549   1.47422
 Alpha virt. eigenvalues --    1.48305   1.48608   1.50154   1.50316   1.50598
 Alpha virt. eigenvalues --    1.50778   1.51841   1.52001   1.52525   1.52898
 Alpha virt. eigenvalues --    1.54719   1.56129   1.56833   1.57012   1.58831
 Alpha virt. eigenvalues --    1.59821   1.60251   1.60694   1.60926   1.61058
 Alpha virt. eigenvalues --    1.61815   1.63229   1.63646   1.65426   1.65981
 Alpha virt. eigenvalues --    1.66127   1.66235   1.66435   1.66693   1.66748
 Alpha virt. eigenvalues --    1.67431   1.68381   1.68420   1.69396   1.69662
 Alpha virt. eigenvalues --    1.71157   1.72357   1.72530   1.72973   1.73288
 Alpha virt. eigenvalues --    1.73556   1.73747   1.73780   1.74535   1.75124
 Alpha virt. eigenvalues --    1.75416   1.75639   1.76073   1.76768   1.77008
 Alpha virt. eigenvalues --    1.77481   1.77750   1.77881   1.78101   1.78269
 Alpha virt. eigenvalues --    1.78836   1.79441   1.79643   1.79909   1.80400
 Alpha virt. eigenvalues --    1.80647   1.80941   1.81128   1.81391   1.81455
 Alpha virt. eigenvalues --    1.81658   1.81872   1.81923   1.82433   1.82596
 Alpha virt. eigenvalues --    1.82618   1.82913   1.83131   1.83266   1.85732
 Alpha virt. eigenvalues --    1.86909   1.89905   1.90498   1.92314   1.94057
 Alpha virt. eigenvalues --    1.96835   1.97989   2.00782   2.02379   2.02941
 Alpha virt. eigenvalues --    2.03523   2.05675   2.07461   2.07786   2.09356
 Alpha virt. eigenvalues --    2.09480   2.10134   2.10459   2.10823   2.11070
 Alpha virt. eigenvalues --    2.12064   2.12197   2.13538   2.14351   2.14949
 Alpha virt. eigenvalues --    2.15313   2.16127   2.16863   2.17111   2.18341
 Alpha virt. eigenvalues --    2.19853   2.20350   2.21237   2.22378   2.24868
 Alpha virt. eigenvalues --    2.25323   2.25865   2.25969   2.27369   2.28074
 Alpha virt. eigenvalues --    2.28522   2.29649   2.31820   2.32427   2.33295
 Alpha virt. eigenvalues --    2.34056   2.34182   2.34966   2.35923   2.37659
 Alpha virt. eigenvalues --    2.38617   2.40423   2.41323   2.42596   2.44623
 Alpha virt. eigenvalues --    2.45418   2.45985   2.47353   2.47873   2.48057
 Alpha virt. eigenvalues --    2.48263   2.48339   2.48984   2.49182   2.49495
 Alpha virt. eigenvalues --    2.49739   2.50030   2.50335   2.50783   2.50943
 Alpha virt. eigenvalues --    2.51311   2.51670   2.51824   2.52547   2.52728
 Alpha virt. eigenvalues --    2.52774   2.53338   2.53621   2.53812   2.53957
 Alpha virt. eigenvalues --    2.54295   2.55065   2.55389   2.56065   2.56572
 Alpha virt. eigenvalues --    2.56828   2.57421   2.57627   2.58189   2.59158
 Alpha virt. eigenvalues --    2.59399   2.59803   2.59930   2.60023   2.60706
 Alpha virt. eigenvalues --    2.61077   2.61682   2.63248   2.63911   2.64496
 Alpha virt. eigenvalues --    2.65013   2.65747   2.66253   2.66652   2.67484
 Alpha virt. eigenvalues --    2.67849   2.68515   2.68648   2.68750   2.69759
 Alpha virt. eigenvalues --    2.70133   2.70368   2.70935   2.71652   2.72155
 Alpha virt. eigenvalues --    2.76049   2.78091   2.80306   2.81788   2.84886
 Alpha virt. eigenvalues --    2.86019   2.88338   2.92260   2.93859   2.98501
 Alpha virt. eigenvalues --    2.98889   3.00308   3.01435   3.03354   3.04081
 Alpha virt. eigenvalues --    3.05774   3.08323   3.09229   3.10524   3.12365
 Alpha virt. eigenvalues --    3.14051   3.14489   3.18015   3.21179   3.22959
 Alpha virt. eigenvalues --    3.23014   3.25379   3.25489   3.25620   3.25931
 Alpha virt. eigenvalues --    3.26467   3.27088   3.27803   3.29097   3.29421
 Alpha virt. eigenvalues --    3.30623   3.30765   3.31517   3.32879   3.34023
 Alpha virt. eigenvalues --    3.34149   3.35008   3.35614   3.35987   3.36166
 Alpha virt. eigenvalues --    3.36262   3.36606   3.37164   3.38789   3.39148
 Alpha virt. eigenvalues --    3.42150   3.43714   3.44008   3.45184   3.48353
 Alpha virt. eigenvalues --    3.48429   3.51709   3.56865   3.79317   4.08262
 Alpha virt. eigenvalues --    4.17861  21.69448  21.71422  21.71573  21.72298
 Alpha virt. eigenvalues --   21.73649  21.75351  21.77020  21.78604  21.80475
 Alpha virt. eigenvalues --   21.82021  21.82931  21.83258  21.83604  21.84828
 Alpha virt. eigenvalues --   21.86638  21.88434  21.89825  21.89988  43.06114
 Alpha virt. eigenvalues --   43.11662
          Condensed to atoms (all electrons):
 Mulliken charges:
               1
     1  C   -0.418423
     2  C   -0.228002
     3  C   -0.259817
     4  C   -0.243557
     5  C   -0.252969
     6  C   -0.251431
     7  C   -0.252130
     8  C   -0.251468
     9  C   -0.251611
    10  C   -0.251334
    11  C   -0.251870
    12  C   -0.251447
    13  C   -0.253964
    14  C   -0.250564
    15  C   -0.251224
    16  C   -0.281015
    17  C   -0.260238
    18  C    0.211099
    19  O   -0.365997
    20  O   -0.281670
    21  H    0.131708
    22  H    0.131605
    23  H    0.144423
    24  H    0.126644
    25  H    0.126700
    26  H    0.122708
    27  H    0.122687
    28  H    0.123680
    29  H    0.123657
    30  H    0.125214
    31  H    0.125225
    32  H    0.125578
    33  H    0.125594
    34  H    0.125676
    35  H    0.125684
    36  H    0.125655
    37  H    0.125670
    38  H    0.125666
    39  H    0.125666
    40  H    0.125735
    41  H    0.125749
    42  H    0.125906
    43  H    0.125880
    44  H    0.126280
    45  H    0.126327
    46  H    0.127378
    47  H    0.127316
    48  H    0.129173
    49  H    0.129578
    50  H    0.134022
    51  H    0.133122
    52  H    0.142108
    53  H    0.149963
    54  H    0.163942
    55  H    0.166116
    56  H    0.329597
 Sum of Mulliken charges =  -0.00000
 Mulliken charges with hydrogens summed into heavy atoms:
               1
     1  C   -0.010687
     2  C    0.025343
     3  C   -0.014422
     4  C    0.003781
     5  C   -0.002531
     6  C   -0.000259
     7  C   -0.000770
     8  C   -0.000142
     9  C   -0.000279
    10  C    0.000149
    11  C   -0.000085
    12  C    0.001159
    13  C    0.000730
    14  C    0.008187
    15  C    0.015921
    16  C    0.011056
    17  C    0.069820
    18  C    0.211099
    19  O   -0.365997
    20  O    0.047927
 Electronic spatial extent (au):  <R**2>=          30427.9702
 Charge=              0.0000 electrons
 Dipole moment (field-independent basis, Debye):
    X=             -1.5641    Y=              0.2786    Z=             -1.9310  Tot=              2.5006
 Quadrupole moment (field-independent basis, Debye-Ang):
   XX=           -161.5083   YY=           -130.8815   ZZ=           -134.0090
   XY=              4.5417   XZ=            -22.3630   YZ=             -1.2126
 Traceless Quadrupole moment (field-independent basis, Debye-Ang):
   XX=            -19.3754   YY=             11.2514   ZZ=              8.1239
   XY=              4.5417   XZ=            -22.3630   YZ=             -1.2126
 Octapole moment (field-independent basis, Debye-Ang**2):
  XXX=           -195.1013  YYY=              7.6722  ZZZ=             -3.7397  XYY=             69.0501
  XXY=             94.6217  XXZ=           -250.9220  XZZ=            -20.1086  YZZ=             -0.4989
  YYZ=             -1.4882  XYZ=             -3.0002
 Hexadecapole moment (field-independent basis, Debye-Ang**3):
 XXXX=         -44673.7251 YYYY=           -482.4915 ZZZZ=           -358.0865 XXXY=           1054.2855
 XXXZ=          -2909.4856 YYYX=             84.5496 YYYZ=            -17.0717 ZZZX=            -36.3951
 ZZZY=              1.8558 XXYY=          -6519.1528 XXZZ=          -7198.2622 YYZZ=           -130.0907
 XXYZ=           -113.3390 YYXZ=            -21.6436 ZZXY=              3.5317
 N-N= 1.351014944847D+03 E-N=-4.695478293226D+03  KE= 8.538068468560D+02
 Unable to Open any file for archive entry.
 1\1\GINC-TCN1706\SP\RBP86\TZVP\C18H36O2\ELENAA\22-Feb-2021\0\\# BP86/T
 ZVP SCRF=COSMORS geom=CHECKPOINT guess=CHECKPOINT\\COSMO-file for #QIQ
 XTHQIDYTFRH-UHFFFAOYSA-N\\0,1\C,0,5.7584909598,-1.2918297246,9.5013761
 707\C,0,5.5341689937,0.0893569043,8.8732584812\C,0,4.1355995426,0.2516
 226881,8.2622884229\C,0,3.8977720573,1.628906694,7.6296376849\C,0,2.49
 90701263,1.7896409591,7.0197957804\C,0,2.2611916444,3.1667102139,6.386
 4421812\C,0,0.8622941074,3.3271214447,5.7770624436\C,0,0.623985276,4.7
 039071406,5.143269848\C,0,-0.7751728182,4.8637964531,4.5343585332\C,0,
 -1.0141678836,6.2404257321,3.9004993399\C,0,-2.4136687396,6.3994961901
 ,3.2921792127\C,0,-2.6534672122,7.7761611869,2.6587430398\C,0,-4.05348
 4959,7.933593136,2.0512791276\C,0,-4.2934332842,9.3108766154,1.4190480
 849\C,0,-5.694740055,9.4637082587,0.8134135339\C,0,-5.9275810108,10.84
 33210756,0.1856359043\C,0,-7.3439213438,10.9758750391,-0.4198103632\C,
 0,-7.5373141561,12.3274330658,-1.0621108902\O,0,-7.440485851,12.569671
 4392,-2.2565453964\O,0,-7.7957077274,13.2972974993,-0.1369213891\H,0,5
 .6396915005,-2.0906114104,8.7512928079\H,0,5.0303948146,-1.4823112654,
 10.3065928188\H,0,6.7673454564,-1.3838769201,9.9325793069\H,0,6.293254
 9155,0.2693024631,8.0912395784\H,0,5.6886116894,0.8735300214,9.6357391
 422\H,0,3.979211783,-0.5327460344,7.4987632242\H,0,3.3744043987,0.0725
 846786,9.0440630926\H,0,4.0546075273,2.4128433723,8.3933117169\H,0,4.6
 588606195,1.8072112656,6.8477889242\H,0,1.7379653532,1.6117769235,7.80
 16967636\H,0,2.3420167472,1.0054699638,6.2564359561\H,0,3.0220511951,3
 .3444719639,5.6042716508\H,0,2.4184247426,3.9509953543,7.149650548\H,0
 ,0.1014916313,3.149486094,6.559324844\H,0,0.7050282594,2.5426325295,5.
 0140570189\H,0,1.3845300105,4.8815013047,4.3607552554\H,0,0.7813504703
 ,5.4885003404,5.9061339873\H,0,-0.9324490784,4.0791585364,3.7715122272
 \H,0,-1.5356280379,4.6860171838,5.3169223924\H,0,-0.254033502,6.418217
 0399,3.117650011\H,0,-0.8568701848,7.0251618728,4.6632110368\H,0,-3.17
 36943888,6.2212164244,4.0750116214\H,0,-2.5707583186,5.6149523406,2.52
 92333545\H,0,-1.8939468114,7.9545482185,1.8755155004\H,0,-2.4965992347
 ,8.5608396776,3.4215187212\H,0,-4.8129756318,7.7546575851,2.8342909131
 \H,0,-4.2100389461,7.1497066419,1.2877426454\H,0,-3.5352259384,9.48994
 58689,0.6350931511\H,0,-4.1378454237,10.0950820554,2.1821639342\H,0,-5
 .8507263277,8.6823929579,0.0480386381\H,0,-6.4542036143,9.2866557354,1
 .5960996145\H,0,-5.1779072521,11.0223719981,-0.6038027204\H,0,-5.78360
 02481,11.627557826,0.9470381984\H,0,-7.4973726292,10.211521526,-1.1940
 605875\H,0,-8.0973980169,10.8338648905,0.3700582163\H,0,-7.8605251966,
 14.1517889644,-0.6155932548\\Version=ES64L-G16RevC.01\State=1-A\HF=-85
 8.3748943\RMSD=8.777e-09\Dipole=0.0899483,-0.1510949,0.9679616\Quadrup
 ole=5.7143477,6.971666,-12.6860137,1.5660466,-11.9683037,13.373171\PG=
 C01 [X(C18H36O2)]\\@
 The archive entry for this job was punched.


 TOWERING GENIUS DISDAINS A BEATEN PATH.  IT SEEKS 
 REGIONS HITHERTO UNEXPLORED.

                                -- ABRAHAM LINCOLN
 Job cpu time:       0 days  0 hours 23 minutes 50.3 seconds.
 Elapsed time:       0 days  0 hours  0 minutes 46.6 seconds.
 File lengths (MBytes):  RWF=    288 Int=      0 D2E=      0 Chk=     35 Scr=      1
 Normal termination of Gaussian 16 at Mon Feb 22 21:40:33 2021.
