 Entering Gaussian System, Link 0=g16
 Input=QNAYBMKLOCPYGJ-UHFFFAOYSA-N.gjf
 Output=QNAYBMKLOCPYGJ-UHFFFAOYSA-N.log
 Initial command:
 /sw/arch/RedHatEnterpriseServer7/EB_production/2019/software/Gaussian/g16.c01/l1.exe "/scratch-local/elenaa.9715265/Gau-26796.inp" -scrdir="/scratch-local/elenaa.9715265/"
 Entering Link 1 = /sw/arch/RedHatEnterpriseServer7/EB_production/2019/software/Gaussian/g16.c01/l1.exe PID=     26797.
  
 Copyright (c) 1988-2019, Gaussian, Inc.  All Rights Reserved.
  
 This is part of the Gaussian(R) 16 program.  It is based on
 the Gaussian(R) 09 system (copyright 2009, Gaussian, Inc.),
 the Gaussian(R) 03 system (copyright 2003, Gaussian, Inc.),
 the Gaussian(R) 98 system (copyright 1998, Gaussian, Inc.),
 the Gaussian(R) 94 system (copyright 1995, Gaussian, Inc.),
 the Gaussian 92(TM) system (copyright 1992, Gaussian, Inc.),
 the Gaussian 90(TM) system (copyright 1990, Gaussian, Inc.),
 the Gaussian 88(TM) system (copyright 1988, Gaussian, Inc.),
 the Gaussian 86(TM) system (copyright 1986, Carnegie Mellon
 University), and the Gaussian 82(TM) system (copyright 1983,
 Carnegie Mellon University). Gaussian is a federally registered
 trademark of Gaussian, Inc.
  
 This software contains proprietary and confidential information,
 including trade secrets, belonging to Gaussian, Inc.
  
 This software is provided under written license and may be
 used, copied, transmitted, or stored only in accord with that
 written license.
  
 The following legend is applicable only to US Government
 contracts under FAR:
  
                    RESTRICTED RIGHTS LEGEND
  
 Use, reproduction and disclosure by the US Government is
 subject to restrictions as set forth in subparagraphs (a)
 and (c) of the Commercial Computer Software - Restricted
 Rights clause in FAR 52.227-19.
  
 Gaussian, Inc.
 340 Quinnipiac St., Bldg. 40, Wallingford CT 06492
  
  
 ---------------------------------------------------------------
 Warning -- This program may not be used in any manner that
 competes with the business of Gaussian, Inc. or will provide
 assistance to any competitor of Gaussian, Inc.  The licensee
 of this program is prohibited from giving any competitor of
 Gaussian, Inc. access to this program.  By using this program,
 the user acknowledges that Gaussian, Inc. is engaged in the
 business of creating and licensing software in the field of
 computational chemistry and represents and warrants to the
 licensee that it is not a competitor of Gaussian, Inc. and that
 it will not use this program in any manner prohibited above.
 ---------------------------------------------------------------
  

 Cite this work as:
 Gaussian 16, Revision C.01,
 M. J. Frisch, G. W. Trucks, H. B. Schlegel, G. E. Scuseria, 
 M. A. Robb, J. R. Cheeseman, G. Scalmani, V. Barone, 
 G. A. Petersson, H. Nakatsuji, X. Li, M. Caricato, A. V. Marenich, 
 J. Bloino, B. G. Janesko, R. Gomperts, B. Mennucci, H. P. Hratchian, 
 J. V. Ortiz, A. F. Izmaylov, J. L. Sonnenberg, D. Williams-Young, 
 F. Ding, F. Lipparini, F. Egidi, J. Goings, B. Peng, A. Petrone, 
 T. Henderson, D. Ranasinghe, V. G. Zakrzewski, J. Gao, N. Rega, 
 G. Zheng, W. Liang, M. Hada, M. Ehara, K. Toyota, R. Fukuda, 
 J. Hasegawa, M. Ishida, T. Nakajima, Y. Honda, O. Kitao, H. Nakai, 
 T. Vreven, K. Throssell, J. A. Montgomery, Jr., J. E. Peralta, 
 F. Ogliaro, M. J. Bearpark, J. J. Heyd, E. N. Brothers, K. N. Kudin, 
 V. N. Staroverov, T. A. Keith, R. Kobayashi, J. Normand, 
 K. Raghavachari, A. P. Rendell, J. C. Burant, S. S. Iyengar, 
 J. Tomasi, M. Cossi, J. M. Millam, M. Klene, C. Adamo, R. Cammi, 
 J. W. Ochterski, R. L. Martin, K. Morokuma, O. Farkas, 
 J. B. Foresman, and D. J. Fox, Gaussian, Inc., Wallingford CT, 2019.
 
 ******************************************
 Gaussian 16:  ES64L-G16RevC.01  3-Jul-2019
                22-Feb-2021 
 ******************************************
 %chk=QNAYBMKLOCPYGJ-UHFFFAOYSA-N.chk
 %NProcShared=32
 Will use up to   32 processors via shared memory.
 -------------------------------------------------------------
 #P BP86/TZVP EmpiricalDispersion=GD3 SCRF=(Solvent=Water) Opt
 -------------------------------------------------------------
 1/18=20,19=15,26=3,38=1/1,3;
 2/9=110,12=2,17=6,18=5,40=1/2;
 3/5=19,7=101,11=2,25=1,30=1,70=2201,71=1,72=1,74=404,124=31/1,2,3;
 4//1;
 5/5=2,38=5,53=1/2;
 6/7=2,8=2,9=2,10=2,28=1/1;
 7//1,2,3,16;
 1/18=20,19=15,26=3/3(2);
 2/9=110/2;
 99//99;
 2/9=110/2;
 3/5=19,7=101,11=2,25=1,30=1,70=2205,71=1,72=1,74=404,124=31/1,2,3;
 4/5=5,16=3,69=1/1;
 5/5=2,38=5,53=1/2;
 7//1,2,3,16;
 1/18=20,19=15,26=3/3(-5);
 2/9=110/2;
 6/7=2,8=2,9=2,10=2,19=2,28=1/1;
 99/9=1/99;
 Leave Link    1 at Mon Feb 22 21:18:09 2021, MaxMem=           0 cpu:               1.5 elap:               0.1
 (Enter /sw/arch/RedHatEnterpriseServer7/EB_production/2019/software/Gaussian/g16.c01/l101.exe)
 -------------------------------------
 Particle #QNAYBMKLOCPYGJ-UHFFFAOYSA-N
 -------------------------------------
 Symbolic Z-matrix:
 Charge =  0 Multiplicity = 1
 C                    -0.11679   0.11694   0.43226 
 C                    -0.57583  -0.94666  -0.5935 
 N                    -0.30094  -0.48583  -1.96286 
 C                     0.08527  -2.24991  -0.37062 
 O                    -0.58206  -3.27155  -0.0913 
 O                     1.43111  -2.368    -0.46316 
 H                    -0.34215  -0.21296   1.44835 
 H                     0.95751   0.29547   0.35045 
 H                    -0.63904   1.05888   0.25435 
 H                    -1.65906  -1.06759  -0.50111 
 H                    -0.78428   0.39992  -2.12916 
 H                     0.7048   -0.34883  -2.08767 
 H                    -0.63388  -1.1798   -2.63488 
 
 ITRead=  0  0  0  0  0  0  0  0  0  0  0  0  0
 MicOpt= -1 -1 -1 -1 -1 -1 -1 -1 -1 -1 -1 -1 -1
 NAtoms=     13 NQM=       13 NQMF=       0 NMMI=      0 NMMIF=      0
                NMic=       0 NMicF=      0.
                    Isotopes and Nuclear Properties:
 (Nuclear quadrupole moments (NQMom) in fm**2, nuclear magnetic moments (NMagM)
  in nuclear magnetons)

  Atom         1           2           3           4           5           6           7           8           9          10
 IAtWgt=          12          12          14          12          16          16           1           1           1           1
 AtmWgt=  12.0000000  12.0000000  14.0030740  12.0000000  15.9949146  15.9949146   1.0078250   1.0078250   1.0078250   1.0078250
 NucSpn=           0           0           2           0           0           0           1           1           1           1
 AtZEff=  -0.0000000  -0.0000000  -0.0000000  -0.0000000  -0.0000000  -0.0000000  -0.0000000  -0.0000000  -0.0000000  -0.0000000
 NQMom=    0.0000000   0.0000000   2.0440000   0.0000000   0.0000000   0.0000000   0.0000000   0.0000000   0.0000000   0.0000000
 NMagM=    0.0000000   0.0000000   0.4037610   0.0000000   0.0000000   0.0000000   2.7928460   2.7928460   2.7928460   2.7928460
 AtZNuc=   6.0000000   6.0000000   7.0000000   6.0000000   8.0000000   8.0000000   1.0000000   1.0000000   1.0000000   1.0000000

  Atom        11          12          13
 IAtWgt=           1           1           1
 AtmWgt=   1.0078250   1.0078250   1.0078250
 NucSpn=           1           1           1
 AtZEff=  -0.0000000  -0.0000000  -0.0000000
 NQMom=    0.0000000   0.0000000   0.0000000
 NMagM=    2.7928460   2.7928460   2.7928460
 AtZNuc=   1.0000000   1.0000000   1.0000000
 Leave Link  101 at Mon Feb 22 21:18:09 2021, MaxMem=   104857600 cpu:               2.6 elap:               0.1
 (Enter /sw/arch/RedHatEnterpriseServer7/EB_production/2019/software/Gaussian/g16.c01/l103.exe)

 GradGradGradGradGradGradGradGradGradGradGradGradGradGradGradGradGradGrad
 Berny optimization.
 Initialization pass.
                           ----------------------------
                           !    Initial Parameters    !
                           ! (Angstroms and Degrees)  !
 --------------------------                            --------------------------
 ! Name  Definition              Value          Derivative Info.                !
 --------------------------------------------------------------------------------
 ! R1    R(1,2)                  1.5473         estimate D2E/DX2                !
 ! R2    R(1,7)                  1.0918         estimate D2E/DX2                !
 ! R3    R(1,8)                  1.0921         estimate D2E/DX2                !
 ! R4    R(1,9)                  1.0916         estimate D2E/DX2                !
 ! R5    R(2,3)                  1.4707         estimate D2E/DX2                !
 ! R6    R(2,4)                  1.4782         estimate D2E/DX2                !
 ! R7    R(2,10)                 1.0939         estimate D2E/DX2                !
 ! R8    R(3,11)                 1.0227         estimate D2E/DX2                !
 ! R9    R(3,12)                 1.0227         estimate D2E/DX2                !
 ! R10   R(3,13)                 1.0218         estimate D2E/DX2                !
 ! R11   R(4,5)                  1.2518         estimate D2E/DX2                !
 ! R12   R(4,6)                  1.3542         estimate D2E/DX2                !
 ! A1    A(2,1,7)              110.3662         estimate D2E/DX2                !
 ! A2    A(2,1,8)              110.7655         estimate D2E/DX2                !
 ! A3    A(2,1,9)              110.0694         estimate D2E/DX2                !
 ! A4    A(7,1,8)              108.7932         estimate D2E/DX2                !
 ! A5    A(7,1,9)              108.2793         estimate D2E/DX2                !
 ! A6    A(8,1,9)              108.5027         estimate D2E/DX2                !
 ! A7    A(1,2,3)              110.2677         estimate D2E/DX2                !
 ! A8    A(1,2,4)              111.9247         estimate D2E/DX2                !
 ! A9    A(1,2,10)             108.2875         estimate D2E/DX2                !
 ! A10   A(3,2,4)              109.453          estimate D2E/DX2                !
 ! A11   A(3,2,10)             107.3596         estimate D2E/DX2                !
 ! A12   A(4,2,10)             109.431          estimate D2E/DX2                !
 ! A13   A(2,3,11)             109.5393         estimate D2E/DX2                !
 ! A14   A(2,3,12)             109.8413         estimate D2E/DX2                !
 ! A15   A(2,3,13)             109.7944         estimate D2E/DX2                !
 ! A16   A(11,3,12)            109.2039         estimate D2E/DX2                !
 ! A17   A(11,3,13)            109.1047         estimate D2E/DX2                !
 ! A18   A(12,3,13)            109.3393         estimate D2E/DX2                !
 ! A19   A(2,4,5)              120.9801         estimate D2E/DX2                !
 ! A20   A(2,4,6)              120.7335         estimate D2E/DX2                !
 ! A21   A(5,4,6)              118.2863         estimate D2E/DX2                !
 ! D1    D(7,1,2,3)            178.6305         estimate D2E/DX2                !
 ! D2    D(7,1,2,4)            -59.2746         estimate D2E/DX2                !
 ! D3    D(7,1,2,10)            61.4358         estimate D2E/DX2                !
 ! D4    D(8,1,2,3)            -60.8209         estimate D2E/DX2                !
 ! D5    D(8,1,2,4)             61.274          estimate D2E/DX2                !
 ! D6    D(8,1,2,10)          -178.0155         estimate D2E/DX2                !
 ! D7    D(9,1,2,3)             59.1703         estimate D2E/DX2                !
 ! D8    D(9,1,2,4)           -178.7348         estimate D2E/DX2                !
 ! D9    D(9,1,2,10)           -58.0243         estimate D2E/DX2                !
 ! D10   D(1,2,3,11)           -58.4025         estimate D2E/DX2                !
 ! D11   D(1,2,3,12)            61.5391         estimate D2E/DX2                !
 ! D12   D(1,2,3,13)          -178.1932         estimate D2E/DX2                !
 ! D13   D(4,2,3,11)           178.0551         estimate D2E/DX2                !
 ! D14   D(4,2,3,12)           -62.0033         estimate D2E/DX2                !
 ! D15   D(4,2,3,13)            58.2644         estimate D2E/DX2                !
 ! D16   D(10,2,3,11)           59.3658         estimate D2E/DX2                !
 ! D17   D(10,2,3,12)          179.3074         estimate D2E/DX2                !
 ! D18   D(10,2,3,13)          -60.425          estimate D2E/DX2                !
 ! D19   D(1,2,4,5)            118.4604         estimate D2E/DX2                !
 ! D20   D(1,2,4,6)            -61.5051         estimate D2E/DX2                !
 ! D21   D(3,2,4,5)           -118.9797         estimate D2E/DX2                !
 ! D22   D(3,2,4,6)             61.0548         estimate D2E/DX2                !
 ! D23   D(10,2,4,5)            -1.5837         estimate D2E/DX2                !
 ! D24   D(10,2,4,6)           178.4508         estimate D2E/DX2                !
 --------------------------------------------------------------------------------
 Trust Radius=3.00D-01 FncErr=1.00D-07 GrdErr=1.00D-06 EigMax=2.50D+02 EigMin=1.00D-04
 Number of steps in this run=     67 maximum allowed number of steps=    100.
 GradGradGradGradGradGradGradGradGradGradGradGradGradGradGradGradGradGrad

 Leave Link  103 at Mon Feb 22 21:18:10 2021, MaxMem=   104857600 cpu:               0.4 elap:               0.0
 (Enter /sw/arch/RedHatEnterpriseServer7/EB_production/2019/software/Gaussian/g16.c01/l202.exe)
                          Input orientation:                          
 ---------------------------------------------------------------------
 Center     Atomic      Atomic             Coordinates (Angstroms)
 Number     Number       Type             X           Y           Z
 ---------------------------------------------------------------------
      1          6           0       -0.116790    0.116940    0.432260
      2          6           0       -0.575830   -0.946660   -0.593500
      3          7           0       -0.300940   -0.485830   -1.962860
      4          6           0        0.085270   -2.249910   -0.370620
      5          8           0       -0.582060   -3.271550   -0.091300
      6          8           0        1.431110   -2.368000   -0.463160
      7          1           0       -0.342150   -0.212960    1.448350
      8          1           0        0.957510    0.295470    0.350450
      9          1           0       -0.639040    1.058880    0.254350
     10          1           0       -1.659060   -1.067590   -0.501110
     11          1           0       -0.784280    0.399920   -2.129160
     12          1           0        0.704800   -0.348830   -2.087670
     13          1           0       -0.633880   -1.179800   -2.634880
 ---------------------------------------------------------------------
                    Distance matrix (angstroms):
                    1          2          3          4          5
     1  C    0.000000
     2  C    1.547303   0.000000
     3  N    2.476660   1.470740   0.000000
     4  C    2.507474   1.478239   2.407564   0.000000
     5  O    3.460124   2.378520   3.367789   1.251838   0.000000
     6  O    3.061486   2.462723   2.965074   1.354177   2.237752
     7  H    1.091815   2.182218   3.422354   2.764146   3.432645
     8  H    1.092102   2.187478   2.746913   2.785625   3.910122
     9  H    1.091626   2.178310   2.723318   3.444315   4.344576
    10  H    2.157055   1.093868   2.078376   2.111302   2.487029
    11  H    2.662047   2.053042   1.022656   3.296995   4.203981
    12  H    2.691096   2.056686   1.022673   2.635561   3.766138
    13  H    3.369906   2.055470   1.021790   2.605607   3.293615
                    6          7          8          9         10
     6  O    0.000000
     7  H    3.382679   0.000000
     8  H    2.824948   1.775669   0.000000
     9  H    4.067413   1.769564   1.772287   0.000000
    10  H    3.352858   2.503006   3.070753   2.476497   0.000000
    11  H    3.917255   3.656457   3.032030   2.477184   2.359952
    12  H    2.691395   3.690258   2.534445   3.045096   2.936260
    13  H    3.223720   4.206264   3.690683   3.655046   2.369928
                   11         12         13
    11  H    0.000000
    12  H    1.667245   0.000000
    13  H    1.665499   1.667937   0.000000
 Stoichiometry    C3H7NO2
 Framework group  C1[X(C3H7NO2)]
 Deg. of freedom    33
 Full point group                 C1      NOp   1
 Largest Abelian subgroup         C1      NOp   1
 Largest concise Abelian subgroup C1      NOp   1
                         Standard orientation:                         
 ---------------------------------------------------------------------
 Center     Atomic      Atomic             Coordinates (Angstroms)
 Number     Number       Type             X           Y           Z
 ---------------------------------------------------------------------
      1          6           0        1.314501    1.267940    0.056354
      2          6           0        0.560798    0.017717   -0.456505
      3          7           0        1.210989   -1.206465    0.035131
      4          6           0       -0.858652    0.021022   -0.043784
      5          8           0       -1.776982    0.038566   -0.894348
      6          8           0       -1.198263    0.005805    1.267028
      7          1           0        0.847538    2.177163   -0.327469
      8          1           0        1.308366    1.303087    1.147872
      9          1           0        2.351569    1.245855   -0.283719
     10          1           0        0.622209    0.003870   -1.548560
     11          1           0        2.184608   -1.225688   -0.277155
     12          1           0        1.185107   -1.226737    1.057275
     13          1           0        0.725758   -2.027335   -0.331989
 ---------------------------------------------------------------------
 Rotational constants (GHZ):           4.9929138           2.6896281           2.5714982
 Leave Link  202 at Mon Feb 22 21:18:10 2021, MaxMem=   104857600 cpu:               0.4 elap:               0.0
 (Enter /sw/arch/RedHatEnterpriseServer7/EB_production/2019/software/Gaussian/g16.c01/l301.exe)
 Standard basis: TZVP (5D, 7F)
 Ernie: Thresh=  0.10000D-02 Tol=  0.10000D-05 Strict=F.
 There are   162 symmetry adapted cartesian basis functions of A   symmetry.
 There are   156 symmetry adapted basis functions of A   symmetry.
   156 basis functions,   266 primitive gaussians,   162 cartesian basis functions
    24 alpha electrons       24 beta electrons
       nuclear repulsion energy       247.6513982705 Hartrees.
 IExCor=  404 DFT=T Ex=B Corr=P86 ExCW=0 ScaHFX=  0.000000
 ScaDFX=  1.000000  1.000000  1.000000  1.000000 ScalE2=  1.000000  1.000000
 IRadAn=      5 IRanWt=     -1 IRanGd=            0 ICorTp=0 IEmpDi=131
 NAtoms=   13 NActive=   13 NUniq=   13 SFac= 1.00D+00 NAtFMM=   60 NAOKFM=F Big=F
 Integral buffers will be    131072 words long.
 Raffenetti 2 integral format.
 Two-electron integral symmetry is turned on.
 R6Disp:  Grimme-D3 Dispersion energy=       -0.0103260616 Hartrees.
 Nuclear repulsion after empirical dispersion term =      247.6410722089 Hartrees.
 ------------------------------------------------------------------------------
 Polarizable Continuum Model (PCM)
 =================================
 Model                : PCM.
 Atomic radii         : UFF (Universal Force Field).
 Polarization charges : Total charges.
 Charge compensation  : None.
 Solution method      : On-the-fly selection.
 Cavity type          : Scaled VdW (van der Waals Surface) (Alpha=1.100).
 Cavity algorithm     : GePol (No added spheres)
                        Default sphere list used, NSphG=   13.
                        Lebedev-Laikov grids with approx.  5.0 points / Ang**2.
                        Smoothing algorithm: York/Karplus (Gamma=1.0000).
                        Polarization charges: spherical gaussians, with
                                              point-specific exponents (IZeta= 3).
                        Self-potential: point-specific (ISelfS= 7).
                        Self-field    : sphere-specific E.n sum rule (ISelfD= 2).
 1st derivatives      : Analytical E(r).r(x)/FMM algorithm (CHGder, D1EAlg=3).
                        Cavity 1st derivative terms included.
 Solvent              : Water, Eps=  78.355300 Eps(inf)=   1.777849
 ------------------------------------------------------------------------------
 Spheres list:
 ISph  on   Nord     Re0    Alpha      Xe            Ye            Ze
    1   C      1    1.9255  1.100      1.314501      1.267940      0.056354
    2   C      2    1.9255  1.100      0.560798      0.017717     -0.456505
    3   N      3    1.8300  1.100      1.210989     -1.206465      0.035131
    4   C      4    1.9255  1.100     -0.858652      0.021022     -0.043784
    5   O      5    1.7500  1.100     -1.776982      0.038566     -0.894348
    6   O      6    1.7500  1.100     -1.198263      0.005805      1.267028
    7   H      7    1.4430  1.100      0.847538      2.177163     -0.327469
    8   H      8    1.4430  1.100      1.308366      1.303087      1.147872
    9   H      9    1.4430  1.100      2.351569      1.245855     -0.283719
   10   H     10    1.4430  1.100      0.622209      0.003870     -1.548560
   11   H     11    1.4430  1.100      2.184608     -1.225688     -0.277155
   12   H     12    1.4430  1.100      1.185107     -1.226737      1.057275
   13   H     13    1.4430  1.100      0.725758     -2.027335     -0.331989
 ------------------------------------------------------------------------------
 GePol: Number of generator spheres                  =      13
 GePol: Total number of spheres                      =      13
 GePol: Number of exposed spheres                    =      13 (100.00%)
 GePol: Number of points                             =    1123
 GePol: Average weight of points                     =       0.13
 GePol: Minimum weight of points                     =   0.69D-08
 GePol: Maximum weight of points                     =    0.20322
 GePol: Number of points with low weight             =      67
 GePol: Fraction of low-weight points (<1% of avg)   =       5.97%
 GePol: Cavity surface area                          =    150.954 Ang**2
 GePol: Cavity volume                                =    138.644 Ang**3
 Leave Link  301 at Mon Feb 22 21:18:10 2021, MaxMem=   104857600 cpu:               1.9 elap:               0.1
 (Enter /sw/arch/RedHatEnterpriseServer7/EB_production/2019/software/Gaussian/g16.c01/l302.exe)
 NPDir=0 NMtPBC=     1 NCelOv=     1 NCel=       1 NClECP=     1 NCelD=      1
         NCelK=      1 NCelE2=     1 NClLst=     1 CellRange=     0.0.
 One-electron integrals computed using PRISM.
 One-electron integral symmetry used in STVInt
 PrsmSu:  requested number of processors reduced to:  29 ShMem   1 Linda.
 NBasis=   156 RedAO= T EigKep=  2.98D-04  NBF=   156
 NBsUse=   156 1.00D-06 EigRej= -1.00D+00 NBFU=   156
 Precomputing XC quadrature grid using
 IXCGrd= 4 IRadAn=           5 IRanWt=          -1 IRanGd=           0 AccXCQ= 0.00D+00.
 Generated NRdTot=       0 NPtTot=           0 NUsed=           0 NTot=          32
 NSgBfM=   161   161   161   161   161 MxSgAt=    13 MxSgA2=    13.
 Leave Link  302 at Mon Feb 22 21:18:10 2021, MaxMem=   104857600 cpu:               5.7 elap:               0.2
 (Enter /sw/arch/RedHatEnterpriseServer7/EB_production/2019/software/Gaussian/g16.c01/l303.exe)
 DipDrv:  MaxL=1.
 Leave Link  303 at Mon Feb 22 21:18:10 2021, MaxMem=   104857600 cpu:               0.8 elap:               0.1
 (Enter /sw/arch/RedHatEnterpriseServer7/EB_production/2019/software/Gaussian/g16.c01/l401.exe)
 ExpMin= 9.52D-02 ExpMax= 2.70D+04 ExpMxC= 9.22D+02 IAcc=3 IRadAn=         5 AccDes= 0.00D+00
 Harris functional with IExCor=  404 and IRadAn=       5 diagonalized for initial guess.
 HarFok:  IExCor=  404 AccDes= 0.00D+00 IRadAn=         5 IDoV= 1 UseB2=F ITyADJ=14
 ICtDFT=  3500011 ScaDFX=  1.000000  1.000000  1.000000  1.000000
 FoFCou: FMM=F IPFlag=           0 FMFlag=      100000 FMFlg1=           0
         NFxFlg=           0 DoJE=T BraDBF=F KetDBF=T FulRan=T
         wScrn=  0.000000 ICntrl=       500 IOpCl=  0 I1Cent=   200000004 NGrid=           0
         NMat0=    1 NMatS0=      1 NMatT0=    0 NMatD0=    1 NMtDS0=    0 NMtDT0=    0
 Petite list used in FoFCou.
 Harris En= -324.000894114815    
 JPrj=0 DoOrth=F DoCkMO=F.
 Leave Link  401 at Mon Feb 22 21:18:11 2021, MaxMem=   104857600 cpu:               8.2 elap:               0.3
 (Enter /sw/arch/RedHatEnterpriseServer7/EB_production/2019/software/Gaussian/g16.c01/l502.exe)
 Integral symmetry usage will be decided dynamically.
 Closed shell SCF:
 Using DIIS extrapolation, IDIIS=  1040.
 NGot=   104857600 LenX=   104797850 LenY=   104771165
 Requested convergence on RMS density matrix=1.00D-08 within 128 cycles.
 Requested convergence on MAX density matrix=1.00D-06.
 Requested convergence on             energy=1.00D-06.
 No special actions if energy rises.
 Fock matrices will be formed incrementally for  20 cycles.

 Cycle   1  Pass 1  IDiag  1:
 FoFJK:  IHMeth= 1 ICntrl=     500 DoSepK=F KAlg= 0 I1Cent=           0 FoldK=F
 IRaf= 970000000 NMat=       1 IRICut=       1 DoRegI=T DoRafI=F ISym2E= 0 IDoP0=0 IntGTp=1.
 FoFCou: FMM=F IPFlag=           0 FMFlag=      100000 FMFlg1=           0
         NFxFlg=           0 DoJE=T BraDBF=F KetDBF=F FulRan=T
         wScrn=  0.000000 ICntrl=       500 IOpCl=  0 I1Cent=           0 NGrid=           0
         NMat0=    1 NMatS0=      1 NMatT0=    0 NMatD0=    1 NMtDS0=    0 NMtDT0=    0
 Symmetry not used in FoFCou.
 Inv3:  Mode=1 IEnd=     3783387.
 Iteration    1 A*A^-1 deviation from unit magnitude is 2.66D-15 for     75.
 Iteration    1 A*A^-1 deviation from orthogonality  is 1.96D-15 for    550    233.
 Iteration    1 A^-1*A deviation from unit magnitude is 2.89D-15 for    373.
 Iteration    1 A^-1*A deviation from orthogonality  is 2.89D-15 for   1022      2.
 E= -323.642753148755    
 DIIS: error= 4.15D-02 at cycle   1 NSaved=   1.
 NSaved= 1 IEnMin= 1 EnMin= -323.642753148755     IErMin= 1 ErrMin= 4.15D-02
 ErrMax= 4.15D-02  0.00D+00 EMaxC= 1.00D-01 BMatC= 2.79D-01 BMatP= 2.79D-01
 IDIUse=3 WtCom= 5.85D-01 WtEn= 4.15D-01
 Coeff-Com:  0.100D+01
 Coeff-En:   0.100D+01
 Coeff:      0.100D+01
 Gap=     0.014 Goal=   None    Shift=    0.000
 GapD=    0.014 DampG=0.250 DampE=0.500 DampFc=0.2500 IDamp=-1.
 Damping current iteration by 2.50D-01
 RMSDP=3.75D-02 MaxDP=2.38D+00              OVMax= 6.56D-01

 Cycle   2  Pass 1  IDiag  1:
 RMSU=  9.36D-03    CP:  1.02D+00
 E= -323.696502986303     Delta-E=       -0.053749837547 Rises=F Damp=T
 DIIS: error= 1.42D-02 at cycle   2 NSaved=   2.
 NSaved= 2 IEnMin= 2 EnMin= -323.696502986303     IErMin= 2 ErrMin= 1.42D-02
 ErrMax= 1.42D-02  0.00D+00 EMaxC= 1.00D-01 BMatC= 2.64D-02 BMatP= 2.79D-01
 IDIUse=3 WtCom= 8.58D-01 WtEn= 1.42D-01
 Coeff-Com: -0.146D+00 0.115D+01
 Coeff-En:   0.271D+00 0.729D+00
 Coeff:     -0.869D-01 0.109D+01
 Gap=     0.065 Goal=   None    Shift=    0.000
 RMSDP=6.92D-03 MaxDP=2.95D-01 DE=-5.37D-02 OVMax= 4.75D-01

 Cycle   3  Pass 1  IDiag  1:
 RMSU=  4.04D-03    CP:  1.00D+00  4.00D-01
 E= -323.809832543967     Delta-E=       -0.113329557664 Rises=F Damp=F
 DIIS: error= 2.42D-02 at cycle   3 NSaved=   3.
 NSaved= 3 IEnMin= 3 EnMin= -323.809832543967     IErMin= 2 ErrMin= 1.42D-02
 ErrMax= 2.42D-02  0.00D+00 EMaxC= 1.00D-01 BMatC= 7.31D-02 BMatP= 2.64D-02
 IDIUse=2 WtCom= 0.00D+00 WtEn= 1.00D+00
 Coeff-En:   0.430D-01 0.000D+00 0.957D+00
 Coeff:      0.430D-01 0.000D+00 0.957D+00
 Gap=     0.169 Goal=   None    Shift=    0.000
 RMSDP=1.07D-02 MaxDP=2.71D-01 DE=-1.13D-01 OVMax= 4.93D-01

 Cycle   4  Pass 1  IDiag  1:
 RMSU=  8.06D-03    CP:  1.03D+00  9.96D-01 -6.89D-02
 E= -323.168927387974     Delta-E=        0.640905155993 Rises=F Damp=F
 DIIS: error= 9.94D-02 at cycle   4 NSaved=   4.
 NSaved= 4 IEnMin= 3 EnMin= -323.809832543967     IErMin= 2 ErrMin= 1.42D-02
 ErrMax= 9.94D-02  0.00D+00 EMaxC= 1.00D-01 BMatC= 8.14D-01 BMatP= 2.64D-02
 IDIUse=2 WtCom= 0.00D+00 WtEn= 1.00D+00
 Coeff-En:   0.000D+00 0.000D+00 0.862D+00 0.138D+00
 Coeff:      0.000D+00 0.000D+00 0.862D+00 0.138D+00
 Gap=     0.121 Goal=   None    Shift=    0.000
 RMSDP=7.85D-03 MaxDP=2.16D-01 DE= 6.41D-01 OVMax= 3.10D-01

 Cycle   5  Pass 1  IDiag  1:
 RMSU=  1.40D-03    CP:  1.02D+00  4.76D-01  5.99D-01  3.36D-01
 E= -323.808222444460     Delta-E=       -0.639295056485 Rises=F Damp=F
 DIIS: error= 2.81D-02 at cycle   5 NSaved=   5.
 NSaved= 5 IEnMin= 3 EnMin= -323.809832543967     IErMin= 2 ErrMin= 1.42D-02
 ErrMax= 2.81D-02  0.00D+00 EMaxC= 1.00D-01 BMatC= 7.93D-02 BMatP= 2.64D-02
 IDIUse=2 WtCom= 0.00D+00 WtEn= 1.00D+00
 Coeff-En:   0.000D+00 0.000D+00 0.504D+00 0.000D+00 0.496D+00
 Coeff:      0.000D+00 0.000D+00 0.504D+00 0.000D+00 0.496D+00
 Gap=     0.153 Goal=   None    Shift=    0.000
 RMSDP=1.90D-03 MaxDP=3.96D-02 DE=-6.39D-01 OVMax= 1.11D-01

 Cycle   6  Pass 1  IDiag  1:
 RMSU=  3.17D-04    CP:  1.01D+00  4.46D-01  8.44D-01  1.50D-01  6.79D-01
 E= -323.872476297338     Delta-E=       -0.064253852879 Rises=F Damp=F
 DIIS: error= 3.39D-03 at cycle   6 NSaved=   6.
 NSaved= 6 IEnMin= 6 EnMin= -323.872476297338     IErMin= 6 ErrMin= 3.39D-03
 ErrMax= 3.39D-03  0.00D+00 EMaxC= 1.00D-01 BMatC= 1.24D-03 BMatP= 2.64D-02
 IDIUse=3 WtCom= 9.66D-01 WtEn= 3.39D-02
 Coeff-Com:  0.886D-02-0.165D-01 0.276D+00-0.497D-02 0.300D+00 0.436D+00
 Coeff-En:   0.000D+00 0.000D+00 0.000D+00 0.000D+00 0.000D+00 0.100D+01
 Coeff:      0.856D-02-0.160D-01 0.267D+00-0.481D-02 0.290D+00 0.455D+00
 Gap=     0.151 Goal=   None    Shift=    0.000
 RMSDP=4.18D-04 MaxDP=1.97D-02 DE=-6.43D-02 OVMax= 2.03D-02

 Cycle   7  Pass 1  IDiag  1:
 RMSU=  2.64D-04    CP:  1.01D+00  4.31D-01  7.95D-01  1.74D-01  6.56D-01
                    CP:  7.46D-01
 E= -323.872978795754     Delta-E=       -0.000502498415 Rises=F Damp=F
 DIIS: error= 2.92D-03 at cycle   7 NSaved=   7.
 NSaved= 7 IEnMin= 7 EnMin= -323.872978795754     IErMin= 7 ErrMin= 2.92D-03
 ErrMax= 2.92D-03  0.00D+00 EMaxC= 1.00D-01 BMatC= 5.74D-04 BMatP= 1.24D-03
 IDIUse=3 WtCom= 9.71D-01 WtEn= 2.92D-02
 Coeff-Com:  0.901D-02-0.176D-01 0.695D-01-0.948D-02 0.930D-01 0.372D+00
 Coeff-Com:  0.484D+00
 Coeff-En:   0.000D+00 0.000D+00 0.000D+00 0.000D+00 0.000D+00 0.362D+00
 Coeff-En:   0.638D+00
 Coeff:      0.874D-02-0.171D-01 0.675D-01-0.920D-02 0.903D-01 0.372D+00
 Coeff:      0.488D+00
 Gap=     0.150 Goal=   None    Shift=    0.000
 RMSDP=1.91D-04 MaxDP=1.01D-02 DE=-5.02D-04 OVMax= 8.27D-03

 Cycle   8  Pass 1  IDiag  1:
 RMSU=  4.58D-05    CP:  1.01D+00  4.37D-01  8.19D-01  1.63D-01  6.64D-01
                    CP:  7.80D-01  5.71D-01
 E= -323.873408424662     Delta-E=       -0.000429628908 Rises=F Damp=F
 DIIS: error= 3.74D-04 at cycle   8 NSaved=   8.
 NSaved= 8 IEnMin= 8 EnMin= -323.873408424662     IErMin= 8 ErrMin= 3.74D-04
 ErrMax= 3.74D-04  0.00D+00 EMaxC= 1.00D-01 BMatC= 1.62D-05 BMatP= 5.74D-04
 IDIUse=3 WtCom= 9.96D-01 WtEn= 3.74D-03
 Coeff-Com:  0.715D-02-0.975D-02 0.119D-01-0.128D-02 0.814D-02 0.121D+00
 Coeff-Com:  0.137D+00 0.725D+00
 Coeff-En:   0.000D+00 0.000D+00 0.000D+00 0.000D+00 0.000D+00 0.000D+00
 Coeff-En:   0.000D+00 0.100D+01
 Coeff:      0.712D-02-0.971D-02 0.119D-01-0.127D-02 0.811D-02 0.121D+00
 Coeff:      0.137D+00 0.726D+00
 Gap=     0.151 Goal=   None    Shift=    0.000
 RMSDP=3.22D-05 MaxDP=1.41D-03 DE=-4.30D-04 OVMax= 1.09D-03

 Cycle   9  Pass 1  IDiag  1:
 RMSU=  1.05D-05    CP:  1.01D+00  4.35D-01  8.17D-01  1.60D-01  6.59D-01
                    CP:  8.02D-01  5.90D-01  8.77D-01
 E= -323.873421019756     Delta-E=       -0.000012595094 Rises=F Damp=F
 DIIS: error= 1.04D-04 at cycle   9 NSaved=   9.
 NSaved= 9 IEnMin= 9 EnMin= -323.873421019756     IErMin= 9 ErrMin= 1.04D-04
 ErrMax= 1.04D-04  0.00D+00 EMaxC= 1.00D-01 BMatC= 1.56D-06 BMatP= 1.62D-05
 IDIUse=3 WtCom= 9.99D-01 WtEn= 1.04D-03
 Coeff-Com:  0.396D-02-0.449D-02 0.473D-02-0.391D-03 0.744D-03 0.476D-01
 Coeff-Com:  0.472D-01 0.379D+00 0.521D+00
 Coeff-En:   0.000D+00 0.000D+00 0.000D+00 0.000D+00 0.000D+00 0.000D+00
 Coeff-En:   0.000D+00 0.000D+00 0.100D+01
 Coeff:      0.396D-02-0.448D-02 0.472D-02-0.391D-03 0.744D-03 0.476D-01
 Coeff:      0.472D-01 0.379D+00 0.522D+00
 Gap=     0.151 Goal=   None    Shift=    0.000
 RMSDP=8.71D-06 MaxDP=3.24D-04 DE=-1.26D-05 OVMax= 2.66D-04

 Cycle  10  Pass 1  IDiag  1:
 RMSU=  3.19D-06    CP:  1.01D+00  4.34D-01  8.17D-01  1.60D-01  6.57D-01
                    CP:  8.01D-01  5.91D-01  8.72D-01  9.20D-01
 E= -323.873422201693     Delta-E=       -0.000001181937 Rises=F Damp=F
 DIIS: error= 3.16D-05 at cycle  10 NSaved=  10.
 NSaved=10 IEnMin=10 EnMin= -323.873422201693     IErMin=10 ErrMin= 3.16D-05
 ErrMax= 3.16D-05  0.00D+00 EMaxC= 1.00D-01 BMatC= 1.83D-07 BMatP= 1.56D-06
 IDIUse=1 WtCom= 1.00D+00 WtEn= 0.00D+00
 Coeff-Com:  0.854D-03-0.744D-03 0.113D-02-0.107D-03 0.140D-03 0.174D-02
 Coeff-Com: -0.185D-02 0.226D-01 0.191D+00 0.785D+00
 Coeff:      0.854D-03-0.744D-03 0.113D-02-0.107D-03 0.140D-03 0.174D-02
 Coeff:     -0.185D-02 0.226D-01 0.191D+00 0.785D+00
 Gap=     0.151 Goal=   None    Shift=    0.000
 RMSDP=3.43D-06 MaxDP=1.19D-04 DE=-1.18D-06 OVMax= 1.12D-04

 Cycle  11  Pass 1  IDiag  1:
 RMSU=  1.06D-06    CP:  1.01D+00  4.34D-01  8.17D-01  1.60D-01  6.56D-01
                    CP:  7.98D-01  5.87D-01  8.74D-01  9.44D-01  9.46D-01
 E= -323.873422345080     Delta-E=       -0.000000143388 Rises=F Damp=F
 DIIS: error= 5.64D-06 at cycle  11 NSaved=  11.
 NSaved=11 IEnMin=11 EnMin= -323.873422345080     IErMin=11 ErrMin= 5.64D-06
 ErrMax= 5.64D-06  0.00D+00 EMaxC= 1.00D-01 BMatC= 6.64D-09 BMatP= 1.83D-07
 IDIUse=1 WtCom= 1.00D+00 WtEn= 0.00D+00
 Coeff-Com:  0.173D-03-0.102D-03 0.402D-03-0.529D-04 0.219D-03-0.124D-02
 Coeff-Com: -0.239D-02-0.116D-01 0.393D-01 0.298D+00 0.678D+00
 Coeff:      0.173D-03-0.102D-03 0.402D-03-0.529D-04 0.219D-03-0.124D-02
 Coeff:     -0.239D-02-0.116D-01 0.393D-01 0.298D+00 0.678D+00
 Gap=     0.151 Goal=   None    Shift=    0.000
 RMSDP=6.69D-07 MaxDP=3.42D-05 DE=-1.43D-07 OVMax= 1.55D-05

 Cycle  12  Pass 1  IDiag  1:
 RMSU=  2.63D-07    CP:  1.01D+00  4.34D-01  8.17D-01  1.60D-01  6.56D-01
                    CP:  7.98D-01  5.88D-01  8.71D-01  9.60D-01  9.68D-01
                    CP:  9.40D-01
 E= -323.873422349842     Delta-E=       -0.000000004762 Rises=F Damp=F
 DIIS: error= 2.00D-06 at cycle  12 NSaved=  12.
 NSaved=12 IEnMin=12 EnMin= -323.873422349842     IErMin=12 ErrMin= 2.00D-06
 ErrMax= 2.00D-06  0.00D+00 EMaxC= 1.00D-01 BMatC= 8.91D-10 BMatP= 6.64D-09
 IDIUse=1 WtCom= 1.00D+00 WtEn= 0.00D+00
 Coeff-Com:  0.407D-04-0.184D-04 0.150D-03-0.188D-04 0.106D-03-0.703D-03
 Coeff-Com: -0.114D-02-0.831D-02 0.477D-02 0.994D-01 0.384D+00 0.522D+00
 Coeff:      0.407D-04-0.184D-04 0.150D-03-0.188D-04 0.106D-03-0.703D-03
 Coeff:     -0.114D-02-0.831D-02 0.477D-02 0.994D-01 0.384D+00 0.522D+00
 Gap=     0.151 Goal=   None    Shift=    0.000
 RMSDP=1.41D-07 MaxDP=2.71D-06 DE=-4.76D-09 OVMax= 4.90D-06

 Cycle  13  Pass 1  IDiag  1:
 RMSU=  9.09D-08    CP:  1.01D+00  4.34D-01  8.17D-01  1.60D-01  6.56D-01
                    CP:  7.98D-01  5.88D-01  8.70D-01  9.62D-01  9.77D-01
                    CP:  9.29D-01  7.67D-01
 E= -323.873422350535     Delta-E=       -0.000000000693 Rises=F Damp=F
 DIIS: error= 8.64D-07 at cycle  13 NSaved=  13.
 NSaved=13 IEnMin=13 EnMin= -323.873422350535     IErMin=13 ErrMin= 8.64D-07
 ErrMax= 8.64D-07  0.00D+00 EMaxC= 1.00D-01 BMatC= 6.92D-11 BMatP= 8.91D-10
 IDIUse=1 WtCom= 1.00D+00 WtEn= 0.00D+00
 Coeff-Com:  0.385D-05-0.413D-05 0.164D-04-0.443D-06 0.473D-05-0.113D-03
 Coeff-Com: -0.250D-03-0.194D-02-0.255D-02 0.758D-02 0.737D-01 0.203D+00
 Coeff-Com:  0.720D+00
 Coeff:      0.385D-05-0.413D-05 0.164D-04-0.443D-06 0.473D-05-0.113D-03
 Coeff:     -0.250D-03-0.194D-02-0.255D-02 0.758D-02 0.737D-01 0.203D+00
 Coeff:      0.720D+00
 Gap=     0.151 Goal=   None    Shift=    0.000
 RMSDP=7.75D-08 MaxDP=2.39D-06 DE=-6.93D-10 OVMax= 2.85D-06

 Cycle  14  Pass 1  IDiag  1:
 RMSU=  1.68D-08    CP:  1.01D+00  4.34D-01  8.17D-01  1.60D-01  6.56D-01
                    CP:  7.98D-01  5.87D-01  8.70D-01  9.61D-01  9.78D-01
                    CP:  9.47D-01  8.09D-01  7.77D-01
 E= -323.873422350595     Delta-E=       -0.000000000060 Rises=F Damp=F
 DIIS: error= 8.16D-08 at cycle  14 NSaved=  14.
 NSaved=14 IEnMin=14 EnMin= -323.873422350595     IErMin=14 ErrMin= 8.16D-08
 ErrMax= 8.16D-08  0.00D+00 EMaxC= 1.00D-01 BMatC= 8.21D-13 BMatP= 6.92D-11
 IDIUse=1 WtCom= 1.00D+00 WtEn= 0.00D+00
 Coeff-Com:  0.748D-06-0.987D-06 0.287D-05-0.211D-06 0.112D-05 0.635D-05
 Coeff-Com: -0.170D-04-0.180D-03-0.751D-03-0.111D-02 0.653D-02 0.329D-01
 Coeff-Com:  0.178D+00 0.784D+00
 Coeff:      0.748D-06-0.987D-06 0.287D-05-0.211D-06 0.112D-05 0.635D-05
 Coeff:     -0.170D-04-0.180D-03-0.751D-03-0.111D-02 0.653D-02 0.329D-01
 Coeff:      0.178D+00 0.784D+00
 Gap=     0.151 Goal=   None    Shift=    0.000
 RMSDP=6.48D-09 MaxDP=1.96D-07 DE=-5.99D-11 OVMax= 2.69D-07

 Error on total polarization charges =  0.00961
 SCF Done:  E(RB-P86) =  -323.873422351     A.U. after   14 cycles
            NFock= 14  Conv=0.65D-08     -V/T= 2.0044
 KE= 3.224492293816D+02 PE=-1.254313451966D+03 EE= 3.603497280244D+02
 Leave Link  502 at Mon Feb 22 21:18:17 2021, MaxMem=   104857600 cpu:             212.6 elap:               6.8
 (Enter /sw/arch/RedHatEnterpriseServer7/EB_production/2019/software/Gaussian/g16.c01/l601.exe)
 Copying SCF densities to generalized density rwf, IOpCl= 0 IROHF=0.

 **********************************************************************

            Population analysis using the SCF Density.

 **********************************************************************

 Orbital symmetries:
       Occupied  (A) (A) (A) (A) (A) (A) (A) (A) (A) (A) (A) (A)
                 (A) (A) (A) (A) (A) (A) (A) (A) (A) (A) (A) (A)
       Virtual   (A) (A) (A) (A) (A) (A) (A) (A) (A) (A) (A) (A)
                 (A) (A) (A) (A) (A) (A) (A) (A) (A) (A) (A) (A)
                 (A) (A) (A) (A) (A) (A) (A) (A) (A) (A) (A) (A)
                 (A) (A) (A) (A) (A) (A) (A) (A) (A) (A) (A) (A)
                 (A) (A) (A) (A) (A) (A) (A) (A) (A) (A) (A) (A)
                 (A) (A) (A) (A) (A) (A) (A) (A) (A) (A) (A) (A)
                 (A) (A) (A) (A) (A) (A) (A) (A) (A) (A) (A) (A)
                 (A) (A) (A) (A) (A) (A) (A) (A) (A) (A) (A) (A)
                 (A) (A) (A) (A) (A) (A) (A) (A) (A) (A) (A) (A)
                 (A) (A) (A) (A) (A) (A) (A) (A) (A) (A) (A) (A)
                 (A) (A) (A) (A) (A) (A) (A) (A) (A) (A) (A) (A)
 The electronic state is 1-A.
 Alpha  occ. eigenvalues --  -18.71875 -18.70643 -14.13287  -9.98243  -9.97028
 Alpha  occ. eigenvalues --   -9.90973  -0.95519  -0.92745  -0.82590  -0.72230
 Alpha  occ. eigenvalues --   -0.61958  -0.56102  -0.54746  -0.49876  -0.44282
 Alpha  occ. eigenvalues --   -0.39809  -0.37814  -0.36646  -0.35327  -0.33237
 Alpha  occ. eigenvalues --   -0.32241  -0.21632  -0.21103  -0.18080
 Alpha virt. eigenvalues --   -0.02995  -0.00642   0.04133   0.04543   0.05890
 Alpha virt. eigenvalues --    0.07764   0.08262   0.09719   0.11213   0.12019
 Alpha virt. eigenvalues --    0.15041   0.16616   0.19022   0.20381   0.21262
 Alpha virt. eigenvalues --    0.22455   0.24103   0.28280   0.29389   0.31193
 Alpha virt. eigenvalues --    0.31877   0.35440   0.36024   0.38257   0.39061
 Alpha virt. eigenvalues --    0.39687   0.40614   0.41770   0.42537   0.43482
 Alpha virt. eigenvalues --    0.44738   0.46781   0.47249   0.47812   0.51126
 Alpha virt. eigenvalues --    0.52354   0.55882   0.56692   0.60474   0.63816
 Alpha virt. eigenvalues --    0.65217   0.69592   0.77695   0.91286   1.00660
 Alpha virt. eigenvalues --    1.06699   1.16383   1.19514   1.21792   1.23095
 Alpha virt. eigenvalues --    1.27123   1.28156   1.30705   1.32371   1.35371
 Alpha virt. eigenvalues --    1.36571   1.40778   1.44437   1.45136   1.46485
 Alpha virt. eigenvalues --    1.49788   1.51710   1.53176   1.54516   1.58695
 Alpha virt. eigenvalues --    1.62620   1.63784   1.70232   1.71814   1.74134
 Alpha virt. eigenvalues --    1.77621   1.78637   1.79684   1.84112   1.85242
 Alpha virt. eigenvalues --    1.88666   1.92532   1.96913   2.05254   2.09666
 Alpha virt. eigenvalues --    2.12107   2.12855   2.21830   2.25608   2.27947
 Alpha virt. eigenvalues --    2.32089   2.36897   2.42412   2.47628   2.48112
 Alpha virt. eigenvalues --    2.50825   2.51319   2.54223   2.55110   2.57238
 Alpha virt. eigenvalues --    2.58132   2.58410   2.59353   2.60141   2.61709
 Alpha virt. eigenvalues --    2.64072   2.65417   2.68003   2.69117   2.71096
 Alpha virt. eigenvalues --    2.74990   2.75172   2.77038   2.81118   2.95809
 Alpha virt. eigenvalues --    2.97981   2.99587   3.03328   3.09678   3.10641
 Alpha virt. eigenvalues --    3.19534   3.20543   3.26056   3.28296   3.30083
 Alpha virt. eigenvalues --    3.47650   3.64725   3.76295   3.77946   3.96060
 Alpha virt. eigenvalues --    4.10016  21.67069  21.76806  21.78984  31.32666
 Alpha virt. eigenvalues --   43.09936  43.20250
          Condensed to atoms (all electrons):
               1          2          3          4          5          6
     1  C    5.355353   0.106974  -0.022468  -0.060073  -0.016170  -0.016614
     2  C    0.106974   6.344911   0.037188  -0.213198  -0.169502  -0.169259
     3  N   -0.022468   0.037188   6.234735   0.005996  -0.005357  -0.004468
     4  C   -0.060073  -0.213198   0.005996   5.078008   0.598411   0.527361
     5  O   -0.016170  -0.169502  -0.005357   0.598411   8.139723  -0.173465
     6  O   -0.016614  -0.169259  -0.004468   0.527361  -0.173465   8.296570
     7  H    0.376460  -0.034849   0.008691   0.012595   0.003692  -0.002180
     8  H    0.336933   0.006121  -0.015415  -0.011759   0.002189   0.020831
     9  H    0.387746  -0.025562  -0.006501   0.007324  -0.000378   0.000590
    10  H   -0.045163   0.331029  -0.033294  -0.010852   0.025570   0.012039
    11  H   -0.011066  -0.010380   0.352800   0.002172  -0.000887  -0.000549
    12  H   -0.027467  -0.001483   0.324702  -0.001620   0.001527   0.022200
    13  H    0.009927  -0.046246   0.355517   0.012058   0.002403   0.001556
               7          8          9         10         11         12
     1  C    0.376460   0.336933   0.387746  -0.045163  -0.011066  -0.027467
     2  C   -0.034849   0.006121  -0.025562   0.331029  -0.010380  -0.001483
     3  N    0.008691  -0.015415  -0.006501  -0.033294   0.352800   0.324702
     4  C    0.012595  -0.011759   0.007324  -0.010852   0.002172  -0.001620
     5  O    0.003692   0.002189  -0.000378   0.025570  -0.000887   0.001527
     6  O   -0.002180   0.020831   0.000590   0.012039  -0.000549   0.022200
     7  H    0.503528  -0.016429  -0.020756  -0.001850   0.000417   0.000638
     8  H   -0.016429   0.536557  -0.021616   0.009259  -0.000772   0.010374
     9  H   -0.020756  -0.021616   0.527415  -0.006968   0.003776  -0.000323
    10  H   -0.001850   0.009259  -0.006968   0.520232  -0.007158   0.007643
    11  H    0.000417  -0.000772   0.003776  -0.007158   0.372016  -0.010977
    12  H    0.000638   0.010374  -0.000323   0.007643  -0.010977   0.378567
    13  H   -0.000266  -0.000419  -0.000379  -0.002144  -0.013783  -0.012169
              13
     1  C    0.009927
     2  C   -0.046246
     3  N    0.355517
     4  C    0.012058
     5  O    0.002403
     6  O    0.001556
     7  H   -0.000266
     8  H   -0.000419
     9  H   -0.000379
    10  H   -0.002144
    11  H   -0.013783
    12  H   -0.012169
    13  H    0.367438
 Mulliken charges:
               1
     1  C   -0.374372
     2  C   -0.155744
     3  N   -0.232127
     4  C    0.053577
     5  O   -0.407755
     6  O   -0.514612
     7  H    0.170308
     8  H    0.144145
     9  H    0.155632
    10  H    0.201657
    11  H    0.324393
    12  H    0.308389
    13  H    0.326509
 Sum of Mulliken charges =  -0.00000
 Mulliken charges with hydrogens summed into heavy atoms:
               1
     1  C    0.095712
     2  C    0.045914
     3  N    0.727164
     4  C    0.053577
     5  O   -0.407755
     6  O   -0.514612
 Electronic spatial extent (au):  <R**2>=            580.0539
 Charge=             -0.0000 electrons
 Dipole moment (field-independent basis, Debye):
    X=             13.5411    Y=             -4.6590    Z=             -1.9805  Tot=             14.4565
 Quadrupole moment (field-independent basis, Debye-Ang):
   XX=            -41.0215   YY=            -26.4180   ZZ=            -42.9884
   XY=             -5.6766   XZ=              0.2842   YZ=             -0.1232
 Traceless Quadrupole moment (field-independent basis, Debye-Ang):
   XX=             -4.2122   YY=             10.3913   ZZ=             -6.1791
   XY=             -5.6766   XZ=              0.2842   YZ=             -0.1232
 Octapole moment (field-independent basis, Debye-Ang**2):
  XXX=             49.6692  YYY=            -20.3889  ZZZ=             -5.0105  XYY=             12.2797
  XXY=            -12.4209  XXZ=              0.9203  XZZ=             17.2755  YZZ=             -4.8172
  YYZ=             -1.8743  XYZ=             -0.3607
 Hexadecapole moment (field-independent basis, Debye-Ang**3):
 XXXX=           -394.5337 YYYY=           -145.7377 ZZZZ=           -164.0061 XXXY=            -27.3365
 XXXZ=            -10.7340 YYYX=            -22.7255 YYYZ=              1.0972 ZZZX=              6.4392
 ZZZY=             -1.6874 XXYY=            -81.7613 XXZZ=           -105.1803 YYZZ=            -53.2926
 XXYZ=              0.7823 YYXZ=              0.2032 ZZXY=             -5.8212
 N-N= 2.476410722089D+02 E-N=-1.254313450577D+03  KE= 3.224492293816D+02
 No NMR shielding tensors so no spin-rotation constants.
 Leave Link  601 at Mon Feb 22 21:18:18 2021, MaxMem=   104857600 cpu:               3.3 elap:               0.1
 (Enter /sw/arch/RedHatEnterpriseServer7/EB_production/2019/software/Gaussian/g16.c01/l701.exe)
 ... and contract with generalized density number  0.
 Compute integral first derivatives.
 R6Disp: Adding Grimme-D3 dispersion energy 1st derivatives to the gradient.
 PrsmSu:  requested number of processors reduced to:  30 ShMem   1 Linda.
 D1PCM: PCM CHGder 1st derivatives, ID1Alg=3 FixD1E=F DoIter=F DoCFld=F I1PDM=0.
 GePol: Maximum number of non-zero 1st derivatives   =     221
 CoulSu:  requested number of processors reduced to:  29 ShMem   1 Linda.
 CoulSu:  requested number of processors reduced to:  30 ShMem   1 Linda.
 Leave Link  701 at Mon Feb 22 21:18:18 2021, MaxMem=   104857600 cpu:              17.2 elap:               0.6
 (Enter /sw/arch/RedHatEnterpriseServer7/EB_production/2019/software/Gaussian/g16.c01/l702.exe)
 L702 exits ... SP integral derivatives will be done elsewhere.
 Leave Link  702 at Mon Feb 22 21:18:18 2021, MaxMem=   104857600 cpu:               0.7 elap:               0.1
 (Enter /sw/arch/RedHatEnterpriseServer7/EB_production/2019/software/Gaussian/g16.c01/l703.exe)
 Integral derivatives from FoFJK, PRISM(SPDF).
 Compute integral first derivatives, UseDBF=F ICtDFT=           0.
 Calling FoFJK, ICntrl=      2527 FMM=F ISym2X=0 I1Cent= 0 IOpClX= 0 NMat=1 NMatS=1 NMatT=0.
 FoFJK:  IHMeth= 1 ICntrl=    2527 DoSepK=F KAlg= 0 I1Cent=           0 FoldK=F
 IRaf=         0 NMat=       1 IRICut=       1 DoRegI=T DoRafI=F ISym2E= 0 IDoP0=0 IntGTp=1.
 FoFCou: FMM=F IPFlag=           0 FMFlag=      100000 FMFlg1=         800
         NFxFlg=           0 DoJE=F BraDBF=F KetDBF=F FulRan=T
         wScrn=  0.000000 ICntrl=      2527 IOpCl=  0 I1Cent=           0 NGrid=           0
         NMat0=    1 NMatS0=      1 NMatT0=    0 NMatD0=    1 NMtDS0=    0 NMtDT0=    0
 Symmetry not used in FoFCou.
 Leave Link  703 at Mon Feb 22 21:18:20 2021, MaxMem=   104857600 cpu:              29.5 elap:               1.1
 (Enter /sw/arch/RedHatEnterpriseServer7/EB_production/2019/software/Gaussian/g16.c01/l716.exe)
 Dipole        = 5.32747404D+00-1.83300138D+00-7.79181212D-01
 ***** Axes restored to original set *****
 -------------------------------------------------------------------
 Center     Atomic                   Forces (Hartrees/Bohr)
 Number     Number              X              Y              Z
 -------------------------------------------------------------------
      1        6          -0.001447055   -0.002783197   -0.009516556
      2        6          -0.010293471    0.021933184    0.029954864
      3        7          -0.001399379    0.006406462   -0.006331379
      4        6           0.089383571   -0.067529228    0.006665438
      5        8          -0.025855571    0.005610591    0.002753306
      6        8          -0.055091426    0.034655716   -0.005566043
      7        1          -0.001156708   -0.002839832    0.002144523
      8        1           0.004839428   -0.001297864   -0.000219971
      9        1          -0.003390664    0.005123511    0.000110233
     10        1          -0.002929701   -0.001924197   -0.002884423
     11        1          -0.000931003    0.005252764   -0.006146927
     12        1           0.008562782   -0.000963724   -0.002755621
     13        1          -0.000290803   -0.001644186   -0.008207444
 -------------------------------------------------------------------
 Cartesian Forces:  Max     0.089383571 RMS     0.022390614
 Leave Link  716 at Mon Feb 22 21:18:20 2021, MaxMem=   104857600 cpu:               1.1 elap:               0.1
 (Enter /sw/arch/RedHatEnterpriseServer7/EB_production/2019/software/Gaussian/g16.c01/l103.exe)

 GradGradGradGradGradGradGradGradGradGradGradGradGradGradGradGradGradGrad
 Berny optimization.
 FormGI is forming the generalized inverse of G from B-inverse, IUseBI=4.
 Internal  Forces:  Max     0.057379464 RMS     0.012379125
 Search for a local minimum.
 Step number   1 out of a maximum of   67
 All quantities printed in internal units (Hartrees-Bohrs-Radians)
 RMS Force = .12379D-01 SwitMx=.10000D-02 MixMth= 1
 Mixed Optimization -- RFO/linear search
 Second derivative matrix not updated -- first step.
 ITU=  0
     Eigenvalues ---    0.00230   0.00756   0.01054   0.01054   0.04214
     Eigenvalues ---    0.04910   0.05497   0.05588   0.05910   0.05993
     Eigenvalues ---    0.06033   0.16000   0.16000   0.16000   0.16000
     Eigenvalues ---    0.16000   0.16000   0.16567   0.18087   0.25000
     Eigenvalues ---    0.25000   0.27882   0.34369   0.34571   0.34604
     Eigenvalues ---    0.34625   0.34772   0.35652   0.43914   0.43917
     Eigenvalues ---    0.44054   0.54142   0.82562
 RFO step:  Lambda=-2.47584865D-02 EMin= 2.30000000D-03
 Linear search not attempted -- first point.
 Iteration  1 RMS(Cart)=  0.04995742 RMS(Int)=  0.00382766
 Iteration  2 RMS(Cart)=  0.00352782 RMS(Int)=  0.00019102
 Iteration  3 RMS(Cart)=  0.00001352 RMS(Int)=  0.00019082
 Iteration  4 RMS(Cart)=  0.00000000 RMS(Int)=  0.00019082
 ITry= 1 IFail=0 DXMaxC= 2.28D-01 DCOld= 1.00D+10 DXMaxT= 3.00D-01 DXLimC= 3.00D+00 Rises=F
 Variable       Old X    -DE/DX   Delta X   Delta X   Delta X     New X
                                 (Linear)    (Quad)   (Total)
    R1        2.92398  -0.00655   0.00000  -0.02159  -0.02159   2.90239
    R2        2.06323   0.00312   0.00000   0.00842   0.00842   2.07165
    R3        2.06377   0.00456   0.00000   0.01230   0.01230   2.07607
    R4        2.06287   0.00600   0.00000   0.01617   0.01617   2.07905
    R5        2.77930   0.02578   0.00000   0.06760   0.06760   2.84690
    R6        2.79347   0.02840   0.00000   0.07625   0.07625   2.86971
    R7        2.06711   0.00287   0.00000   0.00779   0.00779   2.07490
    R8        1.93254   0.00602   0.00000   0.01297   0.01297   1.94551
    R9        1.93257   0.00862   0.00000   0.01859   0.01859   1.95116
   R10        1.93090   0.00659   0.00000   0.01415   0.01415   1.94506
   R11        2.36563   0.00981   0.00000   0.01153   0.01153   2.37716
   R12        2.55902  -0.05738   0.00000  -0.10134  -0.10134   2.45768
    A1        1.92625  -0.00339   0.00000  -0.02235  -0.02243   1.90382
    A2        1.93322  -0.00145   0.00000  -0.00755  -0.00769   1.92553
    A3        1.92107   0.00203   0.00000   0.01461   0.01464   1.93572
    A4        1.89880   0.00131   0.00000   0.00017  -0.00009   1.89871
    A5        1.88983   0.00056   0.00000   0.00236   0.00245   1.89228
    A6        1.89373   0.00106   0.00000   0.01340   0.01337   1.90710
    A7        1.92453  -0.00229   0.00000  -0.01834  -0.01845   1.90608
    A8        1.95345   0.00173   0.00000   0.00323   0.00273   1.95619
    A9        1.88997   0.00120   0.00000   0.01916   0.01914   1.90911
   A10        1.91032  -0.00184   0.00000  -0.01983  -0.01995   1.89036
   A11        1.87378   0.00108   0.00000   0.00721   0.00739   1.88116
   A12        1.90993   0.00015   0.00000   0.00945   0.00938   1.91931
   A13        1.91182   0.00676   0.00000   0.04021   0.03976   1.95159
   A14        1.91709  -0.00114   0.00000  -0.00872  -0.00864   1.90845
   A15        1.91627   0.00553   0.00000   0.02885   0.02846   1.94474
   A16        1.90597  -0.00242   0.00000  -0.01097  -0.01097   1.89500
   A17        1.90424  -0.00517   0.00000  -0.02288  -0.02372   1.88052
   A18        1.90833  -0.00365   0.00000  -0.02693  -0.02679   1.88154
   A19        2.11150  -0.01235   0.00000  -0.04496  -0.04511   2.06640
   A20        2.10720  -0.03359   0.00000  -0.12225  -0.12239   1.98480
   A21        2.06449   0.04594   0.00000   0.16722   0.16708   2.23156
    D1        3.11769   0.00159   0.00000   0.01984   0.01973   3.13741
    D2       -1.03454  -0.00118   0.00000  -0.01627  -0.01641  -1.05095
    D3        1.07226   0.00088   0.00000   0.01024   0.01022   1.08248
    D4       -1.06153   0.00004   0.00000   0.00037   0.00042  -1.06111
    D5        1.06943  -0.00273   0.00000  -0.03573  -0.03572   1.03371
    D6       -3.10696  -0.00067   0.00000  -0.00922  -0.00909  -3.11605
    D7        1.03272   0.00175   0.00000   0.02173   0.02174   1.05446
    D8       -3.11951  -0.00102   0.00000  -0.01438  -0.01440  -3.13391
    D9       -1.01271   0.00104   0.00000   0.01213   0.01223  -1.00048
   D10       -1.01932   0.00020   0.00000   0.00310   0.00345  -1.01586
   D11        1.07406   0.00071   0.00000   0.00919   0.00936   1.08342
   D12       -3.11006  -0.00103   0.00000  -0.01140  -0.01152  -3.12158
   D13        3.10765   0.00079   0.00000   0.02474   0.02482   3.13247
   D14       -1.08216   0.00130   0.00000   0.03083   0.03072  -1.05144
   D15        1.01690  -0.00044   0.00000   0.01024   0.00984   1.02675
   D16        1.03613   0.00101   0.00000   0.02021   0.02044   1.05657
   D17        3.12950   0.00152   0.00000   0.02630   0.02635  -3.12733
   D18       -1.05462  -0.00022   0.00000   0.00571   0.00547  -1.04915
   D19        2.06752   0.00084   0.00000  -0.00797  -0.00796   2.05956
   D20       -1.07347  -0.00020   0.00000  -0.03739  -0.03738  -1.11084
   D21       -2.07659  -0.00219   0.00000  -0.04307  -0.04307  -2.11966
   D22        1.06561  -0.00323   0.00000  -0.07249  -0.07249   0.99312
   D23       -0.02764  -0.00187   0.00000  -0.04038  -0.04040  -0.06804
   D24        3.11455  -0.00291   0.00000  -0.06980  -0.06982   3.04474
         Item               Value     Threshold  Converged?
 Maximum Force            0.057379     0.000450     NO 
 RMS     Force            0.012379     0.000300     NO 
 Maximum Displacement     0.228188     0.001800     NO 
 RMS     Displacement     0.049487     0.001200     NO 
 Predicted change in Energy=-1.355048D-02
 Lowest energy point so far.  Saving SCF results.
 GradGradGradGradGradGradGradGradGradGradGradGradGradGradGradGradGradGrad

 Leave Link  103 at Mon Feb 22 21:18:20 2021, MaxMem=   104857600 cpu:               1.1 elap:               0.1
 (Enter /sw/arch/RedHatEnterpriseServer7/EB_production/2019/software/Gaussian/g16.c01/l202.exe)
                          Input orientation:                          
 ---------------------------------------------------------------------
 Center     Atomic      Atomic             Coordinates (Angstroms)
 Number     Number       Type             X           Y           Z
 ---------------------------------------------------------------------
      1          6           0       -0.120989    0.111088    0.436281
      2          6           0       -0.592581   -0.954882   -0.563838
      3          7           0       -0.293174   -0.487539   -1.964385
      4          6           0        0.101720   -2.287947   -0.347072
      5          8           0       -0.600453   -3.284905   -0.038133
      6          8           0        1.386310   -2.247248   -0.546064
      7          1           0       -0.343721   -0.229174    1.454328
      8          1           0        0.962555    0.267536    0.344614
      9          1           0       -0.641229    1.065631    0.267155
     10          1           0       -1.679981   -1.080022   -0.477350
     11          1           0       -0.747344    0.412603   -2.172687
     12          1           0        0.727022   -0.374961   -2.076648
     13          1           0       -0.613475   -1.170101   -2.665051
 ---------------------------------------------------------------------
                    Distance matrix (angstroms):
                    1          2          3          4          5
     1  C    0.000000
     2  C    1.535880   0.000000
     3  N    2.480161   1.506514   0.000000
     4  C    2.533497   1.518586   2.452165   0.000000
     5  O    3.462328   2.388605   3.410297   1.257941   0.000000
     6  O    2.966260   2.363585   2.815826   1.300547   2.298249
     7  H    1.096269   2.159069   3.428835   2.771643   3.410402
     8  H    1.098611   2.176703   2.734679   2.783875   3.899913
     9  H    1.100184   2.185266   2.741031   3.489374   4.361424
    10  H    2.164236   1.097989   2.117910   2.156505   2.493953
    11  H    2.699990   2.117159   1.029522   3.368494   4.271939
    12  H    2.696327   2.089557   1.032510   2.653666   3.792822
    13  H    3.391496   2.112309   1.029279   2.670975   3.372427
                    6          7          8          9         10
     6  O    0.000000
     7  H    3.326740   0.000000
     8  H    2.701299   1.784529   0.000000
     9  H    3.968300   1.781687   1.793064   0.000000
    10  H    3.281657   2.498182   3.078073   2.497422   0.000000
    11  H    3.777988   3.705405   3.046572   2.527951   2.443749
    12  H    2.506552   3.692632   2.516105   3.072593   2.974647
    13  H    3.106363   4.234075   3.689004   3.687424   2.435484
                   11         12         13
    11  H    0.000000
    12  H    1.674287   0.000000
    13  H    1.662918   1.665952   0.000000
 Stoichiometry    C3H7NO2
 Framework group  C1[X(C3H7NO2)]
 Deg. of freedom    33
 Full point group                 C1      NOp   1
 RotChk:  IX=0 Diff= 1.98D-01
 Largest Abelian subgroup         C1      NOp   1
 Largest concise Abelian subgroup C1      NOp   1
                         Standard orientation:                         
 ---------------------------------------------------------------------
 Center     Atomic      Atomic             Coordinates (Angstroms)
 Number     Number       Type             X           Y           Z
 ---------------------------------------------------------------------
      1          6           0        1.287450    1.267369    0.175728
      2          6           0        0.519305    0.111115   -0.481508
      3          7           0        1.209347   -1.188789   -0.159518
      4          6           0       -0.914435    0.025051    0.011532
      5          8           0       -1.843937    0.178150   -0.822136
      6          8           0       -1.016217   -0.239483    1.280817
      7          1           0        0.786045    2.212460   -0.063442
      8          1           0        1.304853    1.142350    1.267065
      9          1           0        2.320103    1.316762   -0.200561
     10          1           0        0.533839    0.237318   -1.572123
     11          1           0        2.187741   -1.192219   -0.479904
     12          1           0        1.197226   -1.338601    0.861994
     13          1           0        0.732074   -1.987087   -0.600366
 ---------------------------------------------------------------------
 Rotational constants (GHZ):           4.9567557           2.7406914           2.5973987
 Leave Link  202 at Mon Feb 22 21:18:20 2021, MaxMem=   104857600 cpu:               0.2 elap:               0.0
 (Enter /sw/arch/RedHatEnterpriseServer7/EB_production/2019/software/Gaussian/g16.c01/l301.exe)
 Standard basis: TZVP (5D, 7F)
 Ernie: Thresh=  0.10000D-02 Tol=  0.10000D-05 Strict=F.
 There are   162 symmetry adapted cartesian basis functions of A   symmetry.
 There are   156 symmetry adapted basis functions of A   symmetry.
   156 basis functions,   266 primitive gaussians,   162 cartesian basis functions
    24 alpha electrons       24 beta electrons
       nuclear repulsion energy       247.9769825698 Hartrees.
 IExCor=  404 DFT=T Ex=B Corr=P86 ExCW=0 ScaHFX=  0.000000
 ScaDFX=  1.000000  1.000000  1.000000  1.000000 ScalE2=  1.000000  1.000000
 IRadAn=      5 IRanWt=     -1 IRanGd=            0 ICorTp=0 IEmpDi=131
 NAtoms=   13 NActive=   13 NUniq=   13 SFac= 1.00D+00 NAtFMM=   60 NAOKFM=F Big=F
 Integral buffers will be    131072 words long.
 Raffenetti 2 integral format.
 Two-electron integral symmetry is turned on.
 R6Disp:  Grimme-D3 Dispersion energy=       -0.0106076033 Hartrees.
 Nuclear repulsion after empirical dispersion term =      247.9663749666 Hartrees.
 ------------------------------------------------------------------------------
 Polarizable Continuum Model (PCM)
 =================================
 Model                : PCM.
 Atomic radii         : UFF (Universal Force Field).
 Polarization charges : Total charges.
 Charge compensation  : None.
 Solution method      : On-the-fly selection.
 Cavity type          : Scaled VdW (van der Waals Surface) (Alpha=1.100).
 Cavity algorithm     : GePol (No added spheres)
                        Default sphere list used, NSphG=   13.
                        Lebedev-Laikov grids with approx.  5.0 points / Ang**2.
                        Smoothing algorithm: York/Karplus (Gamma=1.0000).
                        Polarization charges: spherical gaussians, with
                                              point-specific exponents (IZeta= 3).
                        Self-potential: point-specific (ISelfS= 7).
                        Self-field    : sphere-specific E.n sum rule (ISelfD= 2).
 1st derivatives      : Analytical E(r).r(x)/FMM algorithm (CHGder, D1EAlg=3).
                        Cavity 1st derivative terms included.
 Solvent              : Water, Eps=  78.355300 Eps(inf)=   1.777849
 ------------------------------------------------------------------------------
 Spheres list:
 ISph  on   Nord     Re0    Alpha      Xe            Ye            Ze
    1   C      1    1.9255  1.100      1.287450      1.267369      0.175728
    2   C      2    1.9255  1.100      0.519305      0.111115     -0.481508
    3   N      3    1.8300  1.100      1.209347     -1.188789     -0.159518
    4   C      4    1.9255  1.100     -0.914435      0.025051      0.011532
    5   O      5    1.7500  1.100     -1.843937      0.178150     -0.822136
    6   O      6    1.7500  1.100     -1.016217     -0.239483      1.280817
    7   H      7    1.4430  1.100      0.786045      2.212460     -0.063442
    8   H      8    1.4430  1.100      1.304853      1.142350      1.267065
    9   H      9    1.4430  1.100      2.320103      1.316762     -0.200561
   10   H     10    1.4430  1.100      0.533839      0.237318     -1.572123
   11   H     11    1.4430  1.100      2.187741     -1.192219     -0.479904
   12   H     12    1.4430  1.100      1.197226     -1.338601      0.861994
   13   H     13    1.4430  1.100      0.732074     -1.987087     -0.600366
 ------------------------------------------------------------------------------
 GePol: Number of generator spheres                  =      13
 GePol: Total number of spheres                      =      13
 GePol: Number of exposed spheres                    =      13 (100.00%)
 GePol: Number of points                             =    1127
 GePol: Average weight of points                     =       0.13
 GePol: Minimum weight of points                     =   0.11D-10
 GePol: Maximum weight of points                     =    0.20575
 GePol: Number of points with low weight             =      69
 GePol: Fraction of low-weight points (<1% of avg)   =       6.12%
 GePol: Cavity surface area                          =    150.522 Ang**2
 GePol: Cavity volume                                =    138.601 Ang**3
 Leave Link  301 at Mon Feb 22 21:18:20 2021, MaxMem=   104857600 cpu:               1.9 elap:               0.1
 (Enter /sw/arch/RedHatEnterpriseServer7/EB_production/2019/software/Gaussian/g16.c01/l302.exe)
 NPDir=0 NMtPBC=     1 NCelOv=     1 NCel=       1 NClECP=     1 NCelD=      1
         NCelK=      1 NCelE2=     1 NClLst=     1 CellRange=     0.0.
 One-electron integrals computed using PRISM.
 One-electron integral symmetry used in STVInt
 PrsmSu:  requested number of processors reduced to:  29 ShMem   1 Linda.
 NBasis=   156 RedAO= T EigKep=  3.21D-04  NBF=   156
 NBsUse=   156 1.00D-06 EigRej= -1.00D+00 NBFU=   156
 Precomputing XC quadrature grid using
 IXCGrd= 4 IRadAn=           5 IRanWt=          -1 IRanGd=           0 AccXCQ= 0.00D+00.
 Generated NRdTot=       0 NPtTot=           0 NUsed=           0 NTot=          32
 NSgBfM=   161   161   161   161   161 MxSgAt=    13 MxSgA2=    13.
 Leave Link  302 at Mon Feb 22 21:18:20 2021, MaxMem=   104857600 cpu:               4.7 elap:               0.2
 (Enter /sw/arch/RedHatEnterpriseServer7/EB_production/2019/software/Gaussian/g16.c01/l303.exe)
 DipDrv:  MaxL=1.
 Leave Link  303 at Mon Feb 22 21:18:20 2021, MaxMem=   104857600 cpu:               0.8 elap:               0.1
 (Enter /sw/arch/RedHatEnterpriseServer7/EB_production/2019/software/Gaussian/g16.c01/l401.exe)
 Initial guess from the checkpoint file:  "QNAYBMKLOCPYGJ-UHFFFAOYSA-N.chk"
 B after Tr=    -0.000000   -0.000000   -0.000000
         Rot=    0.996979   -0.073293   -0.025017   -0.005903 Ang=  -8.91 deg.
 Guess basis will be translated and rotated to current coordinates.
 JPrj=2 DoOrth=T DoCkMO=T.
 Generating alternative initial guess.
 ExpMin= 9.52D-02 ExpMax= 2.70D+04 ExpMxC= 9.22D+02 IAcc=3 IRadAn=         5 AccDes= 0.00D+00
 Harris functional with IExCor=  404 and IRadAn=       5 diagonalized for initial guess.
 HarFok:  IExCor=  404 AccDes= 0.00D+00 IRadAn=         5 IDoV= 1 UseB2=F ITyADJ=14
 ICtDFT=  3500011 ScaDFX=  1.000000  1.000000  1.000000  1.000000
 FoFCou: FMM=F IPFlag=           0 FMFlag=      100000 FMFlg1=           0
         NFxFlg=           0 DoJE=T BraDBF=F KetDBF=T FulRan=T
         wScrn=  0.000000 ICntrl=       500 IOpCl=  0 I1Cent=   200000004 NGrid=           0
         NMat0=    1 NMatS0=      1 NMatT0=    0 NMatD0=    1 NMtDS0=    0 NMtDT0=    0
 Petite list used in FoFCou.
 Harris En= -324.009331541680    
 Leave Link  401 at Mon Feb 22 21:18:21 2021, MaxMem=   104857600 cpu:              13.8 elap:               0.5
 (Enter /sw/arch/RedHatEnterpriseServer7/EB_production/2019/software/Gaussian/g16.c01/l502.exe)
 Integral symmetry usage will be decided dynamically.
 Closed shell SCF:
 Using DIIS extrapolation, IDIIS=  1040.
 NGot=   104857600 LenX=   104797850 LenY=   104771165
 Requested convergence on RMS density matrix=1.00D-08 within 128 cycles.
 Requested convergence on MAX density matrix=1.00D-06.
 Requested convergence on             energy=1.00D-06.
 No special actions if energy rises.
 Fock matrices will be formed incrementally for  20 cycles.

 Cycle   1  Pass 1  IDiag  1:
 FoFJK:  IHMeth= 1 ICntrl=     500 DoSepK=F KAlg= 0 I1Cent=           0 FoldK=F
 IRaf= 980000000 NMat=       1 IRICut=       1 DoRegI=T DoRafI=F ISym2E= 0 IDoP0=0 IntGTp=1.
 FoFCou: FMM=F IPFlag=           0 FMFlag=      100000 FMFlg1=           0
         NFxFlg=           0 DoJE=T BraDBF=F KetDBF=F FulRan=T
         wScrn=  0.000000 ICntrl=       500 IOpCl=  0 I1Cent=           0 NGrid=           0
         NMat0=    1 NMatS0=      1 NMatT0=    0 NMatD0=    1 NMtDS0=    0 NMtDT0=    0
 Symmetry not used in FoFCou.
 Inv3:  Mode=1 IEnd=     3810387.
 Iteration    1 A*A^-1 deviation from unit magnitude is 3.44D-15 for    761.
 Iteration    1 A*A^-1 deviation from orthogonality  is 1.55D-15 for    996    768.
 Iteration    1 A^-1*A deviation from unit magnitude is 3.22D-15 for    761.
 Iteration    1 A^-1*A deviation from orthogonality  is 1.89D-15 for    905    900.
 E= -323.875083303730    
 DIIS: error= 5.37D-03 at cycle   1 NSaved=   1.
 NSaved= 1 IEnMin= 1 EnMin= -323.875083303730     IErMin= 1 ErrMin= 5.37D-03
 ErrMax= 5.37D-03  0.00D+00 EMaxC= 1.00D-01 BMatC= 9.39D-03 BMatP= 9.39D-03
 IDIUse=3 WtCom= 9.46D-01 WtEn= 5.37D-02
 Coeff-Com:  0.100D+01
 Coeff-En:   0.100D+01
 Coeff:      0.100D+01
 Gap=     0.501 Goal=   None    Shift=    0.000
 GapD=    0.501 DampG=2.000 DampE=1.000 DampFc=2.0000 IDamp=-1.
 RMSDP=1.97D-03 MaxDP=5.68D-02              OVMax= 5.29D-02

 Cycle   2  Pass 1  IDiag  1:
 RMSU=  1.91D-03    CP:  9.73D-01
 E= -323.887001619824     Delta-E=       -0.011918316094 Rises=F Damp=F
 DIIS: error= 4.08D-03 at cycle   2 NSaved=   2.
 NSaved= 2 IEnMin= 2 EnMin= -323.887001619824     IErMin= 2 ErrMin= 4.08D-03
 ErrMax= 4.08D-03  0.00D+00 EMaxC= 1.00D-01 BMatC= 2.57D-03 BMatP= 9.39D-03
 IDIUse=3 WtCom= 9.59D-01 WtEn= 4.08D-02
 Coeff-Com:  0.263D+00 0.737D+00
 Coeff-En:   0.000D+00 0.100D+01
 Coeff:      0.252D+00 0.748D+00
 Gap=     0.169 Goal=   None    Shift=    0.000
 RMSDP=8.65D-04 MaxDP=3.96D-02 DE=-1.19D-02 OVMax= 2.37D-02

 Cycle   3  Pass 1  IDiag  1:
 RMSU=  6.69D-04    CP:  9.89D-01  7.56D-01
 E= -323.884764696767     Delta-E=        0.002236923057 Rises=F Damp=F
 DIIS: error= 5.59D-03 at cycle   3 NSaved=   3.
 NSaved= 3 IEnMin= 2 EnMin= -323.887001619824     IErMin= 2 ErrMin= 4.08D-03
 ErrMax= 5.59D-03  0.00D+00 EMaxC= 1.00D-01 BMatC= 5.50D-03 BMatP= 2.57D-03
 IDIUse=3 WtCom= 1.18D-01 WtEn= 8.82D-01
 Coeff-Com:  0.254D-01 0.586D+00 0.388D+00
 Coeff-En:   0.000D+00 0.647D+00 0.353D+00
 Coeff:      0.299D-02 0.639D+00 0.358D+00
 Gap=     0.176 Goal=   None    Shift=    0.000
 RMSDP=4.88D-04 MaxDP=1.32D-02 DE= 2.24D-03 OVMax= 2.08D-02

 Cycle   4  Pass 1  IDiag  1:
 RMSU=  2.10D-04    CP:  9.81D-01  8.43D-01  4.25D-01
 E= -323.888613766150     Delta-E=       -0.003849069383 Rises=F Damp=F
 DIIS: error= 1.19D-03 at cycle   4 NSaved=   4.
 NSaved= 4 IEnMin= 4 EnMin= -323.888613766150     IErMin= 4 ErrMin= 1.19D-03
 ErrMax= 1.19D-03  0.00D+00 EMaxC= 1.00D-01 BMatC= 2.43D-04 BMatP= 2.57D-03
 IDIUse=3 WtCom= 9.88D-01 WtEn= 1.19D-02
 Coeff-Com:  0.826D-02 0.372D+00 0.217D+00 0.403D+00
 Coeff-En:   0.000D+00 0.153D-01 0.000D+00 0.985D+00
 Coeff:      0.816D-02 0.368D+00 0.214D+00 0.410D+00
 Gap=     0.177 Goal=   None    Shift=    0.000
 RMSDP=2.00D-04 MaxDP=1.28D-02 DE=-3.85D-03 OVMax= 7.88D-03

 Cycle   5  Pass 1  IDiag  1:
 RMSU=  1.08D-04    CP:  9.78D-01  8.79D-01  3.20D-01  4.07D-01
 E= -323.888750878483     Delta-E=       -0.000137112333 Rises=F Damp=F
 DIIS: error= 7.18D-04 at cycle   5 NSaved=   5.
 NSaved= 5 IEnMin= 5 EnMin= -323.888750878483     IErMin= 5 ErrMin= 7.18D-04
 ErrMax= 7.18D-04  0.00D+00 EMaxC= 1.00D-01 BMatC= 7.79D-05 BMatP= 2.43D-04
 IDIUse=3 WtCom= 9.93D-01 WtEn= 7.18D-03
 Coeff-Com: -0.305D-04 0.165D+00 0.916D-01 0.330D+00 0.413D+00
 Coeff-En:   0.000D+00 0.000D+00 0.000D+00 0.270D+00 0.730D+00
 Coeff:     -0.303D-04 0.163D+00 0.909D-01 0.330D+00 0.416D+00
 Gap=     0.176 Goal=   None    Shift=    0.000
 RMSDP=7.49D-05 MaxDP=3.34D-03 DE=-1.37D-04 OVMax= 3.45D-03

 Cycle   6  Pass 1  IDiag  1:
 RMSU=  1.77D-05    CP:  9.79D-01  8.81D-01  3.46D-01  5.12D-01  3.96D-01
 E= -323.888803755056     Delta-E=       -0.000052876572 Rises=F Damp=F
 DIIS: error= 1.64D-04 at cycle   6 NSaved=   6.
 NSaved= 6 IEnMin= 6 EnMin= -323.888803755056     IErMin= 6 ErrMin= 1.64D-04
 ErrMax= 1.64D-04  0.00D+00 EMaxC= 1.00D-01 BMatC= 4.17D-06 BMatP= 7.79D-05
 IDIUse=3 WtCom= 9.98D-01 WtEn= 1.64D-03
 Coeff-Com:  0.220D-03 0.772D-01 0.440D-01 0.179D+00 0.275D+00 0.424D+00
 Coeff-En:   0.000D+00 0.000D+00 0.000D+00 0.000D+00 0.227D-01 0.977D+00
 Coeff:      0.220D-03 0.770D-01 0.440D-01 0.179D+00 0.275D+00 0.425D+00
 Gap=     0.176 Goal=   None    Shift=    0.000
 RMSDP=1.08D-05 MaxDP=1.76D-04 DE=-5.29D-05 OVMax= 5.28D-04

 Cycle   7  Pass 1  IDiag  1:
 RMSU=  5.96D-06    CP:  9.79D-01  8.81D-01  3.52D-01  4.89D-01  4.19D-01
                    CP:  6.84D-01
 E= -323.888807251347     Delta-E=       -0.000003496291 Rises=F Damp=F
 DIIS: error= 1.19D-05 at cycle   7 NSaved=   7.
 NSaved= 7 IEnMin= 7 EnMin= -323.888807251347     IErMin= 7 ErrMin= 1.19D-05
 ErrMax= 1.19D-05  0.00D+00 EMaxC= 1.00D-01 BMatC= 4.16D-08 BMatP= 4.17D-06
 IDIUse=1 WtCom= 1.00D+00 WtEn= 0.00D+00
 Coeff-Com:  0.145D-04 0.160D-01 0.988D-02 0.409D-01 0.729D-01 0.145D+00
 Coeff-Com:  0.715D+00
 Coeff:      0.145D-04 0.160D-01 0.988D-02 0.409D-01 0.729D-01 0.145D+00
 Coeff:      0.715D+00
 Gap=     0.176 Goal=   None    Shift=    0.000
 RMSDP=2.25D-06 MaxDP=7.61D-05 DE=-3.50D-06 OVMax= 5.61D-05

 Cycle   8  Pass 1  IDiag  1:
 RMSU=  1.17D-06    CP:  9.79D-01  8.80D-01  3.54D-01  4.92D-01  4.27D-01
                    CP:  6.58D-01  8.85D-01
 E= -323.888807266933     Delta-E=       -0.000000015586 Rises=F Damp=F
 DIIS: error= 7.92D-06 at cycle   8 NSaved=   8.
 NSaved= 8 IEnMin= 8 EnMin= -323.888807266933     IErMin= 8 ErrMin= 7.92D-06
 ErrMax= 7.92D-06  0.00D+00 EMaxC= 1.00D-01 BMatC= 1.51D-08 BMatP= 4.16D-08
 IDIUse=1 WtCom= 1.00D+00 WtEn= 0.00D+00
 Coeff-Com: -0.249D-04 0.345D-02 0.236D-02 0.107D-01 0.214D-01 0.546D-01
 Coeff-Com:  0.436D+00 0.471D+00
 Coeff:     -0.249D-04 0.345D-02 0.236D-02 0.107D-01 0.214D-01 0.546D-01
 Coeff:      0.436D+00 0.471D+00
 Gap=     0.176 Goal=   None    Shift=    0.000
 RMSDP=7.88D-07 MaxDP=4.13D-05 DE=-1.56D-08 OVMax= 2.45D-05

 Cycle   9  Pass 1  IDiag  1:
 RMSU=  3.15D-07    CP:  9.79D-01  8.81D-01  3.53D-01  4.91D-01  4.28D-01
                    CP:  6.71D-01  8.91D-01  6.65D-01
 E= -323.888807279884     Delta-E=       -0.000000012951 Rises=F Damp=F
 DIIS: error= 1.84D-06 at cycle   9 NSaved=   9.
 NSaved= 9 IEnMin= 9 EnMin= -323.888807279884     IErMin= 9 ErrMin= 1.84D-06
 ErrMax= 1.84D-06  0.00D+00 EMaxC= 1.00D-01 BMatC= 4.23D-10 BMatP= 1.51D-08
 IDIUse=1 WtCom= 1.00D+00 WtEn= 0.00D+00
 Coeff-Com: -0.988D-05 0.829D-03 0.478D-03 0.298D-02 0.514D-02 0.161D-01
 Coeff-Com:  0.134D+00 0.175D+00 0.665D+00
 Coeff:     -0.988D-05 0.829D-03 0.478D-03 0.298D-02 0.514D-02 0.161D-01
 Coeff:      0.134D+00 0.175D+00 0.665D+00
 Gap=     0.176 Goal=   None    Shift=    0.000
 RMSDP=2.08D-07 MaxDP=6.80D-06 DE=-1.30D-08 OVMax= 7.62D-06

 Cycle  10  Pass 1  IDiag  1:
 RMSU=  1.04D-07    CP:  9.79D-01  8.81D-01  3.53D-01  4.91D-01  4.27D-01
                    CP:  6.75D-01  9.01D-01  6.36D-01  9.36D-01
 E= -323.888807280222     Delta-E=       -0.000000000338 Rises=F Damp=F
 DIIS: error= 4.80D-07 at cycle  10 NSaved=  10.
 NSaved=10 IEnMin=10 EnMin= -323.888807280222     IErMin=10 ErrMin= 4.80D-07
 ErrMax= 4.80D-07  0.00D+00 EMaxC= 1.00D-01 BMatC= 4.07D-11 BMatP= 4.23D-10
 IDIUse=1 WtCom= 1.00D+00 WtEn= 0.00D+00
 Coeff-Com: -0.290D-05 0.162D-03 0.482D-04 0.816D-03 0.111D-02 0.476D-02
 Coeff-Com:  0.420D-01 0.613D-01 0.366D+00 0.523D+00
 Coeff:     -0.290D-05 0.162D-03 0.482D-04 0.816D-03 0.111D-02 0.476D-02
 Coeff:      0.420D-01 0.613D-01 0.366D+00 0.523D+00
 Gap=     0.176 Goal=   None    Shift=    0.000
 RMSDP=6.77D-08 MaxDP=4.13D-06 DE=-3.38D-10 OVMax= 1.53D-06

 Cycle  11  Pass 1  IDiag  1:
 RMSU=  2.40D-08    CP:  9.79D-01  8.81D-01  3.53D-01  4.92D-01  4.27D-01
                    CP:  6.74D-01  8.99D-01  6.55D-01  9.38D-01  6.89D-01
 E= -323.888807280258     Delta-E=       -0.000000000036 Rises=F Damp=F
 DIIS: error= 4.70D-08 at cycle  11 NSaved=  11.
 NSaved=11 IEnMin=11 EnMin= -323.888807280258     IErMin=11 ErrMin= 4.70D-08
 ErrMax= 4.70D-08  0.00D+00 EMaxC= 1.00D-01 BMatC= 5.84D-13 BMatP= 4.07D-11
 IDIUse=1 WtCom= 1.00D+00 WtEn= 0.00D+00
 Coeff-Com: -0.159D-06-0.128D-04-0.212D-04 0.247D-04-0.363D-04 0.192D-03
 Coeff-Com:  0.254D-02 0.521D-02 0.576D-01 0.159D+00 0.776D+00
 Coeff:     -0.159D-06-0.128D-04-0.212D-04 0.247D-04-0.363D-04 0.192D-03
 Coeff:      0.254D-02 0.521D-02 0.576D-01 0.159D+00 0.776D+00
 Gap=     0.176 Goal=   None    Shift=    0.000
 RMSDP=1.39D-08 MaxDP=8.17D-07 DE=-3.60D-11 OVMax= 1.67D-07

 Cycle  12  Pass 1  IDiag  1:
 RMSU=  4.39D-09    CP:  9.79D-01  8.81D-01  3.53D-01  4.92D-01  4.27D-01
                    CP:  6.74D-01  9.00D-01  6.54D-01  9.48D-01  7.28D-01
                    CP:  8.56D-01
 E= -323.888807280261     Delta-E=       -0.000000000002 Rises=F Damp=F
 DIIS: error= 2.35D-08 at cycle  12 NSaved=  12.
 NSaved=12 IEnMin=12 EnMin= -323.888807280261     IErMin=12 ErrMin= 2.35D-08
 ErrMax= 2.35D-08  0.00D+00 EMaxC= 1.00D-01 BMatC= 5.76D-14 BMatP= 5.84D-13
 IDIUse=1 WtCom= 1.00D+00 WtEn= 0.00D+00
 Coeff-Com:  0.228D-07-0.925D-05-0.591D-05-0.214D-04-0.340D-04-0.954D-04
 Coeff-Com: -0.436D-03-0.253D-03 0.458D-02 0.256D-01 0.207D+00 0.763D+00
 Coeff:      0.228D-07-0.925D-05-0.591D-05-0.214D-04-0.340D-04-0.954D-04
 Coeff:     -0.436D-03-0.253D-03 0.458D-02 0.256D-01 0.207D+00 0.763D+00
 Gap=     0.176 Goal=   None    Shift=    0.000
 RMSDP=1.89D-09 MaxDP=4.18D-08 DE=-2.33D-12 OVMax= 1.04D-07

 Error on total polarization charges =  0.00976
 SCF Done:  E(RB-P86) =  -323.888807280     A.U. after   12 cycles
            NFock= 12  Conv=0.19D-08     -V/T= 2.0047
 KE= 3.223793411580D+02 PE=-1.254981179170D+03 EE= 3.607466557653D+02
 Leave Link  502 at Mon Feb 22 21:18:27 2021, MaxMem=   104857600 cpu:             183.8 elap:               5.9
 (Enter /sw/arch/RedHatEnterpriseServer7/EB_production/2019/software/Gaussian/g16.c01/l701.exe)
 ... and contract with generalized density number  0.
 Compute integral first derivatives.
 R6Disp: Adding Grimme-D3 dispersion energy 1st derivatives to the gradient.
 PrsmSu:  requested number of processors reduced to:  30 ShMem   1 Linda.
 D1PCM: PCM CHGder 1st derivatives, ID1Alg=3 FixD1E=F DoIter=F DoCFld=F I1PDM=0.
 GePol: Maximum number of non-zero 1st derivatives   =     226
 CoulSu:  requested number of processors reduced to:  29 ShMem   1 Linda.
 CoulSu:  requested number of processors reduced to:  30 ShMem   1 Linda.
 Leave Link  701 at Mon Feb 22 21:18:27 2021, MaxMem=   104857600 cpu:              14.4 elap:               0.5
 (Enter /sw/arch/RedHatEnterpriseServer7/EB_production/2019/software/Gaussian/g16.c01/l702.exe)
 L702 exits ... SP integral derivatives will be done elsewhere.
 Leave Link  702 at Mon Feb 22 21:18:27 2021, MaxMem=   104857600 cpu:               0.7 elap:               0.0
 (Enter /sw/arch/RedHatEnterpriseServer7/EB_production/2019/software/Gaussian/g16.c01/l703.exe)
 Integral derivatives from FoFJK, PRISM(SPDF).
 Compute integral first derivatives, UseDBF=F ICtDFT=           0.
 Calling FoFJK, ICntrl=      2527 FMM=F ISym2X=0 I1Cent= 0 IOpClX= 0 NMat=1 NMatS=1 NMatT=0.
 FoFJK:  IHMeth= 1 ICntrl=    2527 DoSepK=F KAlg= 0 I1Cent=           0 FoldK=F
 IRaf=         0 NMat=       1 IRICut=       1 DoRegI=T DoRafI=F ISym2E= 0 IDoP0=0 IntGTp=1.
 FoFCou: FMM=F IPFlag=           0 FMFlag=      100000 FMFlg1=         800
         NFxFlg=           0 DoJE=F BraDBF=F KetDBF=F FulRan=T
         wScrn=  0.000000 ICntrl=      2527 IOpCl=  0 I1Cent=           0 NGrid=           0
         NMat0=    1 NMatS0=      1 NMatT0=    0 NMatD0=    1 NMtDS0=    0 NMtDT0=    0
 Symmetry not used in FoFCou.
 Leave Link  703 at Mon Feb 22 21:18:28 2021, MaxMem=   104857600 cpu:              19.3 elap:               0.6
 (Enter /sw/arch/RedHatEnterpriseServer7/EB_production/2019/software/Gaussian/g16.c01/l716.exe)
[...]
      6          8           0        1.055711   -2.521436   -1.352505
      7          1           0       -0.617132   -0.314837    1.449689
      8          1           0        0.686936    0.430163    0.498008
      9          1           0       -1.002021    0.996124    0.303659
     10          1           0       -1.647572   -1.244795   -0.637606
     11          1           0        0.245246    0.465560   -1.972034
     12          1           0        0.532628   -1.234809   -2.213919
     13          1           0       -0.965970   -0.455261   -2.652314
 ---------------------------------------------------------------------
                    Distance matrix (angstroms):
                    1          2          3          4          5
     1  C    0.000000
     2  C    1.523306   0.000000
     3  N    2.521851   1.516298   0.000000
     4  C    2.582528   1.573131   2.439985   0.000000
     5  O    3.010977   2.413416   3.604949   1.248622   0.000000
     6  O    3.506730   2.399729   2.488865   1.280496   2.280815
     7  H    1.097266   2.143092   3.456715   2.798558   2.741847
     8  H    1.100913   2.175661   2.775270   2.837290   3.329762
     9  H    1.099430   2.181787   2.825644   3.544931   4.025750
    10  H    2.171452   1.097869   2.126455   2.184256   2.744318
    11  H    2.543198   2.141703   1.026330   3.141378   4.260918
    12  H    3.136758   1.989509   1.086776   2.111166   3.359729
    13  H    3.230896   2.145901   1.025050   3.149982   4.266136
                    6          7          8          9         10
     6  O    0.000000
     7  H    3.939514   0.000000
     8  H    3.503189   1.778008   0.000000
     9  H    4.398906   1.783295   1.791831   0.000000
    10  H    3.073863   2.506676   3.089503   2.514842   0.000000
    11  H    3.156393   3.613986   2.509472   2.648764   2.879022
    12  H    1.634338   3.948457   3.185984   3.697351   2.690378
    13  H    3.169508   4.119203   3.666143   3.293265   2.268699
                   11         12         13
    11  H    0.000000
    12  H    1.741365   0.000000
    13  H    1.666655   1.745188   0.000000
 Stoichiometry    C3H7NO2
 Framework group  C1[X(C3H7NO2)]
 Deg. of freedom    33
 Full point group                 C1      NOp   1
 Largest Abelian subgroup         C1      NOp   1
 Largest concise Abelian subgroup C1      NOp   1
                         Standard orientation:                         
 ---------------------------------------------------------------------
 Center     Atomic      Atomic             Coordinates (Angstroms)
 Number     Number       Type             X           Y           Z
 ---------------------------------------------------------------------
      1          6           0        1.272311    1.305987    0.354026
      2          6           0        0.596413    0.181337   -0.419787
      3          7           0        1.219556   -1.169301   -0.125453
      4          6           0       -0.920205    0.000388   -0.043134
      5          8           0       -1.668750    0.986345   -0.206308
      6          8           0       -1.214282   -1.166327    0.395005
      7          1           0        0.742446    2.243682    0.144350
      8          1           0        1.223130    1.123291    1.438559
      9          1           0        2.324321    1.424971    0.057609
     10          1           0        0.666719    0.354633   -1.501610
     11          1           0        1.934635   -1.136072    0.610014
     12          1           0        0.326989   -1.682068    0.223082
     13          1           0        1.618010   -1.629757   -0.950038
 ---------------------------------------------------------------------
 Rotational constants (GHZ):           4.7955900           3.3880377           2.2055119
 Standard basis: TZVP (5D, 7F)
 There are   162 symmetry adapted cartesian basis functions of A   symmetry.
 There are   156 symmetry adapted basis functions of A   symmetry.
   156 basis functions,   266 primitive gaussians,   162 cartesian basis functions
    24 alpha electrons       24 beta electrons
       nuclear repulsion energy       248.9493803924 Hartrees.
 NAtoms=   13 NActive=   13 NUniq=   13 SFac= 1.00D+00 NAtFMM=   60 NAOKFM=F Big=F
 Integral buffers will be    131072 words long.
 Raffenetti 2 integral format.
 Two-electron integral symmetry is turned on.
 Warning! Using old PCM defaults because the COSMOthermo output has been requested.
 These settings can be overridden by following keywords.
 ------------------------------------------------------------------------------
 Polarizable Continuum Model (PCM)
 =================================
 Model                : C-PCM.
 Atomic radii         : Klamt.
 XCosmo               : -1.000 (infinite dielectric limit)
 Polarization charges : Electronic and nuclear charges.
 Charge compensation  : Type 3 (Electronic density weighted correction).
 Solution method      : On-the-fly selection.
 Cavity type          : VdW (van der Waals Surface) (Alpha=1.000).
 Cavity algorithm     : GePol (No added spheres)
                        Default sphere list used, NSphG=   13.
                        Tesserae with average area of 0.200 Ang**2.
                        Smoothing algorithm: None.
                        Polarization charges: point-like.
                        Self-potential: constant (ISelfS= 1).
                        Self-field    : global E.n sum rule (ISelfD= 3).
 Solvent              : Water, Eps=  78.355300 Eps(inf)=   1.777849
 ------------------------------------------------------------------------------
 Spheres list:
 ISph  on   Nord     Re0    Alpha      Xe            Ye            Ze
    1   C      1    2.0000  1.000      1.272311      1.305987      0.354026
    2   C      2    2.0000  1.000      0.596413      0.181337     -0.419787
    3   N      3    1.8300  1.000      1.219556     -1.169301     -0.125453
    4   C      4    2.0000  1.000     -0.920205      0.000388     -0.043134
    5   O      5    1.7200  1.000     -1.668750      0.986345     -0.206308
    6   O      6    1.7200  1.000     -1.214282     -1.166327      0.395005
    7   H      7    1.3000  1.000      0.742446      2.243682      0.144350
    8   H      8    1.3000  1.000      1.223130      1.123291      1.438559
    9   H      9    1.3000  1.000      2.324321      1.424971      0.057609
   10   H     10    1.3000  1.000      0.666719      0.354633     -1.501610
   11   H     11    1.3000  1.000      1.934635     -1.136072      0.610014
   12   H     12    1.3000  1.000      0.326989     -1.682068      0.223082
   13   H     13    1.3000  1.000      1.618010     -1.629757     -0.950038
 ------------------------------------------------------------------------------
 One-electron integrals computed using PRISM.
 PrsmSu:  requested number of processors reduced to:  29 ShMem   1 Linda.
 NBasis=   156 RedAO= T EigKep=  3.06D-04  NBF=   156
 NBsUse=   156 1.00D-06 EigRej= -1.00D+00 NBFU=   156
 Initial guess from the checkpoint file:  "QNAYBMKLOCPYGJ-UHFFFAOYSA-N.chk"
 B after Tr=    -0.000000   -0.000000   -0.000000
         Rot=    1.000000   -0.000000    0.000000    0.000000 Ang=   0.00 deg.
 Requested convergence on RMS density matrix=1.00D-08 within 128 cycles.
 Requested convergence on MAX density matrix=1.00D-06.
 Requested convergence on             energy=1.00D-06.
 No special actions if energy rises.
 Inv3:  Mode=1 IEnd=     2413827.
 Iteration    1 A*A^-1 deviation from unit magnitude is 3.33D-14 for    220.
 Iteration    1 A*A^-1 deviation from orthogonality  is 2.13D-14 for    435    220.
 Iteration    1 A^-1*A deviation from unit magnitude is 2.29D-14 for    435.
 Iteration    1 A^-1*A deviation from orthogonality  is 4.12D-14 for    435    220.
 Error on nuclear    polarization charges =  0.01085
 Error on electronic polarization charges = -0.03553
 SCF Done:  E(RB-P86) =  -323.903018545     A.U. after   11 cycles
            NFock= 11  Conv=0.68D-08     -V/T= 2.0046
 --------------------------------------------------------------------
 Variational C-PCM results
 =========================
 <psi(f)|   H    |psi(f)>                     (a.u.) =    -323.837850
 <psi(f)|H+V(f)/2|psi(f)>                     (a.u.) =    -323.903019
 Total free energy in solution:
 - with all non electrostatic terms           (a.u.) =    -323.894921
 --------------------------------------------------------------------
 (Polarized solute)-Solvent               (kcal/mol) =     -40.89
 --------------------------------------------------------------------
 Cavitation energy                        (kcal/mol) =      16.24
 Dispersion energy                        (kcal/mol) =     -12.25
 Repulsion energy                         (kcal/mol) =       1.09
 Total non electrostatic                  (kcal/mol) =       5.08
 --------------------------------------------------------------------
 Partition over spheres:
 Sphere  on Atom  Surface  Charge   GEl     GCav    GDR
    1      C1      16.96  -0.013   -0.55    1.99   -1.11
    2      C2       5.63  -0.040   -0.96    0.66   -0.12
    3      N3      10.24  -0.138   -4.50    1.24   -0.71
    4      C4      10.95   0.047   -1.69    1.29   -0.62
    5      O5      20.02   0.348  -12.12    2.49   -1.70
    6      O6      17.53   0.269   -7.10    2.18   -1.69
    7      H7       6.37  -0.022   -0.15    0.90   -0.62
    8      H8       6.54  -0.034   -0.43    0.92   -0.73
    9      H9       6.53  -0.034   -0.69    0.92   -0.79
   10      H10      6.51  -0.053   -0.89    0.92   -0.86
   11      H11      7.46  -0.137   -5.28    1.05   -0.84
   12      H12      3.68  -0.044   -0.76    0.52   -0.32
   13      H13      8.16  -0.148   -5.78    1.15   -1.05
 --------------------------------------------------------------------
 - cavitation energy not included in the total energy.
 - dispersion energy not included in the total energy.
 - repulsion  energy not included in the total energy.
 After PCM corrections, the energy is  -323.903018545     a.u.
 --------------------------------------------------------------------
 Writing COSMO formatted file "QNAYBMKLOCPYGJ-UHFFFAOYSA-N.cosmo"
 Recomputed dielectric energy= -0.065344 old= -0.065168 diff=-1.76D-04

 **********************************************************************

            Population analysis using the SCF Density.

 **********************************************************************

 Orbital symmetries:
       Occupied  (A) (A) (A) (A) (A) (A) (A) (A) (A) (A) (A) (A)
                 (A) (A) (A) (A) (A) (A) (A) (A) (A) (A) (A) (A)
       Virtual   (A) (A) (A) (A) (A) (A) (A) (A) (A) (A) (A) (A)
                 (A) (A) (A) (A) (A) (A) (A) (A) (A) (A) (A) (A)
                 (A) (A) (A) (A) (A) (A) (A) (A) (A) (A) (A) (A)
                 (A) (A) (A) (A) (A) (A) (A) (A) (A) (A) (A) (A)
                 (A) (A) (A) (A) (A) (A) (A) (A) (A) (A) (A) (A)
                 (A) (A) (A) (A) (A) (A) (A) (A) (A) (A) (A) (A)
                 (A) (A) (A) (A) (A) (A) (A) (A) (A) (A) (A) (A)
                 (A) (A) (A) (A) (A) (A) (A) (A) (A) (A) (A) (A)
                 (A) (A) (A) (A) (A) (A) (A) (A) (A) (A) (A) (A)
                 (A) (A) (A) (A) (A) (A) (A) (A) (A) (A) (A) (A)
                 (A) (A) (A) (A) (A) (A) (A) (A) (A) (A) (A) (A)
 The electronic state is 1-A.
 Alpha  occ. eigenvalues --  -18.74113 -18.73089 -14.07975  -9.99521  -9.95456
 Alpha  occ. eigenvalues --   -9.89844  -0.96425  -0.89560  -0.87097  -0.69810
 Alpha  occ. eigenvalues --   -0.59228  -0.51212  -0.49384  -0.47044  -0.43454
 Alpha  occ. eigenvalues --   -0.39953  -0.37661  -0.36974  -0.34693  -0.34028
 Alpha  occ. eigenvalues --   -0.32375  -0.24311  -0.23413  -0.21439
 Alpha virt. eigenvalues --   -0.01189   0.01561   0.05517   0.05843   0.08261
 Alpha virt. eigenvalues --    0.08645   0.09803   0.10296   0.11743   0.14413
 Alpha virt. eigenvalues --    0.15706   0.18416   0.20275   0.20923   0.22110
 Alpha virt. eigenvalues --    0.24569   0.26312   0.27722   0.28309   0.30064
 Alpha virt. eigenvalues --    0.33532   0.33898   0.36447   0.38803   0.39235
 Alpha virt. eigenvalues --    0.39758   0.41615   0.42641   0.43643   0.43906
 Alpha virt. eigenvalues --    0.44383   0.45823   0.46398   0.50124   0.51553
 Alpha virt. eigenvalues --    0.52528   0.54785   0.57695   0.60398   0.61425
 Alpha virt. eigenvalues --    0.69858   0.75384   0.77813   0.90508   1.03686
 Alpha virt. eigenvalues --    1.07994   1.20066   1.22254   1.23622   1.26030
 Alpha virt. eigenvalues --    1.28403   1.30623   1.30885   1.33501   1.36369
 Alpha virt. eigenvalues --    1.39328   1.42709   1.45317   1.45639   1.47197
 Alpha virt. eigenvalues --    1.49169   1.51795   1.54096   1.56321   1.60507
 Alpha virt. eigenvalues --    1.61132   1.62969   1.65917   1.71502   1.73207
 Alpha virt. eigenvalues --    1.76431   1.77750   1.81068   1.84321   1.85689
 Alpha virt. eigenvalues --    1.86415   1.87716   1.96473   2.05440   2.14546
 Alpha virt. eigenvalues --    2.18350   2.19662   2.22152   2.24111   2.28120
 Alpha virt. eigenvalues --    2.29297   2.36134   2.41549   2.45432   2.47774
 Alpha virt. eigenvalues --    2.49169   2.50513   2.52118   2.54163   2.54588
 Alpha virt. eigenvalues --    2.55929   2.57992   2.59024   2.60137   2.62544
 Alpha virt. eigenvalues --    2.63500   2.65435   2.67482   2.69250   2.73048
 Alpha virt. eigenvalues --    2.74405   2.75496   2.80205   2.91978   2.93012
 Alpha virt. eigenvalues --    2.98678   3.04947   3.09109   3.13072   3.16908
 Alpha virt. eigenvalues --    3.18323   3.22305   3.26382   3.27374   3.29677
 Alpha virt. eigenvalues --    3.41704   3.60830   3.78476   3.81249   4.00741
 Alpha virt. eigenvalues --    4.12181  21.66519  21.78523  21.80985  31.38980
 Alpha virt. eigenvalues --   43.06965  43.20593
          Condensed to atoms (all electrons):
               1          2          3          4          5          6
     1  C    5.236120   0.121331  -0.025696  -0.027219   0.016636  -0.006007
     2  C    0.121331   6.306917   0.043209  -0.048992  -0.219315  -0.240735
     3  N   -0.025696   0.043209   6.361517  -0.009320   0.009503  -0.051196
     4  C   -0.027219  -0.048992  -0.009320   4.812923   0.600553   0.494629
     5  O    0.016636  -0.219315   0.009503   0.600553   8.147492  -0.109215
     6  O   -0.006007  -0.240735  -0.051196   0.494629  -0.109215   8.273206
     7  H    0.377659  -0.041655   0.010257   0.000293   0.016456   0.001702
     8  H    0.373843  -0.032853  -0.003105   0.002362  -0.002156   0.004070
     9  H    0.409875  -0.042945  -0.001061   0.005659   0.000043  -0.000576
    10  H   -0.037666   0.383995  -0.028766  -0.005912   0.005339   0.004025
    11  H   -0.001724  -0.021295   0.346984   0.002588  -0.000118   0.001986
    12  H    0.005550  -0.064466   0.293071  -0.011410   0.004753   0.107550
    13  H   -0.000092  -0.005137   0.338546   0.003201  -0.000039   0.002052
               7          8          9         10         11         12
     1  C    0.377659   0.373843   0.409875  -0.037666  -0.001724   0.005550
     2  C   -0.041655  -0.032853  -0.042945   0.383995  -0.021295  -0.064466
     3  N    0.010257  -0.003105  -0.001061  -0.028766   0.346984   0.293071
     4  C    0.000293   0.002362   0.005659  -0.005912   0.002588  -0.011410
     5  O    0.016456  -0.002156   0.000043   0.005339  -0.000118   0.004753
     6  O    0.001702   0.004070  -0.000576   0.004025   0.001986   0.107550
     7  H    0.510489  -0.017825  -0.016155  -0.000984   0.000256  -0.000490
     8  H   -0.017825   0.541183  -0.030253   0.007815   0.001629   0.000874
     9  H   -0.016155  -0.030253   0.514516  -0.008082   0.000006  -0.000633
    10  H   -0.000984   0.007815  -0.008082   0.465366   0.002031   0.004195
    11  H    0.000256   0.001629   0.000006   0.002031   0.361578  -0.005672
    12  H   -0.000490   0.000874  -0.000633   0.004195  -0.005672   0.380673
    13  H   -0.000275   0.000006   0.000148  -0.004023  -0.010942  -0.004874
              13
     1  C   -0.000092
     2  C   -0.005137
     3  N    0.338546
     4  C    0.003201
     5  O   -0.000039
     6  O    0.002052
     7  H   -0.000275
     8  H    0.000006
     9  H    0.000148
    10  H   -0.004023
    11  H   -0.010942
    12  H   -0.004874
    13  H    0.356423
 Mulliken charges:
               1
     1  C   -0.442609
     2  C   -0.138059
     3  N   -0.283942
     4  C    0.180646
     5  O   -0.469932
     6  O   -0.481491
     7  H    0.160272
     8  H    0.154411
     9  H    0.169459
    10  H    0.212668
    11  H    0.322693
    12  H    0.290879
    13  H    0.325005
 Sum of Mulliken charges =  -0.00000
 Mulliken charges with hydrogens summed into heavy atoms:
               1
     1  C    0.041533
     2  C    0.074609
     3  N    0.654635
     4  C    0.180646
     5  O   -0.469932
     6  O   -0.481491
 Electronic spatial extent (au):  <R**2>=            578.4096
 Charge=             -0.0000 electrons
 Dipole moment (field-independent basis, Debye):
    X=             12.1850    Y=             -3.5156    Z=             -1.3191  Tot=             12.7505
 Quadrupole moment (field-independent basis, Debye-Ang):
   XX=            -40.6412   YY=            -36.3726   ZZ=            -33.9828
   XY=             -4.4491   XZ=              0.0516   YZ=              3.0248
 Traceless Quadrupole moment (field-independent basis, Debye-Ang):
   XX=             -3.6424   YY=              0.6263   ZZ=              3.0161
   XY=             -4.4491   XZ=              0.0516   YZ=              3.0248
 Octapole moment (field-independent basis, Debye-Ang**2):
  XXX=             42.6223  YYY=            -14.8663  ZZZ=             -3.2848  XYY=             21.9505
  XXY=            -14.8142  XXZ=             -1.3015  XZZ=              6.8190  YZZ=             -4.6619
  YYZ=             -3.3013  XYZ=             -1.6648
 Hexadecapole moment (field-independent basis, Debye-Ang**3):
 XXXX=           -385.8194 YYYY=           -263.4677 ZZZZ=            -67.5202 XXXY=            -17.7901
 XXXZ=             -0.3088 YYYX=            -22.6224 YYYZ=              6.1875 ZZZX=             -2.7444
 ZZZY=              2.8927 XXYY=           -110.4573 XXZZ=            -70.7175 YYZZ=            -55.3585
 XXYZ=              6.1660 YYXZ=             -3.6448 ZZXY=             -8.8369
 N-N= 2.489493803924D+02 E-N=-1.256878132818D+03  KE= 3.224060327793D+02
 Unable to Open any file for archive entry.
 1\1\GINC-TCN1649\SP\RBP86\TZVP\C3H7N1O2\ELENAA\22-Feb-2021\0\\# BP86/T
 ZVP SCRF=COSMORS geom=CHECKPOINT guess=CHECKPOINT\\COSMO-file for #QNA
 YBMKLOCPYGJ-UHFFFAOYSA-N\\0,1\C,0,-0.3673121799,0.1141733214,0.4711522
 761\C,0,-0.59136172,-0.9479150673,-0.5976001325\N,0,-0.1940729603,-0.4
 619730342,-1.9778838232\C,0,0.2794541391,-2.2388369457,-0.3741219143\O
 ,0,0.130127135,-2.8460782736,0.7066259268\O,0,1.0557112282,-2.52143628
 71,-1.3525045903\H,0,-0.6171317899,-0.3148366035,1.4496885288\H,0,0.68
 6935631,0.4301628519,0.4980081951\H,0,-1.0020210396,0.9961240894,0.303
 6586298\H,0,-1.6475716474,-1.2447947478,-0.6376060371\H,0,0.245245965,
 0.4655602125,-1.9720337404\H,0,0.5326276765,-1.2348088849,-2.213919060
 1\H,0,-0.9659704376,-0.4552606311,-2.6523142588\\Version=ES64L-G16RevC
 .01\State=1-A\HF=-323.9030185\RMSD=6.762e-09\Dipole=-1.6657493,4.03936
 09,-2.4644079\Quadrupole=0.1176089,-2.6314934,2.5138845,2.5303576,2.77
 69252,-1.2435239\PG=C01 [X(C3H7N1O2)]\\@
 The archive entry for this job was punched.


 WE HAVE LEFT UNDONE THOSE THINGS WHICH WE OUGHT TO HAVE DONE,
 AND WE HAVE DONE THOSE THINGS WHICH WE OUGHT NOT TO HAVE DONE.
                   BOOK OF COMMON PRAYER                      
 Job cpu time:       0 days  0 hours  2 minutes 59.0 seconds.
 Elapsed time:       0 days  0 hours  0 minutes  5.9 seconds.
 File lengths (MBytes):  RWF=     24 Int=      0 D2E=      0 Chk=      6 Scr=      1
 Normal termination of Gaussian 16 at Mon Feb 22 21:20:35 2021.
