 Entering Gaussian System, Link 0=g16
 Input=QVRFXIWAQRNWEX-UHFFFAOYSA-M.gjf
 Output=QVRFXIWAQRNWEX-UHFFFAOYSA-M.log
 Initial command:
 /sw/arch/RedHatEnterpriseServer7/EB_production/2020/software/Gaussian/g16.c01/l1.exe "/scratch-local/elenaa.10684703/Gau-868.inp" -scrdir="/scratch-local/elenaa.10684703/"
 Entering Link 1 = /sw/arch/RedHatEnterpriseServer7/EB_production/2020/software/Gaussian/g16.c01/l1.exe PID=       870.
  
 Copyright (c) 1988-2019, Gaussian, Inc.  All Rights Reserved.
  
 This is part of the Gaussian(R) 16 program.  It is based on
 the Gaussian(R) 09 system (copyright 2009, Gaussian, Inc.),
 the Gaussian(R) 03 system (copyright 2003, Gaussian, Inc.),
 the Gaussian(R) 98 system (copyright 1998, Gaussian, Inc.),
 the Gaussian(R) 94 system (copyright 1995, Gaussian, Inc.),
 the Gaussian 92(TM) system (copyright 1992, Gaussian, Inc.),
 the Gaussian 90(TM) system (copyright 1990, Gaussian, Inc.),
 the Gaussian 88(TM) system (copyright 1988, Gaussian, Inc.),
 the Gaussian 86(TM) system (copyright 1986, Carnegie Mellon
 University), and the Gaussian 82(TM) system (copyright 1983,
 Carnegie Mellon University). Gaussian is a federally registered
 trademark of Gaussian, Inc.
  
 This software contains proprietary and confidential information,
 including trade secrets, belonging to Gaussian, Inc.
  
 This software is provided under written license and may be
 used, copied, transmitted, or stored only in accord with that
 written license.
  
 The following legend is applicable only to US Government
 contracts under FAR:
  
                    RESTRICTED RIGHTS LEGEND
  
 Use, reproduction and disclosure by the US Government is
 subject to restrictions as set forth in subparagraphs (a)
 and (c) of the Commercial Computer Software - Restricted
 Rights clause in FAR 52.227-19.
  
 Gaussian, Inc.
 340 Quinnipiac St., Bldg. 40, Wallingford CT 06492
  
  
 ---------------------------------------------------------------
 Warning -- This program may not be used in any manner that
 competes with the business of Gaussian, Inc. or will provide
 assistance to any competitor of Gaussian, Inc.  The licensee
 of this program is prohibited from giving any competitor of
 Gaussian, Inc. access to this program.  By using this program,
 the user acknowledges that Gaussian, Inc. is engaged in the
 business of creating and licensing software in the field of
 computational chemistry and represents and warrants to the
 licensee that it is not a competitor of Gaussian, Inc. and that
 it will not use this program in any manner prohibited above.
 ---------------------------------------------------------------
  

 Cite this work as:
 Gaussian 16, Revision C.01,
 M. J. Frisch, G. W. Trucks, H. B. Schlegel, G. E. Scuseria, 
 M. A. Robb, J. R. Cheeseman, G. Scalmani, V. Barone, 
 G. A. Petersson, H. Nakatsuji, X. Li, M. Caricato, A. V. Marenich, 
 J. Bloino, B. G. Janesko, R. Gomperts, B. Mennucci, H. P. Hratchian, 
 J. V. Ortiz, A. F. Izmaylov, J. L. Sonnenberg, D. Williams-Young, 
 F. Ding, F. Lipparini, F. Egidi, J. Goings, B. Peng, A. Petrone, 
 T. Henderson, D. Ranasinghe, V. G. Zakrzewski, J. Gao, N. Rega, 
 G. Zheng, W. Liang, M. Hada, M. Ehara, K. Toyota, R. Fukuda, 
 J. Hasegawa, M. Ishida, T. Nakajima, Y. Honda, O. Kitao, H. Nakai, 
 T. Vreven, K. Throssell, J. A. Montgomery, Jr., J. E. Peralta, 
 F. Ogliaro, M. J. Bearpark, J. J. Heyd, E. N. Brothers, K. N. Kudin, 
 V. N. Staroverov, T. A. Keith, R. Kobayashi, J. Normand, 
 K. Raghavachari, A. P. Rendell, J. C. Burant, S. S. Iyengar, 
 J. Tomasi, M. Cossi, J. M. Millam, M. Klene, C. Adamo, R. Cammi, 
 J. W. Ochterski, R. L. Martin, K. Morokuma, O. Farkas, 
 J. B. Foresman, and D. J. Fox, Gaussian, Inc., Wallingford CT, 2019.
 
 ******************************************
 Gaussian 16:  ES64L-G16RevC.01  3-Jul-2019
                21-Aug-2021 
 ******************************************
 %chk=QVRFXIWAQRNWEX-UHFFFAOYSA-M.chk
 %NProcShared=24
 Will use up to   24 processors via shared memory.
 -------------------------------------------------------------
 #P BP86/TZVP EmpiricalDispersion=GD3 SCRF=(Solvent=Water) Opt
 -------------------------------------------------------------
 1/18=20,19=15,26=3,38=1/1,3;
 2/9=110,12=2,17=6,18=5,40=1/2;
 3/5=19,7=101,11=2,25=1,30=1,70=2201,71=1,72=1,74=404,124=31/1,2,3;
 4//1;
 5/5=2,38=5,53=1/2;
 6/7=2,8=2,9=2,10=2,28=1/1;
 7//1,2,3,16;
 1/18=20,19=15,26=3/3(2);
 2/9=110/2;
 99//99;
 2/9=110/2;
 3/5=19,7=101,11=2,25=1,30=1,70=2205,71=1,72=1,74=404,124=31/1,2,3;
 4/5=5,16=3,69=1/1;
 5/5=2,38=5,53=1/2;
 7//1,2,3,16;
 1/18=20,19=15,26=3/3(-5);
 2/9=110/2;
 6/7=2,8=2,9=2,10=2,19=2,28=1/1;
 99/9=1/99;
 Leave Link    1 at Sat Aug 21 09:33:12 2021, MaxMem=           0 cpu:               1.6 elap:               0.1
 (Enter /sw/arch/RedHatEnterpriseServer7/EB_production/2020/software/Gaussian/g16.c01/l101.exe)
 -------------------------------------
 Particle #QVRFXIWAQRNWEX-UHFFFAOYSA-M
 -------------------------------------
 Symbolic Z-matrix:
 Charge =  0 Multiplicity = 1
 C                    -1.88867  -1.9757   -0.94318 
 N                    -0.96911  -1.19006  -0.13078 
 C                    -1.12353  -0.85409   1.1652 
 C                    -0.08722  -0.01403   1.51935 
 N                     0.6976    0.16696   0.43797 
 C                     1.86339   1.04196   0.33987 
 C                     1.43747   2.48811   0.0832 
 O                     0.83282   2.60794  -1.17643 
 C                     0.1332   -0.54451  -0.55777 
 Cl                   -2.01337   2.01439  -0.67242 
 H                    -1.33439  -2.49152  -1.75582 
 H                    -2.39304  -2.7414   -0.31629 
 H                    -2.65401  -1.30751  -1.39008 
 H                    -1.94127  -1.1737    1.79813 
 H                     0.06717   0.4503    2.48474 
 H                     2.53004   0.6965   -0.48044 
 H                     2.44135   0.99426   1.2883 
 H                     0.75413   2.83956   0.89059 
 H                     2.34002   3.13462   0.10243 
 H                    -0.12941   2.39725  -1.05326 
 H                     0.50194  -0.57088  -1.57589 
 
 Add virtual bond connecting atoms H20        and Cl10       Dist= 3.70D+00.
 ITRead=  0  0  0  0  0  0  0  0  0  0  0  0  0  0  0  0  0  0  0  0
 ITRead=  0
 MicOpt= -1 -1 -1 -1 -1 -1 -1 -1 -1 -1 -1 -1 -1 -1 -1 -1 -1 -1 -1 -1
 MicOpt= -1
 NAtoms=     21 NQM=       21 NQMF=       0 NMMI=      0 NMMIF=      0
                NMic=       0 NMicF=      0.
                    Isotopes and Nuclear Properties:
 (Nuclear quadrupole moments (NQMom) in fm**2, nuclear magnetic moments (NMagM)
  in nuclear magnetons)

  Atom         1           2           3           4           5           6           7           8           9          10
 IAtWgt=          12          14          12          12          14          12          12          16          12          35
 AtmWgt=  12.0000000  14.0030740  12.0000000  12.0000000  14.0030740  12.0000000  12.0000000  15.9949146  12.0000000  34.9688527
 NucSpn=           0           2           0           0           2           0           0           0           0           3
 AtZEff=  -0.0000000  -0.0000000  -0.0000000  -0.0000000  -0.0000000  -0.0000000  -0.0000000  -0.0000000  -0.0000000  -0.0000000
 NQMom=    0.0000000   2.0440000   0.0000000   0.0000000   2.0440000   0.0000000   0.0000000   0.0000000   0.0000000  -8.1650000
 NMagM=    0.0000000   0.4037610   0.0000000   0.0000000   0.4037610   0.0000000   0.0000000   0.0000000   0.0000000   0.8218740
 AtZNuc=   6.0000000   7.0000000   6.0000000   6.0000000   7.0000000   6.0000000   6.0000000   8.0000000   6.0000000  17.0000000

  Atom        11          12          13          14          15          16          17          18          19          20
 IAtWgt=           1           1           1           1           1           1           1           1           1           1
 AtmWgt=   1.0078250   1.0078250   1.0078250   1.0078250   1.0078250   1.0078250   1.0078250   1.0078250   1.0078250   1.0078250
 NucSpn=           1           1           1           1           1           1           1           1           1           1
 AtZEff=  -0.0000000  -0.0000000  -0.0000000  -0.0000000  -0.0000000  -0.0000000  -0.0000000  -0.0000000  -0.0000000  -0.0000000
 NQMom=    0.0000000   0.0000000   0.0000000   0.0000000   0.0000000   0.0000000   0.0000000   0.0000000   0.0000000   0.0000000
 NMagM=    2.7928460   2.7928460   2.7928460   2.7928460   2.7928460   2.7928460   2.7928460   2.7928460   2.7928460   2.7928460
 AtZNuc=   1.0000000   1.0000000   1.0000000   1.0000000   1.0000000   1.0000000   1.0000000   1.0000000   1.0000000   1.0000000

  Atom        21
 IAtWgt=           1
 AtmWgt=   1.0078250
 NucSpn=           1
 AtZEff=  -0.0000000
 NQMom=    0.0000000
 NMagM=    2.7928460
 AtZNuc=   1.0000000
 Leave Link  101 at Sat Aug 21 09:33:13 2021, MaxMem=   104857600 cpu:               2.0 elap:               0.1
 (Enter /sw/arch/RedHatEnterpriseServer7/EB_production/2020/software/Gaussian/g16.c01/l103.exe)

 GradGradGradGradGradGradGradGradGradGradGradGradGradGradGradGradGradGrad
 Berny optimization.
 Initialization pass.
                           ----------------------------
                           !    Initial Parameters    !
                           ! (Angstroms and Degrees)  !
 --------------------------                            --------------------------
 ! Name  Definition              Value          Derivative Info.                !
 --------------------------------------------------------------------------------
 ! R1    R(1,2)                  1.457          estimate D2E/DX2                !
 ! R2    R(1,11)                 1.1107         estimate D2E/DX2                !
 ! R3    R(1,12)                 1.1107         estimate D2E/DX2                !
 ! R4    R(1,13)                 1.1099         estimate D2E/DX2                !
 ! R5    R(2,3)                  1.3477         estimate D2E/DX2                !
 ! R6    R(2,9)                  1.3469         estimate D2E/DX2                !
 ! R7    R(3,4)                  1.3802         estimate D2E/DX2                !
 ! R8    R(3,14)                 1.0823         estimate D2E/DX2                !
 ! R9    R(4,5)                  1.3484         estimate D2E/DX2                !
 ! R10   R(4,15)                 1.0823         estimate D2E/DX2                !
 ! R11   R(5,6)                  1.4609         estimate D2E/DX2                !
 ! R12   R(5,9)                  1.3477         estimate D2E/DX2                !
 ! R13   R(6,7)                  1.5293         estimate D2E/DX2                !
 ! R14   R(6,16)                 1.1121         estimate D2E/DX2                !
 ! R15   R(6,17)                 1.1117         estimate D2E/DX2                !
 ! R16   R(7,8)                  1.4024         estimate D2E/DX2                !
 ! R17   R(7,18)                 1.1146         estimate D2E/DX2                !
 ! R18   R(7,19)                 1.1104         estimate D2E/DX2                !
 ! R19   R(8,20)                 0.9927         estimate D2E/DX2                !
 ! R20   R(9,21)                 1.0832         estimate D2E/DX2                !
 ! R21   R(10,20)                1.9598         estimate D2E/DX2                !
 ! A1    A(2,1,11)             110.0851         estimate D2E/DX2                !
 ! A2    A(2,1,12)             110.0974         estimate D2E/DX2                !
 ! A3    A(2,1,13)             109.5778         estimate D2E/DX2                !
 ! A4    A(11,1,12)            108.6261         estimate D2E/DX2                !
 ! A5    A(11,1,13)            109.2145         estimate D2E/DX2                !
 ! A6    A(12,1,13)            109.2165         estimate D2E/DX2                !
 ! A7    A(1,2,3)              126.7481         estimate D2E/DX2                !
 ! A8    A(1,2,9)              126.741          estimate D2E/DX2                !
 ! A9    A(3,2,9)              106.2094         estimate D2E/DX2                !
 ! A10   A(2,3,4)              108.206          estimate D2E/DX2                !
 ! A11   A(2,3,14)             125.1204         estimate D2E/DX2                !
 ! A12   A(4,3,14)             126.6518         estimate D2E/DX2                !
 ! A13   A(3,4,5)              108.2357         estimate D2E/DX2                !
 ! A14   A(3,4,15)             126.6609         estimate D2E/DX2                !
 ! A15   A(5,4,15)             125.0816         estimate D2E/DX2                !
 ! A16   A(4,5,6)              126.7775         estimate D2E/DX2                !
 ! A17   A(4,5,9)              106.1377         estimate D2E/DX2                !
 ! A18   A(6,5,9)              126.9245         estimate D2E/DX2                !
 ! A19   A(5,6,7)              110.8182         estimate D2E/DX2                !
 ! A20   A(5,6,16)             109.989          estimate D2E/DX2                !
 ! A21   A(5,6,17)             109.3824         estimate D2E/DX2                !
 ! A22   A(7,6,16)             109.6899         estimate D2E/DX2                !
 ! A23   A(7,6,17)             109.1821         estimate D2E/DX2                !
 ! A24   A(16,6,17)            107.718          estimate D2E/DX2                !
 ! A25   A(6,7,8)              110.5881         estimate D2E/DX2                !
 ! A26   A(6,7,18)             110.3256         estimate D2E/DX2                !
 ! A27   A(6,7,19)             108.7419         estimate D2E/DX2                !
 ! A28   A(8,7,18)             111.0613         estimate D2E/DX2                !
 ! A29   A(8,7,19)             108.4369         estimate D2E/DX2                !
 ! A30   A(18,7,19)            107.5894         estimate D2E/DX2                !
 ! A31   A(7,8,20)             106.7589         estimate D2E/DX2                !
 ! A32   A(2,9,5)              111.1943         estimate D2E/DX2                !
 ! A33   A(2,9,21)             124.3968         estimate D2E/DX2                !
 ! A34   A(5,9,21)             124.3871         estimate D2E/DX2                !
 ! A35   L(8,20,10,4,-1)       177.6485         estimate D2E/DX2                !
 ! A36   L(8,20,10,4,-2)       176.4536         estimate D2E/DX2                !
 ! D1    D(11,1,2,3)          -153.0887         estimate D2E/DX2                !
 ! D2    D(11,1,2,9)            34.1014         estimate D2E/DX2                !
 ! D3    D(12,1,2,3)           -33.3586         estimate D2E/DX2                !
 ! D4    D(12,1,2,9)           153.8315         estimate D2E/DX2                !
 ! D5    D(13,1,2,3)            86.7815         estimate D2E/DX2                !
 ! D6    D(13,1,2,9)           -86.0284         estimate D2E/DX2                !
 ! D7    D(1,2,3,4)           -174.9429         estimate D2E/DX2                !
 ! D8    D(1,2,3,14)             3.4537         estimate D2E/DX2                !
 ! D9    D(9,2,3,4)             -0.9384         estimate D2E/DX2                !
 ! D10   D(9,2,3,14)           177.4582         estimate D2E/DX2                !
 ! D11   D(1,2,9,5)            175.358          estimate D2E/DX2                !
 ! D12   D(1,2,9,21)            -3.0066         estimate D2E/DX2                !
 ! D13   D(3,2,9,5)              1.3529         estimate D2E/DX2                !
 ! D14   D(3,2,9,21)          -177.0116         estimate D2E/DX2                !
 ! D15   D(2,3,4,5)              0.2202         estimate D2E/DX2                !
 ! D16   D(2,3,4,15)           178.5832         estimate D2E/DX2                !
 ! D17   D(14,3,4,5)          -178.145          estimate D2E/DX2                !
 ! D18   D(14,3,4,15)            0.2179         estimate D2E/DX2                !
 ! D19   D(3,4,5,6)            176.2217         estimate D2E/DX2                !
 ! D20   D(3,4,5,9)              0.5901         estimate D2E/DX2                !
 ! D21   D(15,4,5,6)            -2.1735         estimate D2E/DX2                !
 ! D22   D(15,4,5,9)          -177.8051         estimate D2E/DX2                !
 ! D23   D(4,5,6,7)            -81.2909         estimate D2E/DX2                !
 ! D24   D(4,5,6,16)           157.2508         estimate D2E/DX2                !
 ! D25   D(4,5,6,17)            39.134          estimate D2E/DX2                !
 ! D26   D(9,5,6,7)             93.4577         estimate D2E/DX2                !
 ! D27   D(9,5,6,16)           -28.0006         estimate D2E/DX2                !
 ! D28   D(9,5,6,17)          -146.1174         estimate D2E/DX2                !
 ! D29   D(4,5,9,2)             -1.2168         estimate D2E/DX2                !
 ! D30   D(4,5,9,21)           177.1479         estimate D2E/DX2                !
 ! D31   D(6,5,9,2)           -176.84           estimate D2E/DX2                !
 ! D32   D(6,5,9,21)             1.5248         estimate D2E/DX2                !
 ! D33   D(5,6,7,8)            -65.8826         estimate D2E/DX2                !
 ! D34   D(5,6,7,18)            57.3829         estimate D2E/DX2                !
 ! D35   D(5,6,7,19)           175.1569         estimate D2E/DX2                !
 ! D36   D(16,6,7,8)            55.7515         estimate D2E/DX2                !
 ! D37   D(16,6,7,18)          179.017          estimate D2E/DX2                !
 ! D38   D(16,6,7,19)          -63.209          estimate D2E/DX2                !
 ! D39   D(17,6,7,8)           173.5734         estimate D2E/DX2                !
 ! D40   D(17,6,7,18)          -63.1611         estimate D2E/DX2                !
 ! D41   D(17,6,7,19)           54.613          estimate D2E/DX2                !
 ! D42   D(6,7,8,20)            86.6131         estimate D2E/DX2                !
 ! D43   D(18,7,8,20)          -36.2253         estimate D2E/DX2                !
 ! D44   D(19,7,8,20)         -154.2418         estimate D2E/DX2                !
 --------------------------------------------------------------------------------
 Trust Radius=3.00D-01 FncErr=1.00D-07 GrdErr=1.00D-06 EigMax=2.50D+02 EigMin=1.00D-04
 Number of steps in this run=    111 maximum allowed number of steps=    126.
 GradGradGradGradGradGradGradGradGradGradGradGradGradGradGradGradGradGrad

 Leave Link  103 at Sat Aug 21 09:33:13 2021, MaxMem=   104857600 cpu:               0.3 elap:               0.0
 (Enter /sw/arch/RedHatEnterpriseServer7/EB_production/2020/software/Gaussian/g16.c01/l202.exe)
                          Input orientation:                          
 ---------------------------------------------------------------------
 Center     Atomic      Atomic             Coordinates (Angstroms)
 Number     Number       Type             X           Y           Z
 ---------------------------------------------------------------------
      1          6           0       -1.888668   -1.975695   -0.943184
      2          7           0       -0.969108   -1.190055   -0.130780
      3          6           0       -1.123532   -0.854086    1.165203
      4          6           0       -0.087221   -0.014027    1.519353
      5          7           0        0.697597    0.166955    0.437967
      6          6           0        1.863392    1.041963    0.339865
      7          6           0        1.437465    2.488108    0.083200
      8          8           0        0.832823    2.607942   -1.176427
      9          6           0        0.133203   -0.544507   -0.557773
     10         17           0       -2.013366    2.014392   -0.672420
     11          1           0       -1.334388   -2.491520   -1.755818
     12          1           0       -2.393038   -2.741398   -0.316292
     13          1           0       -2.654014   -1.307510   -1.390075
     14          1           0       -1.941267   -1.173697    1.798129
     15          1           0        0.067168    0.450296    2.484737
     16          1           0        2.530038    0.696503   -0.480438
     17          1           0        2.441350    0.994256    1.288302
     18          1           0        0.754125    2.839560    0.890592
     19          1           0        2.340021    3.134624    0.102427
     20          1           0       -0.129407    2.397250   -1.053259
     21          1           0        0.501938   -0.570882   -1.575887
 ---------------------------------------------------------------------
                    Distance matrix (angstroms):
                    1          2          3          4          5
     1  C    0.000000
     2  N    1.456990   0.000000
     3  C    2.507735   1.347699   0.000000
     4  C    3.627319   2.209911   1.380240   0.000000
     5  N    3.631431   2.223253   2.210861   1.348365   0.000000
     6  C    4.983014   3.636821   3.632891   2.512210   1.460938
     7  C    5.660580   4.400712   4.347378   3.263109   2.461913
     8  O    5.335789   4.331872   4.614780   3.871490   2.929671
     9  C    2.506951   1.346902   2.154964   2.155098   1.347671
    10  Cl   4.001207   3.413551   3.520914   3.553645   3.463424
    11  H    1.110710   2.113762   3.355296   4.291869   4.001143
    12  H    1.110713   2.113920   2.714483   4.015587   4.310388
    13  H    1.109927   2.106781   3.012875   4.089779   4.092564
    14  H    2.856705   2.160104   1.082329   2.204549   3.257452
    15  H    4.632642   3.256616   2.204620   1.082311   2.160322
    16  H    5.184567   3.990662   4.296631   3.369579   2.117009
    17  H    5.705190   4.291414   4.017450   2.731976   2.109069
    18  H    5.790835   4.500059   4.152593   3.040750   2.711251
    19  H    6.714944   5.450465   5.388460   4.220567   3.408402
    20  H    4.714845   3.798002   4.059685   3.526240   2.807473
    21  H    2.844083   2.153064   3.199364   3.199642   2.153670
                    6          7          8          9         10
     6  C    0.000000
     7  C    1.529257   0.000000
     8  O    2.411121   1.402360   0.000000
     9  C    2.513204   3.362841   3.287877   0.000000
    10  Cl   4.123056   3.564212   2.950782   3.341986   0.000000
    11  H    5.206072   5.988477   5.571087   2.716615   4.683803
    12  H    5.732500   6.494619   6.305668   3.356566   4.784195
    13  H    5.377701   5.772127   5.247327   3.007238   3.458395
    14  H    4.638007   5.269310   5.553769   3.201497   4.033947
    15  H    2.859540   3.434788   4.318077   3.201697   4.091780
    16  H    1.112051   2.172844   2.649252   2.700168   4.734576
    17  H    1.111685   2.166022   3.356521   3.332166   4.972887
    18  H    2.182917   1.114609   2.081444   3.732990   3.283735
    19  H    2.159348   1.110387   2.045607   4.340727   4.561500
    20  H    2.783675   1.937752   0.992697   2.994729   1.959826
    21  H    2.850427   3.603498   3.220866   1.083152   3.718420
                   11         12         13         14         15
    11  H    0.000000
    12  H    1.804277   0.000000
    13  H    1.810265   1.810291   0.000000
    14  H    3.838685   2.670685   3.269642   0.000000
    15  H    5.347985   4.907676   5.050632   2.672563   0.000000
    16  H    5.169514   6.006895   5.631865   5.355566   3.862462
    17  H    5.972730   6.316735   6.199562   4.916022   2.713686
    18  H    6.307598   6.519839   5.832242   4.918841   2.953268
    19  H    6.971933   7.556772   6.848394   6.306065   4.248162
    20  H    5.083861   5.663290   4.495813   4.915782   4.043104
    21  H    2.663328   3.831267   3.246102   4.209112   4.209572
                   16         17         18         19         20
    16  H    0.000000
    17  H    1.795818   0.000000
    18  H    3.102625   2.531807   0.000000
    19  H    2.514015   2.449029   1.795364   0.000000
    20  H    3.208319   3.749679   2.180556   2.824430   0.000000
    21  H    2.630487   3.796650   4.216424   4.463862   3.079212
                   21
    21  H    0.000000
 Stoichiometry    C6H11ClN2O
 Framework group  C1[X(C6H11ClN2O)]
 Deg. of freedom    57
 Full point group                 C1      NOp   1
 Largest Abelian subgroup         C1      NOp   1
 Largest concise Abelian subgroup C1      NOp   1
                         Standard orientation:                         
 ---------------------------------------------------------------------
 Center     Atomic      Atomic             Coordinates (Angstroms)
 Number     Number       Type             X           Y           Z
 ---------------------------------------------------------------------
      1          6           0       -2.994345    0.182848   -0.878568
      2          7           0       -1.832221   -0.431695   -0.250378
      3          6           0       -1.663038   -0.680608    1.063287
      4          6           0       -0.383422   -1.163302    1.249436
      5          7           0        0.230653   -1.204576    0.049728
      6          6           0        1.619133   -1.577548   -0.209800
      7          6           0        2.557483   -0.400344    0.059118
      8          8           0        2.322050    0.636753   -0.855001
      9          6           0       -0.663677   -0.740008   -0.845016
     10         17           0        0.188717    2.240465    0.403613
     11          1           0       -3.085658   -0.161046   -1.930745
     12          1           0       -3.918448   -0.100392   -0.331309
     13          1           0       -2.884794    1.287252   -0.863435
     14          1           0       -2.403755   -0.500455    1.831610
     15          1           0        0.072874   -1.438178    2.191580
     16          1           0        1.731879   -1.913349   -1.263927
     17          1           0        1.901926   -2.427782    0.448208
     18          1           0        2.440157   -0.043606    1.108559
     19          1           0        3.606017   -0.744773   -0.062964
     20          1           0        1.593217    1.193350   -0.474935
     21          1           0       -0.459817   -0.605285   -1.900245
 ---------------------------------------------------------------------
 Rotational constants (GHZ):           1.3688017           0.9186807           0.6808987
 Leave Link  202 at Sat Aug 21 09:33:14 2021, MaxMem=   104857600 cpu:               0.2 elap:               0.0
 (Enter /sw/arch/RedHatEnterpriseServer7/EB_production/2020/software/Gaussian/g16.c01/l301.exe)
 Standard basis: TZVP (5D, 7F)
 Ernie: Thresh=  0.10000D-02 Tol=  0.10000D-05 Strict=F.
 There are   269 symmetry adapted cartesian basis functions of A   symmetry.
 There are   259 symmetry adapted basis functions of A   symmetry.
   259 basis functions,   450 primitive gaussians,   269 cartesian basis functions
    43 alpha electrons       43 beta electrons
       nuclear repulsion energy       642.0932313498 Hartrees.
 IExCor=  404 DFT=T Ex=B Corr=P86 ExCW=0 ScaHFX=  0.000000
 ScaDFX=  1.000000  1.000000  1.000000  1.000000 ScalE2=  1.000000  1.000000
 IRadAn=      5 IRanWt=     -1 IRanGd=            0 ICorTp=0 IEmpDi=131
 NAtoms=   21 NActive=   21 NUniq=   21 SFac= 1.00D+00 NAtFMM=   60 NAOKFM=F Big=F
 Integral buffers will be    131072 words long.
 Raffenetti 2 integral format.
 Two-electron integral symmetry is turned on.
 R6Disp:  Grimme-D3 Dispersion energy=       -0.0238157902 Hartrees.
 Nuclear repulsion after empirical dispersion term =      642.0694155596 Hartrees.
 ------------------------------------------------------------------------------
 Polarizable Continuum Model (PCM)
 =================================
 Model                : PCM.
 Atomic radii         : UFF (Universal Force Field).
 Polarization charges : Total charges.
 Charge compensation  : None.
 Solution method      : On-the-fly selection.
 Cavity type          : Scaled VdW (van der Waals Surface) (Alpha=1.100).
 Cavity algorithm     : GePol (No added spheres)
                        Default sphere list used, NSphG=   21.
                        Lebedev-Laikov grids with approx.  5.0 points / Ang**2.
                        Smoothing algorithm: York/Karplus (Gamma=1.0000).
                        Polarization charges: spherical gaussians, with
                                              point-specific exponents (IZeta= 3).
                        Self-potential: point-specific (ISelfS= 7).
                        Self-field    : sphere-specific E.n sum rule (ISelfD= 2).
 1st derivatives      : Analytical E(r).r(x)/FMM algorithm (CHGder, D1EAlg=3).
                        Cavity 1st derivative terms included.
 Solvent              : Water, Eps=  78.355300 Eps(inf)=   1.777849
 ------------------------------------------------------------------------------
 GePol: Number of generator spheres                  =      21
 GePol: Total number of spheres                      =      21
 GePol: Number of exposed spheres                    =      21 (100.00%)
 GePol: Number of points                             =    1654
 GePol: Average weight of points                     =       0.14
 GePol: Minimum weight of points                     =   0.29D-10
 GePol: Maximum weight of points                     =    0.21616
 GePol: Number of points with low weight             =     109
 GePol: Fraction of low-weight points (<1% of avg)   =       6.59%
 GePol: Cavity surface area                          =    227.441 Ang**2
 GePol: Cavity volume                                =    232.290 Ang**3
 Leave Link  301 at Sat Aug 21 09:33:14 2021, MaxMem=   104857600 cpu:               1.3 elap:               0.1
 (Enter /sw/arch/RedHatEnterpriseServer7/EB_production/2020/software/Gaussian/g16.c01/l302.exe)
 NPDir=0 NMtPBC=     1 NCelOv=     1 NCel=       1 NClECP=     1 NCelD=      1
         NCelK=      1 NCelE2=     1 NClLst=     1 CellRange=     0.0.
 One-electron integrals computed using PRISM.
 One-electron integral symmetry used in STVInt
 NBasis=   259 RedAO= T EigKep=  1.57D-04  NBF=   259
 NBsUse=   259 1.00D-06 EigRej= -1.00D+00 NBFU=   259
 Precomputing XC quadrature grid using
 IXCGrd= 4 IRadAn=           5 IRanWt=          -1 IRanGd=           0 AccXCQ= 0.00D+00.
 Generated NRdTot=       0 NPtTot=           0 NUsed=           0 NTot=          32
 NSgBfM=   267   267   267   267   267 MxSgAt=    21 MxSgA2=    21.
 Leave Link  302 at Sat Aug 21 09:33:15 2021, MaxMem=   104857600 cpu:               5.5 elap:               0.3
 (Enter /sw/arch/RedHatEnterpriseServer7/EB_production/2020/software/Gaussian/g16.c01/l303.exe)
 DipDrv:  MaxL=1.
 Leave Link  303 at Sat Aug 21 09:33:15 2021, MaxMem=   104857600 cpu:               0.9 elap:               0.1
 (Enter /sw/arch/RedHatEnterpriseServer7/EB_production/2020/software/Gaussian/g16.c01/l401.exe)
 ExpMin= 9.52D-02 ExpMax= 6.95D+04 ExpMxC= 2.37D+03 IAcc=3 IRadAn=         5 AccDes= 0.00D+00
 Harris functional with IExCor=  404 and IRadAn=       5 diagonalized for initial guess.
 HarFok:  IExCor=  404 AccDes= 0.00D+00 IRadAn=         5 IDoV= 1 UseB2=F ITyADJ=14
 ICtDFT=  3500011 ScaDFX=  1.000000  1.000000  1.000000  1.000000
 FoFCou: FMM=F IPFlag=           0 FMFlag=      100000 FMFlg1=           0
         NFxFlg=           0 DoJE=T BraDBF=F KetDBF=T FulRan=T
         wScrn=  0.000000 ICntrl=       500 IOpCl=  0 I1Cent=   200000004 NGrid=           0
         NMat0=    1 NMatS0=      1 NMatT0=    0 NMatD0=    1 NMtDS0=    0 NMtDT0=    0
 Petite list used in FoFCou.
 Harris En= -880.449829646136    
 JPrj=0 DoOrth=F DoCkMO=F.
 Leave Link  401 at Sat Aug 21 09:33:16 2021, MaxMem=   104857600 cpu:              12.1 elap:               0.5
 (Enter /sw/arch/RedHatEnterpriseServer7/EB_production/2020/software/Gaussian/g16.c01/l502.exe)
 Integral symmetry usage will be decided dynamically.
 Closed shell SCF:
 Using DIIS extrapolation, IDIIS=  1040.
 NGot=   104857600 LenX=   104703114 LenY=   104630312
 Requested convergence on RMS density matrix=1.00D-08 within 128 cycles.
 Requested convergence on MAX density matrix=1.00D-06.
 Requested convergence on             energy=1.00D-06.
 No special actions if energy rises.
 Fock matrices will be formed incrementally for  20 cycles.

 Cycle   1  Pass 1  IDiag  1:
 FoFJK:  IHMeth= 1 ICntrl=     500 DoSepK=F KAlg= 0 I1Cent=           0 FoldK=F
 IRaf= 920000000 NMat=       1 IRICut=       1 DoRegI=T DoRafI=F ISym2E= 0 IDoP0=0 IntGTp=1.
 FoFCou: FMM=F IPFlag=           0 FMFlag=      100000 FMFlg1=           0
         NFxFlg=           0 DoJE=T BraDBF=F KetDBF=F FulRan=T
         wScrn=  0.000000 ICntrl=       500 IOpCl=  0 I1Cent=           0 NGrid=           0
         NMat0=    1 NMatS0=      1 NMatT0=    0 NMatD0=    1 NMtDS0=    0 NMtDT0=    0
 Symmetry not used in FoFCou.
 Inv3:  Mode=1 IEnd=     8207148.
 Iteration    1 A*A^-1 deviation from unit magnitude is 3.33D-15 for    732.
 Iteration    1 A*A^-1 deviation from orthogonality  is 2.09D-15 for   1099    229.
 Iteration    1 A^-1*A deviation from unit magnitude is 3.11D-15 for    732.
 Iteration    1 A^-1*A deviation from orthogonality  is 1.44D-15 for   1456    359.
 E= -880.272191732287    
 DIIS: error= 2.07D-02 at cycle   1 NSaved=   1.
 NSaved= 1 IEnMin= 1 EnMin= -880.272191732287     IErMin= 1 ErrMin= 2.07D-02
 ErrMax= 2.07D-02  0.00D+00 EMaxC= 1.00D-01 BMatC= 1.88D-01 BMatP= 1.88D-01
 IDIUse=3 WtCom= 7.93D-01 WtEn= 2.07D-01
 Coeff-Com:  0.100D+01
 Coeff-En:   0.100D+01
 Coeff:      0.100D+01
 Gap=     0.103 Goal=   None    Shift=    0.000
 GapD=    0.103 DampG=1.000 DampE=0.500 DampFc=0.5000 IDamp=-1.
 Damping current iteration by 5.00D-01
 RMSDP=6.39D-03 MaxDP=4.85D-01              OVMax= 3.44D-01

 Cycle   2  Pass 1  IDiag  1:
 RMSU=  3.19D-03    CP:  9.96D-01
 E= -880.292015505371     Delta-E=       -0.019823773084 Rises=F Damp=T
 DIIS: error= 1.22D-02 at cycle   2 NSaved=   2.
 NSaved= 2 IEnMin= 2 EnMin= -880.292015505371     IErMin= 2 ErrMin= 1.22D-02
 ErrMax= 1.22D-02  0.00D+00 EMaxC= 1.00D-01 BMatC= 4.71D-02 BMatP= 1.88D-01
 IDIUse=3 WtCom= 8.78D-01 WtEn= 1.22D-01
 Coeff-Com:  0.276D+00 0.724D+00
 Coeff-En:   0.443D+00 0.557D+00
 Coeff:      0.297D+00 0.703D+00
 Gap=     0.171 Goal=   None    Shift=    0.000
 RMSDP=2.33D-03 MaxDP=1.83D-01 DE=-1.98D-02 OVMax= 2.83D-01

 Cycle   3  Pass 1  IDiag  1:
 RMSU=  1.29D-03    CP:  9.92D-01  3.92D-01
 E= -880.412410921659     Delta-E=       -0.120395416288 Rises=F Damp=F
 DIIS: error= 9.30D-03 at cycle   3 NSaved=   3.
 NSaved= 3 IEnMin= 3 EnMin= -880.412410921659     IErMin= 3 ErrMin= 9.30D-03
 ErrMax= 9.30D-03  0.00D+00 EMaxC= 1.00D-01 BMatC= 2.36D-02 BMatP= 4.71D-02
 IDIUse=3 WtCom= 9.07D-01 WtEn= 9.30D-02
 Coeff-Com:  0.745D-01 0.402D+00 0.523D+00
 Coeff-En:   0.000D+00 0.000D+00 0.100D+01
 Coeff:      0.675D-01 0.365D+00 0.568D+00
 Gap=     0.146 Goal=   None    Shift=    0.000
 RMSDP=8.21D-04 MaxDP=2.47D-02 DE=-1.20D-01 OVMax= 4.17D-02

 Cycle   4  Pass 1  IDiag  1:
 RMSU=  5.55D-04    CP:  9.97D-01  4.97D-01  6.16D-01
 E= -880.428990708122     Delta-E=       -0.016579786463 Rises=F Damp=F
 DIIS: error= 3.26D-03 at cycle   4 NSaved=   4.
 NSaved= 4 IEnMin= 4 EnMin= -880.428990708122     IErMin= 4 ErrMin= 3.26D-03
 ErrMax= 3.26D-03  0.00D+00 EMaxC= 1.00D-01 BMatC= 4.70D-03 BMatP= 2.36D-02
 IDIUse=3 WtCom= 9.67D-01 WtEn= 3.26D-02
 Coeff-Com:  0.585D-02 0.111D+00 0.326D+00 0.557D+00
 Coeff-En:   0.000D+00 0.000D+00 0.171D+00 0.829D+00
 Coeff:      0.566D-02 0.107D+00 0.321D+00 0.566D+00
 Gap=     0.144 Goal=   None    Shift=    0.000
 RMSDP=2.65D-04 MaxDP=9.97D-03 DE=-1.66D-02 OVMax= 1.37D-02

 Cycle   5  Pass 1  IDiag  1:
 RMSU=  1.42D-04    CP:  9.95D-01  4.81D-01  7.22D-01  7.03D-01
 E= -880.432739429412     Delta-E=       -0.003748721290 Rises=F Damp=F
 DIIS: error= 6.94D-04 at cycle   5 NSaved=   5.
 NSaved= 5 IEnMin= 5 EnMin= -880.432739429412     IErMin= 5 ErrMin= 6.94D-04
 ErrMax= 6.94D-04  0.00D+00 EMaxC= 1.00D-01 BMatC= 2.38D-04 BMatP= 4.70D-03
 IDIUse=3 WtCom= 9.93D-01 WtEn= 6.94D-03
 Coeff-Com: -0.159D-02 0.396D-01 0.141D+00 0.300D+00 0.521D+00
 Coeff-En:   0.000D+00 0.000D+00 0.000D+00 0.000D+00 0.100D+01
 Coeff:     -0.158D-02 0.393D-01 0.140D+00 0.298D+00 0.524D+00
 Gap=     0.144 Goal=   None    Shift=    0.000
 RMSDP=5.75D-05 MaxDP=1.80D-03 DE=-3.75D-03 OVMax= 3.97D-03

 Cycle   6  Pass 1  IDiag  1:
 RMSU=  3.99D-05    CP:  9.95D-01  4.84D-01  7.18D-01  7.14D-01  7.22D-01
 E= -880.432897518948     Delta-E=       -0.000158089536 Rises=F Damp=F
 DIIS: error= 3.30D-04 at cycle   6 NSaved=   6.
 NSaved= 6 IEnMin= 6 EnMin= -880.432897518948     IErMin= 6 ErrMin= 3.30D-04
 ErrMax= 3.30D-04  0.00D+00 EMaxC= 1.00D-01 BMatC= 3.33D-05 BMatP= 2.38D-04
 IDIUse=3 WtCom= 9.97D-01 WtEn= 3.30D-03
 Coeff-Com: -0.178D-02 0.108D-01 0.432D-01 0.109D+00 0.323D+00 0.516D+00
 Coeff-En:   0.000D+00 0.000D+00 0.000D+00 0.000D+00 0.121D+00 0.879D+00
 Coeff:     -0.178D-02 0.107D-01 0.430D-01 0.108D+00 0.323D+00 0.517D+00
 Gap=     0.144 Goal=   None    Shift=    0.000
 RMSDP=2.19D-05 MaxDP=6.79D-04 DE=-1.58D-04 OVMax= 1.54D-03

 Cycle   7  Pass 1  IDiag  1:
 RMSU=  1.28D-05    CP:  9.95D-01  4.84D-01  7.18D-01  7.21D-01  6.88D-01
                    CP:  5.86D-01
 E= -880.432924412713     Delta-E=       -0.000026893765 Rises=F Damp=F
 DIIS: error= 7.33D-05 at cycle   7 NSaved=   7.
 NSaved= 7 IEnMin= 7 EnMin= -880.432924412713     IErMin= 7 ErrMin= 7.33D-05
 ErrMax= 7.33D-05  0.00D+00 EMaxC= 1.00D-01 BMatC= 2.51D-06 BMatP= 3.33D-05
 IDIUse=1 WtCom= 1.00D+00 WtEn= 0.00D+00
 Coeff-Com: -0.920D-03 0.363D-02 0.159D-01 0.428D-01 0.154D+00 0.304D+00
 Coeff-Com:  0.481D+00
 Coeff:     -0.920D-03 0.363D-02 0.159D-01 0.428D-01 0.154D+00 0.304D+00
 Coeff:      0.481D+00
 Gap=     0.144 Goal=   None    Shift=    0.000
 RMSDP=7.52D-06 MaxDP=2.00D-04 DE=-2.69D-05 OVMax= 6.49D-04

 Cycle   8  Pass 1  IDiag  1:
 RMSU=  4.80D-06    CP:  9.95D-01  4.84D-01  7.18D-01  7.22D-01  7.15D-01
                    CP:  5.90D-01  6.88D-01
 E= -880.432926326702     Delta-E=       -0.000001913989 Rises=F Damp=F
 DIIS: error= 4.13D-05 at cycle   8 NSaved=   8.
 NSaved= 8 IEnMin= 8 EnMin= -880.432926326702     IErMin= 8 ErrMin= 4.13D-05
 ErrMax= 4.13D-05  0.00D+00 EMaxC= 1.00D-01 BMatC= 4.10D-07 BMatP= 2.51D-06
 IDIUse=1 WtCom= 1.00D+00 WtEn= 0.00D+00
 Coeff-Com: -0.271D-03 0.594D-03 0.310D-02 0.881D-02 0.433D-01 0.107D+00
 Coeff-Com:  0.312D+00 0.526D+00
 Coeff:     -0.271D-03 0.594D-03 0.310D-02 0.881D-02 0.433D-01 0.107D+00
 Coeff:      0.312D+00 0.526D+00
 Gap=     0.144 Goal=   None    Shift=    0.000
 RMSDP=2.87D-06 MaxDP=7.11D-05 DE=-1.91D-06 OVMax= 2.80D-04

 Cycle   9  Pass 1  IDiag  1:
 RMSU=  1.82D-06    CP:  9.95D-01  4.84D-01  7.18D-01  7.21D-01  7.21D-01
                    CP:  6.00D-01  6.81D-01  5.94D-01
 E= -880.432926644077     Delta-E=       -0.000000317375 Rises=F Damp=F
 DIIS: error= 1.86D-05 at cycle   9 NSaved=   9.
 NSaved= 9 IEnMin= 9 EnMin= -880.432926644077     IErMin= 9 ErrMin= 1.86D-05
 ErrMax= 1.86D-05  0.00D+00 EMaxC= 1.00D-01 BMatC= 7.06D-08 BMatP= 4.10D-07
 IDIUse=1 WtCom= 1.00D+00 WtEn= 0.00D+00
 Coeff-Com: -0.941D-04 0.794D-04 0.709D-03 0.211D-02 0.154D-01 0.454D-01
 Coeff-Com:  0.168D+00 0.362D+00 0.406D+00
 Coeff:     -0.941D-04 0.794D-04 0.709D-03 0.211D-02 0.154D-01 0.454D-01
 Coeff:      0.168D+00 0.362D+00 0.406D+00
 Gap=     0.144 Goal=   None    Shift=    0.000
 RMSDP=8.81D-07 MaxDP=3.66D-05 DE=-3.17D-07 OVMax= 9.52D-05

 Cycle  10  Pass 1  IDiag  1:
 RMSU=  5.66D-07    CP:  9.95D-01  4.84D-01  7.18D-01  7.21D-01  7.20D-01
                    CP:  6.04D-01  6.84D-01  6.44D-01  6.98D-01
 E= -880.432926703052     Delta-E=       -0.000000058975 Rises=F Damp=F
 DIIS: error= 3.75D-06 at cycle  10 NSaved=  10.
 NSaved=10 IEnMin=10 EnMin= -880.432926703052     IErMin=10 ErrMin= 3.75D-06
 ErrMax= 3.75D-06  0.00D+00 EMaxC= 1.00D-01 BMatC= 4.76D-09 BMatP= 7.06D-08
 IDIUse=1 WtCom= 1.00D+00 WtEn= 0.00D+00
 Coeff-Com: -0.124D-04-0.346D-04 0.470D-04 0.109D-03 0.288D-02 0.111D-01
 Coeff-Com:  0.522D-01 0.138D+00 0.242D+00 0.554D+00
 Coeff:     -0.124D-04-0.346D-04 0.470D-04 0.109D-03 0.288D-02 0.111D-01
 Coeff:      0.522D-01 0.138D+00 0.242D+00 0.554D+00
 Gap=     0.144 Goal=   None    Shift=    0.000
 RMSDP=4.07D-07 MaxDP=9.48D-06 DE=-5.90D-08 OVMax= 2.80D-05

 Cycle  11  Pass 1  IDiag  1:
 RMSU=  2.02D-07    CP:  9.95D-01  4.84D-01  7.18D-01  7.21D-01  7.19D-01
                    CP:  6.04D-01  6.99D-01  6.53D-01  6.50D-01  6.23D-01
 E= -880.432926706911     Delta-E=       -0.000000003859 Rises=F Damp=F
 DIIS: error= 1.88D-06 at cycle  11 NSaved=  11.
 NSaved=11 IEnMin=11 EnMin= -880.432926706911     IErMin=11 ErrMin= 1.88D-06
 ErrMax= 1.88D-06  0.00D+00 EMaxC= 1.00D-01 BMatC= 4.74D-10 BMatP= 4.76D-09
 IDIUse=1 WtCom= 1.00D+00 WtEn= 0.00D+00
 Coeff-Com:  0.354D-06-0.230D-04-0.285D-05-0.419D-04 0.678D-03 0.337D-02
 Coeff-Com:  0.189D-01 0.553D-01 0.110D+00 0.324D+00 0.487D+00
 Coeff:      0.354D-06-0.230D-04-0.285D-05-0.419D-04 0.678D-03 0.337D-02
 Coeff:      0.189D-01 0.553D-01 0.110D+00 0.324D+00 0.487D+00
 Gap=     0.144 Goal=   None    Shift=    0.000
 RMSDP=1.17D-07 MaxDP=3.47D-06 DE=-3.86D-09 OVMax= 1.44D-05

 Cycle  12  Pass 1  IDiag  1:
 RMSU=  6.89D-08    CP:  9.95D-01  4.84D-01  7.18D-01  7.21D-01  7.19D-01
                    CP:  6.03D-01  6.98D-01  6.53D-01  6.71D-01  6.69D-01
                    CP:  6.61D-01
 E= -880.432926707290     Delta-E=       -0.000000000379 Rises=F Damp=F
 DIIS: error= 7.17D-07 at cycle  12 NSaved=  12.
 NSaved=12 IEnMin=12 EnMin= -880.432926707290     IErMin=12 ErrMin= 7.17D-07
 ErrMax= 7.17D-07  0.00D+00 EMaxC= 1.00D-01 BMatC= 8.56D-11 BMatP= 4.74D-10
 IDIUse=1 WtCom= 1.00D+00 WtEn= 0.00D+00
 Coeff-Com:  0.271D-05-0.961D-05-0.982D-05-0.497D-04-0.329D-04 0.416D-03
 Coeff-Com:  0.422D-02 0.147D-01 0.345D-01 0.129D+00 0.326D+00 0.492D+00
 Coeff:      0.271D-05-0.961D-05-0.982D-05-0.497D-04-0.329D-04 0.416D-03
 Coeff:      0.422D-02 0.147D-01 0.345D-01 0.129D+00 0.326D+00 0.492D+00
 Gap=     0.144 Goal=   None    Shift=    0.000
 RMSDP=4.37D-08 MaxDP=1.47D-06 DE=-3.79D-10 OVMax= 4.45D-06

 Cycle  13  Pass 1  IDiag  1:
 RMSU=  2.06D-08    CP:  9.95D-01  4.84D-01  7.18D-01  7.21D-01  7.19D-01
                    CP:  6.04D-01  6.96D-01  6.53D-01  6.76D-01  6.81D-01
                    CP:  6.82D-01  5.62D-01
 E= -880.432926707379     Delta-E=       -0.000000000089 Rises=F Damp=F
 DIIS: error= 6.21D-08 at cycle  13 NSaved=  13.
 NSaved=13 IEnMin=13 EnMin= -880.432926707379     IErMin=13 ErrMin= 6.21D-08
 ErrMax= 6.21D-08  0.00D+00 EMaxC= 1.00D-01 BMatC= 9.75D-13 BMatP= 8.56D-11
 IDIUse=1 WtCom= 1.00D+00 WtEn= 0.00D+00
 Coeff-Com:  0.830D-06-0.203D-05-0.125D-05-0.115D-04-0.381D-04-0.199D-04
 Coeff-Com:  0.552D-03 0.229D-02 0.649D-02 0.296D-01 0.904D-01 0.178D+00
 Coeff-Com:  0.692D+00
 Coeff:      0.830D-06-0.203D-05-0.125D-05-0.115D-04-0.381D-04-0.199D-04
 Coeff:      0.552D-03 0.229D-02 0.649D-02 0.296D-01 0.904D-01 0.178D+00
 Coeff:      0.692D+00
 Gap=     0.144 Goal=   None    Shift=    0.000
 RMSDP=6.64D-09 MaxDP=1.82D-07 DE=-8.87D-11 OVMax= 4.04D-07

 Error on total polarization charges =  0.01440
 SCF Done:  E(RB-P86) =  -880.432926707     A.U. after   13 cycles
            NFock= 13  Conv=0.66D-08     -V/T= 2.0036
 KE= 8.772441092956D+02 PE=-3.357514217294D+03 EE= 9.577677657312D+02
 Leave Link  502 at Sat Aug 21 09:33:34 2021, MaxMem=   104857600 cpu:             429.9 elap:              18.3
 (Enter /sw/arch/RedHatEnterpriseServer7/EB_production/2020/software/Gaussian/g16.c01/l601.exe)
 Copying SCF densities to generalized density rwf, IOpCl= 0 IROHF=0.

 **********************************************************************

            Population analysis using the SCF Density.

 **********************************************************************

 Orbital symmetries:
       Occupied  (A) (A) (A) (A) (A) (A) (A) (A) (A) (A) (A) (A)
                 (A) (A) (A) (A) (A) (A) (A) (A) (A) (A) (A) (A)
                 (A) (A) (A) (A) (A) (A) (A) (A) (A) (A) (A) (A)
                 (A) (A) (A) (A) (A) (A) (A)
       Virtual   (A) (A) (A) (A) (A) (A) (A) (A) (A) (A) (A) (A)
                 (A) (A) (A) (A) (A) (A) (A) (A) (A) (A) (A) (A)
                 (A) (A) (A) (A) (A) (A) (A) (A) (A) (A) (A) (A)
                 (A) (A) (A) (A) (A) (A) (A) (A) (A) (A) (A) (A)
                 (A) (A) (A) (A) (A) (A) (A) (A) (A) (A) (A) (A)
                 (A) (A) (A) (A) (A) (A) (A) (A) (A) (A) (A) (A)
                 (A) (A) (A) (A) (A) (A) (A) (A) (A) (A) (A) (A)
                 (A) (A) (A) (A) (A) (A) (A) (A) (A) (A) (A) (A)
                 (A) (A) (A) (A) (A) (A) (A) (A) (A) (A) (A) (A)
                 (A) (A) (A) (A) (A) (A) (A) (A) (A) (A) (A) (A)
                 (A) (A) (A) (A) (A) (A) (A) (A) (A) (A) (A) (A)
                 (A) (A) (A) (A) (A) (A) (A) (A) (A) (A) (A) (A)
                 (A) (A) (A) (A) (A) (A) (A) (A) (A) (A) (A) (A)
                 (A) (A) (A) (A) (A) (A) (A) (A) (A) (A) (A) (A)
                 (A) (A) (A) (A) (A) (A) (A) (A) (A) (A) (A) (A)
                 (A) (A) (A) (A) (A) (A) (A) (A) (A) (A) (A) (A)
                 (A) (A) (A) (A) (A) (A) (A) (A) (A) (A) (A) (A)
                 (A) (A) (A) (A) (A) (A) (A) (A) (A) (A) (A) (A)
 The electronic state is 1-A.
 Alpha  occ. eigenvalues -- -100.64724 -18.75290 -14.10984 -14.10855 -10.00116
 Alpha  occ. eigenvalues --   -9.96093  -9.96031  -9.95711  -9.95656  -9.95128
 Alpha  occ. eigenvalues --   -9.08612  -6.90507  -6.90390  -6.90374  -1.01016
 Alpha  occ. eigenvalues --   -0.93390  -0.90249  -0.74926  -0.71653  -0.67863
 Alpha  occ. eigenvalues --   -0.64040  -0.61209  -0.58754  -0.56620  -0.51717
 Alpha  occ. eigenvalues --   -0.47761  -0.46334  -0.45674  -0.44013  -0.43724
 Alpha  occ. eigenvalues --   -0.42412  -0.40551  -0.38142  -0.37612  -0.36723
 Alpha  occ. eigenvalues --   -0.36400  -0.30104  -0.29132  -0.24665  -0.23288
 Alpha  occ. eigenvalues --   -0.21709  -0.21232  -0.21094
 Alpha virt. eigenvalues --   -0.06679  -0.03325   0.02591   0.03404   0.04211
 Alpha virt. eigenvalues --    0.05156   0.06349   0.06414   0.07530   0.08015
 Alpha virt. eigenvalues --    0.08275   0.08804   0.09468   0.09896   0.10471
 Alpha virt. eigenvalues --    0.12351   0.14276   0.15417   0.16231   0.16814
 Alpha virt. eigenvalues --    0.18277   0.19154   0.19752   0.21533   0.22027
 Alpha virt. eigenvalues --    0.22956   0.23444   0.25143   0.26556   0.27943
 Alpha virt. eigenvalues --    0.28339   0.29257   0.29601   0.31879   0.32803
 Alpha virt. eigenvalues --    0.33754   0.33887   0.34979   0.35497   0.36328
 Alpha virt. eigenvalues --    0.37437   0.37973   0.38221   0.39188   0.39805
 Alpha virt. eigenvalues --    0.39873   0.40679   0.42151   0.42538   0.43411
 Alpha virt. eigenvalues --    0.44445   0.45168   0.45572   0.46968   0.48133
 Alpha virt. eigenvalues --    0.48721   0.49690   0.51807   0.52258   0.54723
 Alpha virt. eigenvalues --    0.56691   0.57749   0.60961   0.62112   0.64081
 Alpha virt. eigenvalues --    0.66004   0.67349   0.69724   0.70356   0.72292
 Alpha virt. eigenvalues --    0.77674   0.79678   0.81956   0.83169   0.84086
 Alpha virt. eigenvalues --    0.86063   0.88784   0.96852   1.07508   1.12498
 Alpha virt. eigenvalues --    1.13886   1.15407   1.15989   1.18002   1.20001
 Alpha virt. eigenvalues --    1.21856   1.22227   1.23405   1.24373   1.26060
 Alpha virt. eigenvalues --    1.27084   1.27956   1.29426   1.30876   1.31375
 Alpha virt. eigenvalues --    1.32205   1.34652   1.35023   1.36314   1.37428
 Alpha virt. eigenvalues --    1.39195   1.41484   1.42054   1.42579   1.45315
 Alpha virt. eigenvalues --    1.45705   1.48385   1.51376   1.53682   1.54091
 Alpha virt. eigenvalues --    1.55367   1.56266   1.59745   1.62175   1.63840
 Alpha virt. eigenvalues --    1.64873   1.65549   1.66418   1.67074   1.67940
 Alpha virt. eigenvalues --    1.69435   1.69847   1.71545   1.72765   1.74001
 Alpha virt. eigenvalues --    1.75481   1.80204   1.82546   1.83347   1.85819
 Alpha virt. eigenvalues --    1.87399   1.88587   1.89050   1.91908   1.92929
 Alpha virt. eigenvalues --    1.96829   1.99035   2.00595   2.04825   2.06462
 Alpha virt. eigenvalues --    2.07172   2.12900   2.17046   2.17439   2.18916
 Alpha virt. eigenvalues --    2.21874   2.23677   2.26040   2.26757   2.27164
 Alpha virt. eigenvalues --    2.27933   2.30038   2.33180   2.35571   2.36632
 Alpha virt. eigenvalues --    2.38834   2.39404   2.42649   2.43044   2.44922
 Alpha virt. eigenvalues --    2.45592   2.46623   2.47880   2.48659   2.49366
 Alpha virt. eigenvalues --    2.51841   2.52499   2.53875   2.54980   2.56296
 Alpha virt. eigenvalues --    2.58005   2.60178   2.63244   2.66564   2.68170
 Alpha virt. eigenvalues --    2.70791   2.71409   2.72941   2.75144   2.78112
 Alpha virt. eigenvalues --    2.81132   2.85149   2.87971   2.88653   2.92629
 Alpha virt. eigenvalues --    2.95673   3.01231   3.07040   3.09548   3.11100
 Alpha virt. eigenvalues --    3.13500   3.14558   3.17896   3.21579   3.23618
 Alpha virt. eigenvalues --    3.26291   3.29073   3.32755   3.45935   3.49016
 Alpha virt. eigenvalues --    3.51078   3.62143   3.64166   3.75559   3.89440
 Alpha virt. eigenvalues --    4.22065  21.54269  21.62876  21.69919  21.76892
 Alpha virt. eigenvalues --   21.85125  21.91094  24.32839  31.49773  31.59960
 Alpha virt. eigenvalues --   43.15796
          Condensed to atoms (all electrons):
               1          2          3          4          5          6
     1  C    4.962995   0.265082  -0.056076   0.011417   0.007501  -0.000130
     2  N    0.265082   6.129550   0.445818  -0.105111  -0.060442   0.004861
     3  C   -0.056076   0.445818   5.105458   0.449398  -0.068604   0.003597
     4  C    0.011417  -0.105111   0.449398   5.067042   0.417220  -0.055574
     5  N    0.007501  -0.060442  -0.068604   0.417220   6.258517   0.182612
     6  C   -0.000130   0.004861   0.003597  -0.055574   0.182612   5.499700
     7  C    0.000273  -0.000690   0.008896  -0.010931  -0.048865   0.085703
     8  O   -0.000208  -0.001821  -0.000552   0.000261  -0.000986  -0.085076
     9  C   -0.062920   0.436830  -0.164836  -0.107124   0.420793  -0.078752
    10  Cl  -0.006381  -0.012939   0.010512   0.000751  -0.009477  -0.012423
    11  H    0.382088  -0.016996   0.010184  -0.001380   0.000776  -0.000032
    12  H    0.387336  -0.019894  -0.012854   0.002873  -0.000603   0.000038
    13  H    0.396403  -0.044520  -0.001171  -0.000819  -0.000480  -0.000209
    14  H   -0.007543  -0.025754   0.399001  -0.030045   0.004058   0.000240
    15  H   -0.000324   0.002967  -0.045898   0.413776  -0.031539   0.001195
    16  H    0.000021   0.000549  -0.001386   0.008964  -0.031131   0.400146
    17  H   -0.000022  -0.000919  -0.000285  -0.008257  -0.020468   0.325646
    18  H   -0.000009  -0.000097  -0.001798   0.005380  -0.014751  -0.033317
    19  H    0.000000  -0.000006   0.000003   0.000960   0.010959  -0.079422
    20  H    0.000168   0.000814  -0.000505   0.000882   0.005650  -0.000469
    21  H   -0.004341  -0.028500   0.002223   0.011095  -0.034582   0.002845
               7          8          9         10         11         12
     1  C    0.000273  -0.000208  -0.062920  -0.006381   0.382088   0.387336
     2  N   -0.000690  -0.001821   0.436830  -0.012939  -0.016996  -0.019894
     3  C    0.008896  -0.000552  -0.164836   0.010512   0.010184  -0.012854
     4  C   -0.010931   0.000261  -0.107124   0.000751  -0.001380   0.002873
     5  N   -0.048865  -0.000986   0.420793  -0.009477   0.000776  -0.000603
     6  C    0.085703  -0.085076  -0.078752  -0.012423  -0.000032   0.000038
     7  C    5.215106   0.229062  -0.004861   0.019543   0.000009  -0.000011
     8  O    0.229062   8.093757   0.022987  -0.081476   0.000016  -0.000000
     9  C   -0.004861   0.022987   5.131568   0.023116  -0.009396   0.009417
    10  Cl   0.019543  -0.081476   0.023116  17.739584   0.000155   0.000215
    11  H    0.000009   0.000016  -0.009396   0.000155   0.501337  -0.021226
    12  H   -0.000011  -0.000000   0.009417   0.000215  -0.021226   0.499899
    13  H    0.000055   0.000039  -0.003134   0.015757  -0.022213  -0.023075
    14  H   -0.000036  -0.000022   0.009877  -0.001175   0.000139  -0.000080
    15  H   -0.005025   0.000047   0.014484  -0.001231   0.000007   0.000029
    16  H   -0.036073   0.000108  -0.008380   0.000234  -0.000013  -0.000000
    17  H   -0.018275   0.010103   0.014090  -0.000041  -0.000001  -0.000001
    18  H    0.374881  -0.050285   0.001125   0.012586  -0.000001  -0.000001
    19  H    0.421357  -0.040026   0.001230   0.000024  -0.000000  -0.000000
    20  H   -0.047754   0.289883  -0.004943   0.101838  -0.000018   0.000001
    21  H   -0.004176   0.007736   0.407853  -0.000840   0.000318  -0.000021
              13         14         15         16         17         18
     1  C    0.396403  -0.007543  -0.000324   0.000021  -0.000022  -0.000009
     2  N   -0.044520  -0.025754   0.002967   0.000549  -0.000919  -0.000097
     3  C   -0.001171   0.399001  -0.045898  -0.001386  -0.000285  -0.001798
     4  C   -0.000819  -0.030045   0.413776   0.008964  -0.008257   0.005380
     5  N   -0.000480   0.004058  -0.031539  -0.031131  -0.020468  -0.014751
     6  C   -0.000209   0.000240   0.001195   0.400146   0.325646  -0.033317
     7  C    0.000055  -0.000036  -0.005025  -0.036073  -0.018275   0.374881
     8  O    0.000039  -0.000022   0.000047   0.000108   0.010103  -0.050285
     9  C   -0.003134   0.009877   0.014484  -0.008380   0.014090   0.001125
    10  Cl   0.015757  -0.001175  -0.001231   0.000234  -0.000041   0.012586
    11  H   -0.022213   0.000139   0.000007  -0.000013  -0.000001  -0.000001
    12  H   -0.023075  -0.000080   0.000029  -0.000000  -0.000001  -0.000001
    13  H    0.504687  -0.000066   0.000014   0.000007   0.000000  -0.000022
    14  H   -0.000066   0.463900   0.000603   0.000010  -0.000051   0.000035
    15  H    0.000014   0.000603   0.471337   0.000259   0.000243   0.000876
    16  H    0.000007   0.000010   0.000259   0.505329  -0.017945   0.007805
    17  H    0.000000  -0.000051   0.000243  -0.017945   0.531938   0.003461
    18  H   -0.000022   0.000035   0.000876   0.007805   0.003461   0.596984
    19  H    0.000001  -0.000003  -0.000010  -0.005908   0.005545  -0.033360
    20  H   -0.000131   0.000015   0.000045  -0.000884  -0.000693  -0.011814
    21  H    0.000046  -0.000128   0.000071   0.001060   0.000700   0.000486
              19         20         21
     1  C    0.000000   0.000168  -0.004341
     2  N   -0.000006   0.000814  -0.028500
     3  C    0.000003  -0.000505   0.002223
     4  C    0.000960   0.000882   0.011095
     5  N    0.010959   0.005650  -0.034582
     6  C   -0.079422  -0.000469   0.002845
     7  C    0.421357  -0.047754  -0.004176
     8  O   -0.040026   0.289883   0.007736
     9  C    0.001230  -0.004943   0.407853
    10  Cl   0.000024   0.101838  -0.000840
    11  H   -0.000000  -0.000018   0.000318
    12  H   -0.000000   0.000001  -0.000021
    13  H    0.000001  -0.000131   0.000046
    14  H   -0.000003   0.000015  -0.000128
    15  H   -0.000010   0.000045   0.000071
    16  H   -0.005908  -0.000884   0.001060
    17  H    0.005545  -0.000693   0.000700
    18  H   -0.033360  -0.011814   0.000486
    19  H    0.557856   0.005810  -0.000025
    20  H    0.005810   0.434296  -0.000044
    21  H   -0.000025  -0.000044   0.451083
 Mulliken charges:
               1
     1  C   -0.275329
     2  N    0.031218
     3  C   -0.081124
     4  C   -0.070778
     5  N    0.013841
     6  C   -0.161179
     7  C   -0.178186
     8  O   -0.393546
     9  C   -0.049023
    10  Cl  -0.798334
    11  H    0.176246
    12  H    0.177958
    13  H    0.178829
    14  H    0.187028
    15  H    0.178074
    16  H    0.177229
    17  H    0.175231
    18  H    0.141836
    19  H    0.155015
    20  H    0.227853
    21  H    0.187141
 Sum of Mulliken charges =  -0.00000
 Mulliken charges with hydrogens summed into heavy atoms:
               1
     1  C    0.257704
     2  N    0.031218
     3  C    0.105904
     4  C    0.107296
     5  N    0.013841
     6  C    0.191280
     7  C    0.118665
     8  O   -0.165693
     9  C    0.138117
    10  Cl  -0.798334
 Electronic spatial extent (au):  <R**2>=           1805.5537
 Charge=             -0.0000 electrons
 Dipole moment (field-independent basis, Debye):
    X=             -6.0582    Y=            -12.4846    Z=             -0.6577  Tot=             13.8924
 Quadrupole moment (field-independent basis, Debye-Ang):
   XX=            -52.8862   YY=            -84.8740   ZZ=            -61.7355
   XY=             -9.1400   XZ=              6.2432   YZ=             -3.7263
 Traceless Quadrupole moment (field-independent basis, Debye-Ang):
   XX=             13.6124   YY=            -18.3754   ZZ=              4.7631
   XY=             -9.1400   XZ=              6.2432   YZ=             -3.7263
 Octapole moment (field-independent basis, Debye-Ang**2):
  XXX=            -55.4665  YYY=            -60.0565  ZZZ=             -1.8938  XYY=              4.6693
  XXY=            -18.9741  XXZ=              4.8570  XZZ=            -15.6956  YZZ=            -15.9459
  YYZ=             -9.1419  XYZ=              3.9958
 Hexadecapole moment (field-independent basis, Debye-Ang**3):
 XXXX=          -1116.3937 YYYY=           -912.0880 ZZZZ=           -278.3818 XXXY=            -50.8352
 XXXZ=             40.7168 YYYX=            -34.3897 YYYZ=            -25.9030 ZZZX=              7.7378
 ZZZY=            -11.0549 XXYY=           -344.7118 XXZZ=           -251.1357 YYZZ=           -185.5895
 XXYZ=              5.5814 YYXZ=              1.7859 ZZXY=             -5.7297
 N-N= 6.420694155596D+02 E-N=-3.357514218080D+03  KE= 8.772441092956D+02
 No NMR shielding tensors so no spin-rotation constants.
 Leave Link  601 at Sat Aug 21 09:33:34 2021, MaxMem=   104857600 cpu:               4.3 elap:               0.2
 (Enter /sw/arch/RedHatEnterpriseServer7/EB_production/2020/software/Gaussian/g16.c01/l701.exe)
 ... and contract with generalized density number  0.
 Compute integral first derivatives.
 R6Disp: Adding Grimme-D3 dispersion energy 1st derivatives to the gradient.
 D1PCM: PCM CHGder 1st derivatives, ID1Alg=3 FixD1E=F DoIter=F DoCFld=F I1PDM=0.
 GePol: Maximum number of non-zero 1st derivatives   =     263
 Leave Link  701 at Sat Aug 21 09:33:35 2021, MaxMem=   104857600 cpu:              22.1 elap:               1.0
 (Enter /sw/arch/RedHatEnterpriseServer7/EB_production/2020/software/Gaussian/g16.c01/l702.exe)
 L702 exits ... SP integral derivatives will be done elsewhere.
 Leave Link  702 at Sat Aug 21 09:33:36 2021, MaxMem=   104857600 cpu:               0.4 elap:               0.0
 (Enter /sw/arch/RedHatEnterpriseServer7/EB_production/2020/software/Gaussian/g16.c01/l703.exe)
 Integral derivatives from FoFJK, PRISM(SPDF).
 Compute integral first derivatives, UseDBF=F ICtDFT=           0.
 Calling FoFJK, ICntrl=      2527 FMM=F ISym2X=0 I1Cent= 0 IOpClX= 0 NMat=1 NMatS=1 NMatT=0.
 FoFJK:  IHMeth= 1 ICntrl=    2527 DoSepK=F KAlg= 0 I1Cent=           0 FoldK=F
 IRaf=         0 NMat=       1 IRICut=       1 DoRegI=T DoRafI=F ISym2E= 0 IDoP0=0 IntGTp=1.
 FoFCou: FMM=F IPFlag=           0 FMFlag=      100000 FMFlg1=         800
         NFxFlg=           0 DoJE=F BraDBF=F KetDBF=F FulRan=T
         wScrn=  0.000000 ICntrl=      2527 IOpCl=  0 I1Cent=           0 NGrid=           0
         NMat0=    1 NMatS0=      1 NMatT0=    0 NMatD0=    1 NMtDS0=    0 NMtDT0=    0
 Symmetry not used in FoFCou.
 Leave Link  703 at Sat Aug 21 09:33:38 2021, MaxMem=   104857600 cpu:              63.2 elap:               2.7
 (Enter /sw/arch/RedHatEnterpriseServer7/EB_production/2020/software/Gaussian/g16.c01/l716.exe)
 Dipole        =-2.38346261D+00-4.91181652D+00-2.58775445D-01
 ***** Axes restored to original set *****
 -------------------------------------------------------------------
 Center     Atomic                   Forces (Hartrees/Bohr)
 Number     Number              X              Y              Z
 -------------------------------------------------------------------
      1        6          -0.007901061   -0.008613308   -0.010848449
      2        7           0.014925115    0.005600956   -0.009409967
      3        6          -0.002221935    0.011517933    0.036055171
      4        6          -0.024116799   -0.005773706    0.029502823
      5        7          -0.000571747   -0.013749591   -0.016449327
      6        6           0.017195924    0.004160030    0.004573563
      7        6           0.001839288    0.007037581    0.004305100
      8        8           0.008262537    0.005807441   -0.011755808
      9        6           0.010546850    0.000392251   -0.030469010
     10       17          -0.005594550   -0.000204602   -0.000040879
     11        1          -0.003315126    0.005013774    0.007124877
     12        1           0.005848984    0.007456467   -0.003112189
     13        1           0.005390829   -0.003005611    0.003610090
     14        1          -0.001942342   -0.003541463   -0.002614284
     15        1           0.004520429    0.001601307   -0.000389185
     16        1          -0.008249036    0.000271914    0.005679122
     17        1          -0.005809377   -0.004127037   -0.005006310
     18        1           0.003622435   -0.002862342   -0.001555745
     19        1          -0.002365075   -0.004527259    0.001545609
     20        1          -0.011277893   -0.001702591   -0.000802733
     21        1           0.001212550   -0.000752145    0.000057531
 -------------------------------------------------------------------
 Cartesian Forces:  Max     0.036055171 RMS     0.010032931
 Leave Link  716 at Sat Aug 21 09:33:39 2021, MaxMem=   104857600 cpu:               0.6 elap:               0.0
 (Enter /sw/arch/RedHatEnterpriseServer7/EB_production/2020/software/Gaussian/g16.c01/l103.exe)

 GradGradGradGradGradGradGradGradGradGradGradGradGradGradGradGradGradGrad
 Berny optimization.
 FormGI is forming the generalized inverse of G from B-inverse, IUseBI=4.
 Internal  Forces:  Max     0.031769085 RMS     0.007051962
 Search for a local minimum.
 Step number   1 out of a maximum of  111
 All quantities printed in internal units (Hartrees-Bohrs-Radians)
 RMS Force = .70520D-02 SwitMx=.10000D-02 MixMth= 1
 Mixed Optimization -- RFO/linear search
 Second derivative matrix not updated -- first step.
 ITU=  0
     Eigenvalues ---    0.00230   0.00230   0.00379   0.00886   0.00938
     Eigenvalues ---    0.01646   0.01661   0.01766   0.02362   0.02371
     Eigenvalues ---    0.02373   0.02388   0.02391   0.04390   0.05045
     Eigenvalues ---    0.05539   0.05939   0.06151   0.07530   0.07561
     Eigenvalues ---    0.09150   0.11480   0.12669   0.13868   0.15987
     Eigenvalues ---    0.15991   0.15993   0.16000   0.16000   0.16000
     Eigenvalues ---    0.16000   0.21945   0.22019   0.22803   0.23525
     Eigenvalues ---    0.24761   0.24875   0.29492   0.32117   0.32384
     Eigenvalues ---    0.32422   0.32525   0.32525   0.32559   0.32608
     Eigenvalues ---    0.35616   0.35714   0.35716   0.36847   0.37344
     Eigenvalues ---    0.44278   0.45232   0.48254   0.48996   0.52643
     Eigenvalues ---    0.55463   0.55560
 RFO step:  Lambda=-1.70022161D-02 EMin= 2.30000000D-03
 Linear search not attempted -- first point.
 Maximum step size (   0.300) exceeded in Quadratic search.
    -- Step size scaled by   0.832
 Iteration  1 RMS(Cart)=  0.11265805 RMS(Int)=  0.01212280
 Iteration  2 RMS(Cart)=  0.04388537 RMS(Int)=  0.00168875
 Iteration  3 RMS(Cart)=  0.00174919 RMS(Int)=  0.00015545
 Iteration  4 RMS(Cart)=  0.00000279 RMS(Int)=  0.00015545
 Iteration  5 RMS(Cart)=  0.00000000 RMS(Int)=  0.00015545
 ITry= 1 IFail=0 DXMaxC= 9.92D-01 DCOld= 1.00D+10 DXMaxT= 3.00D-01 DXLimC= 3.00D+00 Rises=F
 Variable       Old X    -DE/DX   Delta X   Delta X   Delta X     New X
                                 (Linear)    (Quad)   (Total)
    R1        2.75331   0.00132   0.00000   0.00281   0.00281   2.75612
    R2        2.09894  -0.00920   0.00000  -0.02237  -0.02237   2.07657
    R3        2.09894  -0.00955   0.00000  -0.02321  -0.02321   2.07573
    R4        2.09746  -0.00698   0.00000  -0.01693  -0.01693   2.08052
    R5        2.54678   0.03169   0.00000   0.04633   0.04633   2.59311
    R6        2.54528  -0.00037   0.00000  -0.00114  -0.00118   2.54409
    R7        2.60828  -0.01040   0.00000  -0.01622  -0.01618   2.59210
    R8        2.04531   0.00098   0.00000   0.00219   0.00219   2.04749
    R9        2.54804   0.03177   0.00000   0.04654   0.04656   2.59461
   R10        2.04527   0.00099   0.00000   0.00219   0.00219   2.04746
   R11        2.76077   0.00060   0.00000   0.00129   0.00129   2.76207
   R12        2.54673  -0.00139   0.00000  -0.00264  -0.00266   2.54407
   R13        2.88988   0.00626   0.00000   0.01671   0.01671   2.90659
   R14        2.10147  -0.00921   0.00000  -0.02249  -0.02249   2.07898
   R15        2.10078  -0.00712   0.00000  -0.01736  -0.01736   2.08342
   R16        2.65008   0.01539   0.00000   0.02729   0.02729   2.67736
   R17        2.10631  -0.00425   0.00000  -0.01047  -0.01047   2.09584
   R18        2.09833  -0.00453   0.00000  -0.01101  -0.01101   2.08732
   R19        1.87593   0.01666   0.00000   0.02735   0.02735   1.90328
   R20        2.04686   0.00038   0.00000   0.00084   0.00084   2.04770
   R21        3.70354   0.00541   0.00000   0.05739   0.05739   3.76092
    A1        1.92135  -0.00117   0.00000  -0.00509  -0.00512   1.91622
    A2        1.92156  -0.00371   0.00000  -0.01815  -0.01822   1.90334
    A3        1.91249  -0.00125   0.00000  -0.00558  -0.00562   1.90687
    A4        1.89588   0.00232   0.00000   0.01032   0.01025   1.90613
    A5        1.90615   0.00164   0.00000   0.00912   0.00911   1.91527
    A6        1.90619   0.00227   0.00000   0.00983   0.00976   1.91595
    A7        2.21217  -0.00538   0.00000  -0.01744  -0.01743   2.19474
    A8        2.21205  -0.01020   0.00000  -0.03257  -0.03253   2.17952
    A9        1.85370   0.01557   0.00000   0.05040   0.05036   1.90406
   A10        1.88855  -0.00704   0.00000  -0.02009  -0.02005   1.86850
   A11        2.18376  -0.00115   0.00000  -0.01190  -0.01191   2.17185
   A12        2.21049   0.00820   0.00000   0.03209   0.03207   2.24256
   A13        1.88907  -0.00760   0.00000  -0.02206  -0.02203   1.86704
   A14        2.21065   0.00848   0.00000   0.03318   0.03312   2.24377
   A15        2.18309  -0.00086   0.00000  -0.01075  -0.01082   2.17227
   A16        2.21268  -0.00539   0.00000  -0.01756  -0.01755   2.19513
   A17        1.85245   0.01614   0.00000   0.05183   0.05182   1.90428
   A18        2.21525  -0.01078   0.00000  -0.03444  -0.03444   2.18081
   A19        1.93414   0.00467   0.00000   0.01509   0.01513   1.94927
   A20        1.91967  -0.00308   0.00000  -0.02487  -0.02497   1.89470
   A21        1.90908  -0.00512   0.00000  -0.02776  -0.02814   1.88094
   A22        1.91445  -0.00124   0.00000  -0.00280  -0.00274   1.91171
   A23        1.90559   0.00353   0.00000   0.03244   0.03252   1.93810
   A24        1.88003   0.00116   0.00000   0.00801   0.00745   1.88748
   A25        1.93013   0.00893   0.00000   0.03424   0.03420   1.96433
   A26        1.92554  -0.00307   0.00000  -0.00969  -0.01022   1.91532
   A27        1.89790  -0.00565   0.00000  -0.03341  -0.03348   1.86443
   A28        1.93839  -0.00079   0.00000   0.01322   0.01305   1.95144
   A29        1.89258  -0.00140   0.00000  -0.00390  -0.00351   1.88907
   A30        1.87779   0.00166   0.00000  -0.00260  -0.00302   1.87477
   A31        1.86329   0.01073   0.00000   0.05043   0.05043   1.91372
   A32        1.94071  -0.01706   0.00000  -0.05985  -0.05992   1.88078
   A33        2.17113   0.00900   0.00000   0.03217   0.03221   2.20334
   A34        2.17097   0.00806   0.00000   0.02773   0.02777   2.19873
   A35        3.10055   0.00530   0.00000   0.22839   0.22839   3.32894
   A36        3.07970   0.00042   0.00000   0.01802   0.01802   3.09771
    D1       -2.67190   0.00055   0.00000   0.00216   0.00215  -2.66976
    D2        0.59518  -0.00032   0.00000  -0.00585  -0.00589   0.58929
    D3       -0.58222   0.00034   0.00000   0.00028   0.00029  -0.58193
    D4        2.68487  -0.00053   0.00000  -0.00773  -0.00775   2.67712
    D5        1.51462   0.00004   0.00000  -0.00242  -0.00238   1.51224
    D6       -1.50148  -0.00083   0.00000  -0.01043  -0.01041  -1.51189
    D7       -3.05333   0.00076   0.00000   0.00737   0.00748  -3.04585
    D8        0.06028   0.00098   0.00000   0.01187   0.01195   0.07223
    D9       -0.01638   0.00020   0.00000   0.00995   0.01021  -0.00617
   D10        3.09723   0.00043   0.00000   0.01445   0.01468   3.11191
   D11        3.06057  -0.00048   0.00000  -0.00670  -0.00659   3.05398
   D12       -0.05247  -0.00062   0.00000  -0.00895  -0.00890  -0.06137
   D13        0.02361  -0.00030   0.00000  -0.01046  -0.01041   0.01320
   D14       -3.08944  -0.00045   0.00000  -0.01271  -0.01272  -3.10215
   D15        0.00384  -0.00034   0.00000  -0.00715  -0.00696  -0.00312
   D16        3.11686   0.00015   0.00000   0.00611   0.00639   3.12325
   D17       -3.10922  -0.00037   0.00000  -0.01082  -0.01072  -3.11993
   D18        0.00380   0.00011   0.00000   0.00244   0.00263   0.00643
   D19        3.07565  -0.00043   0.00000  -0.00230  -0.00243   3.07322
   D20        0.01030   0.00022   0.00000   0.00107   0.00103   0.01133
   D21       -0.03794  -0.00110   0.00000  -0.01620  -0.01600  -0.05394
   D22       -3.10328  -0.00044   0.00000  -0.01284  -0.01254  -3.11582
   D23       -1.41879  -0.00267   0.00000  -0.04482  -0.04473  -1.46353
   D24        2.74454  -0.00214   0.00000  -0.03463  -0.03441   2.71013
   D25        0.68302   0.00134   0.00000  -0.01297  -0.01331   0.66971
   D26        1.63114  -0.00228   0.00000  -0.04511  -0.04500   1.58614
   D27       -0.48870  -0.00175   0.00000  -0.03492  -0.03468  -0.52338
   D28       -2.55023   0.00173   0.00000  -0.01326  -0.01357  -2.56380
   D29       -0.02124   0.00011   0.00000   0.00613   0.00604  -0.01519
   D30        3.09181   0.00027   0.00000   0.00847   0.00843   3.10025
   D31       -3.08644   0.00045   0.00000   0.00853   0.00855  -3.07789
   D32        0.02661   0.00062   0.00000   0.01086   0.01094   0.03756
   D33       -1.14987  -0.00126   0.00000  -0.02478  -0.02478  -1.17465
   D34        1.00152   0.00176   0.00000   0.00893   0.00891   1.01043
   D35        3.05706  -0.00137   0.00000  -0.01978  -0.01943   3.03763
   D36        0.97305  -0.00289   0.00000  -0.04795  -0.04811   0.92494
   D37        3.12444   0.00013   0.00000  -0.01424  -0.01442   3.11002
   D38       -1.10321  -0.00300   0.00000  -0.04296  -0.04276  -1.14597
   D39        3.02943  -0.00013   0.00000  -0.02080  -0.02097   3.00846
   D40       -1.10237   0.00289   0.00000   0.01291   0.01272  -1.08965
   D41        0.95318  -0.00024   0.00000  -0.01580  -0.01562   0.93755
   D42        1.51168   0.00291   0.00000   0.05140   0.05160   1.56328
   D43       -0.63225   0.00113   0.00000   0.03059   0.03030  -0.60195
   D44       -2.69203   0.00043   0.00000   0.02845   0.02854  -2.66349
         Item               Value     Threshold  Converged?
 Maximum Force            0.031769     0.000450     NO 
 RMS     Force            0.007052     0.000300     NO 
 Maximum Displacement     0.991959     0.001800     NO 
 RMS     Displacement     0.153178     0.001200     NO 
 Predicted change in Energy=-9.187533D-03
 Lowest energy point so far.  Saving SCF results.
 GradGradGradGradGradGradGradGradGradGradGradGradGradGradGradGradGradGrad

 Leave Link  103 at Sat Aug 21 09:33:39 2021, MaxMem=   104857600 cpu:               0.7 elap:               0.1
 (Enter /sw/arch/RedHatEnterpriseServer7/EB_production/2020/software/Gaussian/g16.c01/l202.exe)
                          Input orientation:                          
 ---------------------------------------------------------------------
 Center     Atomic      Atomic             Coordinates (Angstroms)
 Number     Number       Type             X           Y           Z
 ---------------------------------------------------------------------
      1          6           0       -1.869741   -1.969625   -0.909298
      2          7           0       -0.932730   -1.207940   -0.091375
      3          6           0       -1.073014   -0.936870    1.246466
      4          6           0       -0.046287   -0.097435    1.596727
      5          7           0        0.698085    0.119848    0.463659
      6          6           0        1.845235    1.018986    0.354376
      7          6           0        1.407155    2.469971    0.092694
      8          8           0        0.813116    2.636497   -1.182729
      9          6           0        0.143775   -0.551473   -0.563227
     10         17           0       -2.168109    2.487081   -1.197343
     11          1           0       -1.336126   -2.437767   -1.748116
     12          1           0       -2.330401   -2.752607   -0.291820
     13          1           0       -2.648125   -1.293206   -1.294918
     14          1           0       -1.875133   -1.316937    1.867834
     15          1           0        0.165214    0.344127    2.563267
     16          1           0        2.483918    0.672894   -0.471838
     17          1           0        2.423029    0.942529    1.290222
     18          1           0        0.736532    2.811497    0.907348
     19          1           0        2.319354    3.091528    0.132943
     20          1           0       -0.179547    2.479306   -1.117104
     21          1           0        0.488911   -0.541933   -1.590345
 ---------------------------------------------------------------------
                    Distance matrix (angstroms):
                    1          2          3          4          5
     1  C    0.000000
     2  N    1.458476   0.000000
     3  C    2.519658   1.372216   0.000000
     4  C    3.620806   2.206510   1.371678   0.000000
     5  N    3.583942   2.175004   2.205954   1.373006   0.000000
     6  C    4.932515   3.588172   3.624551   2.523428   1.461623
     7  C    5.608213   4.363024   4.369096   3.311523   2.482635
     8  O    5.337493   4.361046   4.714597   3.992284   3.009542
     9  C    2.487000   1.346275   2.214520   2.215327   1.346263
    10  Cl   4.475960   4.050001   4.346823   4.357600   4.071583
    11  H    1.098871   2.102379   3.359977   4.281216   3.946056
    12  H    1.098430   2.092763   2.691513   3.979161   4.241871
    13  H    1.100966   2.097228   3.011076   4.069525   4.035646
    14  H    2.852804   2.176810   1.083487   2.214805   3.264585
    15  H    4.642542   3.265198   2.215429   1.083471   2.177754
    16  H    5.111617   3.918644   4.265639   3.357724   2.090505
    17  H    5.634395   4.218346   3.969430   2.696849   2.082173
    18  H    5.740381   4.465395   4.176088   3.090297   2.728243
    19  H    6.652071   5.395534   5.382944   4.231833   3.401289
    20  H    4.763709   3.900665   4.249118   3.744627   2.972556
    21  H    2.839959   2.170608   3.262374   3.262122   2.168096
                    6          7          8          9         10
     6  C    0.000000
     7  C    1.538100   0.000000
     8  O    2.458517   1.416798   0.000000
     9  C    2.490642   3.339983   3.315863   0.000000
    10  Cl   4.546434   3.800921   2.985002   3.870364   0.000000
    11  H    5.146909   5.916086   5.539590   2.674355   5.024905
    12  H    5.663781   6.433700   6.302210   3.322680   5.319834
    13  H    5.315701   5.703707   5.237875   2.979974   3.811890
    14  H    4.646313   5.316504   5.671178   3.251459   4.894047
    15  H    2.856065   3.487889   4.439282   3.252311   4.917198
    16  H    1.100148   2.169701   2.674450   2.642668   5.045690
    17  H    1.102497   2.190697   3.402475   3.295803   5.445381
    18  H    2.179012   1.109070   2.098788   3.717999   3.601653
    19  H    2.137581   1.104563   2.051049   4.299913   4.719358
    20  H    2.897849   1.995325   1.007171   3.097892   1.990196
    21  H    2.838666   3.570344   3.220819   1.083596   4.048349
                   11         12         13         14         15
    11  H    0.000000
    12  H    1.791230   0.000000
    13  H    1.799097   1.799168   0.000000
    14  H    3.823857   2.632968   3.255929   0.000000
    15  H    5.346118   4.895853   5.047903   2.721356   0.000000
    16  H    5.088992   5.911356   5.557057   5.332431   3.833581
    17  H    5.898233   6.225109   6.115396   4.890094   2.660162
    18  H    6.237160   6.465549   5.757991   4.978684   3.025953
    19  H    6.890139   7.480278   6.777944   6.327569   4.253823
    20  H    5.090526   5.716658   4.511911   5.118235   4.268839
    21  H    2.636255   3.810743   3.239241   4.260086   4.259387
                   16         17         18         19         20
    16  H    0.000000
    17  H    1.783611   0.000000
    18  H    3.086930   2.546352   0.000000
    19  H    2.498526   2.442998   1.784221   0.000000
    20  H    3.282307   3.863975   2.246766   2.860409   0.000000
    21  H    2.589772   3.773872   4.188708   4.418403   3.130283
                   21
    21  H    0.000000
 Stoichiometry    C6H11ClN2O
 Framework group  C1[X(C6H11ClN2O)]
 Deg. of freedom    57
 Full point group                 C1      NOp   1
 RotChk:  IX=0 Diff= 4.38D-01
 Largest Abelian subgroup         C1      NOp   1
 Largest concise Abelian subgroup C1      NOp   1
                         Standard orientation:                         
 ---------------------------------------------------------------------
 Center     Atomic      Atomic             Coordinates (Angstroms)
 Number     Number       Type             X           Y           Z
 ---------------------------------------------------------------------
      1          6           0       -2.850596    1.022057   -0.800551
      2          7           0       -1.954067    0.019456   -0.236477
      3          6           0       -1.963295   -0.424566    1.061882
      4          6           0       -0.889862   -1.266110    1.206947
      5          7           0       -0.253987   -1.317910   -0.008835
      6          6           0        0.988868   -2.032588   -0.293244
      7          6           0        2.224001   -1.196357    0.082144
      8          8           0        2.377058   -0.053556   -0.741201
      9          6           0       -0.902619   -0.522060   -0.879653
     10         17           0        1.219970    2.457023    0.385021
     11          1           0       -2.968305    0.850962   -1.879619
     12          1           0       -3.831379    0.941172   -0.312625
     13          1           0       -2.429633    2.024415   -0.626787
     14          1           0       -2.688528   -0.121936    1.807802
     15          1           0       -0.561831   -1.795658    2.093449
     16          1           0        1.018169   -2.270426   -1.366976
     17          1           0        0.967516   -2.981245    0.268089
     18          1           0        2.181366   -0.926973    1.157156
     19          1           0        3.105620   -1.846185   -0.061142
     20          1           0        1.881107    0.724140   -0.336707
     21          1           0       -0.612662   -0.332285   -1.906343
 ---------------------------------------------------------------------
 Rotational constants (GHZ):           1.1346648           0.8783096           0.5905577
 Leave Link  202 at Sat Aug 21 09:33:39 2021, MaxMem=   104857600 cpu:               0.6 elap:               0.0
 (Enter /sw/arch/RedHatEnterpriseServer7/EB_production/2020/software/Gaussian/g16.c01/l301.exe)
 Standard basis: TZVP (5D, 7F)
 Ernie: Thresh=  0.10000D-02 Tol=  0.10000D-05 Strict=F.
 There are   269 symmetry adapted cartesian basis functions of A   symmetry.
 There are   259 symmetry adapted basis functions of A   symmetry.
   259 basis functions,   450 primitive gaussians,   269 cartesian basis functions
    43 alpha electrons       43 beta electrons
       nuclear repulsion energy       620.7776008493 Hartrees.
 IExCor=  404 DFT=T Ex=B Corr=P86 ExCW=0 ScaHFX=  0.000000
[...]
 ------------------------------------------------------------------------------
 One-electron integrals computed using PRISM.
 NBasis=   259 RedAO= T EigKep=  1.50D-04  NBF=   259
 NBsUse=   259 1.00D-06 EigRej= -1.00D+00 NBFU=   259
 Initial guess from the checkpoint file:  "QVRFXIWAQRNWEX-UHFFFAOYSA-M.chk"
 B after Tr=     0.000000   -0.000000   -0.000000
         Rot=    1.000000   -0.000000   -0.000000   -0.000000 Ang=   0.00 deg.
 Requested convergence on RMS density matrix=1.00D-08 within 128 cycles.
 Requested convergence on MAX density matrix=1.00D-06.
 Requested convergence on             energy=1.00D-06.
 No special actions if energy rises.
 Inv3:  Mode=1 IEnd=     6151872.
 Iteration    1 A*A^-1 deviation from unit magnitude is 7.29D-14 for    527.
 Iteration    1 A*A^-1 deviation from orthogonality  is 3.72D-14 for   1398    527.
 Iteration    1 A^-1*A deviation from unit magnitude is 8.59D-14 for   1398.
 Iteration    1 A^-1*A deviation from orthogonality  is 9.85D-15 for   1033    527.
 Error on nuclear    polarization charges =  0.02411
 Error on electronic polarization charges = -0.05573
 SCF Done:  E(RB-P86) =  -880.429380844     A.U. after   10 cycles
            NFock= 10  Conv=0.72D-08     -V/T= 2.0038
 --------------------------------------------------------------------
 Variational C-PCM results
 =========================
 <psi(f)|   H    |psi(f)>                     (a.u.) =    -880.365782
 <psi(f)|H+V(f)/2|psi(f)>                     (a.u.) =    -880.429381
 Total free energy in solution:
 - with all non electrostatic terms           (a.u.) =    -880.414704
 --------------------------------------------------------------------
 (Polarized solute)-Solvent               (kcal/mol) =     -39.91
 --------------------------------------------------------------------
 Cavitation energy                        (kcal/mol) =      25.65
 Dispersion energy                        (kcal/mol) =     -17.90
 Repulsion energy                         (kcal/mol) =       1.45
 Total non electrostatic                  (kcal/mol) =       9.21
 --------------------------------------------------------------------
 Partition over spheres:
 Sphere  on Atom  Surface  Charge   GEl     GCav    GDR
    1      C1      18.53  -0.069   -0.95    2.18   -1.38
    2      N2       1.75  -0.006   -0.07    0.21   -0.08
    3      C3      15.14  -0.028   -0.91    1.78   -1.00
    4      C4      15.60  -0.035   -0.95    1.83   -0.99
    5      N5       1.91   0.001   -0.18    0.23   -0.08
    6      C6      10.32  -0.055   -1.04    1.21   -0.63
    7      C7      11.99  -0.016   -0.29    1.41   -0.75
    8      O8      15.05   0.207   -4.72    1.87   -1.33
    9      C9      10.10  -0.060   -1.09    1.19   -0.63
   10     Cl10     39.66   0.614  -20.75    4.62   -2.74
   11      H11      6.47  -0.055   -1.02    0.91   -0.72
   12      H12      6.47  -0.056   -1.16    0.91   -0.70
   13      H13      5.22  -0.030    0.09    0.74   -0.37
   14      H14      6.33  -0.072   -1.54    0.89   -0.75
   15      H15      6.33  -0.072   -1.70    0.89   -0.76
   16      H16      6.51  -0.053   -0.92    0.92   -0.78
   17      H17      6.45  -0.058   -1.37    0.91   -0.74
   18      H18      6.59  -0.034   -0.01    0.93   -0.57
   19      H19      6.56  -0.039   -0.30    0.93   -0.85
   20      H20      1.43  -0.005    0.12    0.20    0.00
   21      H21      6.29  -0.079   -1.16    0.89   -0.63
 --------------------------------------------------------------------
 - cavitation energy not included in the total energy.
 - dispersion energy not included in the total energy.
 - repulsion  energy not included in the total energy.
 After PCM corrections, the energy is  -880.429380844     a.u.
 --------------------------------------------------------------------
 Writing COSMO formatted file "QVRFXIWAQRNWEX-UHFFFAOYSA-M.cosmo"
 Recomputed dielectric energy= -0.063898 old= -0.063599 diff=-2.99D-04

 **********************************************************************

            Population analysis using the SCF Density.

 **********************************************************************

 Orbital symmetries:
       Occupied  (A) (A) (A) (A) (A) (A) (A) (A) (A) (A) (A) (A)
                 (A) (A) (A) (A) (A) (A) (A) (A) (A) (A) (A) (A)
                 (A) (A) (A) (A) (A) (A) (A) (A) (A) (A) (A) (A)
                 (A) (A) (A) (A) (A) (A) (A)
       Virtual   (A) (A) (A) (A) (A) (A) (A) (A) (A) (A) (A) (A)
                 (A) (A) (A) (A) (A) (A) (A) (A) (A) (A) (A) (A)
                 (A) (A) (A) (A) (A) (A) (A) (A) (A) (A) (A) (A)
                 (A) (A) (A) (A) (A) (A) (A) (A) (A) (A) (A) (A)
                 (A) (A) (A) (A) (A) (A) (A) (A) (A) (A) (A) (A)
                 (A) (A) (A) (A) (A) (A) (A) (A) (A) (A) (A) (A)
                 (A) (A) (A) (A) (A) (A) (A) (A) (A) (A) (A) (A)
                 (A) (A) (A) (A) (A) (A) (A) (A) (A) (A) (A) (A)
                 (A) (A) (A) (A) (A) (A) (A) (A) (A) (A) (A) (A)
                 (A) (A) (A) (A) (A) (A) (A) (A) (A) (A) (A) (A)
                 (A) (A) (A) (A) (A) (A) (A) (A) (A) (A) (A) (A)
                 (A) (A) (A) (A) (A) (A) (A) (A) (A) (A) (A) (A)
                 (A) (A) (A) (A) (A) (A) (A) (A) (A) (A) (A) (A)
                 (A) (A) (A) (A) (A) (A) (A) (A) (A) (A) (A) (A)
                 (A) (A) (A) (A) (A) (A) (A) (A) (A) (A) (A) (A)
                 (A) (A) (A) (A) (A) (A) (A) (A) (A) (A) (A) (A)
                 (A) (A) (A) (A) (A) (A) (A) (A) (A) (A) (A) (A)
                 (A) (A) (A) (A) (A) (A) (A) (A) (A) (A) (A) (A)
 The electronic state is 1-A.
 Alpha  occ. eigenvalues -- -100.65641 -18.76231 -14.09809 -14.09768  -9.99375
 Alpha  occ. eigenvalues --   -9.95498  -9.95425  -9.95024  -9.94866  -9.94291
 Alpha  occ. eigenvalues --   -9.09507  -6.91399  -6.91285  -6.91277  -0.99437
 Alpha  occ. eigenvalues --   -0.92997  -0.88309  -0.74078  -0.71011  -0.66594
 Alpha  occ. eigenvalues --   -0.64707  -0.60210  -0.58059  -0.55748  -0.50526
 Alpha  occ. eigenvalues --   -0.47274  -0.45520  -0.44211  -0.43129  -0.42670
 Alpha  occ. eigenvalues --   -0.41488  -0.40457  -0.37650  -0.37077  -0.36255
 Alpha  occ. eigenvalues --   -0.35755  -0.29564  -0.28467  -0.24802  -0.23620
 Alpha  occ. eigenvalues --   -0.22584  -0.22288  -0.21913
 Alpha virt. eigenvalues --   -0.05922  -0.03050   0.03310   0.04383   0.04958
 Alpha virt. eigenvalues --    0.05872   0.06534   0.07065   0.07977   0.08387
 Alpha virt. eigenvalues --    0.09022   0.09794   0.10065   0.10815   0.11570
 Alpha virt. eigenvalues --    0.12716   0.14938   0.15827   0.16207   0.17345
 Alpha virt. eigenvalues --    0.17839   0.19340   0.19939   0.21798   0.22848
 Alpha virt. eigenvalues --    0.23468   0.24626   0.25391   0.26417   0.27440
 Alpha virt. eigenvalues --    0.28585   0.29332   0.30029   0.31817   0.32174
 Alpha virt. eigenvalues --    0.33623   0.34149   0.34977   0.35800   0.36662
 Alpha virt. eigenvalues --    0.37921   0.38500   0.39149   0.39825   0.40254
 Alpha virt. eigenvalues --    0.40783   0.41601   0.42034   0.43050   0.43847
 Alpha virt. eigenvalues --    0.44465   0.45353   0.46584   0.47304   0.48929
 Alpha virt. eigenvalues --    0.49860   0.51109   0.52147   0.54260   0.54365
 Alpha virt. eigenvalues --    0.57049   0.58183   0.60988   0.61908   0.64588
 Alpha virt. eigenvalues --    0.66291   0.68525   0.69080   0.70443   0.70753
 Alpha virt. eigenvalues --    0.76463   0.78989   0.81349   0.82058   0.83606
 Alpha virt. eigenvalues --    0.85465   0.90958   0.97393   1.05453   1.13596
 Alpha virt. eigenvalues --    1.14910   1.16074   1.17316   1.18859   1.21565
 Alpha virt. eigenvalues --    1.21997   1.22680   1.24280   1.25659   1.26302
 Alpha virt. eigenvalues --    1.27192   1.28076   1.29776   1.31097   1.31470
 Alpha virt. eigenvalues --    1.32294   1.33341   1.36234   1.37358   1.37501
 Alpha virt. eigenvalues --    1.39611   1.41530   1.42604   1.44100   1.45363
 Alpha virt. eigenvalues --    1.48344   1.50392   1.51188   1.53852   1.55498
 Alpha virt. eigenvalues --    1.56994   1.58968   1.61272   1.63533   1.63622
 Alpha virt. eigenvalues --    1.64915   1.67175   1.68034   1.68422   1.70154
 Alpha virt. eigenvalues --    1.70561   1.71644   1.72619   1.73327   1.73788
 Alpha virt. eigenvalues --    1.75803   1.80437   1.81964   1.83082   1.86260
 Alpha virt. eigenvalues --    1.86525   1.87242   1.88730   1.90805   1.92977
 Alpha virt. eigenvalues --    1.97059   1.99336   1.99935   2.05780   2.07750
 Alpha virt. eigenvalues --    2.08538   2.13886   2.18553   2.19454   2.20148
 Alpha virt. eigenvalues --    2.22701   2.24102   2.25186   2.26853   2.28047
 Alpha virt. eigenvalues --    2.29047   2.31014   2.33492   2.34143   2.35777
 Alpha virt. eigenvalues --    2.38395   2.39726   2.40891   2.42707   2.42928
 Alpha virt. eigenvalues --    2.44118   2.46504   2.47637   2.50157   2.50773
 Alpha virt. eigenvalues --    2.51948   2.53780   2.54300   2.56266   2.57849
 Alpha virt. eigenvalues --    2.59189   2.60645   2.62224   2.66928   2.67417
 Alpha virt. eigenvalues --    2.68478   2.71201   2.72074   2.74220   2.80471
 Alpha virt. eigenvalues --    2.83283   2.85597   2.86557   2.88284   2.91485
 Alpha virt. eigenvalues --    2.97863   2.98589   3.06202   3.07698   3.09550
 Alpha virt. eigenvalues --    3.11945   3.17023   3.21244   3.24646   3.25743
 Alpha virt. eigenvalues --    3.28716   3.28865   3.33593   3.43393   3.46608
 Alpha virt. eigenvalues --    3.52272   3.61055   3.64499   3.75477   3.86133
 Alpha virt. eigenvalues --    4.16527  21.47524  21.64504  21.70538  21.77664
 Alpha virt. eigenvalues --   21.87475  21.90939  24.29103  31.51496  31.61745
 Alpha virt. eigenvalues --   43.14215
          Condensed to atoms (all electrons):
               1          2          3          4          5          6
     1  C    4.995620   0.256211  -0.059420   0.012382   0.007597   0.000158
     2  N    0.256211   6.197825   0.431090  -0.106247  -0.068910   0.008981
     3  C   -0.059420   0.431090   5.149621   0.396672  -0.086691  -0.008810
     4  C    0.012382  -0.106247   0.396672   5.117638   0.418644  -0.031921
     5  N    0.007597  -0.068910  -0.086691   0.418644   6.316829   0.186788
     6  C    0.000158   0.008981  -0.008810  -0.031921   0.186788   5.521515
     7  C    0.000270  -0.000556   0.010259  -0.016028  -0.049787   0.065299
     8  O   -0.000448  -0.002433   0.002484  -0.004522  -0.006474  -0.093409
     9  C   -0.066061   0.430318  -0.108821  -0.132779   0.423994  -0.117011
    10  Cl  -0.016674  -0.014688   0.011053   0.006225  -0.007140  -0.009422
    11  H    0.382830  -0.016878   0.010674  -0.001804   0.000665  -0.000117
    12  H    0.385308  -0.020908  -0.011851   0.002512  -0.000637   0.000044
    13  H    0.395315  -0.049205  -0.000778  -0.000790  -0.000024  -0.000204
    14  H   -0.007125  -0.026641   0.403458  -0.031173   0.002669  -0.000189
    15  H   -0.000288   0.002186  -0.042673   0.413704  -0.029416   0.001029
    16  H    0.000031   0.000475  -0.002618   0.009279  -0.032484   0.404349
    17  H    0.000000  -0.000920   0.003467  -0.011624  -0.015819   0.322718
    18  H    0.000033  -0.000012  -0.002719   0.006962  -0.008185  -0.029495
    19  H   -0.000002  -0.000031   0.000231   0.000270   0.009902  -0.084445
    20  H    0.000650   0.000754  -0.000641   0.001635   0.003966   0.002080
    21  H   -0.003151  -0.026855  -0.000215   0.009548  -0.033452   0.005824
               7          8          9         10         11         12
     1  C    0.000270  -0.000448  -0.066061  -0.016674   0.382830   0.385308
     2  N   -0.000556  -0.002433   0.430318  -0.014688  -0.016878  -0.020908
     3  C    0.010259   0.002484  -0.108821   0.011053   0.010674  -0.011851
     4  C   -0.016028  -0.004522  -0.132779   0.006225  -0.001804   0.002512
     5  N   -0.049787  -0.006474   0.423994  -0.007140   0.000665  -0.000637
     6  C    0.065299  -0.093409  -0.117011  -0.009422  -0.000117   0.000044
     7  C    5.197950   0.246368   0.008084   0.013256   0.000040  -0.000011
     8  O    0.246368   8.097385   0.032858  -0.065244   0.000044  -0.000003
     9  C    0.008084   0.032858   5.126896   0.009732  -0.008671   0.010466
    10  Cl   0.013256  -0.065244   0.009732  17.750574   0.000126   0.000701
    11  H    0.000040   0.000044  -0.008671   0.000126   0.495267  -0.020310
    12  H   -0.000011  -0.000003   0.010466   0.000701  -0.020310   0.495071
    13  H    0.000069   0.000114  -0.005648   0.028607  -0.023499  -0.021929
    14  H    0.000029   0.000005   0.011398  -0.000459   0.000188   0.000422
    15  H   -0.004466  -0.000190   0.010427  -0.000060   0.000004   0.000025
    16  H   -0.042760   0.001442  -0.011202   0.000231  -0.000024  -0.000001
    17  H   -0.002683   0.007767   0.016784  -0.000048   0.000001  -0.000001
    18  H    0.375387  -0.046686  -0.001328   0.010407  -0.000006  -0.000002
    19  H    0.429853  -0.039304   0.002477   0.000057   0.000000  -0.000000
    20  H   -0.040517   0.280973  -0.007255   0.093905  -0.000060  -0.000002
    21  H   -0.008520   0.012592   0.400887   0.001073  -0.000068  -0.000007
              13         14         15         16         17         18
     1  C    0.395315  -0.007125  -0.000288   0.000031   0.000000   0.000033
     2  N   -0.049205  -0.026641   0.002186   0.000475  -0.000920  -0.000012
     3  C   -0.000778   0.403458  -0.042673  -0.002618   0.003467  -0.002719
     4  C   -0.000790  -0.031173   0.413704   0.009279  -0.011624   0.006962
     5  N   -0.000024   0.002669  -0.029416  -0.032484  -0.015819  -0.008185
     6  C   -0.000204  -0.000189   0.001029   0.404349   0.322718  -0.029495
     7  C    0.000069   0.000029  -0.004466  -0.042760  -0.002683   0.375387
     8  O    0.000114   0.000005  -0.000190   0.001442   0.007767  -0.046686
     9  C   -0.005648   0.011398   0.010427  -0.011202   0.016784  -0.001328
    10  Cl   0.028607  -0.000459  -0.000060   0.000231  -0.000048   0.010407
    11  H   -0.023499   0.000188   0.000004  -0.000024   0.000001  -0.000006
    12  H   -0.021929   0.000422   0.000025  -0.000001  -0.000001  -0.000002
    13  H    0.509725  -0.000107  -0.000003   0.000014  -0.000002  -0.000039
    14  H   -0.000107   0.447406   0.000670  -0.000002   0.000020   0.000001
    15  H   -0.000003   0.000670   0.454676   0.000427  -0.000543   0.000970
    16  H    0.000014  -0.000002   0.000427   0.495865  -0.016820   0.008279
    17  H   -0.000002   0.000020  -0.000543  -0.016820   0.513102   0.000053
    18  H   -0.000039   0.000001   0.000970   0.008279   0.000053   0.580884
    19  H    0.000002  -0.000001  -0.000086  -0.004552   0.005227  -0.032761
    20  H   -0.000378  -0.000000   0.000059  -0.000675  -0.000796  -0.011848
    21  H   -0.000083  -0.000071   0.000084   0.002783   0.000337   0.001227
              19         20         21
     1  C   -0.000002   0.000650  -0.003151
     2  N   -0.000031   0.000754  -0.026855
     3  C    0.000231  -0.000641  -0.000215
     4  C    0.000270   0.001635   0.009548
     5  N    0.009902   0.003966  -0.033452
     6  C   -0.084445   0.002080   0.005824
     7  C    0.429853  -0.040517  -0.008520
     8  O   -0.039304   0.280973   0.012592
     9  C    0.002477  -0.007255   0.400887
    10  Cl   0.000057   0.093905   0.001073
    11  H    0.000000  -0.000060  -0.000068
    12  H   -0.000000  -0.000002  -0.000007
    13  H    0.000002  -0.000378  -0.000083
    14  H   -0.000001  -0.000000  -0.000071
    15  H   -0.000086   0.000059   0.000084
    16  H   -0.004552  -0.000675   0.002783
    17  H    0.005227  -0.000796   0.000337
    18  H   -0.032761  -0.011848   0.001227
    19  H    0.544081   0.004906  -0.000227
    20  H    0.004906   0.434166  -0.001018
    21  H   -0.000227  -0.001018   0.437399
 Mulliken charges:
               1
     1  C   -0.283236
     2  N    0.006446
     3  C   -0.093771
     4  C   -0.058583
     5  N   -0.032035
     6  C   -0.143764
     7  C   -0.181535
     8  O   -0.423320
     9  C   -0.025544
    10  Cl  -0.812212
    11  H    0.181595
    12  H    0.181112
    13  H    0.168840
    14  H    0.199504
    15  H    0.193466
    16  H    0.187964
    17  H    0.179780
    18  H    0.148879
    19  H    0.164403
    20  H    0.240097
    21  H    0.201914
 Sum of Mulliken charges =  -0.00000
 Mulliken charges with hydrogens summed into heavy atoms:
               1
     1  C    0.248312
     2  N    0.006446
     3  C    0.105733
     4  C    0.134883
     5  N   -0.032035
     6  C    0.223980
     7  C    0.131746
     8  O   -0.183223
     9  C    0.176369
    10  Cl  -0.812212
 Electronic spatial extent (au):  <R**2>=           1821.2764
 Charge=             -0.0000 electrons
 Dipole moment (field-independent basis, Debye):
    X=             -3.8614    Y=            -13.6710    Z=             -1.6033  Tot=             14.2961
 Quadrupole moment (field-independent basis, Debye-Ang):
   XX=            -52.6657   YY=            -85.3554   ZZ=            -63.3834
   XY=             -6.2692   XZ=              5.6411   YZ=             -7.8647
 Traceless Quadrupole moment (field-independent basis, Debye-Ang):
   XX=             14.4692   YY=            -18.2206   ZZ=              3.7514
   XY=             -6.2692   XZ=              5.6411   YZ=             -7.8647
 Octapole moment (field-independent basis, Debye-Ang**2):
  XXX=            -39.3291  YYY=            -72.3230  ZZZ=             -8.6535  XYY=              8.4049
  XXY=            -25.3012  XXZ=              6.0674  XZZ=            -10.3280  YZZ=            -18.6003
  YYZ=             -5.3915  XYZ=              9.3693
 Hexadecapole moment (field-independent basis, Debye-Ang**3):
 XXXX=          -1043.9848 YYYY=          -1051.8357 ZZZZ=           -273.0093 XXXY=            -36.7282
 XXXZ=             26.5956 YYYX=            -17.4230 YYYZ=            -54.4519 ZZZX=              7.9517
 ZZZY=            -23.4857 XXYY=           -351.6081 XXZZ=           -237.4904 YYZZ=           -198.4092
 XXYZ=             -2.5449 YYXZ=              2.3711 ZZXY=             -3.6853
 N-N= 6.373432157033D+02 E-N=-3.347945461719D+03  KE= 8.771192700997D+02
 Unable to Open any file for archive entry.
 1\1\GINC-TCN794\SP\RBP86\TZVP\C6H11Cl1N2O1\ELENAA\21-Aug-2021\0\\# BP8
 6/TZVP SCRF=COSMORS geom=CHECKPOINT guess=CHECKPOINT\\COSMO-file for #
 QVRFXIWAQRNWEX-UHFFFAOYSA-M\\0,1\C,0,-1.9216523609,-1.7756215503,-0.95
 63126926\N,0,-0.9237283055,-1.1445915548,-0.0884950573\C,0,-1.03924756
 65,-0.9693478352,1.280521969\C,0,0.0055392493,-0.1782114224,1.67431040
 01\N,0,0.7417102176,0.1157663848,0.5360914027\C,0,1.8624271267,1.06329
 31747,0.4487752691\C,0,1.3734721222,2.4453716899,-0.0163365345\O,0,0.8
 541134417,2.4029897056,-1.3389144536\C,0,0.1464907613,-0.4605311758,-0
 .5236926267\Cl,0,-2.1334681563,1.8914190658,-1.0207361355\H,0,-1.42626
 91019,-2.1691218682,-1.8506152047\H,0,-2.3999497399,-2.5961141858,-0.4
 109047706\H,0,-2.6598258448,-1.0119262747,-1.2384851999\H,0,-1.8398504
 718,-1.4257139241,1.8499098155\H,0,0.297255301,0.1827274282,2.65316436
 35\H,0,2.5943374724,0.6598889563,-0.2631135829\H,0,2.3295032684,1.1198
 552377,1.4406928001\H,0,0.6240088244,2.8255148982,0.7012092173\H,0,2.2
 417344228,3.1241678674,0.0026711687\H,0,-0.1368453674,2.2435346711,-1.
 2709933715\H,0,0.4753556541,-0.3748768755,-1.5513251904\\Version=ES64L
 -G16RevC.01\State=1-A\HF=-880.4293808\RMSD=7.224e-09\Dipole=2.71961,-4
 .1931006,2.5800623\Quadrupole=-2.1675271,-0.509825,2.6773521,12.426294
 8,-0.5006009,8.1415034\PG=C01 [X(C6H11Cl1N2O1)]\\@
 The archive entry for this job was punched.


 Everywhere is walking distance if you have the time.
                                    -- Steven Wright
 Job cpu time:       0 days  0 hours  5 minutes 35.0 seconds.
 Elapsed time:       0 days  0 hours  0 minutes 14.4 seconds.
 File lengths (MBytes):  RWF=     58 Int=      0 D2E=      0 Chk=     10 Scr=      1
 Normal termination of Gaussian 16 at Sat Aug 21 09:39:26 2021.
