 Entering Gaussian System, Link 0=g16
 Input=QWVGKYWNOKOFNN-UHFFFAOYSA-N.gjf
 Output=QWVGKYWNOKOFNN-UHFFFAOYSA-N.log
 Initial command:
 /sw/arch/RedHatEnterpriseServer7/EB_production/2019/software/Gaussian/g16.c01/l1.exe "/scratch-local/elenaa.9715270/Gau-3248.inp" -scrdir="/scratch-local/elenaa.9715270/"
 Entering Link 1 = /sw/arch/RedHatEnterpriseServer7/EB_production/2019/software/Gaussian/g16.c01/l1.exe PID=      3249.
  
 Copyright (c) 1988-2019, Gaussian, Inc.  All Rights Reserved.
  
 This is part of the Gaussian(R) 16 program.  It is based on
 the Gaussian(R) 09 system (copyright 2009, Gaussian, Inc.),
 the Gaussian(R) 03 system (copyright 2003, Gaussian, Inc.),
 the Gaussian(R) 98 system (copyright 1998, Gaussian, Inc.),
 the Gaussian(R) 94 system (copyright 1995, Gaussian, Inc.),
 the Gaussian 92(TM) system (copyright 1992, Gaussian, Inc.),
 the Gaussian 90(TM) system (copyright 1990, Gaussian, Inc.),
 the Gaussian 88(TM) system (copyright 1988, Gaussian, Inc.),
 the Gaussian 86(TM) system (copyright 1986, Carnegie Mellon
 University), and the Gaussian 82(TM) system (copyright 1983,
 Carnegie Mellon University). Gaussian is a federally registered
 trademark of Gaussian, Inc.
  
 This software contains proprietary and confidential information,
 including trade secrets, belonging to Gaussian, Inc.
  
 This software is provided under written license and may be
 used, copied, transmitted, or stored only in accord with that
 written license.
  
 The following legend is applicable only to US Government
 contracts under FAR:
  
                    RESTRICTED RIGHTS LEGEND
  
 Use, reproduction and disclosure by the US Government is
 subject to restrictions as set forth in subparagraphs (a)
 and (c) of the Commercial Computer Software - Restricted
 Rights clause in FAR 52.227-19.
  
 Gaussian, Inc.
 340 Quinnipiac St., Bldg. 40, Wallingford CT 06492
  
  
 ---------------------------------------------------------------
 Warning -- This program may not be used in any manner that
 competes with the business of Gaussian, Inc. or will provide
 assistance to any competitor of Gaussian, Inc.  The licensee
 of this program is prohibited from giving any competitor of
 Gaussian, Inc. access to this program.  By using this program,
 the user acknowledges that Gaussian, Inc. is engaged in the
 business of creating and licensing software in the field of
 computational chemistry and represents and warrants to the
 licensee that it is not a competitor of Gaussian, Inc. and that
 it will not use this program in any manner prohibited above.
 ---------------------------------------------------------------
  

 Cite this work as:
 Gaussian 16, Revision C.01,
 M. J. Frisch, G. W. Trucks, H. B. Schlegel, G. E. Scuseria, 
 M. A. Robb, J. R. Cheeseman, G. Scalmani, V. Barone, 
 G. A. Petersson, H. Nakatsuji, X. Li, M. Caricato, A. V. Marenich, 
 J. Bloino, B. G. Janesko, R. Gomperts, B. Mennucci, H. P. Hratchian, 
 J. V. Ortiz, A. F. Izmaylov, J. L. Sonnenberg, D. Williams-Young, 
 F. Ding, F. Lipparini, F. Egidi, J. Goings, B. Peng, A. Petrone, 
 T. Henderson, D. Ranasinghe, V. G. Zakrzewski, J. Gao, N. Rega, 
 G. Zheng, W. Liang, M. Hada, M. Ehara, K. Toyota, R. Fukuda, 
 J. Hasegawa, M. Ishida, T. Nakajima, Y. Honda, O. Kitao, H. Nakai, 
 T. Vreven, K. Throssell, J. A. Montgomery, Jr., J. E. Peralta, 
 F. Ogliaro, M. J. Bearpark, J. J. Heyd, E. N. Brothers, K. N. Kudin, 
 V. N. Staroverov, T. A. Keith, R. Kobayashi, J. Normand, 
 K. Raghavachari, A. P. Rendell, J. C. Burant, S. S. Iyengar, 
 J. Tomasi, M. Cossi, J. M. Millam, M. Klene, C. Adamo, R. Cammi, 
 J. W. Ochterski, R. L. Martin, K. Morokuma, O. Farkas, 
 J. B. Foresman, and D. J. Fox, Gaussian, Inc., Wallingford CT, 2019.
 
 ******************************************
 Gaussian 16:  ES64L-G16RevC.01  3-Jul-2019
                22-Feb-2021 
 ******************************************
 %chk=QWVGKYWNOKOFNN-UHFFFAOYSA-N.chk
 %NProcShared=32
 Will use up to   32 processors via shared memory.
 -------------------------------------------------------------
 #P BP86/TZVP EmpiricalDispersion=GD3 SCRF=(Solvent=Water) Opt
 -------------------------------------------------------------
 1/18=20,19=15,26=3,38=1/1,3;
 2/9=110,12=2,17=6,18=5,40=1/2;
 3/5=19,7=101,11=2,25=1,30=1,70=2201,71=1,72=1,74=404,124=31/1,2,3;
 4//1;
 5/5=2,38=5,53=1/2;
 6/7=2,8=2,9=2,10=2,28=1/1;
 7//1,2,3,16;
 1/18=20,19=15,26=3/3(2);
 2/9=110/2;
 99//99;
 2/9=110/2;
 3/5=19,7=101,11=2,25=1,30=1,70=2205,71=1,72=1,74=404,124=31/1,2,3;
 4/5=5,16=3,69=1/1;
 5/5=2,38=5,53=1/2;
 7//1,2,3,16;
 1/18=20,19=15,26=3/3(-5);
 2/9=110/2;
 6/7=2,8=2,9=2,10=2,19=2,28=1/1;
 99/9=1/99;
 Leave Link    1 at Mon Feb 22 21:18:36 2021, MaxMem=           0 cpu:               2.1 elap:               0.1
 (Enter /sw/arch/RedHatEnterpriseServer7/EB_production/2019/software/Gaussian/g16.c01/l101.exe)
 -------------------------------------
 Particle #QWVGKYWNOKOFNN-UHFFFAOYSA-N
 -------------------------------------
 Symbolic Z-matrix:
 Charge =  0 Multiplicity = 1
 C                     1.20933   0.65508   0.94268 
 C                    -0.09864   0.2366    0.38129 
 C                    -0.76855  -0.90894   0.87568 
 C                    -2.00365  -1.30861   0.33358 
 C                    -2.5903   -0.56254  -0.70361 
 C                    -1.94101   0.58329  -1.19883 
 C                    -0.69808   0.9821   -0.66472 
 O                    -0.07921   2.08537  -1.16302 
 H                     1.12171   1.65041   1.38172 
 H                     1.96105   0.68352   0.15201 
 H                     1.56265  -0.02819   1.71528 
 H                    -0.36162  -1.46322   1.6339 
 H                    -2.47407  -2.14335   0.69413 
 H                    -3.48984  -0.85298  -1.09582 
 H                    -2.37582   1.1262   -1.94896 
 H                    -0.52887   2.28546  -2.01004 
 
 ITRead=  0  0  0  0  0  0  0  0  0  0  0  0  0  0  0  0
 MicOpt= -1 -1 -1 -1 -1 -1 -1 -1 -1 -1 -1 -1 -1 -1 -1 -1
 NAtoms=     16 NQM=       16 NQMF=       0 NMMI=      0 NMMIF=      0
                NMic=       0 NMicF=      0.
                    Isotopes and Nuclear Properties:
 (Nuclear quadrupole moments (NQMom) in fm**2, nuclear magnetic moments (NMagM)
  in nuclear magnetons)

  Atom         1           2           3           4           5           6           7           8           9          10
 IAtWgt=          12          12          12          12          12          12          12          16           1           1
 AtmWgt=  12.0000000  12.0000000  12.0000000  12.0000000  12.0000000  12.0000000  12.0000000  15.9949146   1.0078250   1.0078250
 NucSpn=           0           0           0           0           0           0           0           0           1           1
 AtZEff=  -0.0000000  -0.0000000  -0.0000000  -0.0000000  -0.0000000  -0.0000000  -0.0000000  -0.0000000  -0.0000000  -0.0000000
 NQMom=    0.0000000   0.0000000   0.0000000   0.0000000   0.0000000   0.0000000   0.0000000   0.0000000   0.0000000   0.0000000
 NMagM=    0.0000000   0.0000000   0.0000000   0.0000000   0.0000000   0.0000000   0.0000000   0.0000000   2.7928460   2.7928460
 AtZNuc=   6.0000000   6.0000000   6.0000000   6.0000000   6.0000000   6.0000000   6.0000000   8.0000000   1.0000000   1.0000000

  Atom        11          12          13          14          15          16
 IAtWgt=           1           1           1           1           1           1
 AtmWgt=   1.0078250   1.0078250   1.0078250   1.0078250   1.0078250   1.0078250
 NucSpn=           1           1           1           1           1           1
 AtZEff=  -0.0000000  -0.0000000  -0.0000000  -0.0000000  -0.0000000  -0.0000000
 NQMom=    0.0000000   0.0000000   0.0000000   0.0000000   0.0000000   0.0000000
 NMagM=    2.7928460   2.7928460   2.7928460   2.7928460   2.7928460   2.7928460
 AtZNuc=   1.0000000   1.0000000   1.0000000   1.0000000   1.0000000   1.0000000
 Leave Link  101 at Mon Feb 22 21:18:36 2021, MaxMem=   104857600 cpu:               2.8 elap:               0.1
 (Enter /sw/arch/RedHatEnterpriseServer7/EB_production/2019/software/Gaussian/g16.c01/l103.exe)

 GradGradGradGradGradGradGradGradGradGradGradGradGradGradGradGradGradGrad
 Berny optimization.
 Initialization pass.
                           ----------------------------
                           !    Initial Parameters    !
                           ! (Angstroms and Degrees)  !
 --------------------------                            --------------------------
 ! Name  Definition              Value          Derivative Info.                !
 --------------------------------------------------------------------------------
 ! R1    R(1,2)                  1.4836         estimate D2E/DX2                !
 ! R2    R(1,9)                  1.0914         estimate D2E/DX2                !
 ! R3    R(1,10)                 1.0914         estimate D2E/DX2                !
 ! R4    R(1,11)                 1.0902         estimate D2E/DX2                !
 ! R5    R(2,3)                  1.4161         estimate D2E/DX2                !
 ! R6    R(2,7)                  1.4175         estimate D2E/DX2                !
 ! R7    R(3,4)                  1.4068         estimate D2E/DX2                !
 ! R8    R(3,12)                 1.0236         estimate D2E/DX2                !
 ! R9    R(4,5)                  1.4059         estimate D2E/DX2                !
 ! R10   R(4,13)                 1.0238         estimate D2E/DX2                !
 ! R11   R(5,6)                  1.407          estimate D2E/DX2                !
 ! R12   R(5,14)                 1.0234         estimate D2E/DX2                !
 ! R13   R(6,7)                  1.4104         estimate D2E/DX2                !
 ! R14   R(6,15)                 1.023          estimate D2E/DX2                !
 ! R15   R(7,8)                  1.3596         estimate D2E/DX2                !
 ! R16   R(8,16)                 0.9796         estimate D2E/DX2                !
 ! A1    A(2,1,9)              109.7969         estimate D2E/DX2                !
 ! A2    A(2,1,10)             109.9051         estimate D2E/DX2                !
 ! A3    A(2,1,11)             112.1534         estimate D2E/DX2                !
 ! A4    A(9,1,10)             108.8432         estimate D2E/DX2                !
 ! A5    A(9,1,11)             108.2102         estimate D2E/DX2                !
 ! A6    A(10,1,11)            107.8497         estimate D2E/DX2                !
 ! A7    A(1,2,3)              120.8719         estimate D2E/DX2                !
 ! A8    A(1,2,7)              120.246          estimate D2E/DX2                !
 ! A9    A(3,2,7)              118.8821         estimate D2E/DX2                !
 ! A10   A(2,3,4)              120.7039         estimate D2E/DX2                !
 ! A11   A(2,3,12)             120.569          estimate D2E/DX2                !
 ! A12   A(4,3,12)             118.7269         estimate D2E/DX2                !
 ! A13   A(3,4,5)              119.9915         estimate D2E/DX2                !
 ! A14   A(3,4,13)             119.9573         estimate D2E/DX2                !
 ! A15   A(5,4,13)             120.0512         estimate D2E/DX2                !
 ! A16   A(4,5,6)              119.9508         estimate D2E/DX2                !
 ! A17   A(4,5,14)             119.9275         estimate D2E/DX2                !
 ! A18   A(6,5,14)             120.1216         estimate D2E/DX2                !
 ! A19   A(5,6,7)              120.2422         estimate D2E/DX2                !
 ! A20   A(5,6,15)             119.6125         estimate D2E/DX2                !
 ! A21   A(7,6,15)             120.1453         estimate D2E/DX2                !
 ! A22   A(2,7,6)              120.2265         estimate D2E/DX2                !
 ! A23   A(2,7,8)              120.3143         estimate D2E/DX2                !
 ! A24   A(6,7,8)              119.4591         estimate D2E/DX2                !
 ! A25   A(7,8,16)             105.8846         estimate D2E/DX2                !
 ! D1    D(9,1,2,3)           -118.5137         estimate D2E/DX2                !
 ! D2    D(9,1,2,7)             61.54           estimate D2E/DX2                !
 ! D3    D(10,1,2,3)           121.7891         estimate D2E/DX2                !
 ! D4    D(10,1,2,7)           -58.1572         estimate D2E/DX2                !
 ! D5    D(11,1,2,3)             1.8284         estimate D2E/DX2                !
 ! D6    D(11,1,2,7)          -178.1179         estimate D2E/DX2                !
 ! D7    D(1,2,3,4)           -179.4955         estimate D2E/DX2                !
 ! D8    D(1,2,3,12)             0.3872         estimate D2E/DX2                !
 ! D9    D(7,2,3,4)              0.4516         estimate D2E/DX2                !
 ! D10   D(7,2,3,12)          -179.6657         estimate D2E/DX2                !
 ! D11   D(1,2,7,6)            179.9494         estimate D2E/DX2                !
 ! D12   D(1,2,7,8)              0.0707         estimate D2E/DX2                !
 ! D13   D(3,2,7,6)              0.002          estimate D2E/DX2                !
 ! D14   D(3,2,7,8)           -179.8767         estimate D2E/DX2                !
 ! D15   D(2,3,4,5)             -0.4659         estimate D2E/DX2                !
 ! D16   D(2,3,4,13)           179.4653         estimate D2E/DX2                !
 ! D17   D(12,3,4,5)           179.6493         estimate D2E/DX2                !
 ! D18   D(12,3,4,13)           -0.4195         estimate D2E/DX2                !
 ! D19   D(3,4,5,6)              0.0206         estimate D2E/DX2                !
 ! D20   D(3,4,5,14)          -179.8629         estimate D2E/DX2                !
 ! D21   D(13,4,5,6)          -179.9104         estimate D2E/DX2                !
 ! D22   D(13,4,5,14)            0.2061         estimate D2E/DX2                !
 ! D23   D(4,5,6,7)              0.4316         estimate D2E/DX2                !
 ! D24   D(4,5,6,15)          -179.5554         estimate D2E/DX2                !
 ! D25   D(14,5,6,7)          -179.6852         estimate D2E/DX2                !
 ! D26   D(14,5,6,15)            0.3278         estimate D2E/DX2                !
 ! D27   D(5,6,7,2)             -0.4422         estimate D2E/DX2                !
 ! D28   D(5,6,7,8)            179.4376         estimate D2E/DX2                !
 ! D29   D(15,6,7,2)           179.5448         estimate D2E/DX2                !
 ! D30   D(15,6,7,8)            -0.5754         estimate D2E/DX2                !
 ! D31   D(2,7,8,16)           164.846          estimate D2E/DX2                !
 ! D32   D(6,7,8,16)           -15.0337         estimate D2E/DX2                !
 --------------------------------------------------------------------------------
 Trust Radius=3.00D-01 FncErr=1.00D-07 GrdErr=1.00D-06 EigMax=2.50D+02 EigMin=1.00D-04
 Number of steps in this run=     83 maximum allowed number of steps=    100.
 GradGradGradGradGradGradGradGradGradGradGradGradGradGradGradGradGradGrad

 Leave Link  103 at Mon Feb 22 21:18:36 2021, MaxMem=   104857600 cpu:               0.3 elap:               0.0
 (Enter /sw/arch/RedHatEnterpriseServer7/EB_production/2019/software/Gaussian/g16.c01/l202.exe)
                          Input orientation:                          
 ---------------------------------------------------------------------
 Center     Atomic      Atomic             Coordinates (Angstroms)
 Number     Number       Type             X           Y           Z
 ---------------------------------------------------------------------
      1          6           0        1.209330    0.655080    0.942680
      2          6           0       -0.098640    0.236600    0.381290
      3          6           0       -0.768550   -0.908940    0.875680
      4          6           0       -2.003650   -1.308610    0.333580
      5          6           0       -2.590300   -0.562540   -0.703610
      6          6           0       -1.941010    0.583290   -1.198830
      7          6           0       -0.698080    0.982100   -0.664720
      8          8           0       -0.079210    2.085370   -1.163020
      9          1           0        1.121710    1.650410    1.381720
     10          1           0        1.961050    0.683520    0.152010
     11          1           0        1.562650   -0.028190    1.715280
     12          1           0       -0.361620   -1.463220    1.633900
     13          1           0       -2.474070   -2.143350    0.694130
     14          1           0       -3.489840   -0.852980   -1.095820
     15          1           0       -2.375820    1.126200   -1.948960
     16          1           0       -0.528870    2.285460   -2.010040
 ---------------------------------------------------------------------
                    Distance matrix (angstroms):
                    1          2          3          4          5
     1  C    0.000000
     2  C    1.483600   0.000000
     3  C    2.522431   1.416144   0.000000
     4  C    3.814488   2.453368   1.406798   0.000000
     5  C    4.316255   2.832667   2.435759   1.405895   0.000000
     6  C    3.809969   2.451795   2.811584   2.435465   1.407035
     7  C    2.515728   1.417475   2.440047   2.819303   2.442933
     8  O    2.853075   2.408988   3.687463   4.178801   3.678051
     9  H    1.091382   2.118720   3.221713   4.429703   4.798413
    10  H    1.091353   2.120054   3.241966   4.440765   4.795783
    11  H    1.090231   2.146981   2.629666   4.033245   4.835654
    12  H    2.726328   2.127811   1.023580   2.100238   3.352938
    13  H    4.632540   3.377084   2.113179   1.023759   2.113326
    14  H    5.339656   3.856070   3.360857   2.111763   1.023404
    15  H    4.629993   3.377425   3.834541   3.358095   2.109204
    16  H    3.794474   3.178268   4.311498   4.537055   3.750648
                    6          7          8          9         10
     6  C    0.000000
     7  C    1.410389   0.000000
     8  O    2.392452   1.359598   0.000000
     9  H    4.144664   2.818899   2.847297   0.000000
    10  H    4.130483   2.797708   2.803061   1.775262   0.000000
    11  H    4.597997   3.434528   3.930325   1.767311   1.763255
    12  H    3.834975   3.372899   4.527141   3.458114   3.492748
    13  H    3.361847   3.843052   5.202541   5.272099   5.287285
    14  H    2.114795   3.368574   4.502312   5.802720   5.799148
    15  H    1.022989   2.117746   2.610005   4.858080   4.839265
    16  H    2.355755   1.880762   0.979629   3.825146   3.666112
                   11         12         13         14         15
    11  H    0.000000
    12  H    2.401822   0.000000
    13  H    4.670306   2.410019   0.000000
    14  H    5.840395   4.196370   2.429149   0.000000
    15  H    5.501892   4.857878   4.205417   2.426117   0.000000
    16  H    4.858543   5.230571   5.541723   4.410550   2.181476
                   16
    16  H    0.000000
 Stoichiometry    C7H8O
 Framework group  C1[X(C7H8O)]
 Deg. of freedom    42
 Full point group                 C1      NOp   1
 Largest Abelian subgroup         C1      NOp   1
 Largest concise Abelian subgroup C1      NOp   1
                         Standard orientation:                         
 ---------------------------------------------------------------------
 Center     Atomic      Atomic             Coordinates (Angstroms)
 Number     Number       Type             X           Y           Z
 ---------------------------------------------------------------------
      1          6           0        1.946217   -1.268665   -0.001023
      2          6           0        0.594723   -0.656689    0.003304
      3          6           0       -0.568624   -1.464187   -0.002442
      4          6           0       -1.848420   -0.880099   -0.008962
      5          6           0       -1.982262    0.519382    0.000075
      6          6           0       -0.835582    1.334639    0.015199
      7          6           0        0.449417    0.753291    0.012163
      8          8           0        1.546585    1.556236    0.015320
      9          1           0        2.485139   -0.981003    0.903371
     10          1           0        2.507696   -0.923318   -0.870810
     11          1           0        1.904411   -2.357361   -0.040970
     12          1           0       -0.493727   -2.485022   -0.003731
     13          1           0       -2.681692   -1.474731   -0.021353
     14          1           0       -2.913765    0.943234   -0.002557
     15          1           0       -0.939021    2.352296    0.028622
     16          1           0        1.225457    2.449987   -0.225013
 ---------------------------------------------------------------------
 Rotational constants (GHZ):           3.1763909           2.2202416           1.3180423
 Leave Link  202 at Mon Feb 22 21:18:36 2021, MaxMem=   104857600 cpu:               0.8 elap:               0.1
 (Enter /sw/arch/RedHatEnterpriseServer7/EB_production/2019/software/Gaussian/g16.c01/l301.exe)
 Standard basis: TZVP (5D, 7F)
 Ernie: Thresh=  0.10000D-02 Tol=  0.10000D-05 Strict=F.
 There are   208 symmetry adapted cartesian basis functions of A   symmetry.
 There are   200 symmetry adapted basis functions of A   symmetry.
   200 basis functions,   344 primitive gaussians,   208 cartesian basis functions
    29 alpha electrons       29 beta electrons
       nuclear repulsion energy       347.6148092719 Hartrees.
 IExCor=  404 DFT=T Ex=B Corr=P86 ExCW=0 ScaHFX=  0.000000
 ScaDFX=  1.000000  1.000000  1.000000  1.000000 ScalE2=  1.000000  1.000000
 IRadAn=      5 IRanWt=     -1 IRanGd=            0 ICorTp=0 IEmpDi=131
 NAtoms=   16 NActive=   16 NUniq=   16 SFac= 1.00D+00 NAtFMM=   60 NAOKFM=F Big=F
 Integral buffers will be    131072 words long.
 Raffenetti 2 integral format.
 Two-electron integral symmetry is turned on.
 R6Disp:  Grimme-D3 Dispersion energy=       -0.0111254532 Hartrees.
 Nuclear repulsion after empirical dispersion term =      347.6036838186 Hartrees.
 ------------------------------------------------------------------------------
 Polarizable Continuum Model (PCM)
 =================================
 Model                : PCM.
 Atomic radii         : UFF (Universal Force Field).
 Polarization charges : Total charges.
 Charge compensation  : None.
 Solution method      : On-the-fly selection.
 Cavity type          : Scaled VdW (van der Waals Surface) (Alpha=1.100).
 Cavity algorithm     : GePol (No added spheres)
                        Default sphere list used, NSphG=   16.
                        Lebedev-Laikov grids with approx.  5.0 points / Ang**2.
                        Smoothing algorithm: York/Karplus (Gamma=1.0000).
                        Polarization charges: spherical gaussians, with
                                              point-specific exponents (IZeta= 3).
                        Self-potential: point-specific (ISelfS= 7).
                        Self-field    : sphere-specific E.n sum rule (ISelfD= 2).
 1st derivatives      : Analytical E(r).r(x)/FMM algorithm (CHGder, D1EAlg=3).
                        Cavity 1st derivative terms included.
 Solvent              : Water, Eps=  78.355300 Eps(inf)=   1.777849
 ------------------------------------------------------------------------------
 Spheres list:
 ISph  on   Nord     Re0    Alpha      Xe            Ye            Ze
    1   C      1    1.9255  1.100      1.946217     -1.268665     -0.001023
    2   C      2    1.9255  1.100      0.594723     -0.656689      0.003304
    3   C      3    1.9255  1.100     -0.568624     -1.464187     -0.002442
    4   C      4    1.9255  1.100     -1.848420     -0.880099     -0.008962
    5   C      5    1.9255  1.100     -1.982262      0.519382      0.000075
    6   C      6    1.9255  1.100     -0.835582      1.334639      0.015199
    7   C      7    1.9255  1.100      0.449417      0.753291      0.012163
    8   O      8    1.7500  1.100      1.546585      1.556236      0.015320
    9   H      9    1.4430  1.100      2.485139     -0.981003      0.903371
   10   H     10    1.4430  1.100      2.507696     -0.923318     -0.870810
   11   H     11    1.4430  1.100      1.904411     -2.357361     -0.040970
   12   H     12    1.4430  1.100     -0.493727     -2.485022     -0.003731
   13   H     13    1.4430  1.100     -2.681692     -1.474731     -0.021353
   14   H     14    1.4430  1.100     -2.913765      0.943234     -0.002557
   15   H     15    1.4430  1.100     -0.939021      2.352296      0.028622
   16   H     16    1.4430  1.100      1.225457      2.449987     -0.225013
 ------------------------------------------------------------------------------
 GePol: Number of generator spheres                  =      16
 GePol: Total number of spheres                      =      16
 GePol: Number of exposed spheres                    =      16 (100.00%)
 GePol: Number of points                             =    1327
 GePol: Average weight of points                     =       0.13
 GePol: Minimum weight of points                     =   0.12D-11
 GePol: Maximum weight of points                     =    0.20577
 GePol: Number of points with low weight             =      81
 GePol: Fraction of low-weight points (<1% of avg)   =       6.10%
 GePol: Cavity surface area                          =    174.277 Ang**2
 GePol: Cavity volume                                =    170.283 Ang**3
 Leave Link  301 at Mon Feb 22 21:18:36 2021, MaxMem=   104857600 cpu:               3.0 elap:               0.1
 (Enter /sw/arch/RedHatEnterpriseServer7/EB_production/2019/software/Gaussian/g16.c01/l302.exe)
 NPDir=0 NMtPBC=     1 NCelOv=     1 NCel=       1 NClECP=     1 NCelD=      1
         NCelK=      1 NCelE2=     1 NClLst=     1 CellRange=     0.0.
 One-electron integrals computed using PRISM.
 One-electron integral symmetry used in STVInt
 PrsmSu:  requested number of processors reduced to:  29 ShMem   1 Linda.
 NBasis=   200 RedAO= T EigKep=  1.04D-05  NBF=   200
 NBsUse=   200 1.00D-06 EigRej= -1.00D+00 NBFU=   200
 Precomputing XC quadrature grid using
 IXCGrd= 4 IRadAn=           5 IRanWt=          -1 IRanGd=           0 AccXCQ= 0.00D+00.
 Generated NRdTot=       0 NPtTot=           0 NUsed=           0 NTot=          32
 NSgBfM=   207   207   207   207   207 MxSgAt=    16 MxSgA2=    16.
 Leave Link  302 at Mon Feb 22 21:18:37 2021, MaxMem=   104857600 cpu:               7.2 elap:               0.3
 (Enter /sw/arch/RedHatEnterpriseServer7/EB_production/2019/software/Gaussian/g16.c01/l303.exe)
 DipDrv:  MaxL=1.
 Leave Link  303 at Mon Feb 22 21:18:37 2021, MaxMem=   104857600 cpu:               4.4 elap:               0.2
 (Enter /sw/arch/RedHatEnterpriseServer7/EB_production/2019/software/Gaussian/g16.c01/l401.exe)
 ExpMin= 9.52D-02 ExpMax= 2.70D+04 ExpMxC= 9.22D+02 IAcc=3 IRadAn=         5 AccDes= 0.00D+00
 Harris functional with IExCor=  404 and IRadAn=       5 diagonalized for initial guess.
 HarFok:  IExCor=  404 AccDes= 0.00D+00 IRadAn=         5 IDoV= 1 UseB2=F ITyADJ=14
 ICtDFT=  3500011 ScaDFX=  1.000000  1.000000  1.000000  1.000000
 FoFCou: FMM=F IPFlag=           0 FMFlag=      100000 FMFlg1=           0
         NFxFlg=           0 DoJE=T BraDBF=F KetDBF=T FulRan=T
         wScrn=  0.000000 ICntrl=       500 IOpCl=  0 I1Cent=   200000004 NGrid=           0
         NMat0=    1 NMatS0=      1 NMatT0=    0 NMatD0=    1 NMtDS0=    0 NMtDT0=    0
 Petite list used in FoFCou.
 Harris En= -347.077604330980    
 JPrj=0 DoOrth=F DoCkMO=F.
 Leave Link  401 at Mon Feb 22 21:18:37 2021, MaxMem=   104857600 cpu:               9.4 elap:               0.3
 (Enter /sw/arch/RedHatEnterpriseServer7/EB_production/2019/software/Gaussian/g16.c01/l502.exe)
 Integral symmetry usage will be decided dynamically.
 Closed shell SCF:
 Using DIIS extrapolation, IDIIS=  1040.
 NGot=   104857600 LenX=   104761834 LenY=   104718129
 Requested convergence on RMS density matrix=1.00D-08 within 128 cycles.
 Requested convergence on MAX density matrix=1.00D-06.
 Requested convergence on             energy=1.00D-06.
 No special actions if energy rises.
 Fock matrices will be formed incrementally for  20 cycles.

 Cycle   1  Pass 1  IDiag  1:
 FoFJK:  IHMeth= 1 ICntrl=     500 DoSepK=F KAlg= 0 I1Cent=           0 FoldK=F
 IRaf= 950000000 NMat=       1 IRICut=       1 DoRegI=T DoRafI=F ISym2E= 0 IDoP0=0 IntGTp=1.
 FoFCou: FMM=F IPFlag=           0 FMFlag=      100000 FMFlg1=           0
         NFxFlg=           0 DoJE=T BraDBF=F KetDBF=F FulRan=T
         wScrn=  0.000000 ICntrl=       500 IOpCl=  0 I1Cent=           0 NGrid=           0
         NMat0=    1 NMatS0=      1 NMatT0=    0 NMatD0=    1 NMtDS0=    0 NMtDT0=    0
 Symmetry not used in FoFCou.
 Inv3:  Mode=1 IEnd=     5282787.
 Iteration    1 A*A^-1 deviation from unit magnitude is 2.66D-15 for    729.
 Iteration    1 A*A^-1 deviation from orthogonality  is 1.78D-15 for   1253     99.
 Iteration    1 A^-1*A deviation from unit magnitude is 3.11D-15 for     76.
 Iteration    1 A^-1*A deviation from orthogonality  is 2.44D-15 for   1249    125.
 E= -346.693071461219    
 DIIS: error= 3.95D-02 at cycle   1 NSaved=   1.
 NSaved= 1 IEnMin= 1 EnMin= -346.693071461219     IErMin= 1 ErrMin= 3.95D-02
 ErrMax= 3.95D-02  0.00D+00 EMaxC= 1.00D-01 BMatC= 2.07D-01 BMatP= 2.07D-01
 IDIUse=3 WtCom= 6.05D-01 WtEn= 3.95D-01
 Coeff-Com:  0.100D+01
 Coeff-En:   0.100D+01
 Coeff:      0.100D+01
 Gap=     0.167 Goal=   None    Shift=    0.000
 GapD=    0.167 DampG=1.000 DampE=0.500 DampFc=0.5000 IDamp=-1.
 Damping current iteration by 5.00D-01
 RMSDP=7.90D-03 MaxDP=3.22D-01              OVMax= 2.24D-01

 Cycle   2  Pass 1  IDiag  1:
 RMSU=  3.95D-03    CP:  9.90D-01
 E= -346.768526487628     Delta-E=       -0.075455026409 Rises=F Damp=T
 DIIS: error= 6.75D-03 at cycle   2 NSaved=   2.
 NSaved= 2 IEnMin= 2 EnMin= -346.768526487628     IErMin= 2 ErrMin= 6.75D-03
 ErrMax= 6.75D-03  0.00D+00 EMaxC= 1.00D-01 BMatC= 1.68D-02 BMatP= 2.07D-01
 IDIUse=3 WtCom= 9.33D-01 WtEn= 6.75D-02
 Coeff-Com:  0.159D+00 0.841D+00
 Coeff-En:   0.264D+00 0.736D+00
 Coeff:      0.166D+00 0.834D+00
 Gap=     0.174 Goal=   None    Shift=    0.000
 RMSDP=2.12D-03 MaxDP=7.55D-02 DE=-7.55D-02 OVMax= 1.80D-01

 Cycle   3  Pass 1  IDiag  1:
 RMSU=  1.70D-03    CP:  9.69D-01  6.87D-01
 E= -346.891690535979     Delta-E=       -0.123164048351 Rises=F Damp=F
 DIIS: error= 7.76D-03 at cycle   3 NSaved=   3.
 NSaved= 3 IEnMin= 3 EnMin= -346.891690535979     IErMin= 2 ErrMin= 6.75D-03
 ErrMax= 7.76D-03  0.00D+00 EMaxC= 1.00D-01 BMatC= 9.78D-03 BMatP= 1.68D-02
 IDIUse=3 WtCom= 9.22D-01 WtEn= 7.76D-02
 Coeff-Com:  0.492D-01 0.438D+00 0.513D+00
 Coeff-En:   0.000D+00 0.000D+00 0.100D+01
 Coeff:      0.454D-01 0.404D+00 0.551D+00
 Gap=     0.157 Goal=   None    Shift=    0.000
 RMSDP=7.63D-04 MaxDP=2.14D-02 DE=-1.23D-01 OVMax= 7.27D-02

 Cycle   4  Pass 1  IDiag  1:
 RMSU=  6.69D-04    CP:  9.73D-01  6.68D-01  7.91D-01
 E= -346.897105707532     Delta-E=       -0.005415171553 Rises=F Damp=F
 DIIS: error= 6.33D-03 at cycle   4 NSaved=   4.
 NSaved= 4 IEnMin= 4 EnMin= -346.897105707532     IErMin= 4 ErrMin= 6.33D-03
 ErrMax= 6.33D-03  0.00D+00 EMaxC= 1.00D-01 BMatC= 4.25D-03 BMatP= 9.78D-03
 IDIUse=3 WtCom= 9.37D-01 WtEn= 6.33D-02
 Coeff-Com:  0.728D-02 0.129D+00 0.395D+00 0.469D+00
 Coeff-En:   0.000D+00 0.000D+00 0.357D+00 0.643D+00
 Coeff:      0.682D-02 0.121D+00 0.392D+00 0.480D+00
 Gap=     0.155 Goal=   None    Shift=    0.000
 RMSDP=4.05D-04 MaxDP=7.67D-03 DE=-5.42D-03 OVMax= 3.37D-02

 Cycle   5  Pass 1  IDiag  1:
 RMSU=  1.88D-04    CP:  9.71D-01  6.94D-01  8.68D-01  5.28D-01
 E= -346.901664504605     Delta-E=       -0.004558797073 Rises=F Damp=F
 DIIS: error= 1.45D-03 at cycle   5 NSaved=   5.
 NSaved= 5 IEnMin= 5 EnMin= -346.901664504605     IErMin= 5 ErrMin= 1.45D-03
 ErrMax= 1.45D-03  0.00D+00 EMaxC= 1.00D-01 BMatC= 1.98D-04 BMatP= 4.25D-03
 IDIUse=3 WtCom= 9.85D-01 WtEn= 1.45D-02
 Coeff-Com:  0.176D-02 0.455D-01 0.202D+00 0.287D+00 0.463D+00
 Coeff-En:   0.000D+00 0.000D+00 0.000D+00 0.000D+00 0.100D+01
 Coeff:      0.173D-02 0.448D-01 0.199D+00 0.283D+00 0.471D+00
 Gap=     0.155 Goal=   None    Shift=    0.000
 RMSDP=1.19D-04 MaxDP=4.68D-03 DE=-4.56D-03 OVMax= 8.19D-03

 Cycle   6  Pass 1  IDiag  1:
 RMSU=  6.93D-05    CP:  9.71D-01  6.79D-01  8.56D-01  5.81D-01  6.61D-01
 E= -346.901839526603     Delta-E=       -0.000175021998 Rises=F Damp=F
 DIIS: error= 4.02D-04 at cycle   6 NSaved=   6.
 NSaved= 6 IEnMin= 6 EnMin= -346.901839526603     IErMin= 6 ErrMin= 4.02D-04
 ErrMax= 4.02D-04  0.00D+00 EMaxC= 1.00D-01 BMatC= 2.97D-05 BMatP= 1.98D-04
 IDIUse=3 WtCom= 9.96D-01 WtEn= 4.02D-03
 Coeff-Com:  0.149D-04 0.910D-02 0.641D-01 0.102D+00 0.305D+00 0.520D+00
 Coeff-En:   0.000D+00 0.000D+00 0.000D+00 0.000D+00 0.131D+00 0.869D+00
 Coeff:      0.148D-04 0.906D-02 0.638D-01 0.102D+00 0.304D+00 0.521D+00
 Gap=     0.155 Goal=   None    Shift=    0.000
 RMSDP=4.39D-05 MaxDP=1.87D-03 DE=-1.75D-04 OVMax= 1.75D-03

 Cycle   7  Pass 1  IDiag  1:
 RMSU=  1.68D-05    CP:  9.71D-01  6.86D-01  8.60D-01  5.72D-01  7.11D-01
                    CP:  6.02D-01
 E= -346.901865160204     Delta-E=       -0.000025633601 Rises=F Damp=F
 DIIS: error= 7.25D-05 at cycle   7 NSaved=   7.
 NSaved= 7 IEnMin= 7 EnMin= -346.901865160204     IErMin= 7 ErrMin= 7.25D-05
 ErrMax= 7.25D-05  0.00D+00 EMaxC= 1.00D-01 BMatC= 8.49D-07 BMatP= 2.97D-05
 IDIUse=1 WtCom= 1.00D+00 WtEn= 0.00D+00
 Coeff-Com: -0.408D-06 0.394D-02 0.313D-01 0.502D-01 0.160D+00 0.294D+00
 Coeff-Com:  0.461D+00
 Coeff:     -0.408D-06 0.394D-02 0.313D-01 0.502D-01 0.160D+00 0.294D+00
 Coeff:      0.461D+00
 Gap=     0.155 Goal=   None    Shift=    0.000
 RMSDP=8.20D-06 MaxDP=3.46D-04 DE=-2.56D-05 OVMax= 4.76D-04

 Cycle   8  Pass 1  IDiag  1:
 RMSU=  5.46D-06    CP:  9.71D-01  6.85D-01  8.60D-01  5.74D-01  7.04D-01
                    CP:  6.35D-01  9.20D-01
 E= -346.901865846040     Delta-E=       -0.000000685836 Rises=F Damp=F
 DIIS: error= 2.65D-05 at cycle   8 NSaved=   8.
 NSaved= 8 IEnMin= 8 EnMin= -346.901865846040     IErMin= 8 ErrMin= 2.65D-05
 ErrMax= 2.65D-05  0.00D+00 EMaxC= 1.00D-01 BMatC= 1.55D-07 BMatP= 8.49D-07
 IDIUse=1 WtCom= 1.00D+00 WtEn= 0.00D+00
 Coeff-Com:  0.139D-04 0.280D-03 0.392D-02 0.604D-02 0.247D-01 0.550D-01
 Coeff-Com:  0.308D+00 0.602D+00
 Coeff:      0.139D-04 0.280D-03 0.392D-02 0.604D-02 0.247D-01 0.550D-01
 Coeff:      0.308D+00 0.602D+00
 Gap=     0.155 Goal=   None    Shift=    0.000
 RMSDP=2.94D-06 MaxDP=1.18D-04 DE=-6.86D-07 OVMax= 1.99D-04

 Cycle   9  Pass 1  IDiag  1:
 RMSU=  1.46D-06    CP:  9.71D-01  6.85D-01  8.60D-01  5.74D-01  7.08D-01
                    CP:  6.26D-01  9.90D-01  7.81D-01
 E= -346.901865960092     Delta-E=       -0.000000114052 Rises=F Damp=F
 DIIS: error= 6.83D-06 at cycle   9 NSaved=   9.
 NSaved= 9 IEnMin= 9 EnMin= -346.901865960092     IErMin= 9 ErrMin= 6.83D-06
 ErrMax= 6.83D-06  0.00D+00 EMaxC= 1.00D-01 BMatC= 8.11D-09 BMatP= 1.55D-07
 IDIUse=1 WtCom= 1.00D+00 WtEn= 0.00D+00
 Coeff-Com:  0.803D-05-0.228D-04 0.711D-03 0.985D-03 0.585D-02 0.169D-01
 Coeff-Com:  0.146D+00 0.329D+00 0.500D+00
 Coeff:      0.803D-05-0.228D-04 0.711D-03 0.985D-03 0.585D-02 0.169D-01
 Coeff:      0.146D+00 0.329D+00 0.500D+00
 Gap=     0.155 Goal=   None    Shift=    0.000
 RMSDP=5.48D-07 MaxDP=1.41D-05 DE=-1.14D-07 OVMax= 5.13D-05

 Cycle  10  Pass 1  IDiag  1:
 RMSU=  4.21D-07    CP:  9.71D-01  6.85D-01  8.60D-01  5.74D-01  7.09D-01
                    CP:  6.28D-01  9.95D-01  7.96D-01  7.93D-01
 E= -346.901865995148     Delta-E=       -0.000000035056 Rises=F Damp=F
 DIIS: error= 2.77D-06 at cycle  10 NSaved=  10.
 NSaved=10 IEnMin=10 EnMin= -346.901865995148     IErMin=10 ErrMin= 2.77D-06
 ErrMax= 2.77D-06  0.00D+00 EMaxC= 1.00D-01 BMatC= 1.47D-09 BMatP= 8.11D-09
 IDIUse=1 WtCom= 1.00D+00 WtEn= 0.00D+00
 Coeff-Com:  0.311D-05-0.347D-04-0.259D-04-0.118D-03 0.383D-03 0.344D-02
 Coeff-Com:  0.475D-01 0.120D+00 0.318D+00 0.510D+00
 Coeff:      0.311D-05-0.347D-04-0.259D-04-0.118D-03 0.383D-03 0.344D-02
 Coeff:      0.475D-01 0.120D+00 0.318D+00 0.510D+00
 Gap=     0.155 Goal=   None    Shift=    0.000
 RMSDP=2.92D-07 MaxDP=9.03D-06 DE=-3.51D-08 OVMax= 1.71D-05

 Cycle  11  Pass 1  IDiag  1:
 RMSU=  1.46D-07    CP:  9.71D-01  6.85D-01  8.60D-01  5.74D-01  7.09D-01
                    CP:  6.29D-01  9.96D-01  7.96D-01  7.89D-01  5.51D-01
 E= -346.901865996558     Delta-E=       -0.000000001410 Rises=F Damp=F
 DIIS: error= 6.19D-07 at cycle  11 NSaved=  11.
 NSaved=11 IEnMin=11 EnMin= -346.901865996558     IErMin=11 ErrMin= 6.19D-07
 ErrMax= 6.19D-07  0.00D+00 EMaxC= 1.00D-01 BMatC= 1.06D-10 BMatP= 1.47D-09
 IDIUse=1 WtCom= 1.00D+00 WtEn= 0.00D+00
 Coeff-Com:  0.112D-05-0.165D-04-0.643D-04-0.146D-03-0.199D-03 0.923D-03
 Coeff-Com:  0.186D-01 0.501D-01 0.154D+00 0.297D+00 0.479D+00
 Coeff:      0.112D-05-0.165D-04-0.643D-04-0.146D-03-0.199D-03 0.923D-03
 Coeff:      0.186D-01 0.501D-01 0.154D+00 0.297D+00 0.479D+00
 Gap=     0.155 Goal=   None    Shift=    0.000
 RMSDP=7.95D-08 MaxDP=1.92D-06 DE=-1.41D-09 OVMax= 6.37D-06

 Cycle  12  Pass 1  IDiag  1:
 RMSU=  3.94D-08    CP:  9.71D-01  6.85D-01  8.60D-01  5.74D-01  7.09D-01
                    CP:  6.29D-01  9.98D-01  7.99D-01  7.95D-01  6.24D-01
                    CP:  7.28D-01
 E= -346.901865996653     Delta-E=       -0.000000000094 Rises=F Damp=F
 DIIS: error= 2.50D-07 at cycle  12 NSaved=  12.
 NSaved=12 IEnMin=12 EnMin= -346.901865996653     IErMin=12 ErrMin= 2.50D-07
 ErrMax= 2.50D-07  0.00D+00 EMaxC= 1.00D-01 BMatC= 1.44D-11 BMatP= 1.06D-10
 IDIUse=1 WtCom= 1.00D+00 WtEn= 0.00D+00
 Coeff-Com:  0.985D-07-0.487D-05-0.301D-04-0.638D-04-0.160D-03 0.923D-04
 Coeff-Com:  0.385D-02 0.120D-01 0.452D-01 0.102D+00 0.300D+00 0.538D+00
 Coeff:      0.985D-07-0.487D-05-0.301D-04-0.638D-04-0.160D-03 0.923D-04
 Coeff:      0.385D-02 0.120D-01 0.452D-01 0.102D+00 0.300D+00 0.538D+00
 Gap=     0.155 Goal=   None    Shift=    0.000
 RMSDP=2.32D-08 MaxDP=5.65D-07 DE=-9.45D-11 OVMax= 2.21D-06

 Cycle  13  Pass 1  IDiag  1:
 RMSU=  1.08D-08    CP:  9.71D-01  6.85D-01  8.60D-01  5.74D-01  7.09D-01
                    CP:  6.29D-01  9.98D-01  7.99D-01  8.00D-01  6.16D-01
                    CP:  7.44D-01  6.41D-01
 E= -346.901865996666     Delta-E=       -0.000000000013 Rises=F Damp=F
 DIIS: error= 9.09D-08 at cycle  13 NSaved=  13.
 NSaved=13 IEnMin=13 EnMin= -346.901865996666     IErMin=13 ErrMin= 9.09D-08
 ErrMax= 9.09D-08  0.00D+00 EMaxC= 1.00D-01 BMatC= 1.40D-12 BMatP= 1.44D-11
 IDIUse=1 WtCom= 1.00D+00 WtEn= 0.00D+00
 Coeff-Com: -0.429D-07-0.195D-05-0.148D-04-0.306D-04-0.874D-04-0.531D-05
 Coeff-Com:  0.115D-02 0.419D-02 0.180D-01 0.423D-01 0.151D+00 0.330D+00
 Coeff-Com:  0.453D+00
 Coeff:     -0.429D-07-0.195D-05-0.148D-04-0.306D-04-0.874D-04-0.531D-05
 Coeff:      0.115D-02 0.419D-02 0.180D-01 0.423D-01 0.151D+00 0.330D+00
 Coeff:      0.453D+00
 Gap=     0.155 Goal=   None    Shift=    0.000
 RMSDP=7.17D-09 MaxDP=2.07D-07 DE=-1.27D-11 OVMax= 4.80D-07

 Error on total polarization charges =  0.01318
 SCF Done:  E(RB-P86) =  -346.901865997     A.U. after   13 cycles
            NFock= 13  Conv=0.72D-08     -V/T= 2.0036
 KE= 3.456734837089D+02 PE=-1.503363179071D+03 EE= 4.631841455467D+02
 Leave Link  502 at Mon Feb 22 21:18:47 2021, MaxMem=   104857600 cpu:             285.2 elap:               9.1
 (Enter /sw/arch/RedHatEnterpriseServer7/EB_production/2019/software/Gaussian/g16.c01/l601.exe)
 Copying SCF densities to generalized density rwf, IOpCl= 0 IROHF=0.

 **********************************************************************

            Population analysis using the SCF Density.

 **********************************************************************

 Orbital symmetries:
       Occupied  (A) (A) (A) (A) (A) (A) (A) (A) (A) (A) (A) (A)
                 (A) (A) (A) (A) (A) (A) (A) (A) (A) (A) (A) (A)
                 (A) (A) (A) (A) (A)
       Virtual   (A) (A) (A) (A) (A) (A) (A) (A) (A) (A) (A) (A)
                 (A) (A) (A) (A) (A) (A) (A) (A) (A) (A) (A) (A)
                 (A) (A) (A) (A) (A) (A) (A) (A) (A) (A) (A) (A)
                 (A) (A) (A) (A) (A) (A) (A) (A) (A) (A) (A) (A)
                 (A) (A) (A) (A) (A) (A) (A) (A) (A) (A) (A) (A)
                 (A) (A) (A) (A) (A) (A) (A) (A) (A) (A) (A) (A)
                 (A) (A) (A) (A) (A) (A) (A) (A) (A) (A) (A) (A)
                 (A) (A) (A) (A) (A) (A) (A) (A) (A) (A) (A) (A)
                 (A) (A) (A) (A) (A) (A) (A) (A) (A) (A) (A) (A)
                 (A) (A) (A) (A) (A) (A) (A) (A) (A) (A) (A) (A)
                 (A) (A) (A) (A) (A) (A) (A) (A) (A) (A) (A) (A)
                 (A) (A) (A) (A) (A) (A) (A) (A) (A) (A) (A) (A)
                 (A) (A) (A) (A) (A) (A) (A) (A) (A) (A) (A) (A)
                 (A) (A) (A) (A) (A) (A) (A) (A) (A) (A) (A) (A)
                 (A) (A) (A)
 The electronic state is 1-A.
 Alpha  occ. eigenvalues --  -18.80800  -9.96260  -9.91196  -9.89769  -9.89737
 Alpha  occ. eigenvalues --   -9.89732  -9.89078  -9.89036  -0.98809  -0.77925
 Alpha  occ. eigenvalues --   -0.71017  -0.67566  -0.62472  -0.57600  -0.53515
 Alpha  occ. eigenvalues --   -0.50029  -0.44860  -0.43410  -0.40316  -0.39324
 Alpha  occ. eigenvalues --   -0.37621  -0.36333  -0.35202  -0.33993  -0.31689
 Alpha  occ. eigenvalues --   -0.30603  -0.29781  -0.22809  -0.20310
 Alpha virt. eigenvalues --   -0.04784  -0.03474   0.01846   0.04799   0.05670
 Alpha virt. eigenvalues --    0.08143   0.08558   0.09908   0.10771   0.11980
 Alpha virt. eigenvalues --    0.12122   0.13579   0.15012   0.15619   0.17438
 Alpha virt. eigenvalues --    0.18631   0.19790   0.20415   0.20993   0.22956
 Alpha virt. eigenvalues --    0.23197   0.24395   0.25570   0.26209   0.26779
 Alpha virt. eigenvalues --    0.29739   0.31218   0.31823   0.32449   0.33249
 Alpha virt. eigenvalues --    0.33633   0.34642   0.38208   0.38511   0.39297
 Alpha virt. eigenvalues --    0.40687   0.42384   0.42810   0.42966   0.44196
 Alpha virt. eigenvalues --    0.44347   0.46434   0.47265   0.48197   0.49617
 Alpha virt. eigenvalues --    0.50026   0.51501   0.53148   0.56638   0.58801
 Alpha virt. eigenvalues --    0.60572   0.63545   0.65365   0.67295   0.71297
 Alpha virt. eigenvalues --    0.73954   0.76605   0.86817   0.88303   1.07221
 Alpha virt. eigenvalues --    1.10401   1.14472   1.16665   1.17736   1.18809
 Alpha virt. eigenvalues --    1.19857   1.22278   1.22974   1.23790   1.25043
 Alpha virt. eigenvalues --    1.25615   1.28719   1.30122   1.32483   1.33609
 Alpha virt. eigenvalues --    1.34157   1.36514   1.38280   1.38748   1.39235
 Alpha virt. eigenvalues --    1.39875   1.40559   1.42740   1.44464   1.44826
 Alpha virt. eigenvalues --    1.45942   1.47073   1.47810   1.47916   1.51338
 Alpha virt. eigenvalues --    1.53273   1.54526   1.60360   1.60909   1.71103
 Alpha virt. eigenvalues --    1.72385   1.73379   1.73566   1.74382   1.77245
 Alpha virt. eigenvalues --    1.78709   1.82057   1.82172   1.83823   1.84963
 Alpha virt. eigenvalues --    1.85682   1.90706   1.91486   1.94924   1.95841
 Alpha virt. eigenvalues --    1.98524   2.05899   2.07412   2.10600   2.15445
 Alpha virt. eigenvalues --    2.17793   2.19374   2.20416   2.20908   2.22571
 Alpha virt. eigenvalues --    2.23422   2.25174   2.27586   2.31162   2.33497
 Alpha virt. eigenvalues --    2.39676   2.45129   2.45367   2.46427   2.48207
 Alpha virt. eigenvalues --    2.51910   2.53229   2.54514   2.55413   2.58325
 Alpha virt. eigenvalues --    2.59078   2.62793   2.65637   2.68481   2.72501
 Alpha virt. eigenvalues --    2.73726   2.84219   2.85417   2.89160   2.90637
 Alpha virt. eigenvalues --    2.96934   3.00906   3.02760   3.05757   3.06684
 Alpha virt. eigenvalues --    3.09399   3.11644   3.13979   3.20829   3.23822
 Alpha virt. eigenvalues --    3.24445   3.26964   3.32272   3.36677   3.45437
 Alpha virt. eigenvalues --    3.64494   3.95255   4.18848  21.08256  21.57307
 Alpha virt. eigenvalues --   21.64652  21.79612  21.83528  21.88660  21.97439
 Alpha virt. eigenvalues --   43.20314
          Condensed to atoms (all electrons):
               1          2          3          4          5          6
     1  C    5.108219   0.294594  -0.091347   0.030111  -0.005771   0.024567
     2  C    0.294594   5.645818   0.437771   0.003028  -0.048007  -0.115194
     3  C   -0.091347   0.437771   5.119745   0.365095   0.007579  -0.148445
     4  C    0.030111   0.003028   0.365095   5.159848   0.397674   0.034014
     5  C   -0.005771  -0.048007   0.007579   0.397674   5.173701   0.206694
     6  C    0.024567  -0.115194  -0.148445   0.034014   0.206694   5.636742
     7  C   -0.145075   0.174144   0.012897  -0.129674   0.028781   0.331400
     8  O    0.013864  -0.124634   0.006798  -0.001637   0.016359  -0.105739
     9  H    0.410901  -0.034493   0.001631  -0.001078   0.000340  -0.000741
    10  H    0.405194  -0.045280   0.003039  -0.001272   0.000262  -0.000942
    11  H    0.415139  -0.053954  -0.012974   0.002190  -0.000508   0.000480
    12  H   -0.020619  -0.071125   0.440895  -0.061323   0.014889  -0.003636
    13  H   -0.000659   0.014120  -0.055685   0.430965  -0.059755   0.015356
    14  H    0.000018  -0.000873   0.014250  -0.055583   0.430602  -0.051733
    15  H   -0.000176   0.014643   0.000403   0.009340  -0.022361   0.410850
    16  H   -0.002172   0.020784  -0.000334  -0.000413   0.004732  -0.028623
               7          8          9         10         11         12
     1  C   -0.145075   0.013864   0.410901   0.405194   0.415139  -0.020619
     2  C    0.174144  -0.124634  -0.034493  -0.045280  -0.053954  -0.071125
     3  C    0.012897   0.006798   0.001631   0.003039  -0.012974   0.440895
     4  C   -0.129674  -0.001637  -0.001078  -0.001272   0.002190  -0.061323
     5  C    0.028781   0.016359   0.000340   0.000262  -0.000508   0.014889
     6  C    0.331400  -0.105739  -0.000741  -0.000942   0.000480  -0.003636
     7  C    5.268629   0.393430  -0.017258  -0.008118   0.018186   0.028514
     8  O    0.393430   7.783000   0.001876   0.006445   0.000250  -0.000071
     9  H   -0.017258   0.001876   0.544909  -0.031125  -0.024353   0.000076
    10  H   -0.008118   0.006445  -0.031125   0.547663  -0.024623   0.000239
    11  H    0.018186   0.000250  -0.024353  -0.024623   0.524074   0.003738
    12  H    0.028514  -0.000071   0.000076   0.000239   0.003738   0.534632
    13  H    0.000451   0.000003   0.000015   0.000016  -0.000011  -0.005225
    14  H    0.011984  -0.000103   0.000000   0.000001  -0.000001  -0.000309
    15  H   -0.066485  -0.004392   0.000013  -0.000046   0.000014  -0.000006
    16  H   -0.029853   0.302484  -0.000162   0.000203   0.000011   0.000039
              13         14         15         16
     1  C   -0.000659   0.000018  -0.000176  -0.002172
     2  C    0.014120  -0.000873   0.014643   0.020784
     3  C   -0.055685   0.014250   0.000403  -0.000334
     4  C    0.430965  -0.055583   0.009340  -0.000413
     5  C   -0.059755   0.430602  -0.022361   0.004732
     6  C    0.015356  -0.051733   0.410850  -0.028623
     7  C    0.000451   0.011984  -0.066485  -0.029853
     8  O    0.000003  -0.000103  -0.004392   0.302484
     9  H    0.000015   0.000000   0.000013  -0.000162
    10  H    0.000016   0.000001  -0.000046   0.000203
    11  H   -0.000011  -0.000001   0.000014   0.000011
    12  H   -0.005225  -0.000309  -0.000006   0.000039
    13  H    0.523065  -0.005773  -0.000337  -0.000006
    14  H   -0.005773   0.517139  -0.004529  -0.000061
    15  H   -0.000337  -0.004529   0.507135   0.002391
    16  H   -0.000006  -0.000061   0.002391   0.421503
 Mulliken charges:
               1
     1  C   -0.436788
     2  C   -0.111341
     3  C   -0.101317
     4  C   -0.181284
     5  C   -0.145211
     6  C   -0.205052
     7  C    0.128047
     8  O   -0.287931
     9  H    0.149449
    10  H    0.148342
    11  H    0.152344
    12  H    0.139291
    13  H    0.143460
    14  H    0.144970
    15  H    0.153545
    16  H    0.309477
 Sum of Mulliken charges =  -0.00000
 Mulliken charges with hydrogens summed into heavy atoms:
               1
     1  C    0.013347
     2  C   -0.111341
     3  C    0.037974
     4  C   -0.037824
     5  C   -0.000241
     6  C   -0.051507
     7  C    0.128047
     8  O    0.021545
 Electronic spatial extent (au):  <R**2>=            902.4648
 Charge=             -0.0000 electrons
 Dipole moment (field-independent basis, Debye):
    X=             -0.4581    Y=              1.2061    Z=             -0.4464  Tot=              1.3652
 Quadrupole moment (field-independent basis, Debye-Ang):
   XX=            -47.2749   YY=            -37.2171   ZZ=            -51.4072
   XY=             -0.8604   XZ=             -0.5283   YZ=             -1.1734
 Traceless Quadrupole moment (field-independent basis, Debye-Ang):
   XX=             -1.9752   YY=              8.0826   ZZ=             -6.1074
   XY=             -0.8604   XZ=             -0.5283   YZ=             -1.1734
 Octapole moment (field-independent basis, Debye-Ang**2):
  XXX=             -8.5155  YYY=             25.2579  ZZZ=             -0.2085  XYY=              4.4672
  XXY=             -1.0681  XXZ=             -0.8664  XZZ=              7.4602  YZZ=              3.1177
  YYZ=             -3.2717  XYZ=             -1.6809
 Hexadecapole moment (field-independent basis, Debye-Ang**3):
 XXXX=           -655.5599 YYYY=           -380.9546 ZZZZ=            -65.5140 XXXY=              0.8553
 XXXZ=             -0.6782 YYYX=             29.1469 YYYZ=             -7.8475 ZZZX=             -0.1228
 ZZZY=             -0.9363 XXYY=           -180.4792 XXZZ=           -129.5400 YYZZ=            -97.2327
 XXYZ=             -2.0132 YYXZ=             -4.2768 ZZXY=              2.7983
 N-N= 3.476036838186D+02 E-N=-1.503363177185D+03  KE= 3.456734837089D+02
 No NMR shielding tensors so no spin-rotation constants.
 Leave Link  601 at Mon Feb 22 21:18:47 2021, MaxMem=   104857600 cpu:               8.2 elap:               0.4
 (Enter /sw/arch/RedHatEnterpriseServer7/EB_production/2019/software/Gaussian/g16.c01/l701.exe)
 ... and contract with generalized density number  0.
 Compute integral first derivatives.
 R6Disp: Adding Grimme-D3 dispersion energy 1st derivatives to the gradient.
 PrsmSu:  requested number of processors reduced to:  29 ShMem   1 Linda.
 D1PCM: PCM CHGder 1st derivatives, ID1Alg=3 FixD1E=F DoIter=F DoCFld=F I1PDM=0.
 GePol: Maximum number of non-zero 1st derivatives   =     199
 CoulSu:  requested number of processors reduced to:  29 ShMem   1 Linda.
 CoulSu:  requested number of processors reduced to:  30 ShMem   1 Linda.
 Leave Link  701 at Mon Feb 22 21:18:48 2021, MaxMem=   104857600 cpu:              20.4 elap:               0.7
 (Enter /sw/arch/RedHatEnterpriseServer7/EB_production/2019/software/Gaussian/g16.c01/l702.exe)
 L702 exits ... SP integral derivatives will be done elsewhere.
 Leave Link  702 at Mon Feb 22 21:18:48 2021, MaxMem=   104857600 cpu:               0.5 elap:               0.0
 (Enter /sw/arch/RedHatEnterpriseServer7/EB_production/2019/software/Gaussian/g16.c01/l703.exe)
 Integral derivatives from FoFJK, PRISM(SPDF).
 Compute integral first derivatives, UseDBF=F ICtDFT=           0.
 Calling FoFJK, ICntrl=      2527 FMM=F ISym2X=0 I1Cent= 0 IOpClX= 0 NMat=1 NMatS=1 NMatT=0.
 FoFJK:  IHMeth= 1 ICntrl=    2527 DoSepK=F KAlg= 0 I1Cent=           0 FoldK=F
 IRaf=         0 NMat=       1 IRICut=       1 DoRegI=T DoRafI=F ISym2E= 0 IDoP0=0 IntGTp=1.
 FoFCou: FMM=F IPFlag=           0 FMFlag=      100000 FMFlg1=         800
         NFxFlg=           0 DoJE=F BraDBF=F KetDBF=F FulRan=T
         wScrn=  0.000000 ICntrl=      2527 IOpCl=  0 I1Cent=           0 NGrid=           0
         NMat0=    1 NMatS0=      1 NMatT0=    0 NMatD0=    1 NMtDS0=    0 NMtDT0=    0
 Symmetry not used in FoFCou.
 Leave Link  703 at Mon Feb 22 21:18:49 2021, MaxMem=   104857600 cpu:              36.6 elap:               1.2
 (Enter /sw/arch/RedHatEnterpriseServer7/EB_production/2019/software/Gaussian/g16.c01/l716.exe)
 Dipole        =-1.80242507D-01 4.74529578D-01-1.75615740D-01
 ***** Axes restored to original set *****
 -------------------------------------------------------------------
 Center     Atomic                   Forces (Hartrees/Bohr)
 Number     Number              X              Y              Z
 -------------------------------------------------------------------
      1        6           0.003787547    0.001672686    0.000926809
      2        6          -0.011316266   -0.008148435   -0.000070045
      3        6          -0.028439573    0.036759100   -0.050530327
      4        6           0.025265909    0.045736711   -0.020005759
      5        6           0.052966952    0.017095509    0.023081065
      6        6           0.021745379   -0.037663595    0.045657402
      7        6          -0.017039740   -0.020213868    0.004747402
      8        8           0.008589851    0.007895869   -0.006414651
      9        1           0.003708608    0.007011176    0.001935276
     10        1           0.006370129    0.003571929   -0.003323461
     11        1           0.000574771   -0.003653906    0.003900356
     12        1           0.024772216   -0.027097599    0.039937300
     13        1          -0.024780280   -0.043774521    0.019082661
     14        1          -0.047507185   -0.014443638   -0.021476323
     15        1          -0.022947310    0.030242974   -0.040969016
     16        1           0.004248991    0.005009608    0.003521312
 -------------------------------------------------------------------
 Cartesian Forces:  Max     0.052966952 RMS     0.024435637
 Leave Link  716 at Mon Feb 22 21:18:49 2021, MaxMem=   104857600 cpu:               0.9 elap:               0.1
 (Enter /sw/arch/RedHatEnterpriseServer7/EB_production/2019/software/Gaussian/g16.c01/l103.exe)

 GradGradGradGradGradGradGradGradGradGradGradGradGradGradGradGradGradGrad
 Berny optimization.
 FormGI is forming the generalized inverse of G from B-inverse, IUseBI=4.
 Internal  Forces:  Max     0.055845810 RMS     0.013591762
 Search for a local minimum.
 Step number   1 out of a maximum of   83
 All quantities printed in internal units (Hartrees-Bohrs-Radians)
 RMS Force = .13592D-01 SwitMx=.10000D-02 MixMth= 1
 Mixed Optimization -- RFO/linear search
 Second derivative matrix not updated -- first step.
 ITU=  0
     Eigenvalues ---    0.00983   0.01513   0.01880   0.01932   0.01948
     Eigenvalues ---    0.01972   0.01975   0.01999   0.02002   0.02006
     Eigenvalues ---    0.02226   0.07316   0.07550   0.16000   0.16000
     Eigenvalues ---    0.16000   0.16000   0.16000   0.16000   0.16000
     Eigenvalues ---    0.16000   0.22000   0.22488   0.24479   0.25000
     Eigenvalues ---    0.25000   0.34161   0.34653   0.34657   0.34786
     Eigenvalues ---    0.40057   0.40260   0.43225   0.43744   0.43772
     Eigenvalues ---    0.43799   0.43865   0.43894   0.44214   0.44555
     Eigenvalues ---    0.51457   0.53029
 RFO step:  Lambda=-3.03858590D-02 EMin= 9.82884503D-03
 Linear search not attempted -- first point.
 Iteration  1 RMS(Cart)=  0.04319012 RMS(Int)=  0.00123030
 Iteration  2 RMS(Cart)=  0.00148730 RMS(Int)=  0.00006686
 Iteration  3 RMS(Cart)=  0.00000101 RMS(Int)=  0.00006685
 Iteration  4 RMS(Cart)=  0.00000000 RMS(Int)=  0.00006685
 ITry= 1 IFail=0 DXMaxC= 1.50D-01 DCOld= 1.00D+10 DXMaxT= 3.00D-01 DXLimC= 3.00D+00 Rises=F
 Variable       Old X    -DE/DX   Delta X   Delta X   Delta X     New X
                                 (Linear)    (Quad)   (Total)
    R1        2.80360   0.01646   0.00000   0.04424   0.04424   2.84784
    R2        2.06241   0.00687   0.00000   0.01824   0.01824   2.08065
    R3        2.06236   0.00689   0.00000   0.01827   0.01827   2.08063
    R4        2.06024   0.00524   0.00000   0.01386   0.01386   2.07410
    R5        2.67612  -0.00954   0.00000  -0.02112  -0.02111   2.65501
    R6        2.67864  -0.00753   0.00000  -0.01667  -0.01667   2.66197
    R7        2.65846  -0.00305   0.00000  -0.00657  -0.00656   2.65190
    R8        1.93429   0.05411   0.00000   0.11558   0.11558   2.04987
    R9        2.65676  -0.00486   0.00000  -0.00993  -0.00993   2.64683
   R10        1.93462   0.05380   0.00000   0.11500   0.11500   2.04962
   R11        2.65891  -0.00654   0.00000  -0.01336  -0.01337   2.64554
   R12        1.93395   0.05409   0.00000   0.11548   0.11548   2.04943
   R13        2.66525  -0.00237   0.00000  -0.00490  -0.00491   2.66034
   R14        1.93317   0.05585   0.00000   0.11907   0.11907   2.05223
   R15        2.56927   0.01738   0.00000   0.03100   0.03100   2.60026
   R16        1.85123  -0.00397   0.00000  -0.00729  -0.00729   1.84394
    A1        1.91632   0.00489   0.00000   0.02486   0.02481   1.94113
    A2        1.91821   0.00396   0.00000   0.02051   0.02045   1.93866
    A3        1.95745  -0.00288   0.00000  -0.01402  -0.01395   1.94350
    A4        1.89967  -0.00512   0.00000  -0.02909  -0.02926   1.87041
    A5        1.88862  -0.00098   0.00000  -0.00461  -0.00454   1.88409
    A6        1.88233  -0.00017   0.00000   0.00070   0.00075   1.88309
    A7        2.10961   0.00536   0.00000   0.01974   0.01973   2.12935
    A8        2.09869  -0.00136   0.00000  -0.00421  -0.00422   2.09447
    A9        2.07488  -0.00400   0.00000  -0.01553  -0.01551   2.05937
   A10        2.10668   0.00448   0.00000   0.01669   0.01671   2.12339
   A11        2.10433  -0.00602   0.00000  -0.02824  -0.02825   2.07608
   A12        2.07218   0.00155   0.00000   0.01154   0.01153   2.08371
   A13        2.09425  -0.00176   0.00000  -0.00695  -0.00694   2.08730
   A14        2.09365   0.00086   0.00000   0.00333   0.00333   2.09698
   A15        2.09529   0.00091   0.00000   0.00362   0.00361   2.09890
   A16        2.09354  -0.00102   0.00000  -0.00291  -0.00292   2.09062
   A17        2.09313   0.00165   0.00000   0.00744   0.00744   2.10057
   A18        2.09652  -0.00063   0.00000  -0.00453  -0.00452   2.09199
   A19        2.09862  -0.00056   0.00000  -0.00127  -0.00129   2.09734
   A20        2.08763   0.00124   0.00000   0.00569   0.00570   2.09333
   A21        2.09693  -0.00068   0.00000  -0.00442  -0.00441   2.09252
   A22        2.09835   0.00287   0.00000   0.00998   0.00996   2.10831
   A23        2.09988  -0.01456   0.00000  -0.05178  -0.05179   2.04809
   A24        2.08495   0.01168   0.00000   0.04182   0.04180   2.12676
   A25        1.84803   0.01116   0.00000   0.05861   0.05861   1.90665
    D1       -2.06845  -0.00030   0.00000  -0.00237  -0.00228  -2.07073
    D2        1.07408  -0.00035   0.00000  -0.00339  -0.00329   1.07079
    D3        2.12562   0.00050   0.00000   0.00525   0.00515   2.13077
    D4       -1.01504   0.00046   0.00000   0.00423   0.00414  -1.01089
    D5        0.03191  -0.00009   0.00000  -0.00040  -0.00042   0.03150
    D6       -3.10874  -0.00014   0.00000  -0.00143  -0.00143  -3.11017
    D7       -3.13279  -0.00014   0.00000  -0.00285  -0.00278  -3.13557
    D8        0.00676  -0.00022   0.00000  -0.00439  -0.00435   0.00241
    D9        0.00788  -0.00009   0.00000  -0.00183  -0.00179   0.00610
   D10       -3.13576  -0.00017   0.00000  -0.00338  -0.00335  -3.13911
   D11        3.14071   0.00015   0.00000   0.00291   0.00285  -3.13963
   D12        0.00123  -0.00037   0.00000  -0.00731  -0.00711  -0.00587
   D13        0.00003   0.00010   0.00000   0.00189   0.00186   0.00190
   D14       -3.13944  -0.00042   0.00000  -0.00833  -0.00809   3.13565
   D15       -0.00813   0.00006   0.00000   0.00123   0.00121  -0.00692
   D16        3.13226   0.00007   0.00000   0.00152   0.00150   3.13376
   D17        3.13547   0.00014   0.00000   0.00279   0.00283   3.13830
   D18       -0.00732   0.00015   0.00000   0.00308   0.00312  -0.00420
   D19        0.00036  -0.00005   0.00000  -0.00072  -0.00073  -0.00037
   D20       -3.13920   0.00000   0.00000   0.00031   0.00034  -3.13886
   D21       -3.14003  -0.00006   0.00000  -0.00101  -0.00102  -3.14105
   D22        0.00360  -0.00001   0.00000   0.00002   0.00005   0.00364
   D23        0.00753   0.00002   0.00000   0.00064   0.00069   0.00822
   D24       -3.13383   0.00009   0.00000   0.00206   0.00215  -3.13168
   D25       -3.13610  -0.00003   0.00000  -0.00037  -0.00036  -3.13646
   D26        0.00572   0.00004   0.00000   0.00105   0.00110   0.00682
   D27       -0.00772  -0.00007   0.00000  -0.00130  -0.00133  -0.00905
   D28        3.13178   0.00043   0.00000   0.00872   0.00896   3.14074
   D29        3.13365  -0.00014   0.00000  -0.00272  -0.00279   3.13086
   D30       -0.01004   0.00035   0.00000   0.00729   0.00750  -0.00254
   D31        2.87711   0.00192   0.00000   0.03658   0.03654   2.91365
   D32       -0.26239   0.00140   0.00000   0.02648   0.02651  -0.23588
         Item               Value     Threshold  Converged?
 Maximum Force            0.055846     0.000450     NO 
 RMS     Force            0.013592     0.000300     NO 
 Maximum Displacement     0.150366     0.001800     NO 
 RMS     Displacement     0.043541     0.001200     NO 
 Predicted change in Energy=-1.631056D-02
 Lowest energy point so far.  Saving SCF results.
 GradGradGradGradGradGradGradGradGradGradGradGradGradGradGradGradGradGrad

 Leave Link  103 at Mon Feb 22 21:18:50 2021, MaxMem=   104857600 cpu:              12.7 elap:               0.5
 (Enter /sw/arch/RedHatEnterpriseServer7/EB_production/2019/software/Gaussian/g16.c01/l202.exe)
                          Input orientation:                          
 ---------------------------------------------------------------------
 Center     Atomic      Atomic             Coordinates (Angstroms)
 Number     Number       Type             X           Y           Z
 ---------------------------------------------------------------------
      1          6           0        1.219026    0.671510    0.931710
      2          6           0       -0.109337    0.229133    0.374178
      3          6           0       -0.782258   -0.903094    0.863244
      4          6           0       -2.015673   -1.312725    0.333896
      5          6           0       -2.602439   -0.575958   -0.702770
      6          6           0       -1.954920    0.560949   -1.200811
      7          6           0       -0.713284    0.957864   -0.669136
      8          8           0       -0.046243    2.068362   -1.133065
      9          1           0        1.151913    1.679922    1.368601
     10          1           0        1.986556    0.709384    0.143222
     11          1           0        1.572259   -0.013037    1.713548
     12          1           0       -0.332328   -1.474394    1.668135
     13          1           0       -2.510361   -2.195068    0.725230
     14          1           0       -3.556524   -0.879959   -1.119270
     15          1           0       -2.412006    1.139347   -1.998254
     16          1           0       -0.449300    2.357965   -1.973185
 ---------------------------------------------------------------------
                    Distance matrix (angstroms):
                    1          2          3          4          5
     1  C    0.000000
     2  C    1.507013   0.000000
     3  C    2.547391   1.404972   0.000000
     4  C    3.841595   2.452155   1.403325   0.000000
     5  C    4.339504   2.832586   2.423319   1.400641   0.000000
     6  C    3.825416   2.448850   2.789065   2.422741   1.399958
     7  C    2.525575   1.408653   2.411661   2.803189   2.433649
     8  O    2.795603   2.378765   3.654656   4.178801   3.702933
     9  H    1.101032   2.164352   3.266247   4.478856   4.845072
    10  H    1.101022   2.162580   3.284029   4.488109   4.840111
    11  H    1.097565   2.163406   2.656871   4.057817   4.856291
    12  H    2.748440   2.150826   1.084744   2.154061   3.403201
    13  H    4.708315   3.430000   2.162079   1.084614   2.160828
    14  H    5.423970   3.917086   3.409904   2.161758   1.084512
    15  H    4.689132   3.429170   3.875024   3.407148   2.157965
    16  H    3.750448   3.187101   4.334824   4.609785   3.854591
                    6          7          8          9         10
     6  C    0.000000
     7  C    1.407793   0.000000
     8  O    2.433091   1.376001   0.000000
     9  H    4.184064   2.855293   2.800856   0.000000
    10  H    4.166976   2.830336   2.758260   1.772040   0.000000
    11  H    4.611284   3.441444   3.880074   1.778142   1.777487
    12  H    3.873793   3.394678   4.525448   3.498914   3.531497
    13  H    3.407899   3.887766   5.263266   5.370449   5.384872
    14  H    2.155921   3.415293   4.584196   5.908626   5.903019
    15  H    1.085996   2.164520   2.684857   4.932490   4.911022
    16  H    2.468344   1.931454   0.975770   3.767116   3.623588
                   11         12         13         14         15
    11  H    0.000000
    12  H    2.401057   0.000000
    13  H    4.733478   2.480377   0.000000
    14  H    5.922906   4.303303   2.495225   0.000000
    15  H    5.565953   4.959749   4.306432   2.481960   0.000000
    16  H    4.827044   5.287710   5.679747   4.568169   2.310385
                   16
    16  H    0.000000
 Stoichiometry    C7H8O
 Framework group  C1[X(C7H8O)]
 Deg. of freedom    42
 Full point group                 C1      NOp   1
 RotChk:  IX=0 Diff= 9.81D-03
 Largest Abelian subgroup         C1      NOp   1
 Largest concise Abelian subgroup C1      NOp   1
                         Standard orientation:                         
 ---------------------------------------------------------------------
 Center     Atomic      Atomic             Coordinates (Angstroms)
 Number     Number       Type             X           Y           Z
 ---------------------------------------------------------------------
      1          6           0        1.976086   -1.237627   -0.000949
      2          6           0        0.590569   -0.644817    0.001363
      3          6           0       -0.562659   -1.447314   -0.001370
      4          6           0       -1.849525   -0.887607   -0.006385
      5          6           0       -1.998097    0.505118   -0.000328
      6          6           0       -0.863704    1.325427    0.011104
      7          6           0        0.422804    0.753801    0.006501
      8          8           0        1.561022    1.526938    0.016392
      9          1           0        2.536113   -0.945268    0.900809
     10          1           0        2.554666   -0.888550   -0.870225
     11          1           0        1.941613   -2.334055   -0.037075
     12          1           0       -0.451489   -2.526346   -0.002973
     13          1           0       -2.723094   -1.530396   -0.015753
     14          1           0       -2.986792    0.950815   -0.001546
     15          1           0       -0.976002    2.405510    0.025145
     16          1           0        1.323977    2.450896   -0.189126
 ---------------------------------------------------------------------
 Rotational constants (GHZ):           3.2371459           2.1766142           1.3124855
 Leave Link  202 at Mon Feb 22 21:18:50 2021, MaxMem=   104857600 cpu:               0.5 elap:               0.0
 (Enter /sw/arch/RedHatEnterpriseServer7/EB_production/2019/software/Gaussian/g16.c01/l301.exe)
 Standard basis: TZVP (5D, 7F)
 Ernie: Thresh=  0.10000D-02 Tol=  0.10000D-05 Strict=F.
 There are   208 symmetry adapted cartesian basis functions of A   symmetry.
 There are   200 symmetry adapted basis functions of A   symmetry.
   200 basis functions,   344 primitive gaussians,   208 cartesian basis functions
    29 alpha electrons       29 beta electrons
       nuclear repulsion energy       346.2582250826 Hartrees.
 IExCor=  404 DFT=T Ex=B Corr=P86 ExCW=0 ScaHFX=  0.000000
 ScaDFX=  1.000000  1.000000  1.000000  1.000000 ScalE2=  1.000000  1.000000
 IRadAn=      5 IRanWt=     -1 IRanGd=            0 ICorTp=0 IEmpDi=131
 NAtoms=   16 NActive=   16 NUniq=   16 SFac= 1.00D+00 NAtFMM=   60 NAOKFM=F Big=F
 Integral buffers will be    131072 words long.
 Raffenetti 2 integral format.
 Two-electron integral symmetry is turned on.
 R6Disp:  Grimme-D3 Dispersion energy=       -0.0111630585 Hartrees.
 Nuclear repulsion after empirical dispersion term =      346.2470620241 Hartrees.
 ------------------------------------------------------------------------------
 Polarizable Continuum Model (PCM)
 =================================
 Model                : PCM.
 Atomic radii         : UFF (Universal Force Field).
 Polarization charges : Total charges.
 Charge compensation  : None.
 Solution method      : On-the-fly selection.
 Cavity type          : Scaled VdW (van der Waals Surface) (Alpha=1.100).
 Cavity algorithm     : GePol (No added spheres)
                        Default sphere list used, NSphG=   16.
                        Lebedev-Laikov grids with approx.  5.0 points / Ang**2.
                        Smoothing algorithm: York/Karplus (Gamma=1.0000).
                        Polarization charges: spherical gaussians, with
                                              point-specific exponents (IZeta= 3).
                        Self-potential: point-specific (ISelfS= 7).
                        Self-field    : sphere-specific E.n sum rule (ISelfD= 2).
 1st derivatives      : Analytical E(r).r(x)/FMM algorithm (CHGder, D1EAlg=3).
                        Cavity 1st derivative terms included.
 Solvent              : Water, Eps=  78.355300 Eps(inf)=   1.777849
 ------------------------------------------------------------------------------
 Spheres list:
 ISph  on   Nord     Re0    Alpha      Xe            Ye            Ze
    1   C      1    1.9255  1.100      1.976086     -1.237627     -0.000949
    2   C      2    1.9255  1.100      0.590569     -0.644817      0.001363
    3   C      3    1.9255  1.100     -0.562659     -1.447314     -0.001370
    4   C      4    1.9255  1.100     -1.849525     -0.887607     -0.006385
    5   C      5    1.9255  1.100     -1.998097      0.505118     -0.000328
    6   C      6    1.9255  1.100     -0.863704      1.325427      0.011104
    7   C      7    1.9255  1.100      0.422804      0.753801      0.006501
    8   O      8    1.7500  1.100      1.561022      1.526938      0.016392
    9   H      9    1.4430  1.100      2.536113     -0.945268      0.900809
   10   H     10    1.4430  1.100      2.554666     -0.888550     -0.870225
   11   H     11    1.4430  1.100      1.941613     -2.334055     -0.037075
   12   H     12    1.4430  1.100     -0.451489     -2.526346     -0.002973
   13   H     13    1.4430  1.100     -2.723094     -1.530396     -0.015753
   14   H     14    1.4430  1.100     -2.986792      0.950815     -0.001546
   15   H     15    1.4430  1.100     -0.976002      2.405510      0.025145
   16   H     16    1.4430  1.100      1.323977      2.450896     -0.189126
 ------------------------------------------------------------------------------
 GePol: Number of generator spheres                  =      16
 GePol: Total number of spheres                      =      16
 GePol: Number of exposed spheres                    =      16 (100.00%)
 GePol: Number of points                             =    1345
 GePol: Average weight of points                     =       0.13
 GePol: Minimum weight of points                     =   0.39D-08
 GePol: Maximum weight of points                     =    0.20577
 GePol: Number of points with low weight             =      89
 GePol: Fraction of low-weight points (<1% of avg)   =       6.62%
 GePol: Cavity surface area                          =    176.136 Ang**2
 GePol: Cavity volume                                =    171.984 Ang**3
 Leave Link  301 at Mon Feb 22 21:18:50 2021, MaxMem=   104857600 cpu:               1.8 elap:               0.1
 (Enter /sw/arch/RedHatEnterpriseServer7/EB_production/2019/software/Gaussian/g16.c01/l302.exe)
 NPDir=0 NMtPBC=     1 NCelOv=     1 NCel=       1 NClECP=     1 NCelD=      1
         NCelK=      1 NCelE2=     1 NClLst=     1 CellRange=     0.0.
 One-electron integrals computed using PRISM.
 One-electron integral symmetry used in STVInt
 PrsmSu:  requested number of processors reduced to:  29 ShMem   1 Linda.
 NBasis=   200 RedAO= T EigKep=  1.01D-05  NBF=   200
 NBsUse=   200 1.00D-06 EigRej= -1.00D+00 NBFU=   200
 Precomputing XC quadrature grid using
 IXCGrd= 4 IRadAn=           5 IRanWt=          -1 IRanGd=           0 AccXCQ= 0.00D+00.
 Generated NRdTot=       0 NPtTot=           0 NUsed=           0 NTot=          32
 NSgBfM=   207   207   207   207   207 MxSgAt=    16 MxSgA2=    16.
 Leave Link  302 at Mon Feb 22 21:18:50 2021, MaxMem=   104857600 cpu:               5.6 elap:               0.2
 (Enter /sw/arch/RedHatEnterpriseServer7/EB_production/2019/software/Gaussian/g16.c01/l303.exe)
 DipDrv:  MaxL=1.
 Leave Link  303 at Mon Feb 22 21:18:50 2021, MaxMem=   104857600 cpu:               1.9 elap:               0.1
 (Enter /sw/arch/RedHatEnterpriseServer7/EB_production/2019/software/Gaussian/g16.c01/l401.exe)
 Initial guess from the checkpoint file:  "QWVGKYWNOKOFNN-UHFFFAOYSA-N.chk"
 B after Tr=    -0.000000    0.000000    0.000000
         Rot=    0.999996   -0.000009    0.000144   -0.002719 Ang=  -0.31 deg.
 Guess basis will be translated and rotated to current coordinates.
 JPrj=2 DoOrth=T DoCkMO=T.
 Generating alternative initial guess.
 ExpMin= 9.52D-02 ExpMax= 2.70D+04 ExpMxC= 9.22D+02 IAcc=3 IRadAn=         5 AccDes= 0.00D+00
 Harris functional with IExCor=  404 and IRadAn=       5 diagonalized for initial guess.
 HarFok:  IExCor=  404 AccDes= 0.00D+00 IRadAn=         5 IDoV= 1 UseB2=F ITyADJ=14
 ICtDFT=  3500011 ScaDFX=  1.000000  1.000000  1.000000  1.000000
 FoFCou: FMM=F IPFlag=           0 FMFlag=      100000 FMFlg1=           0
         NFxFlg=           0 DoJE=T BraDBF=F KetDBF=T FulRan=T
         wScrn=  0.000000 ICntrl=       500 IOpCl=  0 I1Cent=   200000004 NGrid=           0
         NMat0=    1 NMatS0=      1 NMatT0=    0 NMatD0=    1 NMtDS0=    0 NMtDT0=    0
 Petite list used in FoFCou.
 Harris En= -347.075212411787    
 Leave Link  401 at Mon Feb 22 21:18:51 2021, MaxMem=   104857600 cpu:              12.1 elap:               0.4
 (Enter /sw/arch/RedHatEnterpriseServer7/EB_production/2019/software/Gaussian/g16.c01/l502.exe)
 Integral symmetry usage will be decided dynamically.
 Closed shell SCF:
 Using DIIS extrapolation, IDIIS=  1040.
 NGot=   104857600 LenX=   104761834 LenY=   104718129
 Requested convergence on RMS density matrix=1.00D-08 within 128 cycles.
 Requested convergence on MAX density matrix=1.00D-06.
 Requested convergence on             energy=1.00D-06.
 No special actions if energy rises.
 Fock matrices will be formed incrementally for  20 cycles.

 Cycle   1  Pass 1  IDiag  1:
 FoFJK:  IHMeth= 1 ICntrl=     500 DoSepK=F KAlg= 0 I1Cent=           0 FoldK=F
 IRaf= 950000000 NMat=       1 IRICut=       1 DoRegI=T DoRafI=F ISym2E= 0 IDoP0=0 IntGTp=1.
 FoFCou: FMM=F IPFlag=           0 FMFlag=      100000 FMFlg1=           0
         NFxFlg=           0 DoJE=T BraDBF=F KetDBF=F FulRan=T
         wScrn=  0.000000 ICntrl=       500 IOpCl=  0 I1Cent=           0 NGrid=           0
         NMat0=    1 NMatS0=      1 NMatT0=    0 NMatD0=    1 NMtDS0=    0 NMtDT0=    0
 Symmetry not used in FoFCou.
 Inv3:  Mode=1 IEnd=     5427075.
 Iteration    1 A*A^-1 deviation from unit magnitude is 2.89D-15 for    209.
 Iteration    1 A*A^-1 deviation from orthogonality  is 1.63D-15 for   1297     94.
 Iteration    1 A^-1*A deviation from unit magnitude is 3.11D-15 for    235.
 Iteration    1 A^-1*A deviation from orthogonality  is 3.11D-15 for    908    454.
 E= -346.913362607885    
 DIIS: error= 3.18D-03 at cycle   1 NSaved=   1.
 NSaved= 1 IEnMin= 1 EnMin= -346.913362607885     IErMin= 1 ErrMin= 3.18D-03
 ErrMax= 3.18D-03  0.00D+00 EMaxC= 1.00D-01 BMatC= 4.27D-03 BMatP= 4.27D-03
 IDIUse=3 WtCom= 9.68D-01 WtEn= 3.18D-02
 Coeff-Com:  0.100D+01
 Coeff-En:   0.100D+01
 Coeff:      0.100D+01
 Gap=     0.593 Goal=   None    Shift=    0.000
 GapD=    0.593 DampG=2.000 DampE=1.000 DampFc=2.0000 IDamp=-1.
 RMSDP=1.36D-03 MaxDP=3.95D-02              OVMax= 1.58D-02

 Cycle   2  Pass 1  IDiag  1:
 RMSU=  1.36D-03    CP:  9.93D-01
 E= -346.917402954019     Delta-E=       -0.004040346133 Rises=F Damp=F
 DIIS: error= 1.13D-03 at cycle   2 NSaved=   2.
 NSaved= 2 IEnMin= 2 EnMin= -346.917402954019     IErMin= 2 ErrMin= 1.13D-03
 ErrMax= 1.13D-03  0.00D+00 EMaxC= 1.00D-01 BMatC= 4.54D-04 BMatP= 4.27D-03
 IDIUse=3 WtCom= 9.89D-01 WtEn= 1.13D-02
 Coeff-Com:  0.162D+00 0.838D+00
 Coeff-En:   0.000D+00 0.100D+01
 Coeff:      0.160D+00 0.840D+00
 Gap=     0.158 Goal=   None    Shift=    0.000
 RMSDP=2.21D-04 MaxDP=3.12D-03 DE=-4.04D-03 OVMax= 1.77D-02

 Cycle   3  Pass 1  IDiag  1:
 RMSU=  2.20D-04    CP:  9.92D-01  1.01D+00
 E= -346.917129752026     Delta-E=        0.000273201992 Rises=F Damp=F
 DIIS: error= 2.14D-03 at cycle   3 NSaved=   3.
 NSaved= 3 IEnMin= 2 EnMin= -346.917402954019     IErMin= 2 ErrMin= 1.13D-03
 ErrMax= 2.14D-03  0.00D+00 EMaxC= 1.00D-01 BMatC= 7.35D-04 BMatP= 4.54D-04
 IDIUse=3 WtCom= 1.78D-01 WtEn= 8.22D-01
 Coeff-Com:  0.424D-01 0.555D+00 0.403D+00
 Coeff-En:   0.000D+00 0.601D+00 0.399D+00
 Coeff:      0.754D-02 0.593D+00 0.400D+00
 Gap=     0.158 Goal=   None    Shift=    0.000
 RMSDP=1.26D-04 MaxDP=2.67D-03 DE= 2.73D-04 OVMax= 1.27D-02

 Cycle   4  Pass 1  IDiag  1:
 RMSU=  8.65D-05    CP:  9.93D-01  1.01D+00  5.93D-01
 E= -346.917818351873     Delta-E=       -0.000688599847 Rises=F Damp=F
 DIIS: error= 3.96D-04 at cycle   4 NSaved=   4.
 NSaved= 4 IEnMin= 4 EnMin= -346.917818351873     IErMin= 4 ErrMin= 3.96D-04
 ErrMax= 3.96D-04  0.00D+00 EMaxC= 1.00D-01 BMatC= 3.48D-05 BMatP= 4.54D-04
 IDIUse=3 WtCom= 9.96D-01 WtEn= 3.96D-03
 Coeff-Com:  0.724D-02 0.261D+00 0.217D+00 0.514D+00
 Coeff-En:   0.000D+00 0.000D+00 0.000D+00 0.100D+01
 Coeff:      0.721D-02 0.260D+00 0.216D+00 0.516D+00
 Gap=     0.159 Goal=   None    Shift=    0.000
 RMSDP=4.81D-05 MaxDP=1.10D-03 DE=-6.89D-04 OVMax= 2.78D-03

 Cycle   5  Pass 1  IDiag  1:
 RMSU=  2.65D-05    CP:  9.93D-01  1.00D+00  5.55D-01  5.68D-01
 E= -346.917849914351     Delta-E=       -0.000031562478 Rises=F Damp=F
 DIIS: error= 2.05D-04 at cycle   5 NSaved=   5.
 NSaved= 5 IEnMin= 5 EnMin= -346.917849914351     IErMin= 5 ErrMin= 2.05D-04
 ErrMax= 2.05D-04  0.00D+00 EMaxC= 1.00D-01 BMatC= 5.83D-06 BMatP= 3.48D-05
 IDIUse=3 WtCom= 9.98D-01 WtEn= 2.05D-03
 Coeff-Com:  0.646D-03 0.114D+00 0.101D+00 0.330D+00 0.454D+00
 Coeff-En:   0.000D+00 0.000D+00 0.000D+00 0.117D+00 0.883D+00
 Coeff:      0.644D-03 0.114D+00 0.101D+00 0.330D+00 0.455D+00
 Gap=     0.159 Goal=   None    Shift=    0.000
 RMSDP=1.74D-05 MaxDP=6.91D-04 DE=-3.16D-05 OVMax= 1.11D-03

 Cycle   6  Pass 1  IDiag  1:
 RMSU=  9.85D-06    CP:  9.93D-01  1.01D+00  5.56D-01  6.07D-01  5.38D-01
 E= -346.917855690384     Delta-E=       -0.000005776033 Rises=F Damp=F
 DIIS: error= 3.78D-05 at cycle   6 NSaved=   6.
 NSaved= 6 IEnMin= 6 EnMin= -346.917855690384     IErMin= 6 ErrMin= 3.78D-05
 ErrMax= 3.78D-05  0.00D+00 EMaxC= 1.00D-01 BMatC= 3.49D-07 BMatP= 5.83D-06
 IDIUse=1 WtCom= 1.00D+00 WtEn= 0.00D+00
 Coeff-Com: -0.207D-03 0.429D-01 0.392D-01 0.138D+00 0.261D+00 0.519D+00
 Coeff:     -0.207D-03 0.429D-01 0.392D-01 0.138D+00 0.261D+00 0.519D+00
 Gap=     0.159 Goal=   None    Shift=    0.000
 RMSDP=5.06D-06 MaxDP=1.91D-04 DE=-5.78D-06 OVMax= 2.34D-04

 Cycle   7  Pass 1  IDiag  1:
 RMSU=  2.99D-06    CP:  9.93D-01  1.00D+00  5.54D-01  6.08D-01  6.11D-01
                    CP:  7.20D-01
 E= -346.917855946275     Delta-E=       -0.000000255891 Rises=F Damp=F
 DIIS: error= 1.93D-05 at cycle   7 NSaved=   7.
 NSaved= 7 IEnMin= 7 EnMin= -346.917855946275     IErMin= 7 ErrMin= 1.93D-05
 ErrMax= 1.93D-05  0.00D+00 EMaxC= 1.00D-01 BMatC= 5.27D-08 BMatP= 3.49D-07
 IDIUse=1 WtCom= 1.00D+00 WtEn= 0.00D+00
 Coeff-Com: -0.211D-03 0.121D-01 0.120D-01 0.451D-01 0.112D+00 0.328D+00
 Coeff-Com:  0.491D+00
 Coeff:     -0.211D-03 0.121D-01 0.120D-01 0.451D-01 0.112D+00 0.328D+00
 Coeff:      0.491D+00
[...]
      2          6           0        0.590033   -0.645716   -0.000011
      3          6           0       -0.562231   -1.444534    0.000019
      4          6           0       -1.848951   -0.888375    0.000008
      5          6           0       -1.996272    0.502814    0.000001
      6          6           0       -0.864440    1.326315   -0.000031
      7          6           0        0.416468    0.755554   -0.000014
      8          8           0        1.563721    1.520712    0.000032
      9          1           0        2.549184   -0.909392    0.882929
     10          1           0        2.549095   -0.909557   -0.883079
     11          1           0        1.936534   -2.333692    0.000081
     12          1           0       -0.442484   -2.531475    0.000013
     13          1           0       -2.726712   -1.537397    0.000047
     14          1           0       -2.990319    0.955070   -0.000018
     15          1           0       -0.971564    2.414857   -0.000013
     16          1           0        1.318929    2.464735    0.000021
 ---------------------------------------------------------------------
 Rotational constants (GHZ):           3.2432921           2.1770327           1.3132838
 Standard basis: TZVP (5D, 7F)
 There are   208 symmetry adapted cartesian basis functions of A   symmetry.
 There are   200 symmetry adapted basis functions of A   symmetry.
   200 basis functions,   344 primitive gaussians,   208 cartesian basis functions
    29 alpha electrons       29 beta electrons
       nuclear repulsion energy       346.2843445921 Hartrees.
 NAtoms=   16 NActive=   16 NUniq=   16 SFac= 1.00D+00 NAtFMM=   60 NAOKFM=F Big=F
 Integral buffers will be    131072 words long.
 Raffenetti 2 integral format.
 Two-electron integral symmetry is turned on.
 Warning! Using old PCM defaults because the COSMOthermo output has been requested.
 These settings can be overridden by following keywords.
 ------------------------------------------------------------------------------
 Polarizable Continuum Model (PCM)
 =================================
 Model                : C-PCM.
 Atomic radii         : Klamt.
 XCosmo               : -1.000 (infinite dielectric limit)
 Polarization charges : Electronic and nuclear charges.
 Charge compensation  : Type 3 (Electronic density weighted correction).
 Solution method      : On-the-fly selection.
 Cavity type          : VdW (van der Waals Surface) (Alpha=1.000).
 Cavity algorithm     : GePol (No added spheres)
                        Default sphere list used, NSphG=   16.
                        Tesserae with average area of 0.200 Ang**2.
                        Smoothing algorithm: None.
                        Polarization charges: point-like.
                        Self-potential: constant (ISelfS= 1).
                        Self-field    : global E.n sum rule (ISelfD= 3).
 Solvent              : Water, Eps=  78.355300 Eps(inf)=   1.777849
 ------------------------------------------------------------------------------
 Spheres list:
 ISph  on   Nord     Re0    Alpha      Xe            Ye            Ze
    1   C      1    2.0000  1.000      1.976655     -1.235866     -0.000012
    2   C      2    2.0000  1.000      0.590033     -0.645716     -0.000011
    3   C      3    2.0000  1.000     -0.562231     -1.444534      0.000019
    4   C      4    2.0000  1.000     -1.848951     -0.888375      0.000008
    5   C      5    2.0000  1.000     -1.996272      0.502814      0.000001
    6   C      6    2.0000  1.000     -0.864440      1.326315     -0.000031
    7   C      7    2.0000  1.000      0.416468      0.755554     -0.000014
    8   O      8    1.7200  1.000      1.563721      1.520712      0.000032
    9   H      9    1.3000  1.000      2.549184     -0.909392      0.882929
   10   H     10    1.3000  1.000      2.549095     -0.909557     -0.883079
   11   H     11    1.3000  1.000      1.936534     -2.333692      0.000081
   12   H     12    1.3000  1.000     -0.442484     -2.531475      0.000013
   13   H     13    1.3000  1.000     -2.726712     -1.537397      0.000047
   14   H     14    1.3000  1.000     -2.990319      0.955070     -0.000018
   15   H     15    1.3000  1.000     -0.971564      2.414857     -0.000013
   16   H     16    1.3000  1.000      1.318929      2.464735      0.000021
 ------------------------------------------------------------------------------
 One-electron integrals computed using PRISM.
 PrsmSu:  requested number of processors reduced to:  29 ShMem   1 Linda.
 NBasis=   200 RedAO= T EigKep=  1.00D-05  NBF=   200
 NBsUse=   200 1.00D-06 EigRej= -1.00D+00 NBFU=   200
 Initial guess from the checkpoint file:  "QWVGKYWNOKOFNN-UHFFFAOYSA-N.chk"
 B after Tr=     0.000000   -0.000000    0.000000
         Rot=    1.000000   -0.000000    0.000000   -0.000000 Ang=   0.00 deg.
 Requested convergence on RMS density matrix=1.00D-08 within 128 cycles.
 Requested convergence on MAX density matrix=1.00D-06.
 Requested convergence on             energy=1.00D-06.
 No special actions if energy rises.
 Inv3:  Mode=1 IEnd=     3623403.
 Iteration    1 A*A^-1 deviation from unit magnitude is 3.55D-15 for     60.
 Iteration    1 A*A^-1 deviation from orthogonality  is 1.89D-15 for    279    127.
 Iteration    1 A^-1*A deviation from unit magnitude is 3.33D-15 for     60.
 Iteration    1 A^-1*A deviation from orthogonality  is 4.18D-15 for    236     42.
 Error on nuclear    polarization charges =  0.01997
 Error on electronic polarization charges = -0.04893
 SCF Done:  E(RB-P86) =  -346.912130939     A.U. after   11 cycles
            NFock= 11  Conv=0.43D-08     -V/T= 2.0048
 --------------------------------------------------------------------
 Variational C-PCM results
 =========================
 <psi(f)|   H    |psi(f)>                     (a.u.) =    -346.899064
 <psi(f)|H+V(f)/2|psi(f)>                     (a.u.) =    -346.912131
 Total free energy in solution:
 - with all non electrostatic terms           (a.u.) =    -346.902467
 --------------------------------------------------------------------
 (Polarized solute)-Solvent               (kcal/mol) =      -8.20
 --------------------------------------------------------------------
 Cavitation energy                        (kcal/mol) =      19.35
 Dispersion energy                        (kcal/mol) =     -14.50
 Repulsion energy                         (kcal/mol) =       1.20
 Total non electrostatic                  (kcal/mol) =       6.06
 --------------------------------------------------------------------
 Partition over spheres:
 Sphere  on Atom  Surface  Charge   GEl     GCav    GDR
    1      C1      16.88   0.024   -0.08    1.98   -1.20
    2      C2       5.83   0.026   -0.21    0.68   -0.35
    3      C3      13.03   0.047   -0.41    1.53   -0.96
    4      C4      14.08   0.055   -0.47    1.65   -1.03
    5      C5      14.01   0.047   -0.37    1.65   -1.02
    6      C6      13.34   0.031   -0.43    1.57   -1.01
    7      C7       7.86   0.020   -0.19    0.92   -0.55
    8      O8      14.77   0.126   -1.56    1.84   -1.26
    9      H9       6.56  -0.027   -0.02    0.93   -0.72
   10      H10      6.56  -0.027   -0.02    0.93   -0.72
   11      H11      6.41  -0.028   -0.15    0.90   -0.64
   12      H12      6.44  -0.036   -0.21    0.91   -0.70
   13      H13      6.43  -0.036   -0.18    0.91   -0.80
   14      H14      6.44  -0.039   -0.26    0.91   -0.80
   15      H15      6.46  -0.045   -0.63    0.91   -0.72
   16      H16      8.08  -0.140   -2.99    1.14   -0.83
 --------------------------------------------------------------------
 - cavitation energy not included in the total energy.
 - dispersion energy not included in the total energy.
 - repulsion  energy not included in the total energy.
 After PCM corrections, the energy is  -346.912130939     a.u.
 --------------------------------------------------------------------
 Writing COSMO formatted file "QWVGKYWNOKOFNN-UHFFFAOYSA-N.cosmo"
 Recomputed dielectric energy= -0.013137 old= -0.013067 diff=-7.09D-05

 **********************************************************************

            Population analysis using the SCF Density.

 **********************************************************************

 Orbital symmetries:
       Occupied  (A) (A) (A) (A) (A) (A) (A) (A) (A) (A) (A) (A)
                 (A) (A) (A) (A) (A) (A) (A) (A) (A) (A) (A) (A)
                 (A) (A) (A) (A) (A)
       Virtual   (A) (A) (A) (A) (A) (A) (A) (A) (A) (A) (A) (A)
                 (A) (A) (A) (A) (A) (A) (A) (A) (A) (A) (A) (A)
                 (A) (A) (A) (A) (A) (A) (A) (A) (A) (A) (A) (A)
                 (A) (A) (A) (A) (A) (A) (A) (A) (A) (A) (A) (A)
                 (A) (A) (A) (A) (A) (A) (A) (A) (A) (A) (A) (A)
                 (A) (A) (A) (A) (A) (A) (A) (A) (A) (A) (A) (A)
                 (A) (A) (A) (A) (A) (A) (A) (A) (A) (A) (A) (A)
                 (A) (A) (A) (A) (A) (A) (A) (A) (A) (A) (A) (A)
                 (A) (A) (A) (A) (A) (A) (A) (A) (A) (A) (A) (A)
                 (A) (A) (A) (A) (A) (A) (A) (A) (A) (A) (A) (A)
                 (A) (A) (A) (A) (A) (A) (A) (A) (A) (A) (A) (A)
                 (A) (A) (A) (A) (A) (A) (A) (A) (A) (A) (A) (A)
                 (A) (A) (A) (A) (A) (A) (A) (A) (A) (A) (A) (A)
                 (A) (A) (A) (A) (A) (A) (A) (A) (A) (A) (A) (A)
                 (A) (A) (A)
 The electronic state is 1-A.
 Alpha  occ. eigenvalues --  -18.80224  -9.96074  -9.91021  -9.90269  -9.90189
 Alpha  occ. eigenvalues --   -9.90100  -9.89624  -9.89186  -0.97542  -0.78058
 Alpha  occ. eigenvalues --   -0.70478  -0.67165  -0.62011  -0.56791  -0.52912
 Alpha  occ. eigenvalues --   -0.49002  -0.44014  -0.42484  -0.38728  -0.38662
 Alpha  occ. eigenvalues --   -0.36939  -0.35117  -0.34477  -0.34137  -0.31124
 Alpha  occ. eigenvalues --   -0.30287  -0.29821  -0.22888  -0.20301
 Alpha virt. eigenvalues --   -0.04392  -0.03298   0.02742   0.04475   0.05205
 Alpha virt. eigenvalues --    0.07869   0.08967   0.09580   0.10560   0.11930
 Alpha virt. eigenvalues --    0.12322   0.13462   0.14544   0.15606   0.17393
 Alpha virt. eigenvalues --    0.18551   0.19875   0.20264   0.21071   0.23249
 Alpha virt. eigenvalues --    0.23362   0.23788   0.25323   0.26096   0.26873
 Alpha virt. eigenvalues --    0.29851   0.31045   0.32013   0.32367   0.32855
 Alpha virt. eigenvalues --    0.34139   0.34203   0.37410   0.38220   0.39512
 Alpha virt. eigenvalues --    0.39770   0.41314   0.42371   0.42991   0.43533
 Alpha virt. eigenvalues --    0.43575   0.46240   0.47510   0.48140   0.49120
 Alpha virt. eigenvalues --    0.49447   0.50996   0.53459   0.56407   0.58495
 Alpha virt. eigenvalues --    0.60821   0.62878   0.65589   0.67382   0.70736
 Alpha virt. eigenvalues --    0.74196   0.80457   0.85526   0.88308   1.08289
 Alpha virt. eigenvalues --    1.09168   1.14684   1.17143   1.17875   1.20081
 Alpha virt. eigenvalues --    1.20307   1.22657   1.23414   1.25001   1.25337
 Alpha virt. eigenvalues --    1.27312   1.29707   1.30314   1.33169   1.33513
 Alpha virt. eigenvalues --    1.34321   1.36874   1.38108   1.38192   1.39102
 Alpha virt. eigenvalues --    1.39180   1.39540   1.42198   1.44607   1.45154
 Alpha virt. eigenvalues --    1.45545   1.46784   1.47910   1.48267   1.51804
 Alpha virt. eigenvalues --    1.53590   1.54030   1.59739   1.61777   1.69596
 Alpha virt. eigenvalues --    1.70343   1.71349   1.73094   1.73436   1.75734
 Alpha virt. eigenvalues --    1.76128   1.79463   1.80804   1.82470   1.83548
 Alpha virt. eigenvalues --    1.84929   1.89065   1.90507   1.90960   1.95644
 Alpha virt. eigenvalues --    1.99629   2.03434   2.06458   2.11193   2.16098
 Alpha virt. eigenvalues --    2.18716   2.19001   2.20952   2.21017   2.22963
 Alpha virt. eigenvalues --    2.23857   2.25201   2.25971   2.30995   2.32922
 Alpha virt. eigenvalues --    2.38259   2.42215   2.42280   2.43102   2.48825
 Alpha virt. eigenvalues --    2.50339   2.50704   2.53229   2.54461   2.57239
 Alpha virt. eigenvalues --    2.58261   2.61507   2.63460   2.65096   2.69791
 Alpha virt. eigenvalues --    2.72661   2.83243   2.88704   2.88890   2.90339
 Alpha virt. eigenvalues --    2.92762   2.98157   2.99622   3.01199   3.04554
 Alpha virt. eigenvalues --    3.07208   3.09934   3.11542   3.16852   3.21615
 Alpha virt. eigenvalues --    3.22928   3.25670   3.29908   3.32827   3.46220
 Alpha virt. eigenvalues --    3.57149   3.93283   4.19799  21.02964  21.53258
 Alpha virt. eigenvalues --   21.59111  21.76675  21.79752  21.85791  21.95402
 Alpha virt. eigenvalues --   43.19897
          Condensed to atoms (all electrons):
               1          2          3          4          5          6
     1  C    5.114107   0.289509  -0.083185   0.027481  -0.005517   0.022013
     2  C    0.289509   5.680701   0.416002   0.018749  -0.068209  -0.129133
     3  C   -0.083185   0.416002   5.155188   0.343195   0.001090  -0.124494
     4  C    0.027481   0.018749   0.343195   5.214506   0.371897   0.015495
     5  C   -0.005517  -0.068209   0.001090   0.371897   5.205337   0.241171
     6  C    0.022013  -0.129133  -0.124494   0.015495   0.241171   5.560097
     7  C   -0.130150   0.154994   0.029853  -0.143045   0.049694   0.348546
     8  O    0.017309  -0.129777   0.004577   0.000000   0.012152  -0.094915
     9  H    0.405874  -0.033536  -0.000017  -0.000838   0.000211  -0.000483
    10  H    0.405893  -0.033622   0.000019  -0.000851   0.000218  -0.000501
    11  H    0.411831  -0.058412  -0.007603   0.001474  -0.000325   0.000373
    12  H   -0.021406  -0.075678   0.442526  -0.065729   0.017031  -0.004896
    13  H   -0.000524   0.016443  -0.058606   0.432367  -0.063031   0.015699
    14  H    0.000034  -0.002486   0.015754  -0.058131   0.427871  -0.052967
    15  H   -0.000431   0.013840  -0.000246   0.010337  -0.032971   0.406073
    16  H   -0.001830   0.023661  -0.000787  -0.000131   0.002910  -0.023121
               7          8          9         10         11         12
     1  C   -0.130150   0.017309   0.405874   0.405893   0.411831  -0.021406
     2  C    0.154994  -0.129777  -0.033536  -0.033622  -0.058412  -0.075678
     3  C    0.029853   0.004577  -0.000017   0.000019  -0.007603   0.442526
     4  C   -0.143045   0.000000  -0.000838  -0.000851   0.001474  -0.065729
     5  C    0.049694   0.012152   0.000211   0.000218  -0.000325   0.017031
     6  C    0.348546  -0.094915  -0.000483  -0.000501   0.000373  -0.004896
     7  C    5.233313   0.391398  -0.012163  -0.012080   0.017976   0.030081
     8  O    0.391398   7.813252   0.004075   0.004070   0.000435  -0.000140
     9  H   -0.012163   0.004075   0.539153  -0.033384  -0.022610   0.000197
    10  H   -0.012080   0.004070  -0.033384   0.539052  -0.022600   0.000200
    11  H    0.017976   0.000435  -0.022610  -0.022600   0.516005   0.004532
    12  H    0.030081  -0.000140   0.000197   0.000200   0.004532   0.542926
    13  H   -0.001907   0.000012   0.000012   0.000012  -0.000024  -0.006500
    14  H    0.013121  -0.000148  -0.000000  -0.000000   0.000000  -0.000240
    15  H   -0.054417  -0.004154  -0.000002  -0.000003   0.000012   0.000007
    16  H   -0.030915   0.304155  -0.000014  -0.000014  -0.000003   0.000034
              13         14         15         16
     1  C   -0.000524   0.000034  -0.000431  -0.001830
     2  C    0.016443  -0.002486   0.013840   0.023661
     3  C   -0.058606   0.015754  -0.000246  -0.000787
     4  C    0.432367  -0.058131   0.010337  -0.000131
     5  C   -0.063031   0.427871  -0.032971   0.002910
     6  C    0.015699  -0.052967   0.406073  -0.023121
     7  C   -0.001907   0.013121  -0.054417  -0.030915
     8  O    0.000012  -0.000148  -0.004154   0.304155
     9  H    0.000012  -0.000000  -0.000002  -0.000014
    10  H    0.000012  -0.000000  -0.000003  -0.000014
    11  H   -0.000024   0.000000   0.000012  -0.000003
    12  H   -0.006500  -0.000240   0.000007   0.000034
    13  H    0.527872  -0.006606  -0.000223  -0.000004
    14  H   -0.006606   0.523040  -0.005925  -0.000058
    15  H   -0.000223  -0.005925   0.508660   0.003261
    16  H   -0.000004  -0.000058   0.003261   0.394697
 Mulliken charges:
               1
     1  C   -0.451012
     2  C   -0.083045
     3  C   -0.133268
     4  C   -0.166777
     5  C   -0.159530
     6  C   -0.178959
     7  C    0.115700
     8  O   -0.322302
     9  H    0.153525
    10  H    0.153591
    11  H    0.158937
    12  H    0.137054
    13  H    0.145006
    14  H    0.146740
    15  H    0.156181
    16  H    0.328159
 Sum of Mulliken charges =  -0.00000
 Mulliken charges with hydrogens summed into heavy atoms:
               1
     1  C    0.015041
     2  C   -0.083045
     3  C    0.003786
     4  C   -0.021771
     5  C   -0.012791
     6  C   -0.022778
     7  C    0.115700
     8  O    0.005858
 Electronic spatial extent (au):  <R**2>=            907.9267
 Charge=             -0.0000 electrons
 Dipole moment (field-independent basis, Debye):
    X=             -0.4067    Y=              1.5027    Z=             -0.0008  Tot=              1.5567
 Quadrupole moment (field-independent basis, Debye-Ang):
   XX=            -46.9230   YY=            -36.2565   ZZ=            -51.9686
   XY=             -0.5032   XZ=             -0.0002   YZ=              0.0002
 Traceless Quadrupole moment (field-independent basis, Debye-Ang):
   XX=             -1.8736   YY=              8.7929   ZZ=             -6.9192
   XY=             -0.5032   XZ=             -0.0002   YZ=              0.0002
 Octapole moment (field-independent basis, Debye-Ang**2):
  XXX=             -7.6122  YYY=             28.4270  ZZZ=             -0.0019  XYY=              6.3925
  XXY=             -0.0451  XXZ=             -0.0020  XZZ=              7.6350  YZZ=              2.9870
  YYZ=             -0.0008  XYZ=              0.0002
 Hexadecapole moment (field-independent basis, Debye-Ang**3):
 XXXX=           -665.9640 YYYY=           -366.2275 ZZZZ=            -66.1217 XXXY=              2.1948
 XXXZ=             -0.0010 YYYX=             33.8872 YYYZ=              0.0008 ZZZX=             -0.0009
 ZZZY=              0.0014 XXYY=           -177.6397 XXZZ=           -133.8797 YYZZ=            -98.0991
 XXYZ=              0.0011 YYXZ=             -0.0001 ZZXY=              2.5902
 N-N= 3.462843445921D+02 E-N=-1.500548586621D+03  KE= 3.452484378795D+02
 Unable to Open any file for archive entry.
 1\1\GINC-TCN1632\SP\RBP86\TZVP\C7H8O1\ELENAA\22-Feb-2021\0\\# BP86/TZV
 P SCRF=COSMORS geom=CHECKPOINT guess=CHECKPOINT\\COSMO-file for #QWVGK
 YWNOKOFNN-UHFFFAOYSA-N\\0,1\C,0,1.2237567347,0.6648111341,0.9263270075
 \C,0,-0.1041873473,0.220672085,0.3692804773\C,0,-0.7842753894,-0.90149
 61127,0.8632876794\C,0,-2.0193395536,-1.3086625229,0.3400364311\C,0,-2
 .5967494732,-0.5798066087,-0.7051801287\C,0,-1.9414794405,0.5451546341
 ,-1.2192626169\C,0,-0.7063746693,0.940488392,-0.6856688323\O,0,-0.0193
 666855,2.040186259,-1.1550717857\H,0,1.1676913979,1.692353427,1.319994
 5709\H,0,2.0019511319,0.6699236129,0.1463536149\H,0,1.5514654267,0.000
 735804,1.7377720305\H,0,-0.3293387076,-1.4683180929,1.6803098719\H,0,-
 2.5241144251,-2.1871488692,0.7464313924\H,0,-3.5583077266,-0.881164215
 8,-1.1261941296\H,0,-2.38662276,1.1201006921,-2.0363819512\H,0,-0.5296
 28513,2.4523703819,-1.8767636315\\Version=ES64L-G16RevC.01\State=1-A\H
 F=-346.9121309\RMSD=4.350e-09\Dipole=-0.3248901,0.2541327,-0.4527469\Q
 uadrupole=-1.1735462,-0.1925737,1.3661198,-0.6046131,3.3486085,-4.7424
 661\PG=C01 [X(C7H8O1)]\\@
 The archive entry for this job was punched.


 NOTHING MAKES A PERSON MORE PRODUCTIVE THAN THE LAST MINUTE.
 Job cpu time:       0 days  0 hours  4 minutes 13.9 seconds.
 Elapsed time:       0 days  0 hours  0 minutes  8.5 seconds.
 File lengths (MBytes):  RWF=     34 Int=      0 D2E=      0 Chk=      7 Scr=      1
 Normal termination of Gaussian 16 at Mon Feb 22 21:20:45 2021.
