 Entering Gaussian System, Link 0=g16
 Input=SGMZJAMFUVOLNK-UHFFFAOYSA-M.gjf
 Output=SGMZJAMFUVOLNK-UHFFFAOYSA-M.log
 Initial command:
 /sw/arch/RedHatEnterpriseServer7/EB_production/2020/software/Gaussian/g16.c01/l1.exe "/scratch-local/elenaa.10684704/Gau-13108.inp" -scrdir="/scratch-local/elenaa.10684704/"
 Entering Link 1 = /sw/arch/RedHatEnterpriseServer7/EB_production/2020/software/Gaussian/g16.c01/l1.exe PID=     13111.
  
 Copyright (c) 1988-2019, Gaussian, Inc.  All Rights Reserved.
  
 This is part of the Gaussian(R) 16 program.  It is based on
 the Gaussian(R) 09 system (copyright 2009, Gaussian, Inc.),
 the Gaussian(R) 03 system (copyright 2003, Gaussian, Inc.),
 the Gaussian(R) 98 system (copyright 1998, Gaussian, Inc.),
 the Gaussian(R) 94 system (copyright 1995, Gaussian, Inc.),
 the Gaussian 92(TM) system (copyright 1992, Gaussian, Inc.),
 the Gaussian 90(TM) system (copyright 1990, Gaussian, Inc.),
 the Gaussian 88(TM) system (copyright 1988, Gaussian, Inc.),
 the Gaussian 86(TM) system (copyright 1986, Carnegie Mellon
 University), and the Gaussian 82(TM) system (copyright 1983,
 Carnegie Mellon University). Gaussian is a federally registered
 trademark of Gaussian, Inc.
  
 This software contains proprietary and confidential information,
 including trade secrets, belonging to Gaussian, Inc.
  
 This software is provided under written license and may be
 used, copied, transmitted, or stored only in accord with that
 written license.
  
 The following legend is applicable only to US Government
 contracts under FAR:
  
                    RESTRICTED RIGHTS LEGEND
  
 Use, reproduction and disclosure by the US Government is
 subject to restrictions as set forth in subparagraphs (a)
 and (c) of the Commercial Computer Software - Restricted
 Rights clause in FAR 52.227-19.
  
 Gaussian, Inc.
 340 Quinnipiac St., Bldg. 40, Wallingford CT 06492
  
  
 ---------------------------------------------------------------
 Warning -- This program may not be used in any manner that
 competes with the business of Gaussian, Inc. or will provide
 assistance to any competitor of Gaussian, Inc.  The licensee
 of this program is prohibited from giving any competitor of
 Gaussian, Inc. access to this program.  By using this program,
 the user acknowledges that Gaussian, Inc. is engaged in the
 business of creating and licensing software in the field of
 computational chemistry and represents and warrants to the
 licensee that it is not a competitor of Gaussian, Inc. and that
 it will not use this program in any manner prohibited above.
 ---------------------------------------------------------------
  

 Cite this work as:
 Gaussian 16, Revision C.01,
 M. J. Frisch, G. W. Trucks, H. B. Schlegel, G. E. Scuseria, 
 M. A. Robb, J. R. Cheeseman, G. Scalmani, V. Barone, 
 G. A. Petersson, H. Nakatsuji, X. Li, M. Caricato, A. V. Marenich, 
 J. Bloino, B. G. Janesko, R. Gomperts, B. Mennucci, H. P. Hratchian, 
 J. V. Ortiz, A. F. Izmaylov, J. L. Sonnenberg, D. Williams-Young, 
 F. Ding, F. Lipparini, F. Egidi, J. Goings, B. Peng, A. Petrone, 
 T. Henderson, D. Ranasinghe, V. G. Zakrzewski, J. Gao, N. Rega, 
 G. Zheng, W. Liang, M. Hada, M. Ehara, K. Toyota, R. Fukuda, 
 J. Hasegawa, M. Ishida, T. Nakajima, Y. Honda, O. Kitao, H. Nakai, 
 T. Vreven, K. Throssell, J. A. Montgomery, Jr., J. E. Peralta, 
 F. Ogliaro, M. J. Bearpark, J. J. Heyd, E. N. Brothers, K. N. Kudin, 
 V. N. Staroverov, T. A. Keith, R. Kobayashi, J. Normand, 
 K. Raghavachari, A. P. Rendell, J. C. Burant, S. S. Iyengar, 
 J. Tomasi, M. Cossi, J. M. Millam, M. Klene, C. Adamo, R. Cammi, 
 J. W. Ochterski, R. L. Martin, K. Morokuma, O. Farkas, 
 J. B. Foresman, and D. J. Fox, Gaussian, Inc., Wallingford CT, 2019.
 
 ******************************************
 Gaussian 16:  ES64L-G16RevC.01  3-Jul-2019
                21-Aug-2021 
 ******************************************
 %chk=SGMZJAMFUVOLNK-UHFFFAOYSA-M.chk
 %NProcShared=24
 Will use up to   24 processors via shared memory.
 -------------------------------------------------------------
 #P BP86/TZVP EmpiricalDispersion=GD3 SCRF=(Solvent=Water) Opt
 -------------------------------------------------------------
 1/18=20,19=15,26=3,38=1/1,3;
 2/9=110,12=2,17=6,18=5,40=1/2;
 3/5=19,7=101,11=2,25=1,30=1,70=2201,71=1,72=1,74=404,124=31/1,2,3;
 4//1;
 5/5=2,38=5,53=1/2;
 6/7=2,8=2,9=2,10=2,28=1/1;
 7//1,2,3,16;
 1/18=20,19=15,26=3/3(2);
 2/9=110/2;
 99//99;
 2/9=110/2;
 3/5=19,7=101,11=2,25=1,30=1,70=2205,71=1,72=1,74=404,124=31/1,2,3;
 4/5=5,16=3,69=1/1;
 5/5=2,38=5,53=1/2;
 7//1,2,3,16;
 1/18=20,19=15,26=3/3(-5);
 2/9=110/2;
 6/7=2,8=2,9=2,10=2,19=2,28=1/1;
 99/9=1/99;
 Leave Link    1 at Sat Aug 21 09:33:13 2021, MaxMem=           0 cpu:               2.2 elap:               0.1
 (Enter /sw/arch/RedHatEnterpriseServer7/EB_production/2020/software/Gaussian/g16.c01/l101.exe)
 -------------------------------------
 Particle #SGMZJAMFUVOLNK-UHFFFAOYSA-M
 -------------------------------------
 Symbolic Z-matrix:
 Charge =  0 Multiplicity = 1
 C                     1.72825  -0.26315  -2.10414 
 N                     1.44119  -0.00921  -0.67141 
 C                     2.72101   0.2014    0.05076 
 C                     0.81441  -1.24001  -0.12128 
 C                     0.46357   1.123    -0.55703 
 C                     0.36017   1.79431   0.85129 
 O                     1.39545   2.71552   1.11818 
 Cl                    3.0926    3.09384  -1.93939 
 H                     2.24625   0.59642  -2.57293 
 H                     0.78873  -0.44259  -2.67429 
 H                     2.38233  -1.15484  -2.23559 
 H                     3.4045   -0.66634  -0.09017 
 H                     2.56341   0.30705   1.14557 
 H                     3.2641    1.08678  -0.31261 
 H                     0.57418  -1.12762   0.95774 
 H                     1.49182  -2.11883  -0.21896 
 H                    -0.12936  -1.49085  -0.6563 
 H                    -0.55801   0.77019  -0.82872 
 H                     0.66899   1.90858  -1.31588 
 H                     0.33041   1.03338   1.65647 
 H                    -0.60264   2.34621   0.90108 
 H                     1.87026   2.82139   0.26282 
 
 Add virtual bond connecting atoms H14        and Cl8        Dist= 4.89D+00.
 Add virtual bond connecting atoms H22        and Cl8        Dist= 4.79D+00.
 ITRead=  0  0  0  0  0  0  0  0  0  0  0  0  0  0  0  0  0  0  0  0
 ITRead=  0  0
 MicOpt= -1 -1 -1 -1 -1 -1 -1 -1 -1 -1 -1 -1 -1 -1 -1 -1 -1 -1 -1 -1
 MicOpt= -1 -1
 NAtoms=     22 NQM=       22 NQMF=       0 NMMI=      0 NMMIF=      0
                NMic=       0 NMicF=      0.
                    Isotopes and Nuclear Properties:
 (Nuclear quadrupole moments (NQMom) in fm**2, nuclear magnetic moments (NMagM)
  in nuclear magnetons)

  Atom         1           2           3           4           5           6           7           8           9          10
 IAtWgt=          12          14          12          12          12          12          16          35           1           1
 AtmWgt=  12.0000000  14.0030740  12.0000000  12.0000000  12.0000000  12.0000000  15.9949146  34.9688527   1.0078250   1.0078250
 NucSpn=           0           2           0           0           0           0           0           3           1           1
 AtZEff=  -0.0000000  -0.0000000  -0.0000000  -0.0000000  -0.0000000  -0.0000000  -0.0000000  -0.0000000  -0.0000000  -0.0000000
 NQMom=    0.0000000   2.0440000   0.0000000   0.0000000   0.0000000   0.0000000   0.0000000  -8.1650000   0.0000000   0.0000000
 NMagM=    0.0000000   0.4037610   0.0000000   0.0000000   0.0000000   0.0000000   0.0000000   0.8218740   2.7928460   2.7928460
 AtZNuc=   6.0000000   7.0000000   6.0000000   6.0000000   6.0000000   6.0000000   8.0000000  17.0000000   1.0000000   1.0000000

  Atom        11          12          13          14          15          16          17          18          19          20
 IAtWgt=           1           1           1           1           1           1           1           1           1           1
 AtmWgt=   1.0078250   1.0078250   1.0078250   1.0078250   1.0078250   1.0078250   1.0078250   1.0078250   1.0078250   1.0078250
 NucSpn=           1           1           1           1           1           1           1           1           1           1
 AtZEff=  -0.0000000  -0.0000000  -0.0000000  -0.0000000  -0.0000000  -0.0000000  -0.0000000  -0.0000000  -0.0000000  -0.0000000
 NQMom=    0.0000000   0.0000000   0.0000000   0.0000000   0.0000000   0.0000000   0.0000000   0.0000000   0.0000000   0.0000000
 NMagM=    2.7928460   2.7928460   2.7928460   2.7928460   2.7928460   2.7928460   2.7928460   2.7928460   2.7928460   2.7928460
 AtZNuc=   1.0000000   1.0000000   1.0000000   1.0000000   1.0000000   1.0000000   1.0000000   1.0000000   1.0000000   1.0000000

  Atom        21          22
 IAtWgt=           1           1
 AtmWgt=   1.0078250   1.0078250
 NucSpn=           1           1
 AtZEff=  -0.0000000  -0.0000000
 NQMom=    0.0000000   0.0000000
 NMagM=    2.7928460   2.7928460
 AtZNuc=   1.0000000   1.0000000
 Leave Link  101 at Sat Aug 21 09:33:13 2021, MaxMem=   104857600 cpu:               2.0 elap:               0.1
 (Enter /sw/arch/RedHatEnterpriseServer7/EB_production/2020/software/Gaussian/g16.c01/l103.exe)

 GradGradGradGradGradGradGradGradGradGradGradGradGradGradGradGradGradGrad
 Berny optimization.
 Initialization pass.
                           ----------------------------
                           !    Initial Parameters    !
                           ! (Angstroms and Degrees)  !
 --------------------------                            --------------------------
 ! Name  Definition              Value          Derivative Info.                !
 --------------------------------------------------------------------------------
 ! R1    R(1,2)                  1.4831         estimate D2E/DX2                !
 ! R2    R(1,9)                  1.1077         estimate D2E/DX2                !
 ! R3    R(1,10)                 1.1135         estimate D2E/DX2                !
 ! R4    R(1,11)                 1.1136         estimate D2E/DX2                !
 ! R5    R(2,3)                  1.4845         estimate D2E/DX2                !
 ! R6    R(2,4)                  1.4867         estimate D2E/DX2                !
 ! R7    R(2,5)                  1.5002         estimate D2E/DX2                !
 ! R8    R(3,12)                 1.1135         estimate D2E/DX2                !
 ! R9    R(3,13)                 1.1111         estimate D2E/DX2                !
 ! R10   R(3,14)                 1.1004         estimate D2E/DX2                !
 ! R11   R(4,15)                 1.1111         estimate D2E/DX2                !
 ! R12   R(4,16)                 1.1139         estimate D2E/DX2                !
 ! R13   R(4,17)                 1.1135         estimate D2E/DX2                !
 ! R14   R(5,6)                  1.5636         estimate D2E/DX2                !
 ! R15   R(5,18)                 1.1144         estimate D2E/DX2                !
 ! R16   R(5,19)                 1.1114         estimate D2E/DX2                !
 ! R17   R(6,7)                  1.4113         estimate D2E/DX2                !
 ! R18   R(6,20)                 1.1082         estimate D2E/DX2                !
 ! R19   R(6,21)                 1.1109         estimate D2E/DX2                !
 ! R20   R(7,22)                 0.984          estimate D2E/DX2                !
 ! R21   R(8,14)                 2.5892         estimate D2E/DX2                !
 ! R22   R(8,22)                 2.5334         estimate D2E/DX2                !
 ! A1    A(2,1,9)              111.4989         estimate D2E/DX2                !
 ! A2    A(2,1,10)             111.0329         estimate D2E/DX2                !
 ! A3    A(2,1,11)             111.3953         estimate D2E/DX2                !
 ! A4    A(9,1,10)             107.6328         estimate D2E/DX2                !
 ! A5    A(9,1,11)             107.2621         estimate D2E/DX2                !
 ! A6    A(10,1,11)            107.8237         estimate D2E/DX2                !
 ! A7    A(1,2,3)              109.1088         estimate D2E/DX2                !
 ! A8    A(1,2,4)              107.2963         estimate D2E/DX2                !
 ! A9    A(1,2,5)              109.2083         estimate D2E/DX2                !
 ! A10   A(3,2,4)              107.511          estimate D2E/DX2                !
 ! A11   A(3,2,5)              114.6847         estimate D2E/DX2                !
 ! A12   A(4,2,5)              108.7744         estimate D2E/DX2                !
 ! A13   A(2,3,12)             110.9185         estimate D2E/DX2                !
 ! A14   A(2,3,13)             111.7483         estimate D2E/DX2                !
 ! A15   A(2,3,14)             112.2715         estimate D2E/DX2                !
 ! A16   A(12,3,13)            106.6099         estimate D2E/DX2                !
 ! A17   A(12,3,14)            106.3956         estimate D2E/DX2                !
 ! A18   A(13,3,14)            108.5935         estimate D2E/DX2                !
 ! A19   A(2,4,15)             111.5151         estimate D2E/DX2                !
 ! A20   A(2,4,16)             111.3656         estimate D2E/DX2                !
 ! A21   A(2,4,17)             111.4705         estimate D2E/DX2                !
 ! A22   A(15,4,16)            107.244          estimate D2E/DX2                !
 ! A23   A(15,4,17)            107.8264         estimate D2E/DX2                !
 ! A24   A(16,4,17)            107.1925         estimate D2E/DX2                !
 ! A25   A(2,5,6)              115.8359         estimate D2E/DX2                !
 ! A26   A(2,5,18)             109.8675         estimate D2E/DX2                !
 ! A27   A(2,5,19)             111.1581         estimate D2E/DX2                !
 ! A28   A(6,5,18)             107.1511         estimate D2E/DX2                !
 ! A29   A(6,5,19)             108.8895         estimate D2E/DX2                !
 ! A30   A(18,5,19)            103.1058         estimate D2E/DX2                !
 ! A31   A(5,6,7)              113.7087         estimate D2E/DX2                !
 ! A32   A(5,6,20)             111.1848         estimate D2E/DX2                !
 ! A33   A(5,6,21)             108.1189         estimate D2E/DX2                !
 ! A34   A(7,6,20)             109.2981         estimate D2E/DX2                !
 ! A35   A(7,6,21)             107.64           estimate D2E/DX2                !
 ! A36   A(20,6,21)            106.5753         estimate D2E/DX2                !
 ! A37   A(6,7,22)             105.0587         estimate D2E/DX2                !
 ! A38   A(14,8,22)             53.3046         estimate D2E/DX2                !
 ! A39   A(3,14,8)             142.9842         estimate D2E/DX2                !
 ! A40   L(7,22,8,2,-1)        179.9971         estimate D2E/DX2                !
 ! A41   L(7,22,8,2,-2)        179.9988         estimate D2E/DX2                !
 ! D1    D(9,1,2,3)            -60.9165         estimate D2E/DX2                !
 ! D2    D(9,1,2,4)           -177.1098         estimate D2E/DX2                !
 ! D3    D(9,1,2,5)             65.151          estimate D2E/DX2                !
 ! D4    D(10,1,2,3)           179.066          estimate D2E/DX2                !
 ! D5    D(10,1,2,4)            62.8727         estimate D2E/DX2                !
 ! D6    D(10,1,2,5)           -54.8665         estimate D2E/DX2                !
 ! D7    D(11,1,2,3)            58.8762         estimate D2E/DX2                !
 ! D8    D(11,1,2,4)           -57.3171         estimate D2E/DX2                !
 ! D9    D(11,1,2,5)          -175.0563         estimate D2E/DX2                !
 ! D10   D(1,2,3,12)           -56.171          estimate D2E/DX2                !
 ! D11   D(1,2,3,13)          -174.9844         estimate D2E/DX2                !
 ! D12   D(1,2,3,14)            62.7163         estimate D2E/DX2                !
 ! D13   D(4,2,3,12)            59.8851         estimate D2E/DX2                !
 ! D14   D(4,2,3,13)           -58.9283         estimate D2E/DX2                !
 ! D15   D(4,2,3,14)           178.7724         estimate D2E/DX2                !
 ! D16   D(5,2,3,12)          -179.0212         estimate D2E/DX2                !
 ! D17   D(5,2,3,13)            62.1654         estimate D2E/DX2                !
 ! D18   D(5,2,3,14)           -60.1338         estimate D2E/DX2                !
 ! D19   D(1,2,4,15)           179.6678         estimate D2E/DX2                !
 ! D20   D(1,2,4,16)            59.9071         estimate D2E/DX2                !
 ! D21   D(1,2,4,17)           -59.7581         estimate D2E/DX2                !
 ! D22   D(3,2,4,15)            62.4241         estimate D2E/DX2                !
 ! D23   D(3,2,4,16)           -57.3366         estimate D2E/DX2                !
 ! D24   D(3,2,4,17)          -177.0018         estimate D2E/DX2                !
 ! D25   D(5,2,4,15)           -62.3107         estimate D2E/DX2                !
 ! D26   D(5,2,4,16)           177.9286         estimate D2E/DX2                !
 ! D27   D(5,2,4,17)            58.2634         estimate D2E/DX2                !
 ! D28   D(1,2,5,6)           -163.0586         estimate D2E/DX2                !
 ! D29   D(1,2,5,18)            75.3848         estimate D2E/DX2                !
 ! D30   D(1,2,5,19)           -38.0923         estimate D2E/DX2                !
 ! D31   D(3,2,5,6)            -40.262          estimate D2E/DX2                !
 ! D32   D(3,2,5,18)          -161.8186         estimate D2E/DX2                !
 ! D33   D(3,2,5,19)            84.7043         estimate D2E/DX2                !
 ! D34   D(4,2,5,6)             80.1357         estimate D2E/DX2                !
 ! D35   D(4,2,5,18)           -41.4208         estimate D2E/DX2                !
 ! D36   D(4,2,5,19)          -154.8979         estimate D2E/DX2                !
 ! D37   D(2,3,14,8)             4.5275         estimate D2E/DX2                !
 ! D38   D(12,3,14,8)          126.0397         estimate D2E/DX2                !
 ! D39   D(13,3,14,8)         -119.5441         estimate D2E/DX2                !
 ! D40   D(2,5,6,7)             79.7801         estimate D2E/DX2                !
 ! D41   D(2,5,6,20)           -44.0898         estimate D2E/DX2                !
 ! D42   D(2,5,6,21)          -160.7522         estimate D2E/DX2                !
 ! D43   D(18,5,6,7)          -157.2234         estimate D2E/DX2                !
 ! D44   D(18,5,6,20)           78.9068         estimate D2E/DX2                !
 ! D45   D(18,5,6,21)          -37.7556         estimate D2E/DX2                !
 ! D46   D(19,5,6,7)           -46.3435         estimate D2E/DX2                !
 ! D47   D(19,5,6,20)         -170.2134         estimate D2E/DX2                !
 ! D48   D(19,5,6,21)           73.1242         estimate D2E/DX2                !
 ! D49   D(5,6,7,22)             9.0599         estimate D2E/DX2                !
 ! D50   D(20,6,7,22)          133.9468         estimate D2E/DX2                !
 ! D51   D(21,6,7,22)         -110.6797         estimate D2E/DX2                !
 ! D52   D(6,7,8,14)           -76.3025         estimate D2E/DX2                !
 ! D53   D(22,8,14,3)           73.8135         estimate D2E/DX2                !
 --------------------------------------------------------------------------------
 Trust Radius=3.00D-01 FncErr=1.00D-07 GrdErr=1.00D-06 EigMax=2.50D+02 EigMin=1.00D-04
 Number of steps in this run=    126 maximum allowed number of steps=    132.
 GradGradGradGradGradGradGradGradGradGradGradGradGradGradGradGradGradGrad

 Leave Link  103 at Sat Aug 21 09:33:13 2021, MaxMem=   104857600 cpu:               0.3 elap:               0.0
 (Enter /sw/arch/RedHatEnterpriseServer7/EB_production/2020/software/Gaussian/g16.c01/l202.exe)
                          Input orientation:                          
 ---------------------------------------------------------------------
 Center     Atomic      Atomic             Coordinates (Angstroms)
 Number     Number       Type             X           Y           Z
 ---------------------------------------------------------------------
      1          6           0        1.728253   -0.263152   -2.104145
      2          7           0        1.441186   -0.009212   -0.671412
      3          6           0        2.721006    0.201398    0.050755
      4          6           0        0.814412   -1.240010   -0.121279
      5          6           0        0.463572    1.123000   -0.557027
      6          6           0        0.360170    1.794313    0.851287
      7          8           0        1.395446    2.715517    1.118180
      8         17           0        3.092605    3.093841   -1.939392
      9          1           0        2.246246    0.596423   -2.572928
     10          1           0        0.788731   -0.442586   -2.674294
     11          1           0        2.382325   -1.154837   -2.235589
     12          1           0        3.404498   -0.666340   -0.090171
     13          1           0        2.563408    0.307054    1.145567
     14          1           0        3.264095    1.086781   -0.312607
     15          1           0        0.574178   -1.127622    0.957744
     16          1           0        1.491820   -2.118825   -0.218957
     17          1           0       -0.129358   -1.490853   -0.656299
     18          1           0       -0.558012    0.770192   -0.828716
     19          1           0        0.668994    1.908582   -1.315884
     20          1           0        0.330414    1.033380    1.656466
     21          1           0       -0.602642    2.346205    0.901077
     22          1           0        1.870255    2.821386    0.262822
 ---------------------------------------------------------------------
                    Distance matrix (angstroms):
                    1          2          3          4          5
     1  C    0.000000
     2  N    1.483111   0.000000
     3  C    2.417635   1.484527   0.000000
     4  C    2.391885   1.486726   2.396321   0.000000
     5  C    2.431956   1.500239   2.512918   2.428329   0.000000
     6  C    3.852193   2.596134   2.958340   3.218592   1.563554
     7  O    4.400751   3.260196   3.036001   4.185696   2.492151
     8  Cl   3.627396   3.736830   3.530580   5.222831   3.564683
     9  H    1.107675   2.151901   2.695395   3.381304   2.742092
    10  H    1.113539   2.150592   3.402101   2.674777   2.653226
    11  H    1.113638   2.155191   2.679822   2.633612   3.418731
    12  H    2.651122   2.150407   1.113549   2.653038   3.474009
    13  H    3.403417   2.158893   1.111132   2.656557   2.823810
    14  H    2.718591   2.157067   1.100400   3.384008   2.811402
    15  H    3.384429   2.157937   2.682870   1.111141   2.715155
    16  H    2.655816   2.158181   2.639522   1.113884   3.417750
    17  H    2.655979   2.159189   3.389427   1.113495   2.682098
    18  H    2.814521   2.151513   3.442231   2.534744   1.114416
    19  H    2.541616   2.165539   2.998822   3.370736   1.111396
    20  H    4.216295   2.782055   2.997571   2.926249   2.219305
    21  H    4.612285   3.492555   4.045971   3.989260   2.181538
    22  H    3.890639   3.011508   2.762804   4.213938   2.352748
                    6          7          8          9         10
     6  C    0.000000
     7  O    1.411257   0.000000
     8  Cl   4.116171   3.517417   0.000000
     9  H    4.088700   4.340357   2.711971   0.000000
    10  H    4.197273   4.972381   4.284184   1.792809   0.000000
    11  H    4.723918   5.215490   4.317811   1.788638   1.799807
    12  H    4.026051   4.115016   4.201887   3.016654   3.683747
    13  H    2.674471   2.676860   4.190848   3.743198   4.278174
    14  H    3.207496   2.862129   2.589233   2.526958   3.747527
    15  H    2.931695   3.933184   5.705841   4.270104   3.702298
    16  H    4.211734   5.016780   5.717893   3.671908   3.054962
    17  H    3.647570   4.813248   5.748634   3.697794   2.452357
    18  H    2.171242   3.375010   4.467656   3.307013   2.586640
    19  H    2.192045   2.665247   2.769024   2.406168   2.718015
    20  H    1.108250   2.062433   4.980501   4.663595   4.598262
    21  H    1.110887   2.043497   4.720389   4.821474   4.743053
    22  H    1.918730   0.984017   2.533400   3.623991   4.522152
                   11         12         13         14         15
    11  H    0.000000
    12  H    2.426167   0.000000
    13  H    3.688107   1.783810   0.000000
    14  H    3.082244   1.772745   1.795886   0.000000
    15  H    3.669811   3.053133   2.459799   3.708507   0.000000
    16  H    2.406050   2.405127   2.982468   3.664101   1.791417
    17  H    2.985903   3.672664   3.705426   4.275260   1.797786
    18  H    3.785579   4.279084   3.722305   3.869767   2.841653
    19  H    3.628484   3.951655   3.494630   2.901115   3.794326
    20  H    4.913932   3.922981   2.403087   3.533636   2.284199
    21  H    5.568303   5.110300   3.773829   4.243917   3.668186
    22  H    4.723836   3.826583   2.753464   2.298426   4.213953
                   16         17         18         19         20
    16  H    0.000000
    17  H    1.792717   0.000000
    18  H    3.594445   2.307769   0.000000
    19  H    4.254445   3.553671   1.743218   0.000000
    20  H    3.847398   3.454276   2.652301   3.116966   0.000000
    21  H    5.057444   4.168025   2.340511   2.592969   1.778965
    22  H    4.978053   4.841347   3.360853   2.183701   2.740496
                   21         22
    21  H    0.000000
    22  H    2.597766   0.000000
 Stoichiometry    C5H14ClNO
 Framework group  C1[X(C5H14ClNO)]
 Deg. of freedom    60
 Full point group                 C1      NOp   1
 Largest Abelian subgroup         C1      NOp   1
 Largest concise Abelian subgroup C1      NOp   1
                         Standard orientation:                         
 ---------------------------------------------------------------------
 Center     Atomic      Atomic             Coordinates (Angstroms)
 Number     Number       Type             X           Y           Z
 ---------------------------------------------------------------------
      1          6           0       -0.738441   -1.860120   -0.505543
      2          7           0       -1.076960   -0.513875    0.016614
      3          6           0       -0.547946   -0.380983    1.397304
      4          6           0       -2.559234   -0.430240    0.095518
      5          6           0       -0.585172    0.526769   -0.945634
      6          6           0       -0.482071    1.981547   -0.381991
      7          8           0        0.675625    2.209397    0.392264
      8         17           0        2.656165   -0.662264   -0.058564
      9          1           0        0.357419   -2.016752   -0.544275
     10          1           0       -1.135891   -2.000589   -1.536208
     11          1           0       -1.164660   -2.663933    0.136650
     12          1           0       -0.938073   -1.192566    2.052380
     13          1           0       -0.854110    0.579371    1.864849
     14          1           0        0.549465   -0.454103    1.432279
     15          1           0       -2.891533    0.555196    0.486832
     16          1           0       -2.974298   -1.211358    0.772507
     17          1           0       -3.029440   -0.576589   -0.903160
     18          1           0       -1.254442    0.565901   -1.835841
     19          1           0        0.396246    0.239046   -1.380645
     20          1           0       -1.378763    2.244727    0.213741
     21          1           0       -0.455546    2.684189   -1.242026
     22          1           0        1.229722    1.406052    0.266160
 ---------------------------------------------------------------------
 Rotational constants (GHZ):           1.7447232           1.0894568           0.8048371
 Leave Link  202 at Sat Aug 21 09:33:14 2021, MaxMem=   104857600 cpu:               0.5 elap:               0.1
 (Enter /sw/arch/RedHatEnterpriseServer7/EB_production/2020/software/Gaussian/g16.c01/l301.exe)
 Standard basis: TZVP (5D, 7F)
 Ernie: Thresh=  0.10000D-02 Tol=  0.10000D-05 Strict=F.
 There are   247 symmetry adapted cartesian basis functions of A   symmetry.
 There are   239 symmetry adapted basis functions of A   symmetry.
   239 basis functions,   404 primitive gaussians,   247 cartesian basis functions
    38 alpha electrons       38 beta electrons
       nuclear repulsion energy       498.0161490004 Hartrees.
 IExCor=  404 DFT=T Ex=B Corr=P86 ExCW=0 ScaHFX=  0.000000
 ScaDFX=  1.000000  1.000000  1.000000  1.000000 ScalE2=  1.000000  1.000000
 IRadAn=      5 IRanWt=     -1 IRanGd=            0 ICorTp=0 IEmpDi=131
 NAtoms=   22 NActive=   22 NUniq=   22 SFac= 1.00D+00 NAtFMM=   60 NAOKFM=F Big=F
 Integral buffers will be    131072 words long.
 Raffenetti 2 integral format.
 Two-electron integral symmetry is turned on.
 R6Disp:  Grimme-D3 Dispersion energy=       -0.0282332632 Hartrees.
 Nuclear repulsion after empirical dispersion term =      497.9879157372 Hartrees.
 ------------------------------------------------------------------------------
 Polarizable Continuum Model (PCM)
 =================================
 Model                : PCM.
 Atomic radii         : UFF (Universal Force Field).
 Polarization charges : Total charges.
 Charge compensation  : None.
 Solution method      : On-the-fly selection.
 Cavity type          : Scaled VdW (van der Waals Surface) (Alpha=1.100).
 Cavity algorithm     : GePol (No added spheres)
                        Default sphere list used, NSphG=   22.
                        Lebedev-Laikov grids with approx.  5.0 points / Ang**2.
                        Smoothing algorithm: York/Karplus (Gamma=1.0000).
                        Polarization charges: spherical gaussians, with
                                              point-specific exponents (IZeta= 3).
                        Self-potential: point-specific (ISelfS= 7).
                        Self-field    : sphere-specific E.n sum rule (ISelfD= 2).
 1st derivatives      : Analytical E(r).r(x)/FMM algorithm (CHGder, D1EAlg=3).
                        Cavity 1st derivative terms included.
 Solvent              : Water, Eps=  78.355300 Eps(inf)=   1.777849
 ------------------------------------------------------------------------------
 GePol: Number of generator spheres                  =      22
 GePol: Total number of spheres                      =      22
 GePol: Number of exposed spheres                    =      22 (100.00%)
 GePol: Number of points                             =    1485
 GePol: Average weight of points                     =       0.14
 GePol: Minimum weight of points                     =   0.52D-10
 GePol: Maximum weight of points                     =    0.21616
 GePol: Number of points with low weight             =      78
 GePol: Fraction of low-weight points (<1% of avg)   =       5.25%
 GePol: Cavity surface area                          =    209.442 Ang**2
 GePol: Cavity volume                                =    219.067 Ang**3
 Leave Link  301 at Sat Aug 21 09:33:14 2021, MaxMem=   104857600 cpu:               1.4 elap:               0.1
 (Enter /sw/arch/RedHatEnterpriseServer7/EB_production/2020/software/Gaussian/g16.c01/l302.exe)
 NPDir=0 NMtPBC=     1 NCelOv=     1 NCel=       1 NClECP=     1 NCelD=      1
         NCelK=      1 NCelE2=     1 NClLst=     1 CellRange=     0.0.
 One-electron integrals computed using PRISM.
 One-electron integral symmetry used in STVInt
 NBasis=   239 RedAO= T EigKep=  2.92D-04  NBF=   239
 NBsUse=   239 1.00D-06 EigRej= -1.00D+00 NBFU=   239
 Precomputing XC quadrature grid using
 IXCGrd= 4 IRadAn=           5 IRanWt=          -1 IRanGd=           0 AccXCQ= 0.00D+00.
 Generated NRdTot=       0 NPtTot=           0 NUsed=           0 NTot=          32
 NSgBfM=   246   246   246   246   246 MxSgAt=    22 MxSgA2=    22.
 Leave Link  302 at Sat Aug 21 09:33:15 2021, MaxMem=   104857600 cpu:               5.9 elap:               0.3
 (Enter /sw/arch/RedHatEnterpriseServer7/EB_production/2020/software/Gaussian/g16.c01/l303.exe)
 DipDrv:  MaxL=1.
 Leave Link  303 at Sat Aug 21 09:33:15 2021, MaxMem=   104857600 cpu:               1.4 elap:               0.1
 (Enter /sw/arch/RedHatEnterpriseServer7/EB_production/2020/software/Gaussian/g16.c01/l401.exe)
 ExpMin= 9.52D-02 ExpMax= 6.95D+04 ExpMxC= 2.37D+03 IAcc=3 IRadAn=         5 AccDes= 0.00D+00
 Harris functional with IExCor=  404 and IRadAn=       5 diagonalized for initial guess.
 HarFok:  IExCor=  404 AccDes= 0.00D+00 IRadAn=         5 IDoV= 1 UseB2=F ITyADJ=14
 ICtDFT=  3500011 ScaDFX=  1.000000  1.000000  1.000000  1.000000
 FoFCou: FMM=F IPFlag=           0 FMFlag=      100000 FMFlg1=           0
         NFxFlg=           0 DoJE=T BraDBF=F KetDBF=T FulRan=T
         wScrn=  0.000000 ICntrl=       500 IOpCl=  0 I1Cent=   200000004 NGrid=           0
         NMat0=    1 NMatS0=      1 NMatT0=    0 NMatD0=    1 NMtDS0=    0 NMtDT0=    0
 Petite list used in FoFCou.
 Harris En= -789.379019449707    
 JPrj=0 DoOrth=F DoCkMO=F.
 Leave Link  401 at Sat Aug 21 09:33:16 2021, MaxMem=   104857600 cpu:              13.2 elap:               0.6
 (Enter /sw/arch/RedHatEnterpriseServer7/EB_production/2020/software/Gaussian/g16.c01/l502.exe)
 Integral symmetry usage will be decided dynamically.
 Closed shell SCF:
 Using DIIS extrapolation, IDIIS=  1040.
 NGot=   104857600 LenX=   104726450 LenY=   104665000
 Requested convergence on RMS density matrix=1.00D-08 within 128 cycles.
 Requested convergence on MAX density matrix=1.00D-06.
 Requested convergence on             energy=1.00D-06.
 No special actions if energy rises.
 Fock matrices will be formed incrementally for  20 cycles.

 Cycle   1  Pass 1  IDiag  1:
 FoFJK:  IHMeth= 1 ICntrl=     500 DoSepK=F KAlg= 0 I1Cent=           0 FoldK=F
 IRaf= 950000000 NMat=       1 IRICut=       1 DoRegI=T DoRafI=F ISym2E= 0 IDoP0=0 IntGTp=1.
 FoFCou: FMM=F IPFlag=           0 FMFlag=      100000 FMFlg1=           0
         NFxFlg=           0 DoJE=T BraDBF=F KetDBF=F FulRan=T
         wScrn=  0.000000 ICntrl=       500 IOpCl=  0 I1Cent=           0 NGrid=           0
         NMat0=    1 NMatS0=      1 NMatT0=    0 NMatD0=    1 NMtDS0=    0 NMtDT0=    0
 Symmetry not used in FoFCou.
 Inv3:  Mode=1 IEnd=     6615675.
 Iteration    1 A*A^-1 deviation from unit magnitude is 3.66D-15 for    185.
 Iteration    1 A*A^-1 deviation from orthogonality  is 1.37D-15 for   1055    745.
 Iteration    1 A^-1*A deviation from unit magnitude is 3.89D-15 for    185.
 Iteration    1 A^-1*A deviation from orthogonality  is 2.10D-15 for   1042    736.
 E= -789.142943984697    
 DIIS: error= 2.64D-02 at cycle   1 NSaved=   1.
 NSaved= 1 IEnMin= 1 EnMin= -789.142943984697     IErMin= 1 ErrMin= 2.64D-02
 ErrMax= 2.64D-02  0.00D+00 EMaxC= 1.00D-01 BMatC= 2.18D-01 BMatP= 2.18D-01
 IDIUse=3 WtCom= 7.36D-01 WtEn= 2.64D-01
 Coeff-Com:  0.100D+01
 Coeff-En:   0.100D+01
 Coeff:      0.100D+01
 Gap=     0.195 Goal=   None    Shift=    0.000
 GapD=    0.195 DampG=1.000 DampE=0.500 DampFc=0.5000 IDamp=-1.
 Damping current iteration by 5.00D-01
 RMSDP=4.55D-03 MaxDP=1.28D-01              OVMax= 2.00D-01

 Cycle   2  Pass 1  IDiag  1:
 RMSU=  2.27D-03    CP:  9.93D-01
 E= -789.191766336730     Delta-E=       -0.048822352033 Rises=F Damp=T
 DIIS: error= 1.26D-02 at cycle   2 NSaved=   2.
 NSaved= 2 IEnMin= 2 EnMin= -789.191766336730     IErMin= 2 ErrMin= 1.26D-02
 ErrMax= 1.26D-02  0.00D+00 EMaxC= 1.00D-01 BMatC= 3.88D-02 BMatP= 2.18D-01
 IDIUse=3 WtCom= 8.74D-01 WtEn= 1.26D-01
 Coeff-Com:  0.243D+00 0.757D+00
 Coeff-En:   0.362D+00 0.638D+00
 Coeff:      0.258D+00 0.742D+00
 Gap=     0.255 Goal=   None    Shift=    0.000
 RMSDP=1.11D-03 MaxDP=2.27D-02 DE=-4.88D-02 OVMax= 1.42D-01

 Cycle   3  Pass 1  IDiag  1:
 RMSU=  9.53D-04    CP:  9.93D-01  7.54D-01
 E= -789.319161453894     Delta-E=       -0.127395117164 Rises=F Damp=F
 DIIS: error= 6.63D-03 at cycle   3 NSaved=   3.
 NSaved= 3 IEnMin= 3 EnMin= -789.319161453894     IErMin= 3 ErrMin= 6.63D-03
 ErrMax= 6.63D-03  0.00D+00 EMaxC= 1.00D-01 BMatC= 1.10D-02 BMatP= 3.88D-02
 IDIUse=3 WtCom= 9.34D-01 WtEn= 6.63D-02
 Coeff-Com:  0.729D-01 0.337D+00 0.590D+00
 Coeff-En:   0.000D+00 0.000D+00 0.100D+01
 Coeff:      0.681D-01 0.314D+00 0.618D+00
 Gap=     0.217 Goal=   None    Shift=    0.000
 RMSDP=5.75D-04 MaxDP=1.84D-02 DE=-1.27D-01 OVMax= 2.57D-02

 Cycle   4  Pass 1  IDiag  1:
 RMSU=  3.90D-04    CP:  9.97D-01  7.48D-01  5.60D-01
 E= -789.324404066383     Delta-E=       -0.005242612489 Rises=F Damp=F
 DIIS: error= 4.27D-03 at cycle   4 NSaved=   4.
 NSaved= 4 IEnMin= 4 EnMin= -789.324404066383     IErMin= 4 ErrMin= 4.27D-03
 ErrMax= 4.27D-03  0.00D+00 EMaxC= 1.00D-01 BMatC= 4.65D-03 BMatP= 1.10D-02
 IDIUse=3 WtCom= 9.57D-01 WtEn= 4.27D-02
 Coeff-Com:  0.195D-01 0.959D-01 0.394D+00 0.491D+00
 Coeff-En:   0.000D+00 0.000D+00 0.324D+00 0.676D+00
 Coeff:      0.187D-01 0.918D-01 0.391D+00 0.499D+00
 Gap=     0.215 Goal=   None    Shift=    0.000
 RMSDP=2.72D-04 MaxDP=6.45D-03 DE=-5.24D-03 OVMax= 1.11D-02

 Cycle   5  Pass 1  IDiag  1:
 RMSU=  1.27D-04    CP:  9.95D-01  7.26D-01  6.83D-01  4.83D-01
 E= -789.328200584396     Delta-E=       -0.003796518013 Rises=F Damp=F
 DIIS: error= 5.62D-04 at cycle   5 NSaved=   5.
 NSaved= 5 IEnMin= 5 EnMin= -789.328200584396     IErMin= 5 ErrMin= 5.62D-04
 ErrMax= 5.62D-04  0.00D+00 EMaxC= 1.00D-01 BMatC= 9.27D-05 BMatP= 4.65D-03
 IDIUse=3 WtCom= 9.94D-01 WtEn= 5.62D-03
 Coeff-Com:  0.516D-02 0.238D-01 0.138D+00 0.222D+00 0.611D+00
 Coeff-En:   0.000D+00 0.000D+00 0.000D+00 0.000D+00 0.100D+01
 Coeff:      0.513D-02 0.236D-01 0.137D+00 0.221D+00 0.614D+00
 Gap=     0.213 Goal=   None    Shift=    0.000
 RMSDP=5.95D-05 MaxDP=2.24D-03 DE=-3.80D-03 OVMax= 1.58D-03

 Cycle   6  Pass 1  IDiag  1:
 RMSU=  2.85D-05    CP:  9.95D-01  7.36D-01  6.94D-01  5.13D-01  6.61D-01
 E= -789.328267477754     Delta-E=       -0.000066893358 Rises=F Damp=F
 DIIS: error= 2.90D-04 at cycle   6 NSaved=   6.
 NSaved= 6 IEnMin= 6 EnMin= -789.328267477754     IErMin= 6 ErrMin= 2.90D-04
 ErrMax= 2.90D-04  0.00D+00 EMaxC= 1.00D-01 BMatC= 1.17D-05 BMatP= 9.27D-05
 IDIUse=3 WtCom= 9.97D-01 WtEn= 2.90D-03
 Coeff-Com:  0.149D-02 0.737D-02 0.559D-01 0.986D-01 0.356D+00 0.481D+00
 Coeff-En:   0.000D+00 0.000D+00 0.000D+00 0.000D+00 0.450D-02 0.995D+00
 Coeff:      0.148D-02 0.735D-02 0.557D-01 0.983D-01 0.355D+00 0.482D+00
 Gap=     0.214 Goal=   None    Shift=    0.000
 RMSDP=1.76D-05 MaxDP=8.30D-04 DE=-6.69D-05 OVMax= 7.63D-04

 Cycle   7  Pass 1  IDiag  1:
 RMSU=  8.00D-06    CP:  9.95D-01  7.34D-01  6.91D-01  5.28D-01  6.63D-01
                    CP:  5.48D-01
 E= -789.328276793492     Delta-E=       -0.000009315738 Rises=F Damp=F
 DIIS: error= 4.91D-05 at cycle   7 NSaved=   7.
 NSaved= 7 IEnMin= 7 EnMin= -789.328276793492     IErMin= 7 ErrMin= 4.91D-05
 ErrMax= 4.91D-05  0.00D+00 EMaxC= 1.00D-01 BMatC= 6.42D-07 BMatP= 1.17D-05
 IDIUse=1 WtCom= 1.00D+00 WtEn= 0.00D+00
 Coeff-Com:  0.402D-03 0.213D-02 0.195D-01 0.348D-01 0.137D+00 0.260D+00
 Coeff-Com:  0.546D+00
 Coeff:      0.402D-03 0.213D-02 0.195D-01 0.348D-01 0.137D+00 0.260D+00
 Coeff:      0.546D+00
 Gap=     0.214 Goal=   None    Shift=    0.000
 RMSDP=4.09D-06 MaxDP=1.44D-04 DE=-9.32D-06 OVMax= 1.45D-04

 Cycle   8  Pass 1  IDiag  1:
 RMSU=  2.40D-06    CP:  9.95D-01  7.33D-01  6.90D-01  5.27D-01  6.83D-01
                    CP:  5.33D-01  7.92D-01
 E= -789.328277238596     Delta-E=       -0.000000445104 Rises=F Damp=F
 DIIS: error= 2.66D-05 at cycle   8 NSaved=   8.
 NSaved= 8 IEnMin= 8 EnMin= -789.328277238596     IErMin= 8 ErrMin= 2.66D-05
 ErrMax= 2.66D-05  0.00D+00 EMaxC= 1.00D-01 BMatC= 9.22D-08 BMatP= 6.42D-07
 IDIUse=1 WtCom= 1.00D+00 WtEn= 0.00D+00
 Coeff-Com:  0.658D-04 0.351D-03 0.403D-02 0.719D-02 0.343D-01 0.985D-01
 Coeff-Com:  0.339D+00 0.517D+00
 Coeff:      0.658D-04 0.351D-03 0.403D-02 0.719D-02 0.343D-01 0.985D-01
 Coeff:      0.339D+00 0.517D+00
 Gap=     0.214 Goal=   None    Shift=    0.000
 RMSDP=1.79D-06 MaxDP=8.38D-05 DE=-4.45D-07 OVMax= 9.43D-05

 Cycle   9  Pass 1  IDiag  1:
 RMSU=  6.91D-07    CP:  9.95D-01  7.34D-01  6.91D-01  5.26D-01  6.81D-01
                    CP:  5.63D-01  7.63D-01  5.87D-01
 E= -789.328277330965     Delta-E=       -0.000000092370 Rises=F Damp=F
 DIIS: error= 2.92D-06 at cycle   9 NSaved=   9.
 NSaved= 9 IEnMin= 9 EnMin= -789.328277330965     IErMin= 9 ErrMin= 2.92D-06
 ErrMax= 2.92D-06  0.00D+00 EMaxC= 1.00D-01 BMatC= 1.91D-09 BMatP= 9.22D-08
 IDIUse=1 WtCom= 1.00D+00 WtEn= 0.00D+00
 Coeff-Com:  0.867D-05 0.248D-04 0.680D-03 0.120D-02 0.675D-02 0.245D-01
 Coeff-Com:  0.105D+00 0.213D+00 0.649D+00
 Coeff:      0.867D-05 0.248D-04 0.680D-03 0.120D-02 0.675D-02 0.245D-01
 Coeff:      0.105D+00 0.213D+00 0.649D+00
 Gap=     0.214 Goal=   None    Shift=    0.000
 RMSDP=2.85D-07 MaxDP=6.30D-06 DE=-9.24D-08 OVMax= 9.06D-06

 Cycle  10  Pass 1  IDiag  1:
 RMSU=  1.34D-07    CP:  9.95D-01  7.34D-01  6.91D-01  5.26D-01  6.81D-01
                    CP:  5.64D-01  7.81D-01  6.00D-01  7.34D-01
 E= -789.328277332696     Delta-E=       -0.000000001731 Rises=F Damp=F
 DIIS: error= 7.14D-07 at cycle  10 NSaved=  10.
 NSaved=10 IEnMin=10 EnMin= -789.328277332696     IErMin=10 ErrMin= 7.14D-07
 ErrMax= 7.14D-07  0.00D+00 EMaxC= 1.00D-01 BMatC= 1.86D-10 BMatP= 1.91D-09
 IDIUse=1 WtCom= 1.00D+00 WtEn= 0.00D+00
 Coeff-Com:  0.905D-06-0.868D-05 0.852D-04 0.157D-03 0.107D-02 0.468D-02
 Coeff-Com:  0.266D-01 0.683D-01 0.295D+00 0.604D+00
 Coeff:      0.905D-06-0.868D-05 0.852D-04 0.157D-03 0.107D-02 0.468D-02
 Coeff:      0.266D-01 0.683D-01 0.295D+00 0.604D+00
 Gap=     0.214 Goal=   None    Shift=    0.000
 RMSDP=7.64D-08 MaxDP=2.54D-06 DE=-1.73D-09 OVMax= 3.12D-06

 Cycle  11  Pass 1  IDiag  1:
 RMSU=  4.63D-08    CP:  9.95D-01  7.34D-01  6.91D-01  5.26D-01  6.81D-01
                    CP:  5.63D-01  7.83D-01  6.08D-01  7.46D-01  8.06D-01
 E= -789.328277332851     Delta-E=       -0.000000000156 Rises=F Damp=F
 DIIS: error= 3.02D-07 at cycle  11 NSaved=  11.
 NSaved=11 IEnMin=11 EnMin= -789.328277332851     IErMin=11 ErrMin= 3.02D-07
 ErrMax= 3.02D-07  0.00D+00 EMaxC= 1.00D-01 BMatC= 3.07D-11 BMatP= 1.86D-10
 IDIUse=1 WtCom= 1.00D+00 WtEn= 0.00D+00
 Coeff-Com:  0.340D-07-0.737D-05-0.297D-04-0.495D-04-0.169D-03-0.150D-03
 Coeff-Com:  0.364D-02 0.165D-01 0.922D-01 0.335D+00 0.553D+00
 Coeff:      0.340D-07-0.737D-05-0.297D-04-0.495D-04-0.169D-03-0.150D-03
 Coeff:      0.364D-02 0.165D-01 0.922D-01 0.335D+00 0.553D+00
 Gap=     0.214 Goal=   None    Shift=    0.000
 RMSDP=2.87D-08 MaxDP=7.50D-07 DE=-1.56D-10 OVMax= 9.51D-07

 Cycle  12  Pass 1  IDiag  1:
 RMSU=  1.06D-08    CP:  9.95D-01  7.34D-01  6.91D-01  5.26D-01  6.81D-01
                    CP:  5.63D-01  7.82D-01  6.10D-01  7.63D-01  8.25D-01
                    CP:  6.33D-01
 E= -789.328277332891     Delta-E=       -0.000000000039 Rises=F Damp=F
 DIIS: error= 3.91D-08 at cycle  12 NSaved=  12.
 NSaved=12 IEnMin=12 EnMin= -789.328277332891     IErMin=12 ErrMin= 3.91D-08
 ErrMax= 3.91D-08  0.00D+00 EMaxC= 1.00D-01 BMatC= 3.03D-13 BMatP= 3.07D-11
 IDIUse=1 WtCom= 1.00D+00 WtEn= 0.00D+00
 Coeff-Com: -0.335D-08-0.242D-05-0.120D-04-0.212D-04-0.866D-04-0.185D-03
 Coeff-Com:  0.518D-03 0.400D-02 0.239D-01 0.101D+00 0.195D+00 0.675D+00
 Coeff:     -0.335D-08-0.242D-05-0.120D-04-0.212D-04-0.866D-04-0.185D-03
 Coeff:      0.518D-03 0.400D-02 0.239D-01 0.101D+00 0.195D+00 0.675D+00
 Gap=     0.214 Goal=   None    Shift=    0.000
 RMSDP=4.85D-09 MaxDP=1.77D-07 DE=-3.91D-11 OVMax= 1.12D-07

 Error on total polarization charges =  0.01478
 SCF Done:  E(RB-P86) =  -789.328277333     A.U. after   12 cycles
            NFock= 12  Conv=0.49D-08     -V/T= 2.0040
 KE= 7.861541032922D+02 PE=-2.855335995704D+03 EE= 7.818656993418D+02
 Leave Link  502 at Sat Aug 21 09:33:31 2021, MaxMem=   104857600 cpu:             362.3 elap:              15.3
 (Enter /sw/arch/RedHatEnterpriseServer7/EB_production/2020/software/Gaussian/g16.c01/l601.exe)
 Copying SCF densities to generalized density rwf, IOpCl= 0 IROHF=0.

 **********************************************************************

            Population analysis using the SCF Density.

 **********************************************************************

 Orbital symmetries:
       Occupied  (A) (A) (A) (A) (A) (A) (A) (A) (A) (A) (A) (A)
                 (A) (A) (A) (A) (A) (A) (A) (A) (A) (A) (A) (A)
                 (A) (A) (A) (A) (A) (A) (A) (A) (A) (A) (A) (A)
                 (A) (A)
       Virtual   (A) (A) (A) (A) (A) (A) (A) (A) (A) (A) (A) (A)
                 (A) (A) (A) (A) (A) (A) (A) (A) (A) (A) (A) (A)
                 (A) (A) (A) (A) (A) (A) (A) (A) (A) (A) (A) (A)
                 (A) (A) (A) (A) (A) (A) (A) (A) (A) (A) (A) (A)
                 (A) (A) (A) (A) (A) (A) (A) (A) (A) (A) (A) (A)
                 (A) (A) (A) (A) (A) (A) (A) (A) (A) (A) (A) (A)
                 (A) (A) (A) (A) (A) (A) (A) (A) (A) (A) (A) (A)
                 (A) (A) (A) (A) (A) (A) (A) (A) (A) (A) (A) (A)
                 (A) (A) (A) (A) (A) (A) (A) (A) (A) (A) (A) (A)
                 (A) (A) (A) (A) (A) (A) (A) (A) (A) (A) (A) (A)
                 (A) (A) (A) (A) (A) (A) (A) (A) (A) (A) (A) (A)
                 (A) (A) (A) (A) (A) (A) (A) (A) (A) (A) (A) (A)
                 (A) (A) (A) (A) (A) (A) (A) (A) (A) (A) (A) (A)
                 (A) (A) (A) (A) (A) (A) (A) (A) (A) (A) (A) (A)
                 (A) (A) (A) (A) (A) (A) (A) (A) (A) (A) (A) (A)
                 (A) (A) (A) (A) (A) (A) (A) (A) (A) (A) (A) (A)
                 (A) (A) (A) (A) (A) (A) (A) (A) (A)
 The electronic state is 1-A.
 Alpha  occ. eigenvalues -- -100.64783 -18.77477 -14.15523  -9.96817  -9.96573
 Alpha  occ. eigenvalues --   -9.96169  -9.95445  -9.95211  -9.08616  -6.90477
 Alpha  occ. eigenvalues --   -6.90414  -6.90411  -0.96818  -0.94732  -0.71612
 Alpha  occ. eigenvalues --   -0.69362  -0.69192  -0.63607  -0.62121  -0.57086
 Alpha  occ. eigenvalues --   -0.50391  -0.49224  -0.48872  -0.44196  -0.42185
 Alpha  occ. eigenvalues --   -0.40525  -0.39956  -0.38597  -0.37398  -0.36296
 Alpha  occ. eigenvalues --   -0.36151  -0.35879  -0.34794  -0.30684  -0.23939
 Alpha  occ. eigenvalues --   -0.21697  -0.21349  -0.21230
 Alpha virt. eigenvalues --    0.00179   0.02279   0.03327   0.03956   0.04331
 Alpha virt. eigenvalues --    0.04881   0.04902   0.06032   0.06853   0.07312
 Alpha virt. eigenvalues --    0.08756   0.09480   0.10533   0.11378   0.11927
 Alpha virt. eigenvalues --    0.12700   0.13249   0.13719   0.15094   0.17328
 Alpha virt. eigenvalues --    0.19010   0.21348   0.22470   0.23810   0.24453
 Alpha virt. eigenvalues --    0.24951   0.26976   0.27172   0.28810   0.30303
 Alpha virt. eigenvalues --    0.30837   0.31017   0.33768   0.34066   0.34974
 Alpha virt. eigenvalues --    0.35970   0.36260   0.37582   0.38645   0.39123
 Alpha virt. eigenvalues --    0.39993   0.40379   0.40708   0.41317   0.41671
 Alpha virt. eigenvalues --    0.42278   0.42707   0.43228   0.44414   0.44944
 Alpha virt. eigenvalues --    0.45215   0.45725   0.46639   0.48826   0.50172
 Alpha virt. eigenvalues --    0.53006   0.55488   0.56633   0.60178   0.62096
 Alpha virt. eigenvalues --    0.64024   0.65557   0.69831   0.71919   0.78983
 Alpha virt. eigenvalues --    0.80245   0.83820   0.84486   0.86686   0.88479
 Alpha virt. eigenvalues --    0.95439   0.99185   1.01485   1.13151   1.14485
 Alpha virt. eigenvalues --    1.15062   1.17122   1.18708   1.19150   1.20386
 Alpha virt. eigenvalues --    1.21333   1.23761   1.25810   1.26234   1.27018
 Alpha virt. eigenvalues --    1.27721   1.28973   1.30944   1.32163   1.32893
 Alpha virt. eigenvalues --    1.34624   1.36729   1.41278   1.42832   1.44606
 Alpha virt. eigenvalues --    1.44781   1.46960   1.49330   1.52043   1.53119
 Alpha virt. eigenvalues --    1.54594   1.57356   1.59062   1.60685   1.62369
 Alpha virt. eigenvalues --    1.63203   1.65681   1.66450   1.67094   1.67719
 Alpha virt. eigenvalues --    1.68335   1.68983   1.70199   1.70511   1.71830
 Alpha virt. eigenvalues --    1.72249   1.73666   1.74187   1.79173   1.81407
 Alpha virt. eigenvalues --    1.82503   1.86264   1.87936   1.89797   1.90496
 Alpha virt. eigenvalues --    1.92199   1.95045   1.98918   2.00496   2.04630
 Alpha virt. eigenvalues --    2.07103   2.13143   2.14541   2.15938   2.17482
 Alpha virt. eigenvalues --    2.20160   2.21974   2.26274   2.27284   2.28133
 Alpha virt. eigenvalues --    2.29477   2.30573   2.30741   2.31585   2.32817
 Alpha virt. eigenvalues --    2.36262   2.37484   2.37605   2.41017   2.41289
 Alpha virt. eigenvalues --    2.43187   2.47575   2.51273   2.52376   2.53336
 Alpha virt. eigenvalues --    2.56228   2.59149   2.60087   2.61764   2.62274
 Alpha virt. eigenvalues --    2.63939   2.66186   2.67607   2.70269   2.74833
 Alpha virt. eigenvalues --    2.77461   2.81673   2.85256   2.86961   2.88237
 Alpha virt. eigenvalues --    2.90635   2.93421   2.97020   3.02231   3.04858
 Alpha virt. eigenvalues --    3.05921   3.10691   3.12056   3.14025   3.17335
 Alpha virt. eigenvalues --    3.20848   3.22132   3.24281   3.27091   3.29531
 Alpha virt. eigenvalues --    3.29848   3.33215   3.33789   3.56823   3.58877
 Alpha virt. eigenvalues --    3.60776   3.89579   4.19294  21.66408  21.76790
 Alpha virt. eigenvalues --   21.78291  21.80762  21.82618  24.17388  31.64137
 Alpha virt. eigenvalues --   43.18424
          Condensed to atoms (all electrons):
               1          2          3          4          5          6
     1  C    5.280534   0.270195  -0.136192  -0.081608  -0.119833   0.016681
     2  N    0.270195   6.469756   0.207366   0.277858   0.125200  -0.000731
     3  C   -0.136192   0.207366   5.395723  -0.114981  -0.077170  -0.022335
     4  C   -0.081608   0.277858  -0.114981   5.171725  -0.092942  -0.016809
     5  C   -0.119833   0.125200  -0.077170  -0.092942   5.663427   0.218738
     6  C    0.016681  -0.000731  -0.022335  -0.016809   0.218738   4.972852
     7  O   -0.003904  -0.026292   0.053761  -0.001835  -0.030736   0.260623
     8  Cl  -0.036942   0.001158  -0.044501  -0.000157  -0.015211  -0.009514
     9  H    0.347587  -0.019554   0.000841   0.009137  -0.011826   0.000366
    10  H    0.374458  -0.015755   0.012392  -0.009063  -0.002384   0.000947
    11  H    0.378562  -0.011976  -0.008769  -0.010531   0.011399  -0.000974
    12  H   -0.013255  -0.013628   0.374775  -0.011082   0.012678  -0.002685
    13  H    0.011598  -0.009158   0.371797  -0.001178  -0.022121   0.010218
    14  H   -0.001011  -0.024698   0.339552   0.009450   0.012009  -0.005240
    15  H    0.012078  -0.019783  -0.012280   0.383816   0.000436  -0.001791
    16  H   -0.012074  -0.014894  -0.004969   0.385561   0.011145   0.000338
    17  H   -0.008768  -0.013124   0.011466   0.386869  -0.013987   0.000357
    18  H   -0.015181  -0.018474   0.014779  -0.011728   0.379004  -0.031959
    19  H    0.004955  -0.021430  -0.011535   0.011091   0.324696  -0.012011
    20  H    0.000545   0.009954  -0.022540   0.006522  -0.078461   0.429550
    21  H   -0.000427   0.001768   0.005399  -0.000476  -0.003116   0.372214
    22  H    0.001707  -0.001618  -0.006432   0.000514   0.004461  -0.063406
               7          8          9         10         11         12
     1  C   -0.003904  -0.036942   0.347587   0.374458   0.378562  -0.013255
     2  N   -0.026292   0.001158  -0.019554  -0.015755  -0.011976  -0.013628
     3  C    0.053761  -0.044501   0.000841   0.012392  -0.008769   0.374775
     4  C   -0.001835  -0.000157   0.009137  -0.009063  -0.010531  -0.011082
     5  C   -0.030736  -0.015211  -0.011826  -0.002384   0.011399   0.012678
     6  C    0.260623  -0.009514   0.000366   0.000947  -0.000974  -0.002685
     7  O    7.945773  -0.019090   0.000556   0.000056   0.000054   0.002572
     8  Cl  -0.019090  17.748642   0.045700   0.000749   0.000755   0.001177
     9  H    0.000556   0.045700   0.487783  -0.016073  -0.016495  -0.000411
    10  H    0.000056   0.000749  -0.016073   0.488305  -0.022431   0.000103
    11  H    0.000054   0.000755  -0.016495  -0.022431   0.488754   0.004951
    12  H    0.002572   0.001177  -0.000411   0.000103   0.004951   0.503891
    13  H   -0.005814   0.001300   0.000237  -0.000409   0.000121  -0.023912
    14  H   -0.004974   0.049601  -0.000460   0.000207  -0.000912  -0.016776
    15  H   -0.000283   0.000002  -0.000420   0.000104   0.000087  -0.000587
    16  H   -0.000018   0.000004   0.000207   0.000069   0.003072   0.002554
    17  H    0.000013   0.000014   0.000076   0.002838  -0.000131   0.000197
    18  H    0.005752   0.001721   0.000868   0.003584   0.000117  -0.000297
    19  H   -0.007954   0.034957   0.002249  -0.002956   0.000459  -0.000867
    20  H   -0.055073  -0.000009  -0.000015  -0.000008  -0.000041  -0.001264
    21  H   -0.051286   0.000115  -0.000037  -0.000052   0.000030   0.000155
    22  H    0.300484   0.058703  -0.001765  -0.000018  -0.000032  -0.000046
              13         14         15         16         17         18
     1  C    0.011598  -0.001011   0.012078  -0.012074  -0.008768  -0.015181
     2  N   -0.009158  -0.024698  -0.019783  -0.014894  -0.013124  -0.018474
     3  C    0.371797   0.339552  -0.012280  -0.004969   0.011466   0.014779
     4  C   -0.001178   0.009450   0.383816   0.385561   0.386869  -0.011728
     5  C   -0.022121   0.012009   0.000436   0.011145  -0.013987   0.379004
     6  C    0.010218  -0.005240  -0.001791   0.000338   0.000357  -0.031959
     7  O   -0.005814  -0.004974  -0.000283  -0.000018   0.000013   0.005752
     8  Cl   0.001300   0.049601   0.000002   0.000004   0.000014   0.001721
     9  H    0.000237  -0.000460  -0.000420   0.000207   0.000076   0.000868
    10  H   -0.000409   0.000207   0.000104   0.000069   0.002838   0.003584
    11  H    0.000121  -0.000912   0.000087   0.003072  -0.000131   0.000117
    12  H   -0.023912  -0.016776  -0.000587   0.002554   0.000197  -0.000297
    13  H    0.479046  -0.014639   0.002794  -0.000894  -0.000017   0.000001
    14  H   -0.014639   0.488340   0.000219   0.000089  -0.000410  -0.000634
    15  H    0.002794   0.000219   0.478124  -0.019554  -0.018648  -0.001132
    16  H   -0.000894   0.000089  -0.019554   0.477210  -0.019513   0.000421
    17  H   -0.000017  -0.000410  -0.018648  -0.019513   0.476963   0.004025
    18  H    0.000001  -0.000634  -0.001132   0.000421   0.004025   0.482109
    19  H    0.000564  -0.003882   0.000085  -0.000300   0.000088  -0.015716
    20  H   -0.000975   0.000686   0.006336   0.000087  -0.000442   0.001365
    21  H    0.000188  -0.000139  -0.000520  -0.000014   0.000069  -0.001191
    22  H   -0.001119   0.000648   0.000005   0.000020  -0.000003   0.001491
              19         20         21         22
     1  C    0.004955   0.000545  -0.000427   0.001707
     2  N   -0.021430   0.009954   0.001768  -0.001618
     3  C   -0.011535  -0.022540   0.005399  -0.006432
     4  C    0.011091   0.006522  -0.000476   0.000514
     5  C    0.324696  -0.078461  -0.003116   0.004461
     6  C   -0.012011   0.429550   0.372214  -0.063406
     7  O   -0.007954  -0.055073  -0.051286   0.300484
     8  Cl   0.034957  -0.000009   0.000115   0.058703
     9  H    0.002249  -0.000015  -0.000037  -0.001765
    10  H   -0.002956  -0.000008  -0.000052  -0.000018
    11  H    0.000459  -0.000041   0.000030  -0.000032
    12  H   -0.000867  -0.001264   0.000155  -0.000046
    13  H    0.000564  -0.000975   0.000188  -0.001119
    14  H   -0.003882   0.000686  -0.000139   0.000648
    15  H    0.000085   0.006336  -0.000520   0.000005
    16  H   -0.000300   0.000087  -0.000014   0.000020
    17  H    0.000088  -0.000442   0.000069  -0.000003
    18  H   -0.015716   0.001365  -0.001191   0.001491
    19  H    0.489673   0.006716  -0.006576   0.001315
    20  H    0.006716   0.587668  -0.045898   0.008593
    21  H   -0.006576  -0.045898   0.574604   0.000859
    22  H    0.001315   0.008593   0.000859   0.445856
 Mulliken charges:
               1
     1  C   -0.269705
     2  N   -0.152140
     3  C   -0.326145
     4  C   -0.290150
     5  C   -0.295406
     6  C   -0.115427
     7  O   -0.362385
     8  Cl  -0.819172
     9  H    0.171452
    10  H    0.185338
    11  H    0.183932
    12  H    0.181756
    13  H    0.202373
    14  H    0.172974
    15  H    0.190913
    16  H    0.191452
    17  H    0.192069
    18  H    0.201074
    19  H    0.206378
    20  H    0.146703
    21  H    0.154332
    22  H    0.249783
 Sum of Mulliken charges =  -0.00000
 Mulliken charges with hydrogens summed into heavy atoms:
               1
     1  C    0.271018
     2  N   -0.152140
     3  C    0.230958
     4  C    0.284284
     5  C    0.112045
     6  C    0.185609
     7  O   -0.112602
     8  Cl  -0.819172
 Electronic spatial extent (au):  <R**2>=           1529.0432
 Charge=             -0.0000 electrons
 Dipole moment (field-independent basis, Debye):
    X=            -16.4964    Y=             -1.5414    Z=             -0.9427  Tot=             16.5951
 Quadrupole moment (field-independent basis, Debye-Ang):
   XX=            -77.5433   YY=            -61.0458   ZZ=            -54.6413
   XY=              6.9065   XZ=              0.2161   YZ=             -3.4238
 Traceless Quadrupole moment (field-independent basis, Debye-Ang):
   XX=            -13.1332   YY=              3.3643   ZZ=              9.7689
   XY=              6.9065   XZ=              0.2161   YZ=             -3.4238
 Octapole moment (field-independent basis, Debye-Ang**2):
  XXX=           -121.8342  YYY=            -18.7637  ZZZ=              0.5218  XYY=            -27.5298
  XXY=             15.3929  XXZ=              2.7314  XZZ=            -12.8953  YZZ=             -0.9323
  YYZ=             -7.7680  XYZ=             -1.2341
 Hexadecapole moment (field-independent basis, Debye-Ang**3):
 XXXX=          -1281.0553 YYYY=           -672.1549 ZZZZ=           -236.5760 XXXY=             79.1871
 XXXZ=              5.4531 YYYX=              3.0172 YYYZ=            -17.5950 ZZZX=              4.6048
 ZZZY=             -4.0832 XXYY=           -306.8853 XXZZ=           -225.1711 YYZZ=           -145.3164
 XXYZ=             -0.4923 YYXZ=             -6.2935 ZZXY=              8.4057
 N-N= 4.979879157372D+02 E-N=-2.855335999447D+03  KE= 7.861541032922D+02
 No NMR shielding tensors so no spin-rotation constants.
 Leave Link  601 at Sat Aug 21 09:33:32 2021, MaxMem=   104857600 cpu:               4.8 elap:               0.2
 (Enter /sw/arch/RedHatEnterpriseServer7/EB_production/2020/software/Gaussian/g16.c01/l701.exe)
 ... and contract with generalized density number  0.
 Compute integral first derivatives.
 R6Disp: Adding Grimme-D3 dispersion energy 1st derivatives to the gradient.
 D1PCM: PCM CHGder 1st derivatives, ID1Alg=3 FixD1E=F DoIter=F DoCFld=F I1PDM=0.
 GePol: Maximum number of non-zero 1st derivatives   =     240
 Leave Link  701 at Sat Aug 21 09:33:33 2021, MaxMem=   104857600 cpu:              19.3 elap:               0.8
 (Enter /sw/arch/RedHatEnterpriseServer7/EB_production/2020/software/Gaussian/g16.c01/l702.exe)
 L702 exits ... SP integral derivatives will be done elsewhere.
 Leave Link  702 at Sat Aug 21 09:33:33 2021, MaxMem=   104857600 cpu:               0.5 elap:               0.1
 (Enter /sw/arch/RedHatEnterpriseServer7/EB_production/2020/software/Gaussian/g16.c01/l703.exe)
 Integral derivatives from FoFJK, PRISM(SPDF).
 Compute integral first derivatives, UseDBF=F ICtDFT=           0.
 Calling FoFJK, ICntrl=      2527 FMM=F ISym2X=0 I1Cent= 0 IOpClX= 0 NMat=1 NMatS=1 NMatT=0.
 FoFJK:  IHMeth= 1 ICntrl=    2527 DoSepK=F KAlg= 0 I1Cent=           0 FoldK=F
 IRaf=         0 NMat=       1 IRICut=       1 DoRegI=T DoRafI=F ISym2E= 0 IDoP0=0 IntGTp=1.
 FoFCou: FMM=F IPFlag=           0 FMFlag=      100000 FMFlg1=         800
         NFxFlg=           0 DoJE=F BraDBF=F KetDBF=F FulRan=T
         wScrn=  0.000000 ICntrl=      2527 IOpCl=  0 I1Cent=           0 NGrid=           0
         NMat0=    1 NMatS0=      1 NMatT0=    0 NMatD0=    1 NMtDS0=    0 NMtDT0=    0
 Symmetry not used in FoFCou.
 Leave Link  703 at Sat Aug 21 09:33:35 2021, MaxMem=   104857600 cpu:              55.5 elap:               2.4
 (Enter /sw/arch/RedHatEnterpriseServer7/EB_production/2020/software/Gaussian/g16.c01/l716.exe)
 Dipole        =-6.49019205D+00-6.06448220D-01-3.70879631D-01
 ***** Axes restored to original set *****
 -------------------------------------------------------------------
 Center     Atomic                   Forces (Hartrees/Bohr)
 Number     Number              X              Y              Z
 -------------------------------------------------------------------
      1        6           0.005828300   -0.005910204   -0.037389546
      2        7          -0.001567946   -0.012059584   -0.002376636
      3        6           0.030157159    0.001783535    0.020938079
      4        6          -0.016348005   -0.030626706    0.014252505
      5        6          -0.028630656    0.028373604    0.009753651
      6        6          -0.010393754   -0.009551168   -0.007916895
      7        8           0.014544296    0.002905586   -0.004629419
      8       17          -0.001968811    0.000896833    0.003320577
      9        1          -0.003154353   -0.000063062    0.009460530
     10        1           0.005472615    0.001579213    0.009696861
     11        1          -0.006747574    0.006677396    0.007198494
     12        1          -0.011678888    0.003719443   -0.002634382
     13        1          -0.004234792   -0.000216389   -0.010492029
     14        1          -0.007868446    0.000809058   -0.004061384
     15        1           0.003224171    0.003710150   -0.008968108
     16        1          -0.002155480    0.011819623   -0.000978122
     17        1           0.009229885    0.006846941    0.002150506
     18        1           0.011331642   -0.006220949    0.002718015
     19        1           0.009944518   -0.006969113    0.005816734
     20        1          -0.000195589    0.000743346   -0.002333827
     21        1          -0.000170627   -0.006772041   -0.004672074
     22        1           0.005382335    0.008524488    0.001146470
 -------------------------------------------------------------------
 Cartesian Forces:  Max     0.037389546 RMS     0.011193916
 Leave Link  716 at Sat Aug 21 09:33:35 2021, MaxMem=   104857600 cpu:               0.7 elap:               0.1
 (Enter /sw/arch/RedHatEnterpriseServer7/EB_production/2020/software/Gaussian/g16.c01/l103.exe)

 GradGradGradGradGradGradGradGradGradGradGradGradGradGradGradGradGradGrad
 Berny optimization.
 FormGI is forming the generalized inverse of G from B-inverse, IUseBI=4.
 Internal  Forces:  Max     0.017945992 RMS     0.005186889
 Search for a local minimum.
 Step number   1 out of a maximum of  126
 All quantities printed in internal units (Hartrees-Bohrs-Radians)
 RMS Force = .51869D-02 SwitMx=.10000D-02 MixMth= 1
 Mixed Optimization -- RFO/linear search
 Second derivative matrix not updated -- first step.
 ITU=  0
     Eigenvalues ---    0.00266   0.00414   0.00545   0.00551   0.00592
     Eigenvalues ---    0.01290   0.01661   0.02377   0.02509   0.02861
     Eigenvalues ---    0.04080   0.04306   0.04357   0.04653   0.05271
     Eigenvalues ---    0.05538   0.05559   0.05585   0.05608   0.05631
     Eigenvalues ---    0.05682   0.06079   0.08964   0.09737   0.10441
     Eigenvalues ---    0.11526   0.11883   0.12572   0.13248   0.14254
     Eigenvalues ---    0.14651   0.16000   0.16000   0.16000   0.16000
     Eigenvalues ---    0.16000   0.16000   0.16737   0.19547   0.20854
     Eigenvalues ---    0.26035   0.31439   0.31723   0.32137   0.32192
     Eigenvalues ---    0.32218   0.32227   0.32228   0.32233   0.32453
     Eigenvalues ---    0.32480   0.32480   0.32506   0.32786   0.32847
     Eigenvalues ---    0.33446   0.33811   0.34216   0.42361   0.48581
 RFO step:  Lambda=-1.63670590D-02 EMin= 2.65502470D-03
 Linear search not attempted -- first point.
 Maximum step size (   0.300) exceeded in Quadratic search.
    -- Step size scaled by   0.943
 Iteration  1 RMS(Cart)=  0.04151802 RMS(Int)=  0.00163950
 Iteration  2 RMS(Cart)=  0.00160387 RMS(Int)=  0.00053473
 Iteration  3 RMS(Cart)=  0.00000168 RMS(Int)=  0.00053472
 Iteration  4 RMS(Cart)=  0.00000000 RMS(Int)=  0.00053472
 ITry= 1 IFail=0 DXMaxC= 2.07D-01 DCOld= 1.00D+10 DXMaxT= 3.00D-01 DXLimC= 3.00D+00 Rises=F
 Variable       Old X    -DE/DX   Delta X   Delta X   Delta X     New X
                                 (Linear)    (Quad)   (Total)
    R1        2.80267   0.01054   0.00000   0.02774   0.02774   2.83041
    R2        2.09320  -0.00552   0.00000  -0.01511  -0.01511   2.07809
    R3        2.10428  -0.00984   0.00000  -0.02740  -0.02740   2.07688
    R4        2.10447  -0.01016   0.00000  -0.02832  -0.02832   2.07615
    R5        2.80535   0.01002   0.00000   0.02355   0.02382   2.82917
    R6        2.80951   0.01177   0.00000   0.03132   0.03132   2.84083
    R7        2.83504   0.00849   0.00000   0.02300   0.02298   2.85802
    R8        2.10430  -0.00973   0.00000  -0.02711  -0.02711   2.07720
    R9        2.09973  -0.00976   0.00000  -0.02698  -0.02698   2.07275
   R10        2.07946   0.00165   0.00000   0.00067   0.00014   2.07959
   R11        2.09975  -0.00903   0.00000  -0.02498  -0.02498   2.07477
   R12        2.10494  -0.01056   0.00000  -0.02944  -0.02944   2.07550
   R13        2.10420  -0.01039   0.00000  -0.02894  -0.02894   2.07526
   R14        2.95469  -0.01600   0.00000  -0.05333  -0.05403   2.90066
   R15        2.10594  -0.00908   0.00000  -0.02538  -0.02538   2.08056
   R16        2.10023  -0.00706   0.00000  -0.01953  -0.01953   2.08070
   R17        2.66689   0.01795   0.00000   0.04027   0.04034   2.70723
   R18        2.09429  -0.00220   0.00000  -0.00603  -0.00603   2.08826
   R19        2.09927  -0.00343   0.00000  -0.00947  -0.00947   2.08980
   R20        1.85952  -0.00305   0.00000  -0.00387  -0.00302   1.85650
   R21        4.89294   0.00252   0.00000   0.04315   0.04247   4.93541
   R22        4.78743  -0.00557   0.00000  -0.10717  -0.10631   4.68113
    A1        1.94602  -0.00922   0.00000  -0.04927  -0.04998   1.89604
    A2        1.93789  -0.00459   0.00000  -0.02489  -0.02541   1.91248
    A3        1.94421  -0.00568   0.00000  -0.03011  -0.03067   1.91355
    A4        1.87855   0.00726   0.00000   0.03831   0.03763   1.91617
    A5        1.87208   0.00805   0.00000   0.04367   0.04292   1.91500
    A6        1.88188   0.00545   0.00000   0.02903   0.02865   1.91053
    A7        1.90431  -0.00012   0.00000  -0.00500  -0.00554   1.89877
    A8        1.87267   0.00180   0.00000   0.02721   0.02730   1.89997
    A9        1.90604  -0.00111   0.00000  -0.01877  -0.01972   1.88632
   A10        1.87642   0.00124   0.00000   0.01858   0.01819   1.89461
   A11        2.00163  -0.00197   0.00000  -0.02818  -0.02838   1.97324
   A12        1.89847   0.00046   0.00000   0.01064   0.01134   1.90981
   A13        1.93589  -0.00695   0.00000  -0.04485  -0.04518   1.89072
   A14        1.95038  -0.00362   0.00000  -0.02541  -0.02532   1.92505
   A15        1.95951  -0.00172   0.00000  -0.02577  -0.02563   1.93388
   A16        1.86069   0.00445   0.00000   0.03523   0.03400   1.89470
   A17        1.85695   0.00548   0.00000   0.04534   0.04502   1.90198
   A18        1.89531   0.00323   0.00000   0.02276   0.02144   1.91676
   A19        1.94631  -0.00437   0.00000  -0.02394  -0.02431   1.92199
   A20        1.94370  -0.00598   0.00000  -0.03146  -0.03185   1.91185
   A21        1.94553  -0.00524   0.00000  -0.02796  -0.02834   1.91718
   A22        1.87176   0.00549   0.00000   0.02925   0.02887   1.90063
   A23        1.88193   0.00503   0.00000   0.02596   0.02560   1.90753
   A24        1.87086   0.00615   0.00000   0.03400   0.03360   1.90446
   A25        2.02172   0.00305   0.00000   0.00602   0.00591   2.02763
   A26        1.91755  -0.00615   0.00000  -0.04929  -0.04946   1.86809
   A27        1.94007  -0.00587   0.00000  -0.05261  -0.05250   1.88757
   A28        1.87014   0.00323   0.00000   0.03527   0.03563   1.90577
   A29        1.90048   0.00123   0.00000   0.00865   0.00755   1.90803
   A30        1.79954   0.00506   0.00000   0.06157   0.05988   1.85942
   A31        1.98459   0.00030   0.00000   0.01680   0.01536   1.99995
   A32        1.94054  -0.00137   0.00000  -0.01748  -0.01758   1.92296
   A33        1.88703  -0.00577   0.00000  -0.04002  -0.03980   1.84723
   A34        1.90761   0.00014   0.00000   0.00140   0.00222   1.90983
   A35        1.87867   0.00574   0.00000   0.04108   0.04157   1.92024
   A36        1.86009   0.00120   0.00000  -0.00140  -0.00243   1.85766
   A37        1.83362   0.00757   0.00000   0.06972   0.06969   1.90331
   A38        0.93034   0.00086   0.00000   0.00615   0.00614   0.93648
   A39        2.49555   0.00791   0.00000   0.02095   0.02010   2.51564
   A40        3.14154  -0.00539   0.00000  -0.11581  -0.11502   3.02652
   A41        3.14157  -0.00388   0.00000  -0.08016  -0.08091   3.06066
    D1       -1.06319   0.00183   0.00000   0.02800   0.02785  -1.03534
    D2       -3.09115  -0.00054   0.00000  -0.00597  -0.00586  -3.09701
    D3        1.13710  -0.00149   0.00000  -0.02372  -0.02373   1.11337
    D4        3.12529   0.00193   0.00000   0.02938   0.02917  -3.12873
    D5        1.09734  -0.00043   0.00000  -0.00459  -0.00455   1.09278
    D6       -0.95760  -0.00139   0.00000  -0.02234  -0.02242  -0.98002
    D7        1.02758   0.00196   0.00000   0.02970   0.02967   1.05725
    D8       -1.00037  -0.00041   0.00000  -0.00427  -0.00405  -1.00442
    D9       -3.05531  -0.00136   0.00000  -0.02202  -0.02191  -3.07722
   D10       -0.98037  -0.00298   0.00000  -0.03106  -0.03091  -1.01128
   D11       -3.05405  -0.00159   0.00000  -0.02896  -0.02869  -3.08274
   D12        1.09461  -0.00188   0.00000  -0.02110  -0.02036   1.07424
   D13        1.04519  -0.00025   0.00000   0.00846   0.00858   1.05378
   D14       -1.02849   0.00114   0.00000   0.01056   0.01081  -1.01769
   D15        3.12017   0.00085   0.00000   0.01842   0.01913   3.13930
   D16       -3.12451  -0.00003   0.00000   0.01735   0.01758  -3.10693
   D17        1.08499   0.00136   0.00000   0.01945   0.01980   1.10479
   D18       -1.04953   0.00106   0.00000   0.02731   0.02812  -1.02141
   D19        3.13580   0.00072   0.00000   0.01439   0.01460  -3.13279
   D20        1.04558   0.00075   0.00000   0.01476   0.01496   1.06054
   D21       -1.04297   0.00052   0.00000   0.01173   0.01192  -1.03106
   D22        1.08951  -0.00070   0.00000  -0.00332  -0.00341   1.08610
   D23       -1.00071  -0.00067   0.00000  -0.00295  -0.00304  -1.00376
   D24       -3.08926  -0.00090   0.00000  -0.00598  -0.00609  -3.09535
   D25       -1.08753   0.00065   0.00000   0.01284   0.01275  -1.07478
   D26        3.10544   0.00067   0.00000   0.01321   0.01311   3.11855
   D27        1.01689   0.00044   0.00000   0.01018   0.01007   1.02696
   D28       -2.84591   0.00175   0.00000   0.02072   0.02104  -2.82487
   D29        1.31571   0.00013   0.00000   0.00861   0.00884   1.32455
   D30       -0.66484   0.00086   0.00000  -0.00782  -0.00794  -0.67277
   D31       -0.70270  -0.00066   0.00000  -0.02032  -0.01941  -0.72211
   D32       -2.82427  -0.00229   0.00000  -0.03244  -0.03161  -2.85587
   D33        1.47837  -0.00155   0.00000  -0.04887  -0.04838   1.42999
   D34        1.39863  -0.00004   0.00000  -0.00736  -0.00685   1.39178
   D35       -0.72293  -0.00167   0.00000  -0.01947  -0.01905  -0.74198
   D36       -2.70348  -0.00093   0.00000  -0.03590  -0.03583  -2.73931
   D37        0.07902   0.00106   0.00000   0.03114   0.03193   0.11095
   D38        2.19981  -0.00492   0.00000  -0.00962  -0.01011   2.18970
   D39       -2.08644   0.00452   0.00000   0.06479   0.06633  -2.02011
   D40        1.39242  -0.00158   0.00000   0.00129   0.00144   1.39386
   D41       -0.76951  -0.00092   0.00000   0.00042   0.00083  -0.76868
   D42       -2.80565   0.00185   0.00000   0.03585   0.03539  -2.77027
   D43       -2.74407  -0.00500   0.00000  -0.03145  -0.03146  -2.77553
   D44        1.37718  -0.00434   0.00000  -0.03231  -0.03207   1.34511
   D45       -0.65896  -0.00157   0.00000   0.00312   0.00248  -0.65648
   D46       -0.80885   0.00297   0.00000   0.06059   0.06130  -0.74755
   D47       -2.97078   0.00363   0.00000   0.05973   0.06069  -2.91009
   D48        1.27626   0.00640   0.00000   0.09516   0.09524   1.37150
   D49        0.15813   0.00125   0.00000   0.04820   0.04896   0.20708
   D50        2.33781  -0.00022   0.00000   0.03861   0.03880   2.37661
   D51       -1.93173   0.00436   0.00000   0.05980   0.06027  -1.87145
   D52       -1.33173   0.00322   0.00000  -0.02069  -0.02006  -1.35179
   D53        1.28829   0.00129   0.00000   0.05084   0.05119   1.33948
         Item               Value     Threshold  Converged?
 Maximum Force            0.017946     0.000450     NO 
 RMS     Force            0.005187     0.000300     NO 
 Maximum Displacement     0.207084     0.001800     NO 
 RMS     Displacement     0.041872     0.001200     NO 
 Predicted change in Energy=-9.319457D-03
 Lowest energy point so far.  Saving SCF results.
 GradGradGradGradGradGradGradGradGradGradGradGradGradGradGradGradGradGrad

 Leave Link  103 at Sat Aug 21 09:33:36 2021, MaxMem=   104857600 cpu:               1.9 elap:               0.1
 (Enter /sw/arch/RedHatEnterpriseServer7/EB_production/2020/software/Gaussian/g16.c01/l202.exe)
                          Input orientation:                          
 ---------------------------------------------------------------------
 Center     Atomic      Atomic             Coordinates (Angstroms)
 Number     Number       Type             X           Y           Z
 ---------------------------------------------------------------------
      1          6           0        1.727595   -0.261789   -2.115466
      2          7           0        1.435020   -0.038385   -0.663616
      3          6           0        2.725614    0.196935    0.057770
      4          6           0        0.791548   -1.275322   -0.101617
      5          6           0        0.473583    1.123742   -0.552017
      6          6           0        0.377012    1.792662    0.826147
      7          8           0        1.434675    2.714156    1.116927
      8         17           0        2.983021    3.135011   -1.940207
      9          1           0        2.239511    0.627199   -2.511608
     10          1           0        0.786746   -0.422997   -2.660169
     11          1           0        2.373013   -1.143380   -2.230665
     12          1           0        3.375521   -0.674834   -0.103140
     13          1           0        2.545636    0.304197    1.134427
     14          1           0        3.230507    1.095637   -0.327533
     15          1           0        0.559635   -1.130595    0.961727
     16          1           0        1.479202   -2.125670   -0.203200
     17          1           0       -0.135137   -1.494836   -0.648487
     18          1           0       -0.520056    0.749374   -0.843054
     19          1           0        0.757179    1.876892   -1.303466
     20          1           0        0.329632    1.025231    1.619849
     21          1           0       -0.596480    2.317154    0.839524
     22          1           0        1.938627    2.894253    0.293071
 ---------------------------------------------------------------------
                    Distance matrix (angstroms):
                    1          2          3          4          5
     1  C    0.000000
     2  N    1.497791   0.000000
     3  C    2.435042   1.497133   0.000000
     4  C    2.441111   1.503301   2.435890   0.000000
     5  C    2.436518   1.512400   2.510469   2.461599   0.000000
     6  C    3.833788   2.586795   2.941544   3.231889   1.534964
     7  O    4.403456   3.278234   3.020718   4.220710   2.497696
     8  Cl   3.625612   3.754521   3.562367   5.256805   3.502792
     9  H    1.099676   2.122565   2.650119   3.394738   2.684224
    10  H    1.099039   2.134106   3.395692   2.696789   2.633397
    11  H    1.098652   2.134593   2.675389   2.655426   3.400814
    12  H    2.633576   2.117721   1.099205   2.652830   3.443488
    13  H    3.398726   2.140979   1.096854   2.664491   2.794486
    14  H    2.701492   2.150054   1.100473   3.408960   2.766191
    15  H    3.404125   2.144985   2.696468   1.097920   2.716774
    16  H    2.681886   2.137918   2.648800   1.098308   3.419301
    17  H    2.672490   2.141699   3.397762   1.098179   2.690130
    18  H    2.773701   2.115439   3.413363   2.523772   1.100987
    19  H    2.484956   2.130061   2.924030   3.373733   1.101061
    20  H    4.190859   2.750886   2.977733   2.910215   2.178859
    21  H    4.558974   3.454705   4.017808   3.964625   2.122652
    22  H    3.975700   3.125577   2.819616   4.342456   2.448517
                    6          7          8          9         10
     6  C    0.000000
     7  O    1.432604   0.000000
     8  Cl   4.030619   3.452617   0.000000
     9  H    3.995975   4.262560   2.677391   0.000000
    10  H    4.151075   4.952575   4.242805   1.798753   0.000000
    11  H    4.684918   5.193018   4.331409   1.797694   1.794343
    12  H    3.992889   4.091540   4.247798   2.964208   3.647407
    13  H    2.648300   2.653760   4.202164   3.673094   4.245170
    14  H    3.155829   2.816218   2.611707   2.443704   3.703972
    15  H    2.932092   3.946124   5.699948   4.239797   3.697351
    16  H    4.198536   5.016835   5.740507   3.672207   3.068434
    17  H    3.639297   4.826657   5.729479   3.689609   2.458775
    18  H    2.163195   3.394535   4.377962   3.227105   2.526676
    19  H    2.164918   2.649210   2.634896   2.284436   2.670395
    20  H    1.105060   2.080028   4.915855   4.568917   4.541461
    21  H    1.105874   2.088098   4.605282   4.704135   4.655061
    22  H    1.984015   0.982416   2.477146   3.618880   4.588312
                   11         12         13         14         15
    11  H    0.000000
    12  H    2.398108   0.000000
    13  H    3.667305   1.782914   0.000000
    14  H    3.061111   1.790516   1.797986   0.000000
    15  H    3.671494   3.044810   2.456146   3.708350   0.000000
    16  H    2.423717   2.389762   2.971663   3.668698   1.786850
    17  H    2.986239   3.646166   3.688068   4.259240   1.791136
    18  H    3.725295   4.213236   3.675198   3.801629   2.820859
    19  H    3.548613   3.848090   3.408118   2.771309   3.770291
    20  H    4.868751   3.890546   2.380377   3.494614   2.265747
    21  H    5.497203   5.061363   3.743241   4.183295   3.638476
    22  H    4.781256   3.867819   2.790112   2.299809   4.306753
                   16         17         18         19         20
    16  H    0.000000
    17  H    1.789503   0.000000
    18  H    3.559820   2.285278   0.000000
    19  H    4.213360   3.548771   1.764824   0.000000
    20  H    3.817485   3.422294   2.619916   3.074718   0.000000
    21  H    5.013423   4.118044   2.301053   2.572670   1.770778
    22  H    5.065272   4.944809   3.454911   2.231541   2.800437
                   21         22
    21  H    0.000000
    22  H    2.656770   0.000000
 Stoichiometry    C5H14ClNO
 Framework group  C1[X(C5H14ClNO)]
 Deg. of freedom    60
 Full point group                 C1      NOp   1
 RotChk:  IX=0 Diff= 7.44D-02
 Largest Abelian subgroup         C1      NOp   1
 Largest concise Abelian subgroup C1      NOp   1
                         Standard orientation:                         
 ---------------------------------------------------------------------
[...]
 NBsUse=   239 1.00D-06 EigRej= -1.00D+00 NBFU=   239
 Initial guess from the checkpoint file:  "SGMZJAMFUVOLNK-UHFFFAOYSA-M.chk"
 B after Tr=    -0.000000    0.000000   -0.000000
         Rot=    1.000000    0.000000   -0.000000    0.000000 Ang=   0.00 deg.
 Requested convergence on RMS density matrix=1.00D-08 within 128 cycles.
 Requested convergence on MAX density matrix=1.00D-06.
 Requested convergence on             energy=1.00D-06.
 No special actions if energy rises.
 Inv3:  Mode=1 IEnd=     5638923.
 Iteration    1 A*A^-1 deviation from unit magnitude is 2.66D-14 for    201.
 Iteration    1 A*A^-1 deviation from orthogonality  is 3.55D-14 for   1102    201.
 Iteration    1 A^-1*A deviation from unit magnitude is 2.13D-14 for    201.
 Iteration    1 A^-1*A deviation from orthogonality  is 1.15D-14 for   1102   1086.
 Error on nuclear    polarization charges =  0.02493
 Error on electronic polarization charges = -0.05815
 SCF Done:  E(RB-P86) =  -789.329364603     A.U. after   10 cycles
            NFock= 10  Conv=0.43D-08     -V/T= 2.0039
 --------------------------------------------------------------------
 Variational C-PCM results
 =========================
 <psi(f)|   H    |psi(f)>                     (a.u.) =    -789.255845
 <psi(f)|H+V(f)/2|psi(f)>                     (a.u.) =    -789.329365
 Total free energy in solution:
 - with all non electrostatic terms           (a.u.) =    -789.315456
 --------------------------------------------------------------------
 (Polarized solute)-Solvent               (kcal/mol) =     -46.13
 --------------------------------------------------------------------
 Cavitation energy                        (kcal/mol) =      24.57
 Dispersion energy                        (kcal/mol) =     -17.26
 Repulsion energy                         (kcal/mol) =       1.41
 Total non electrostatic                  (kcal/mol) =       8.73
 --------------------------------------------------------------------
 Partition over spheres:
 Sphere  on Atom  Surface  Charge   GEl     GCav    GDR
    1      C1      14.33  -0.075   -2.02    1.68   -1.10
    2      N2       0.00   0.000    0.00    0.00    0.00
    3      C3      12.97  -0.045   -0.69    1.52   -0.97
    4      C4      13.72  -0.064   -1.80    1.61   -1.01
    5      C5       6.51  -0.037   -0.69    0.76   -0.37
    6      C6      10.87  -0.016   -0.30    1.28   -0.64
    7      O7      14.03   0.183   -3.82    1.74   -1.29
    8     Cl8      41.85   0.661  -23.81    4.87   -3.20
    9      H9       6.46  -0.055   -1.01    0.91   -0.64
   10      H10      6.44  -0.060   -1.91    0.91   -0.65
   11      H11      6.43  -0.057   -1.76    0.91   -0.63
   12      H12      6.40  -0.054   -1.39    0.90   -0.65
   13      H13      4.67  -0.028   -0.19    0.66   -0.38
   14      H14      4.58  -0.028   -0.03    0.65   -0.22
   15      H15      5.66  -0.054   -1.09    0.80   -0.49
   16      H16      6.45  -0.057   -1.79    0.91   -0.66
   17      H17      6.47  -0.055   -1.74    0.91   -0.67
   18      H18      6.30  -0.047   -1.22    0.89   -0.68
   19      H19      4.11  -0.026   -0.11    0.58   -0.16
   20      H20      6.06  -0.043   -0.80    0.86   -0.60
   21      H21      6.64  -0.036   -0.14    0.94   -0.83
   22      H22      1.93  -0.008    0.18    0.27    0.00
 --------------------------------------------------------------------
 - cavitation energy not included in the total energy.
 - dispersion energy not included in the total energy.
 - repulsion  energy not included in the total energy.
 After PCM corrections, the energy is  -789.329364603     a.u.
 --------------------------------------------------------------------
 Writing COSMO formatted file "SGMZJAMFUVOLNK-UHFFFAOYSA-M.cosmo"
 Recomputed dielectric energy= -0.073635 old= -0.073520 diff=-1.15D-04

 **********************************************************************

            Population analysis using the SCF Density.

 **********************************************************************

 Orbital symmetries:
       Occupied  (A) (A) (A) (A) (A) (A) (A) (A) (A) (A) (A) (A)
                 (A) (A) (A) (A) (A) (A) (A) (A) (A) (A) (A) (A)
                 (A) (A) (A) (A) (A) (A) (A) (A) (A) (A) (A) (A)
                 (A) (A)
       Virtual   (A) (A) (A) (A) (A) (A) (A) (A) (A) (A) (A) (A)
                 (A) (A) (A) (A) (A) (A) (A) (A) (A) (A) (A) (A)
                 (A) (A) (A) (A) (A) (A) (A) (A) (A) (A) (A) (A)
                 (A) (A) (A) (A) (A) (A) (A) (A) (A) (A) (A) (A)
                 (A) (A) (A) (A) (A) (A) (A) (A) (A) (A) (A) (A)
                 (A) (A) (A) (A) (A) (A) (A) (A) (A) (A) (A) (A)
                 (A) (A) (A) (A) (A) (A) (A) (A) (A) (A) (A) (A)
                 (A) (A) (A) (A) (A) (A) (A) (A) (A) (A) (A) (A)
                 (A) (A) (A) (A) (A) (A) (A) (A) (A) (A) (A) (A)
                 (A) (A) (A) (A) (A) (A) (A) (A) (A) (A) (A) (A)
                 (A) (A) (A) (A) (A) (A) (A) (A) (A) (A) (A) (A)
                 (A) (A) (A) (A) (A) (A) (A) (A) (A) (A) (A) (A)
                 (A) (A) (A) (A) (A) (A) (A) (A) (A) (A) (A) (A)
                 (A) (A) (A) (A) (A) (A) (A) (A) (A) (A) (A) (A)
                 (A) (A) (A) (A) (A) (A) (A) (A) (A) (A) (A) (A)
                 (A) (A) (A) (A) (A) (A) (A) (A) (A) (A) (A) (A)
                 (A) (A) (A) (A) (A) (A) (A) (A) (A)
 The electronic state is 1-A.
 Alpha  occ. eigenvalues -- -100.65562 -18.76243 -14.13220  -9.95092  -9.94820
 Alpha  occ. eigenvalues --   -9.94318  -9.94279  -9.93642  -9.09439  -6.91317
 Alpha  occ. eigenvalues --   -6.91222  -6.91215  -0.93877  -0.92372  -0.70282
 Alpha  occ. eigenvalues --   -0.68007  -0.67549  -0.64723  -0.60561  -0.55226
 Alpha  occ. eigenvalues --   -0.48675  -0.47237  -0.46681  -0.42860  -0.41496
 Alpha  occ. eigenvalues --   -0.39899  -0.38093  -0.37088  -0.35736  -0.35667
 Alpha  occ. eigenvalues --   -0.35514  -0.35159  -0.34032  -0.30009  -0.23357
 Alpha  occ. eigenvalues --   -0.22545  -0.22240  -0.22024
 Alpha virt. eigenvalues --    0.00699   0.03430   0.04622   0.05368   0.05486
 Alpha virt. eigenvalues --    0.05809   0.06383   0.07027   0.08569   0.09110
 Alpha virt. eigenvalues --    0.10341   0.10708   0.11789   0.12411   0.12982
 Alpha virt. eigenvalues --    0.13416   0.14392   0.14907   0.15959   0.17745
 Alpha virt. eigenvalues --    0.19372   0.22194   0.22665   0.23552   0.24998
 Alpha virt. eigenvalues --    0.25702   0.26759   0.27883   0.28372   0.30168
 Alpha virt. eigenvalues --    0.31533   0.32270   0.32982   0.33794   0.35361
 Alpha virt. eigenvalues --    0.36938   0.37726   0.38132   0.38766   0.39544
 Alpha virt. eigenvalues --    0.40445   0.40913   0.41605   0.42087   0.42629
 Alpha virt. eigenvalues --    0.43547   0.44009   0.44834   0.45065   0.45726
 Alpha virt. eigenvalues --    0.45888   0.46545   0.47762   0.48807   0.49254
 Alpha virt. eigenvalues --    0.53423   0.55244   0.60456   0.61779   0.64308
 Alpha virt. eigenvalues --    0.66006   0.68088   0.69531   0.74426   0.76686
 Alpha virt. eigenvalues --    0.77140   0.79764   0.81806   0.84442   0.87941
 Alpha virt. eigenvalues --    0.94960   1.01616   1.02608   1.16152   1.16607
 Alpha virt. eigenvalues --    1.17814   1.19254   1.19824   1.20156   1.21976
 Alpha virt. eigenvalues --    1.22905   1.25004   1.26544   1.27108   1.28351
 Alpha virt. eigenvalues --    1.28823   1.29473   1.31044   1.31615   1.32307
 Alpha virt. eigenvalues --    1.34821   1.38373   1.40629   1.44431   1.45823
 Alpha virt. eigenvalues --    1.46261   1.47247   1.48910   1.49607   1.52408
 Alpha virt. eigenvalues --    1.55757   1.57160   1.59374   1.62746   1.63881
 Alpha virt. eigenvalues --    1.65778   1.67687   1.68537   1.69699   1.69739
 Alpha virt. eigenvalues --    1.70007   1.71574   1.72440   1.72667   1.73314
 Alpha virt. eigenvalues --    1.75168   1.75687   1.75986   1.81059   1.84683
 Alpha virt. eigenvalues --    1.85308   1.86729   1.88438   1.89214   1.90305
 Alpha virt. eigenvalues --    1.93342   1.95406   1.99891   2.00819   2.01217
 Alpha virt. eigenvalues --    2.06980   2.12588   2.15100   2.16399   2.19608
 Alpha virt. eigenvalues --    2.21497   2.23265   2.26090   2.27967   2.29231
 Alpha virt. eigenvalues --    2.30140   2.30319   2.33990   2.35627   2.36360
 Alpha virt. eigenvalues --    2.37764   2.39079   2.40225   2.43040   2.43453
 Alpha virt. eigenvalues --    2.43618   2.48892   2.52901   2.54802   2.58200
 Alpha virt. eigenvalues --    2.59071   2.62404   2.63887   2.64283   2.65244
 Alpha virt. eigenvalues --    2.65846   2.68202   2.70538   2.71230   2.72826
 Alpha virt. eigenvalues --    2.82592   2.84410   2.85481   2.87619   2.90106
 Alpha virt. eigenvalues --    2.91581   2.93732   3.00994   3.05958   3.08305
 Alpha virt. eigenvalues --    3.09794   3.12873   3.16229   3.18689   3.20949
 Alpha virt. eigenvalues --    3.21735   3.22088   3.26455   3.29096   3.30696
 Alpha virt. eigenvalues --    3.31319   3.35466   3.36201   3.57779   3.58827
 Alpha virt. eigenvalues --    3.59100   3.87813   4.15734  21.68128  21.80862
 Alpha virt. eigenvalues --   21.82230  21.83363  21.85235  24.22680  31.67040
 Alpha virt. eigenvalues --   43.18032
          Condensed to atoms (all electrons):
               1          2          3          4          5          6
     1  C    5.146518   0.259200  -0.088833  -0.079980  -0.106882   0.012794
     2  N    0.259200   6.612958   0.231923   0.199632   0.104987  -0.028370
     3  C   -0.088833   0.231923   5.231081  -0.097508  -0.096245  -0.008234
     4  C   -0.079980   0.199632  -0.097508   5.208241  -0.069128   0.018735
     5  C   -0.106882   0.104987  -0.096245  -0.069128   5.718388   0.145886
     6  C    0.012794  -0.028370  -0.008234   0.018735   0.145886   5.039796
     7  O   -0.000725  -0.004588   0.009054  -0.016247  -0.047009   0.249108
     8  Cl  -0.000841  -0.002137  -0.012324  -0.000538  -0.024950   0.013890
     9  H    0.387789  -0.019146  -0.007259   0.009974  -0.007541   0.000508
    10  H    0.388336  -0.017772   0.010329  -0.006416  -0.010574   0.000529
    11  H    0.390098  -0.016725  -0.008524  -0.011111   0.010621  -0.000757
    12  H   -0.011478  -0.017524   0.381707  -0.009356   0.009206  -0.000309
    13  H    0.009662  -0.012346   0.383452  -0.008338  -0.010487  -0.007804
    14  H   -0.004154  -0.017063   0.365863   0.010901  -0.003795  -0.002562
    15  H    0.009045  -0.014586  -0.004667   0.388803  -0.022516   0.006012
    16  H   -0.006839  -0.017403  -0.007443   0.388480   0.010728  -0.000124
    17  H   -0.007345  -0.014150   0.010023   0.377603  -0.002239  -0.006120
    18  H   -0.006827  -0.020319   0.013716  -0.015013   0.363206  -0.012727
    19  H   -0.005396  -0.021399  -0.017805   0.012282   0.365793  -0.023399
    20  H   -0.001278  -0.016031   0.000113   0.018282  -0.049157   0.420158
    21  H   -0.000373   0.010109   0.001014  -0.002794  -0.055978   0.395060
    22  H   -0.000175  -0.003575  -0.000126   0.001627   0.011317  -0.041794
               7          8          9         10         11         12
     1  C   -0.000725  -0.000841   0.387789   0.388336   0.390098  -0.011478
     2  N   -0.004588  -0.002137  -0.019146  -0.017772  -0.016725  -0.017524
     3  C    0.009054  -0.012324  -0.007259   0.010329  -0.008524   0.381707
     4  C   -0.016247  -0.000538   0.009974  -0.006416  -0.011111  -0.009356
     5  C   -0.047009  -0.024950  -0.007541  -0.010574   0.010621   0.009206
     6  C    0.249108   0.013890   0.000508   0.000529  -0.000757  -0.000309
     7  O    8.069920  -0.062170   0.000011   0.000006   0.000065   0.002019
     8  Cl  -0.062170  17.777598   0.001078   0.000030   0.000025   0.000983
     9  H    0.000011   0.001078   0.475456  -0.019577  -0.019897  -0.000044
    10  H    0.000006   0.000030  -0.019577   0.472892  -0.018668   0.000191
    11  H    0.000065   0.000025  -0.019897  -0.018668   0.471410   0.004790
    12  H    0.002019   0.000983  -0.000044   0.000191   0.004790   0.485451
    13  H    0.020074   0.000985  -0.000089  -0.000455   0.000300  -0.015479
    14  H   -0.004985   0.021900   0.002461  -0.000100  -0.000145  -0.018902
    15  H    0.005587   0.000023  -0.000429  -0.000014   0.000179   0.000432
    16  H    0.000058   0.000002   0.000118  -0.000134   0.003010   0.002862
    17  H    0.000887   0.000014  -0.000067   0.002666   0.000451   0.000229
    18  H    0.006714   0.000720  -0.001554   0.005604   0.000443  -0.000080
    19  H   -0.012463   0.029757   0.004624  -0.000505  -0.000313  -0.000508
    20  H   -0.046696   0.000176   0.000025   0.000138  -0.000013  -0.000162
    21  H   -0.042659   0.003837  -0.000055  -0.000049   0.000035   0.000094
    22  H    0.275029   0.081832  -0.000047   0.000010  -0.000010  -0.000147
              13         14         15         16         17         18
     1  C    0.009662  -0.004154   0.009045  -0.006839  -0.007345  -0.006827
     2  N   -0.012346  -0.017063  -0.014586  -0.017403  -0.014150  -0.020319
     3  C    0.383452   0.365863  -0.004667  -0.007443   0.010023   0.013716
     4  C   -0.008338   0.010901   0.388803   0.388480   0.377603  -0.015013
     5  C   -0.010487  -0.003795  -0.022516   0.010728  -0.002239   0.363206
     6  C   -0.007804  -0.002562   0.006012  -0.000124  -0.006120  -0.012727
     7  O    0.020074  -0.004985   0.005587   0.000058   0.000887   0.006714
     8  Cl   0.000985   0.021900   0.000023   0.000002   0.000014   0.000720
     9  H   -0.000089   0.002461  -0.000429   0.000118  -0.000067  -0.001554
    10  H   -0.000455  -0.000100  -0.000014  -0.000134   0.002666   0.005604
    11  H    0.000300  -0.000145   0.000179   0.003010   0.000451   0.000443
    12  H   -0.015479  -0.018902   0.000432   0.002862   0.000229  -0.000080
    13  H    0.470208  -0.022165   0.003404  -0.000169   0.000385  -0.000343
    14  H   -0.022165   0.500571  -0.000273   0.000003  -0.000512  -0.000167
    15  H    0.003404  -0.000273   0.465672  -0.019590  -0.017011   0.001072
    16  H   -0.000169   0.000003  -0.019590   0.469662  -0.018809   0.000000
    17  H    0.000385  -0.000512  -0.017011  -0.018809   0.472783   0.003161
    18  H   -0.000343  -0.000167   0.001072   0.000000   0.003161   0.477439
    19  H    0.000310   0.004061  -0.000291  -0.000413  -0.000255  -0.017466
    20  H   -0.001583  -0.000092  -0.008069   0.000285  -0.002469  -0.000356
    21  H    0.001015  -0.000371   0.000953  -0.000006   0.000431   0.004509
    22  H   -0.002447  -0.002170  -0.000511   0.000021  -0.000068  -0.000458
              19         20         21         22
     1  C   -0.005396  -0.001278  -0.000373  -0.000175
     2  N   -0.021399  -0.016031   0.010109  -0.003575
     3  C   -0.017805   0.000113   0.001014  -0.000126
     4  C    0.012282   0.018282  -0.002794   0.001627
     5  C    0.365793  -0.049157  -0.055978   0.011317
     6  C   -0.023399   0.420158   0.395060  -0.041794
     7  O   -0.012463  -0.046696  -0.042659   0.275029
     8  Cl   0.029757   0.000176   0.003837   0.081832
     9  H    0.004624   0.000025  -0.000055  -0.000047
    10  H   -0.000505   0.000138  -0.000049   0.000010
    11  H   -0.000313  -0.000013   0.000035  -0.000010
    12  H   -0.000508  -0.000162   0.000094  -0.000147
    13  H    0.000310  -0.001583   0.001015  -0.002447
    14  H    0.004061  -0.000092  -0.000371  -0.002170
    15  H   -0.000291  -0.008069   0.000953  -0.000511
    16  H   -0.000413   0.000285  -0.000006   0.000021
    17  H   -0.000255  -0.002469   0.000431  -0.000068
    18  H   -0.017466  -0.000356   0.004509  -0.000458
    19  H    0.491470   0.005265  -0.005964  -0.002813
    20  H    0.005265   0.536479  -0.038315   0.008264
    21  H   -0.005964  -0.038315   0.577631  -0.008584
    22  H   -0.002813   0.008264  -0.008584   0.448707
 Mulliken charges:
               1
     1  C   -0.282315
     2  N   -0.175673
     3  C   -0.289307
     4  C   -0.318133
     5  C   -0.233630
     6  C   -0.170276
     7  O   -0.400990
     8  Cl  -0.829889
     9  H    0.193662
    10  H    0.193533
    11  H    0.194736
    12  H    0.186023
    13  H    0.191910
    14  H    0.171695
    15  H    0.206774
    16  H    0.195700
    17  H    0.200410
    18  H    0.198726
    19  H    0.195428
    20  H    0.175036
    21  H    0.160463
    22  H    0.236119
 Sum of Mulliken charges =  -0.00000
 Mulliken charges with hydrogens summed into heavy atoms:
               1
     1  C    0.299616
     2  N   -0.175673
     3  C    0.260321
     4  C    0.284751
     5  C    0.160524
     6  C    0.165222
     7  O   -0.164871
     8  Cl  -0.829889
 Electronic spatial extent (au):  <R**2>=           1612.3222
 Charge=              0.0000 electrons
 Dipole moment (field-independent basis, Debye):
    X=            -18.4575    Y=              0.1015    Z=             -1.5917  Tot=             18.5263
 Quadrupole moment (field-independent basis, Debye-Ang):
   XX=            -77.8212   YY=            -59.8255   ZZ=            -55.6010
   XY=              8.4923   XZ=             -0.4259   YZ=             -3.8301
 Traceless Quadrupole moment (field-independent basis, Debye-Ang):
   XX=            -13.4052   YY=              4.5904   ZZ=              8.8149
   XY=              8.4923   XZ=             -0.4259   YZ=             -3.8301
 Octapole moment (field-independent basis, Debye-Ang**2):
  XXX=           -150.8767  YYY=             -3.8543  ZZZ=             -0.7260  XYY=            -29.7882
  XXY=             20.8452  XXZ=              2.4569  XZZ=            -15.6372  YZZ=             -1.1176
  YYZ=             -6.5701  XYZ=             -3.8049
 Hexadecapole moment (field-independent basis, Debye-Ang**3):
 XXXX=          -1584.9255 YYYY=           -513.7981 ZZZZ=           -255.3796 XXXY=             98.3275
 XXXZ=              6.1687 YYYX=             15.1256 YYYZ=             -7.8104 ZZZX=              4.6583
 ZZZY=             -5.0525 XXYY=           -322.8284 XXZZ=           -261.6782 YYZZ=           -126.8477
 XXYZ=             -3.5039 YYXZ=             -6.9407 ZZXY=              8.9089
 N-N= 4.938900935486D+02 E-N=-2.847415567595D+03  KE= 7.862652910219D+02
 Unable to Open any file for archive entry.
 1\1\GINC-TCN818\SP\RBP86\TZVP\C5H14Cl1N1O1\ELENAA\21-Aug-2021\0\\# BP8
 6/TZVP SCRF=COSMORS geom=CHECKPOINT guess=CHECKPOINT\\COSMO-file for #
 SGMZJAMFUVOLNK-UHFFFAOYSA-M\\0,1\C,0,1.5530866093,-0.5872432973,-2.157
 945992\N,0,1.4782072007,-0.0865126126,-0.7349358577\C,0,2.8813947294,0
 .2295551353,-0.2615124497\C,0,0.883950955,-1.1616117293,0.1367413642\C
 ,0,0.6000759571,1.1706818052,-0.7366264225\C,0,0.2354215939,1.75630123
 54,0.627346252\O,0,1.3402513957,2.1957784524,1.4095720786\Cl,0,2.87586
 92776,3.9340941303,-0.6041085902\H,0,1.9624149289,0.2107623865,-2.7872
 067866\H,0,0.5458481852,-0.8574431472,-2.4938456825\H,0,2.2091054821,-
 1.4642856355,-2.1870254795\H,0,3.499268576,-0.6641404645,-0.4059095033
 \H,0,2.8323024337,0.5149822372,0.7923673106\H,0,3.2604872933,1.0770802
 991,-0.8452236469\H,0,0.9102455086,-0.8305102537,1.1794231516\H,0,1.48
 36447527,-2.0715407684,0.0228902291\H,0,-0.148555455,-1.3460622558,-0.
 1806880196\H,0,-0.3221919036,0.8963238146,-1.2679082283\H,0,1.15394781
 1,1.9177829084,-1.3227372678\H,0,-0.3309904172,1.0346827446,1.23447921
 84\H,0,-0.460632801,2.5872027818,0.3935252936\H,0,1.8684498866,2.82875
 72335,0.8345270285\\Version=ES64L-G16RevC.01\State=1-A\HF=-789.3293646
 \RMSD=4.310e-09\Dipole=-2.5023269,-6.7323659,-1.241033\Quadrupole=4.24
 26356,-7.0760798,2.8334442,-8.7763026,1.321979,2.8663914\PG=C01 [X(C5H
 14Cl1N1O1)]\\@
 The archive entry for this job was punched.


 THE PROBLEM WITH THE LADDER OF SUCCESS IS YOU CAN'T
 CLIMB IT WHILE YOU'RE TWIDDLING YOUR THUMBS.
 Job cpu time:       0 days  0 hours  5 minutes 11.3 seconds.
 Elapsed time:       0 days  0 hours  0 minutes 13.4 seconds.
 File lengths (MBytes):  RWF=     52 Int=      0 D2E=      0 Chk=      9 Scr=      1
 Normal termination of Gaussian 16 at Sat Aug 21 09:44:53 2021.
