 Entering Gaussian System, Link 0=g16
 Input=TYFQFVWCELRYAO-UHFFFAOYSA-N.gjf
 Output=TYFQFVWCELRYAO-UHFFFAOYSA-N.log
 Initial command:
 /sw/arch/RedHatEnterpriseServer7/EB_production/2019/software/Gaussian/g16.c01/l1.exe "/scratch-local/elenaa.9715277/Gau-9906.inp" -scrdir="/scratch-local/elenaa.9715277/"
 Entering Link 1 = /sw/arch/RedHatEnterpriseServer7/EB_production/2019/software/Gaussian/g16.c01/l1.exe PID=      9908.
  
 Copyright (c) 1988-2019, Gaussian, Inc.  All Rights Reserved.
  
 This is part of the Gaussian(R) 16 program.  It is based on
 the Gaussian(R) 09 system (copyright 2009, Gaussian, Inc.),
 the Gaussian(R) 03 system (copyright 2003, Gaussian, Inc.),
 the Gaussian(R) 98 system (copyright 1998, Gaussian, Inc.),
 the Gaussian(R) 94 system (copyright 1995, Gaussian, Inc.),
 the Gaussian 92(TM) system (copyright 1992, Gaussian, Inc.),
 the Gaussian 90(TM) system (copyright 1990, Gaussian, Inc.),
 the Gaussian 88(TM) system (copyright 1988, Gaussian, Inc.),
 the Gaussian 86(TM) system (copyright 1986, Carnegie Mellon
 University), and the Gaussian 82(TM) system (copyright 1983,
 Carnegie Mellon University). Gaussian is a federally registered
 trademark of Gaussian, Inc.
  
 This software contains proprietary and confidential information,
 including trade secrets, belonging to Gaussian, Inc.
  
 This software is provided under written license and may be
 used, copied, transmitted, or stored only in accord with that
 written license.
  
 The following legend is applicable only to US Government
 contracts under FAR:
  
                    RESTRICTED RIGHTS LEGEND
  
 Use, reproduction and disclosure by the US Government is
 subject to restrictions as set forth in subparagraphs (a)
 and (c) of the Commercial Computer Software - Restricted
 Rights clause in FAR 52.227-19.
  
 Gaussian, Inc.
 340 Quinnipiac St., Bldg. 40, Wallingford CT 06492
  
  
 ---------------------------------------------------------------
 Warning -- This program may not be used in any manner that
 competes with the business of Gaussian, Inc. or will provide
 assistance to any competitor of Gaussian, Inc.  The licensee
 of this program is prohibited from giving any competitor of
 Gaussian, Inc. access to this program.  By using this program,
 the user acknowledges that Gaussian, Inc. is engaged in the
 business of creating and licensing software in the field of
 computational chemistry and represents and warrants to the
 licensee that it is not a competitor of Gaussian, Inc. and that
 it will not use this program in any manner prohibited above.
 ---------------------------------------------------------------
  

 Cite this work as:
 Gaussian 16, Revision C.01,
 M. J. Frisch, G. W. Trucks, H. B. Schlegel, G. E. Scuseria, 
 M. A. Robb, J. R. Cheeseman, G. Scalmani, V. Barone, 
 G. A. Petersson, H. Nakatsuji, X. Li, M. Caricato, A. V. Marenich, 
 J. Bloino, B. G. Janesko, R. Gomperts, B. Mennucci, H. P. Hratchian, 
 J. V. Ortiz, A. F. Izmaylov, J. L. Sonnenberg, D. Williams-Young, 
 F. Ding, F. Lipparini, F. Egidi, J. Goings, B. Peng, A. Petrone, 
 T. Henderson, D. Ranasinghe, V. G. Zakrzewski, J. Gao, N. Rega, 
 G. Zheng, W. Liang, M. Hada, M. Ehara, K. Toyota, R. Fukuda, 
 J. Hasegawa, M. Ishida, T. Nakajima, Y. Honda, O. Kitao, H. Nakai, 
 T. Vreven, K. Throssell, J. A. Montgomery, Jr., J. E. Peralta, 
 F. Ogliaro, M. J. Bearpark, J. J. Heyd, E. N. Brothers, K. N. Kudin, 
 V. N. Staroverov, T. A. Keith, R. Kobayashi, J. Normand, 
 K. Raghavachari, A. P. Rendell, J. C. Burant, S. S. Iyengar, 
 J. Tomasi, M. Cossi, J. M. Millam, M. Klene, C. Adamo, R. Cammi, 
 J. W. Ochterski, R. L. Martin, K. Morokuma, O. Farkas, 
 J. B. Foresman, and D. J. Fox, Gaussian, Inc., Wallingford CT, 2019.
 
 ******************************************
 Gaussian 16:  ES64L-G16RevC.01  3-Jul-2019
                22-Feb-2021 
 ******************************************
 %chk=TYFQFVWCELRYAO-UHFFFAOYSA-N.chk
 %NProcShared=32
 Will use up to   32 processors via shared memory.
 -------------------------------------------------------------
 #P BP86/TZVP EmpiricalDispersion=GD3 SCRF=(Solvent=Water) Opt
 -------------------------------------------------------------
 1/18=20,19=15,26=3,38=1/1,3;
 2/9=110,12=2,17=6,18=5,40=1/2;
 3/5=19,7=101,11=2,25=1,30=1,70=2201,71=1,72=1,74=404,124=31/1,2,3;
 4//1;
 5/5=2,38=5,53=1/2;
 6/7=2,8=2,9=2,10=2,28=1/1;
 7//1,2,3,16;
 1/18=20,19=15,26=3/3(2);
 2/9=110/2;
 99//99;
 2/9=110/2;
 3/5=19,7=101,11=2,25=1,30=1,70=2205,71=1,72=1,74=404,124=31/1,2,3;
 4/5=5,16=3,69=1/1;
 5/5=2,38=5,53=1/2;
 7//1,2,3,16;
 1/18=20,19=15,26=3/3(-5);
 2/9=110/2;
 6/7=2,8=2,9=2,10=2,19=2,28=1/1;
 99/9=1/99;
 Leave Link    1 at Mon Feb 22 21:20:29 2021, MaxMem=           0 cpu:               2.2 elap:               0.1
 (Enter /sw/arch/RedHatEnterpriseServer7/EB_production/2019/software/Gaussian/g16.c01/l101.exe)
 -------------------------------------
 Particle #TYFQFVWCELRYAO-UHFFFAOYSA-N
 -------------------------------------
 Symbolic Z-matrix:
 Charge =  0 Multiplicity = 1
 O                     1.19536   1.85033  -1.72214 
 C                    -0.0211    1.9382   -2.00252 
 O                    -0.53809   3.16439  -2.24725 
 C                    -0.88095   0.73882  -2.06994 
 C                    -1.91648   0.69906  -0.91529 
 C                    -2.87679  -0.52292  -0.99474 
 C                    -3.88544  -0.5587    0.188 
 C                    -4.86263  -1.76648   0.13789 
 C                    -5.84697  -1.78616   1.34083 
 C                    -6.7807   -2.92769   1.28048 
 O                    -6.35849  -4.1041    1.36295 
 O                    -8.11101  -2.72676   1.12963 
 H                     0.03617   3.95727  -2.22614 
 H                    -0.257    -0.15801  -2.02768 
 H                    -1.39296   0.74217  -3.03505 
 H                    -1.37573   0.66373   0.03544 
 H                    -2.51379   1.61707  -0.93508 
 H                    -2.2857   -1.44304  -0.98865 
 H                    -3.43028  -0.47848  -1.93788 
 H                    -3.32497  -0.60106   1.12634 
 H                    -4.47039   0.36534   0.18246 
 H                    -5.43932  -1.72234  -0.791 
 H                    -4.2821   -2.69393   0.13579 
 H                    -6.41934  -0.85439   1.35272 
 H                    -5.28881  -1.8461    2.27907 
 H                    -8.72082  -3.49228   1.07306 
 
 ITRead=  0  0  0  0  0  0  0  0  0  0  0  0  0  0  0  0  0  0  0  0
 ITRead=  0  0  0  0  0  0
 MicOpt= -1 -1 -1 -1 -1 -1 -1 -1 -1 -1 -1 -1 -1 -1 -1 -1 -1 -1 -1 -1
 MicOpt= -1 -1 -1 -1 -1 -1
 NAtoms=     26 NQM=       26 NQMF=       0 NMMI=      0 NMMIF=      0
                NMic=       0 NMicF=      0.
                    Isotopes and Nuclear Properties:
 (Nuclear quadrupole moments (NQMom) in fm**2, nuclear magnetic moments (NMagM)
  in nuclear magnetons)

  Atom         1           2           3           4           5           6           7           8           9          10
 IAtWgt=          16          12          16          12          12          12          12          12          12          12
 AtmWgt=  15.9949146  12.0000000  15.9949146  12.0000000  12.0000000  12.0000000  12.0000000  12.0000000  12.0000000  12.0000000
 NucSpn=           0           0           0           0           0           0           0           0           0           0
 AtZEff=  -0.0000000  -0.0000000  -0.0000000  -0.0000000  -0.0000000  -0.0000000  -0.0000000  -0.0000000  -0.0000000  -0.0000000
 NQMom=    0.0000000   0.0000000   0.0000000   0.0000000   0.0000000   0.0000000   0.0000000   0.0000000   0.0000000   0.0000000
 NMagM=    0.0000000   0.0000000   0.0000000   0.0000000   0.0000000   0.0000000   0.0000000   0.0000000   0.0000000   0.0000000
 AtZNuc=   8.0000000   6.0000000   8.0000000   6.0000000   6.0000000   6.0000000   6.0000000   6.0000000   6.0000000   6.0000000

  Atom        11          12          13          14          15          16          17          18          19          20
 IAtWgt=          16          16           1           1           1           1           1           1           1           1
 AtmWgt=  15.9949146  15.9949146   1.0078250   1.0078250   1.0078250   1.0078250   1.0078250   1.0078250   1.0078250   1.0078250
 NucSpn=           0           0           1           1           1           1           1           1           1           1
 AtZEff=  -0.0000000  -0.0000000  -0.0000000  -0.0000000  -0.0000000  -0.0000000  -0.0000000  -0.0000000  -0.0000000  -0.0000000
 NQMom=    0.0000000   0.0000000   0.0000000   0.0000000   0.0000000   0.0000000   0.0000000   0.0000000   0.0000000   0.0000000
 NMagM=    0.0000000   0.0000000   2.7928460   2.7928460   2.7928460   2.7928460   2.7928460   2.7928460   2.7928460   2.7928460
 AtZNuc=   8.0000000   8.0000000   1.0000000   1.0000000   1.0000000   1.0000000   1.0000000   1.0000000   1.0000000   1.0000000

  Atom        21          22          23          24          25          26
 IAtWgt=           1           1           1           1           1           1
 AtmWgt=   1.0078250   1.0078250   1.0078250   1.0078250   1.0078250   1.0078250
 NucSpn=           1           1           1           1           1           1
 AtZEff=  -0.0000000  -0.0000000  -0.0000000  -0.0000000  -0.0000000  -0.0000000
 NQMom=    0.0000000   0.0000000   0.0000000   0.0000000   0.0000000   0.0000000
 NMagM=    2.7928460   2.7928460   2.7928460   2.7928460   2.7928460   2.7928460
 AtZNuc=   1.0000000   1.0000000   1.0000000   1.0000000   1.0000000   1.0000000
 Leave Link  101 at Mon Feb 22 21:20:29 2021, MaxMem=   104857600 cpu:               2.9 elap:               0.1
 (Enter /sw/arch/RedHatEnterpriseServer7/EB_production/2019/software/Gaussian/g16.c01/l103.exe)

 GradGradGradGradGradGradGradGradGradGradGradGradGradGradGradGradGradGrad
 Berny optimization.
 Initialization pass.
                           ----------------------------
                           !    Initial Parameters    !
                           ! (Angstroms and Degrees)  !
 --------------------------                            --------------------------
 ! Name  Definition              Value          Derivative Info.                !
 --------------------------------------------------------------------------------
 ! R1    R(1,2)                  1.2514         estimate D2E/DX2                !
 ! R2    R(2,3)                  1.353          estimate D2E/DX2                !
 ! R3    R(2,4)                  1.4773         estimate D2E/DX2                !
 ! R4    R(3,13)                 0.9792         estimate D2E/DX2                !
 ! R5    R(4,5)                  1.5515         estimate D2E/DX2                !
 ! R6    R(4,14)                 1.0933         estimate D2E/DX2                !
 ! R7    R(4,15)                 1.0925         estimate D2E/DX2                !
 ! R8    R(5,6)                  1.5562         estimate D2E/DX2                !
 ! R9    R(5,16)                 1.0943         estimate D2E/DX2                !
 ! R10   R(5,17)                 1.0954         estimate D2E/DX2                !
 ! R11   R(6,7)                  1.5548         estimate D2E/DX2                !
 ! R12   R(6,18)                 1.0936         estimate D2E/DX2                !
 ! R13   R(6,19)                 1.0945         estimate D2E/DX2                !
 ! R14   R(7,8)                  1.5544         estimate D2E/DX2                !
 ! R15   R(7,20)                 1.0938         estimate D2E/DX2                !
 ! R16   R(7,21)                 1.0936         estimate D2E/DX2                !
 ! R17   R(8,9)                  1.5545         estimate D2E/DX2                !
 ! R18   R(8,22)                 1.0942         estimate D2E/DX2                !
 ! R19   R(8,23)                 1.0942         estimate D2E/DX2                !
 ! R20   R(9,10)                 1.476          estimate D2E/DX2                !
 ! R21   R(9,24)                 1.0936         estimate D2E/DX2                !
 ! R22   R(9,25)                 1.0934         estimate D2E/DX2                !
 ! R23   R(10,11)                1.2526         estimate D2E/DX2                !
 ! R24   R(10,12)                1.3538         estimate D2E/DX2                !
 ! R25   R(12,26)                0.9804         estimate D2E/DX2                !
 ! A1    A(1,2,3)              118.3965         estimate D2E/DX2                !
 ! A2    A(1,2,4)              121.2647         estimate D2E/DX2                !
 ! A3    A(3,2,4)              120.3387         estimate D2E/DX2                !
 ! A4    A(2,3,13)             120.3855         estimate D2E/DX2                !
 ! A5    A(2,4,5)              112.0442         estimate D2E/DX2                !
 ! A6    A(2,4,14)             109.3918         estimate D2E/DX2                !
 ! A7    A(2,4,15)             108.0954         estimate D2E/DX2                !
 ! A8    A(5,4,14)             109.3361         estimate D2E/DX2                !
 ! A9    A(5,4,15)             110.1641         estimate D2E/DX2                !
 ! A10   A(14,4,15)            107.7045         estimate D2E/DX2                !
 ! A11   A(4,5,6)              113.2035         estimate D2E/DX2                !
 ! A12   A(4,5,16)             108.5168         estimate D2E/DX2                !
 ! A13   A(4,5,17)             109.2096         estimate D2E/DX2                !
 ! A14   A(6,5,16)             108.9009         estimate D2E/DX2                !
 ! A15   A(6,5,17)             108.7027         estimate D2E/DX2                !
 ! A16   A(16,5,17)            108.1919         estimate D2E/DX2                !
 ! A17   A(5,6,7)              112.3058         estimate D2E/DX2                !
 ! A18   A(5,6,18)             109.0771         estimate D2E/DX2                !
 ! A19   A(5,6,19)             108.9162         estimate D2E/DX2                !
 ! A20   A(7,6,18)             109.0881         estimate D2E/DX2                !
 ! A21   A(7,6,19)             109.1703         estimate D2E/DX2                !
 ! A22   A(18,6,19)            108.1975         estimate D2E/DX2                !
 ! A23   A(6,7,8)              113.6521         estimate D2E/DX2                !
 ! A24   A(6,7,20)             108.7266         estimate D2E/DX2                !
 ! A25   A(6,7,21)             108.8856         estimate D2E/DX2                !
 ! A26   A(8,7,20)             108.6444         estimate D2E/DX2                !
 ! A27   A(8,7,21)             108.6689         estimate D2E/DX2                !
 ! A28   A(20,7,21)            108.1277         estimate D2E/DX2                !
 ! A29   A(7,8,9)              112.5183         estimate D2E/DX2                !
 ! A30   A(7,8,22)             109.1076         estimate D2E/DX2                !
 ! A31   A(7,8,23)             108.9737         estimate D2E/DX2                !
 ! A32   A(9,8,22)             108.8871         estimate D2E/DX2                !
 ! A33   A(9,8,23)             109.0704         estimate D2E/DX2                !
 ! A34   A(22,8,23)            108.1911         estimate D2E/DX2                !
 ! A35   A(8,9,10)             112.2555         estimate D2E/DX2                !
 ! A36   A(8,9,24)             109.2112         estimate D2E/DX2                !
 ! A37   A(8,9,25)             109.9682         estimate D2E/DX2                !
 ! A38   A(10,9,24)            109.1655         estimate D2E/DX2                !
 ! A39   A(10,9,25)            108.3991         estimate D2E/DX2                !
 ! A40   A(24,9,25)            107.7322         estimate D2E/DX2                !
 ! A41   A(9,10,11)            120.6924         estimate D2E/DX2                !
 ! A42   A(9,10,12)            120.7564         estimate D2E/DX2                !
 ! A43   A(11,10,12)           118.5507         estimate D2E/DX2                !
 ! A44   A(10,12,26)           120.1167         estimate D2E/DX2                !
 ! D1    D(1,2,3,13)             1.5229         estimate D2E/DX2                !
 ! D2    D(4,2,3,13)          -178.369          estimate D2E/DX2                !
 ! D3    D(1,2,4,5)            111.1182         estimate D2E/DX2                !
 ! D4    D(1,2,4,14)           -10.2973         estimate D2E/DX2                !
 ! D5    D(1,2,4,15)          -127.3102         estimate D2E/DX2                !
 ! D6    D(3,2,4,5)            -68.993          estimate D2E/DX2                !
 ! D7    D(3,2,4,14)           169.5915         estimate D2E/DX2                !
 ! D8    D(3,2,4,15)            52.5785         estimate D2E/DX2                !
 ! D9    D(2,4,5,6)            177.5498         estimate D2E/DX2                !
 ! D10   D(2,4,5,16)           -61.4358         estimate D2E/DX2                !
 ! D11   D(2,4,5,17)            56.2973         estimate D2E/DX2                !
 ! D12   D(14,4,5,6)           -61.0027         estimate D2E/DX2                !
 ! D13   D(14,4,5,16)           60.0117         estimate D2E/DX2                !
 ! D14   D(14,4,5,17)          177.7448         estimate D2E/DX2                !
 ! D15   D(15,4,5,6)            57.1737         estimate D2E/DX2                !
 ! D16   D(15,4,5,16)          178.1882         estimate D2E/DX2                !
 ! D17   D(15,4,5,17)          -64.0787         estimate D2E/DX2                !
 ! D18   D(4,5,6,7)            178.784          estimate D2E/DX2                !
 ! D19   D(4,5,6,18)            57.7271         estimate D2E/DX2                !
 ! D20   D(4,5,6,19)           -60.1658         estimate D2E/DX2                !
 ! D21   D(16,5,6,7)            57.9868         estimate D2E/DX2                !
 ! D22   D(16,5,6,18)          -63.0701         estimate D2E/DX2                !
 ! D23   D(16,5,6,19)          179.037          estimate D2E/DX2                !
 ! D24   D(17,5,6,7)           -59.6783         estimate D2E/DX2                !
 ! D25   D(17,5,6,18)          179.2648         estimate D2E/DX2                !
 ! D26   D(17,5,6,19)           61.3719         estimate D2E/DX2                !
 ! D27   D(5,6,7,8)            179.8822         estimate D2E/DX2                !
 ! D28   D(5,6,7,20)           -58.9871         estimate D2E/DX2                !
 ! D29   D(5,6,7,21)            58.6059         estimate D2E/DX2                !
 ! D30   D(18,6,7,8)           -59.0672         estimate D2E/DX2                !
 ! D31   D(18,6,7,20)           62.0635         estimate D2E/DX2                !
 ! D32   D(18,6,7,21)          179.6566         estimate D2E/DX2                !
 ! D33   D(19,6,7,8)            58.9781         estimate D2E/DX2                !
 ! D34   D(19,6,7,20)         -179.8912         estimate D2E/DX2                !
 ! D35   D(19,6,7,21)          -62.2982         estimate D2E/DX2                !
 ! D36   D(6,7,8,9)            179.2925         estimate D2E/DX2                !
 ! D37   D(6,7,8,22)           -59.7448         estimate D2E/DX2                !
 ! D38   D(6,7,8,23)            58.1909         estimate D2E/DX2                !
 ! D39   D(20,7,8,9)            58.1159         estimate D2E/DX2                !
 ! D40   D(20,7,8,22)          179.0785         estimate D2E/DX2                !
 ! D41   D(20,7,8,23)          -62.9858         estimate D2E/DX2                !
 ! D42   D(21,7,8,9)           -59.3103         estimate D2E/DX2                !
 ! D43   D(21,7,8,22)           61.6524         estimate D2E/DX2                !
 ! D44   D(21,7,8,23)          179.5881         estimate D2E/DX2                !
 ! D45   D(7,8,9,10)           179.4374         estimate D2E/DX2                !
 ! D46   D(7,8,9,24)            58.2233         estimate D2E/DX2                !
 ! D47   D(7,8,9,25)           -59.796          estimate D2E/DX2                !
 ! D48   D(22,8,9,10)           58.3486         estimate D2E/DX2                !
 ! D49   D(22,8,9,24)          -62.8656         estimate D2E/DX2                !
 ! D50   D(22,8,9,25)          179.1151         estimate D2E/DX2                !
 ! D51   D(23,8,9,10)          -59.5162         estimate D2E/DX2                !
 ! D52   D(23,8,9,24)          179.2696         estimate D2E/DX2                !
 ! D53   D(23,8,9,25)           61.2504         estimate D2E/DX2                !
 ! D54   D(8,9,10,11)           64.3968         estimate D2E/DX2                !
 ! D55   D(8,9,10,12)         -115.344          estimate D2E/DX2                !
 ! D56   D(24,9,10,11)        -174.3628         estimate D2E/DX2                !
 ! D57   D(24,9,10,12)           5.8964         estimate D2E/DX2                !
 ! D58   D(25,9,10,11)         -57.2706         estimate D2E/DX2                !
 ! D59   D(25,9,10,12)         122.9886         estimate D2E/DX2                !
 ! D60   D(9,10,12,26)         178.8005         estimate D2E/DX2                !
 ! D61   D(11,10,12,26)         -0.9457         estimate D2E/DX2                !
 --------------------------------------------------------------------------------
 Trust Radius=3.00D-01 FncErr=1.00D-07 GrdErr=1.00D-06 EigMax=2.50D+02 EigMin=1.00D-04
 Number of steps in this run=    140 maximum allowed number of steps=    156.
 GradGradGradGradGradGradGradGradGradGradGradGradGradGradGradGradGradGrad

 Leave Link  103 at Mon Feb 22 21:20:30 2021, MaxMem=   104857600 cpu:               0.8 elap:               0.1
 (Enter /sw/arch/RedHatEnterpriseServer7/EB_production/2019/software/Gaussian/g16.c01/l202.exe)
                          Input orientation:                          
 ---------------------------------------------------------------------
 Center     Atomic      Atomic             Coordinates (Angstroms)
 Number     Number       Type             X           Y           Z
 ---------------------------------------------------------------------
      1          8           0        1.195360    1.850330   -1.722140
      2          6           0       -0.021100    1.938200   -2.002520
      3          8           0       -0.538090    3.164390   -2.247250
      4          6           0       -0.880950    0.738820   -2.069940
      5          6           0       -1.916480    0.699060   -0.915290
      6          6           0       -2.876790   -0.522920   -0.994740
      7          6           0       -3.885440   -0.558700    0.188000
      8          6           0       -4.862630   -1.766480    0.137890
      9          6           0       -5.846970   -1.786160    1.340830
     10          6           0       -6.780700   -2.927690    1.280480
     11          8           0       -6.358490   -4.104100    1.362950
     12          8           0       -8.111010   -2.726760    1.129630
     13          1           0        0.036170    3.957270   -2.226140
     14          1           0       -0.257000   -0.158010   -2.027680
     15          1           0       -1.392960    0.742170   -3.035050
     16          1           0       -1.375730    0.663730    0.035440
     17          1           0       -2.513790    1.617070   -0.935080
     18          1           0       -2.285700   -1.443040   -0.988650
     19          1           0       -3.430280   -0.478480   -1.937880
     20          1           0       -3.324970   -0.601060    1.126340
     21          1           0       -4.470390    0.365340    0.182460
     22          1           0       -5.439320   -1.722340   -0.791000
     23          1           0       -4.282100   -2.693930    0.135790
     24          1           0       -6.419340   -0.854390    1.352720
     25          1           0       -5.288810   -1.846100    2.279070
     26          1           0       -8.720820   -3.492280    1.073060
 ---------------------------------------------------------------------
                    Distance matrix (angstroms):
                    1          2          3          4          5
     1  O    0.000000
     2  C    1.251443   0.000000
     3  O    2.237709   1.353039   0.000000
     4  C    2.380648   1.477295   2.456091   0.000000
     5  C    3.414671   2.511972   3.122808   1.551490   0.000000
     6  C    4.769049   3.902268   4.542527   2.594498   1.556195
     7  C    5.938568   5.095686   5.567458   3.976030   2.583798
     8  C    7.296593   6.461147   6.978826   5.196616   3.983450
     9  C    8.497073   7.680469   8.097313   6.532245   5.168670
    10  C    9.770503   8.952495   9.408958   7.712046   6.452547
    11  O   10.101172   9.380740   9.987069   8.077255   6.927639
    12  O   10.755969   9.849815  10.171435   8.632570   7.368184
    13  H    2.457017   2.032223   0.979224   3.350213   4.018346
    14  H    2.497225   2.109592   3.341491   1.093345   2.173903
    15  H    3.106630   2.092512   2.686742   1.092521   2.183876
    16  H    3.332808   2.759090   3.487924   2.164040   1.094325
    17  H    3.798903   2.730578   2.831851   2.173798   1.095406
    18  H    4.847894   4.193940   5.085924   2.811232   2.174925
    19  H    5.183285   4.179357   4.661649   2.828134   2.173449
    20  H    5.878481   5.210870   5.772904   4.240839   2.800430
    21  H    6.159011   5.200405   5.403809   4.254042   2.799800
    22  H    7.592758   6.650146   7.072683   5.335891   4.276567
    23  H    7.355595   6.647189   7.349585   5.311952   4.267705
    24  H    8.646036   7.745558   7.981195   6.702737   5.275682
    25  H    8.468633   7.771854   8.256023   6.710062   5.296639
    26  H   11.605484  10.706747  11.058607   9.446916   8.235284
                    6          7          8          9         10
     6  C    0.000000
     7  C    1.554840   0.000000
     8  C    2.602470   1.554395   0.000000
     9  C    3.984047   2.585203   1.554470   0.000000
    10  C    5.118599   3.897199   2.516528   1.476003   0.000000
    11  O    5.523204   4.479547   3.033618   2.373813   1.252599
    12  O    6.063573   4.841755   3.529541   2.460734   1.353829
    13  H    5.483957   6.449890   7.896087   8.962232  10.303823
    14  H    2.839617   4.270289   5.337480   6.726477   7.821363
    15  H    2.822245   4.277005   5.329117   6.736392   7.817891
    16  H    2.173152   2.795756   4.251457   5.262888   6.607732
    17  H    2.171379   2.806547   4.256375   5.279378   6.615895
    18  H    1.093639   2.173875   2.830949   4.269292   5.249587
    19  H    1.094458   2.175539   2.831853   4.277892   5.251836
    20  H    2.169321   1.093802   2.167864   2.794808   4.168817
    21  H    2.171259   1.093639   2.168063   2.804594   4.169799
    22  H    2.836667   2.174176   1.094238   2.171394   2.746488
    23  H    2.822460   2.172389   1.094159   2.173703   2.758253
    24  H    4.262640   2.804399   2.175101   1.093592   2.105795
    25  H    4.276269   2.828325   2.184633   1.093357   2.095890
    26  H    6.873542   5.724519   4.328806   3.352844   2.031219
                   11         12         13         14         15
    11  O    0.000000
    12  O    2.241167   0.000000
    13  H   10.897657  11.059566   0.000000
    14  H    8.018490   8.846047   4.130480   0.000000
    15  H    8.214939   8.631931   3.610210   1.765085   0.000000
    16  H    7.022990   7.619493   4.237406   2.486620   3.071540
    17  H    7.265979   7.379753   3.694004   3.072098   2.536057
    18  H    5.403599   6.330030   6.007147   2.616583   3.124081
    19  H    5.710956   6.031054   5.636954   3.190685   2.616188
    20  H    4.639991   5.236868   6.581395   4.422282   4.780596
    21  H    4.993433   4.869531   6.245991   4.786572   4.468215
    22  H    3.340233   3.440292   8.018640   5.552742   5.242385
    23  H    2.793903   3.955926   8.274336   5.226177   5.496193
    24  H    3.250296   2.533236   8.811011   7.063036   6.860468
    25  H    2.661213   3.172001   9.073667   6.834973   7.079312
    26  H    2.457430   0.980352  11.960995   9.610837   9.407692
                   16         17         18         19         20
    16  H    0.000000
    17  H    1.773682   0.000000
    18  H    2.513023   3.069066   0.000000
    19  H    3.069171   2.497377   1.772421   0.000000
    20  H    2.566962   3.134895   2.502438   3.068478   0.000000
    21  H    3.112486   2.577597   3.068323   2.507928   1.771109
    22  H    4.784255   4.441975   3.172128   2.626550   3.066584
    23  H    4.441952   4.781046   2.610499   3.151813   2.505472
    24  H    5.429357   5.157079   4.787014   4.461372   3.112965
    25  H    5.161910   5.479511   4.456357   4.806993   2.595299
    26  H    8.502907   8.286453   7.061218   6.792537   6.121862
                   21         22         23         24         25
    21  H    0.000000
    22  H    2.498971   0.000000
    23  H    3.065414   1.772593   0.000000
    24  H    2.579856   2.511834   3.071257   0.000000
    25  H    3.155321   3.076248   2.515140   1.766270   0.000000
    26  H    5.808662   4.168411   4.606308   3.511906   3.992876
                   26
    26  H    0.000000
 Stoichiometry    C8H14O4
 Framework group  C1[X(C8H14O4)]
 Deg. of freedom    72
 Full point group                 C1      NOp   1
 Largest Abelian subgroup         C1      NOp   1
 Largest concise Abelian subgroup C1      NOp   1
                         Standard orientation:                         
 ---------------------------------------------------------------------
 Center     Atomic      Atomic             Coordinates (Angstroms)
 Number     Number       Type             X           Y           Z
 ---------------------------------------------------------------------
      1          8           0        5.256028   -0.846283    0.522132
      2          6           0        4.482715   -0.043644   -0.046959
      3          8           0        4.853079    1.254811   -0.133898
      4          6           0        3.195241   -0.492073   -0.615925
      5          6           0        1.983052    0.063902    0.176925
      6          6           0        0.611352   -0.342487   -0.435471
      7          6           0       -0.588199    0.199950    0.391794
      8          6           0       -1.975186   -0.185726   -0.194436
      9          6           0       -3.154591    0.354631    0.661950
     10          6           0       -4.468596   -0.003516    0.092999
     11          8           0       -4.826106   -1.201414    0.014069
     12          8           0       -5.311414    0.954434   -0.359599
     13          1           0        5.716874    1.548374    0.221851
     14          1           0        3.158534   -1.584800   -0.614198
     15          1           0        3.149615   -0.159750   -1.655676
     16          1           0        2.037877   -0.310852    1.203619
     17          1           0        2.043667    1.157181    0.208233
     18          1           0        0.549694   -1.433405   -0.481752
     19          1           0        0.549231    0.046979   -1.456401
     20          1           0       -0.517961   -0.191885    1.410585
     21          1           0       -0.519930    1.290340    0.441137
     22          1           0       -2.060047    0.216965   -1.208337
     23          1           0       -2.045987   -1.276025   -0.252896
     24          1           0       -3.078685    1.443286    0.732752
     25          1           0       -3.095747   -0.049934    1.675998
     26          1           0       -6.174550    0.704916   -0.751807
 ---------------------------------------------------------------------
 Rotational constants (GHZ):           3.8311229           0.1919707           0.1877277
 Leave Link  202 at Mon Feb 22 21:20:30 2021, MaxMem=   104857600 cpu:               1.1 elap:               0.1
 (Enter /sw/arch/RedHatEnterpriseServer7/EB_production/2019/software/Gaussian/g16.c01/l301.exe)
 Standard basis: TZVP (5D, 7F)
 Ernie: Thresh=  0.10000D-02 Tol=  0.10000D-05 Strict=F.
 There are   324 symmetry adapted cartesian basis functions of A   symmetry.
 There are   312 symmetry adapted basis functions of A   symmetry.
   312 basis functions,   532 primitive gaussians,   324 cartesian basis functions
    47 alpha electrons       47 beta electrons
       nuclear repulsion energy       656.1170023944 Hartrees.
 IExCor=  404 DFT=T Ex=B Corr=P86 ExCW=0 ScaHFX=  0.000000
 ScaDFX=  1.000000  1.000000  1.000000  1.000000 ScalE2=  1.000000  1.000000
 IRadAn=      5 IRanWt=     -1 IRanGd=            0 ICorTp=0 IEmpDi=131
 NAtoms=   26 NActive=   26 NUniq=   26 SFac= 1.00D+00 NAtFMM=   60 NAOKFM=F Big=F
 Integral buffers will be    131072 words long.
 Raffenetti 2 integral format.
 Two-electron integral symmetry is turned on.
 R6Disp:  Grimme-D3 Dispersion energy=       -0.0238317639 Hartrees.
 Nuclear repulsion after empirical dispersion term =      656.0931706305 Hartrees.
 ------------------------------------------------------------------------------
 Polarizable Continuum Model (PCM)
 =================================
 Model                : PCM.
 Atomic radii         : UFF (Universal Force Field).
 Polarization charges : Total charges.
 Charge compensation  : None.
 Solution method      : On-the-fly selection.
 Cavity type          : Scaled VdW (van der Waals Surface) (Alpha=1.100).
 Cavity algorithm     : GePol (No added spheres)
                        Default sphere list used, NSphG=   26.
                        Lebedev-Laikov grids with approx.  5.0 points / Ang**2.
                        Smoothing algorithm: York/Karplus (Gamma=1.0000).
                        Polarization charges: spherical gaussians, with
                                              point-specific exponents (IZeta= 3).
                        Self-potential: point-specific (ISelfS= 7).
                        Self-field    : sphere-specific E.n sum rule (ISelfD= 2).
 1st derivatives      : Analytical E(r).r(x)/FMM algorithm (CHGder, D1EAlg=3).
                        Cavity 1st derivative terms included.
 Solvent              : Water, Eps=  78.355300 Eps(inf)=   1.777849
 ------------------------------------------------------------------------------
 GePol: Number of generator spheres                  =      26
 GePol: Total number of spheres                      =      26
 GePol: Number of exposed spheres                    =      26 (100.00%)
 GePol: Number of points                             =    2072
 GePol: Average weight of points                     =       0.13
 GePol: Minimum weight of points                     =   0.44D-10
 GePol: Maximum weight of points                     =    0.20577
 GePol: Number of points with low weight             =     135
 GePol: Fraction of low-weight points (<1% of avg)   =       6.52%
 GePol: Cavity surface area                          =    274.050 Ang**2
 GePol: Cavity volume                                =    267.336 Ang**3
 Leave Link  301 at Mon Feb 22 21:20:30 2021, MaxMem=   104857600 cpu:               1.9 elap:               0.1
 (Enter /sw/arch/RedHatEnterpriseServer7/EB_production/2019/software/Gaussian/g16.c01/l302.exe)
 NPDir=0 NMtPBC=     1 NCelOv=     1 NCel=       1 NClECP=     1 NCelD=      1
         NCelK=      1 NCelE2=     1 NClLst=     1 CellRange=     0.0.
 One-electron integrals computed using PRISM.
 One-electron integral symmetry used in STVInt
 PrsmSu:  requested number of processors reduced to:  28 ShMem   1 Linda.
 NBasis=   312 RedAO= T EigKep=  7.90D-05  NBF=   312
 NBsUse=   312 1.00D-06 EigRej= -1.00D+00 NBFU=   312
 Precomputing XC quadrature grid using
 IXCGrd= 4 IRadAn=           5 IRanWt=          -1 IRanGd=           0 AccXCQ= 0.00D+00.
 Generated NRdTot=       0 NPtTot=           0 NUsed=           0 NTot=          32
 NSgBfM=   312   312   312   312   312 MxSgAt=    26 MxSgA2=    26.
 Leave Link  302 at Mon Feb 22 21:20:31 2021, MaxMem=   104857600 cpu:               9.7 elap:               0.4
 (Enter /sw/arch/RedHatEnterpriseServer7/EB_production/2019/software/Gaussian/g16.c01/l303.exe)
 DipDrv:  MaxL=1.
 Leave Link  303 at Mon Feb 22 21:20:31 2021, MaxMem=   104857600 cpu:               1.3 elap:               0.1
 (Enter /sw/arch/RedHatEnterpriseServer7/EB_production/2019/software/Gaussian/g16.c01/l401.exe)
 ExpMin= 9.52D-02 ExpMax= 2.70D+04 ExpMxC= 9.22D+02 IAcc=3 IRadAn=         5 AccDes= 0.00D+00
 Harris functional with IExCor=  404 and IRadAn=       5 diagonalized for initial guess.
 HarFok:  IExCor=  404 AccDes= 0.00D+00 IRadAn=         5 IDoV= 1 UseB2=F ITyADJ=14
 ICtDFT=  3500011 ScaDFX=  1.000000  1.000000  1.000000  1.000000
 FoFCou: FMM=F IPFlag=           0 FMFlag=      100000 FMFlg1=           0
         NFxFlg=           0 DoJE=T BraDBF=F KetDBF=T FulRan=T
         wScrn=  0.000000 ICntrl=       500 IOpCl=  0 I1Cent=   200000004 NGrid=           0
         NMat0=    1 NMatS0=      1 NMatT0=    0 NMatD0=    1 NMtDS0=    0 NMtDT0=    0
 Petite list used in FoFCou.
 Harris En= -614.701823212202    
 JPrj=0 DoOrth=F DoCkMO=F.
 Leave Link  401 at Mon Feb 22 21:20:32 2021, MaxMem=   104857600 cpu:              17.8 elap:               0.6
 (Enter /sw/arch/RedHatEnterpriseServer7/EB_production/2019/software/Gaussian/g16.c01/l502.exe)
 Integral symmetry usage will be decided dynamically.
 Closed shell SCF:
 Using DIIS extrapolation, IDIIS=  1040.
 NGot=   104857600 LenX=   104633290 LenY=   104527873
 Requested convergence on RMS density matrix=1.00D-08 within 128 cycles.
 Requested convergence on MAX density matrix=1.00D-06.
 Requested convergence on             energy=1.00D-06.
 No special actions if energy rises.
 Fock matrices will be formed incrementally for  20 cycles.

 Cycle   1  Pass 1  IDiag  1:
 FoFJK:  IHMeth= 1 ICntrl=     500 DoSepK=F KAlg= 0 I1Cent=           0 FoldK=F
 IRaf= 790000000 NMat=       1 IRICut=       1 DoRegI=T DoRafI=F ISym2E= 0 IDoP0=0 IntGTp=1.
 FoFCou: FMM=F IPFlag=           0 FMFlag=      100000 FMFlg1=           0
         NFxFlg=           0 DoJE=T BraDBF=F KetDBF=F FulRan=T
         wScrn=  0.000000 ICntrl=       500 IOpCl=  0 I1Cent=           0 NGrid=           0
         NMat0=    1 NMatS0=      1 NMatT0=    0 NMatD0=    1 NMtDS0=    0 NMtDT0=    0
 Symmetry not used in FoFCou.
 Inv3:  Mode=1 IEnd=    12879552.
 Iteration    1 A*A^-1 deviation from unit magnitude is 4.66D-15 for   1103.
 Iteration    1 A*A^-1 deviation from orthogonality  is 1.86D-15 for   1757   1022.
 Iteration    1 A^-1*A deviation from unit magnitude is 4.66D-15 for   1103.
 Iteration    1 A^-1*A deviation from orthogonality  is 2.44D-15 for   1688      4.
 E= -614.078020986990    
 DIIS: error= 3.66D-02 at cycle   1 NSaved=   1.
 NSaved= 1 IEnMin= 1 EnMin= -614.078020986990     IErMin= 1 ErrMin= 3.66D-02
 ErrMax= 3.66D-02  0.00D+00 EMaxC= 1.00D-01 BMatC= 4.54D-01 BMatP= 4.54D-01
 IDIUse=3 WtCom= 6.34D-01 WtEn= 3.66D-01
 Coeff-Com:  0.100D+01
 Coeff-En:   0.100D+01
 Coeff:      0.100D+01
 Gap=     0.062 Goal=   None    Shift=    0.000
 GapD=    0.062 DampG=0.500 DampE=0.500 DampFc=0.2500 IDamp=-1.
 Damping current iteration by 2.50D-01
 RMSDP=7.71D-03 MaxDP=5.72D-01              OVMax= 3.10D-01

 Cycle   2  Pass 1  IDiag  1:
 RMSU=  1.93D-03    CP:  9.99D-01
 E= -614.211399421818     Delta-E=       -0.133378434828 Rises=F Damp=T
 DIIS: error= 1.50D-02 at cycle   2 NSaved=   2.
 NSaved= 2 IEnMin= 2 EnMin= -614.211399421818     IErMin= 2 ErrMin= 1.50D-02
 ErrMax= 1.50D-02  0.00D+00 EMaxC= 1.00D-01 BMatC= 5.66D-02 BMatP= 4.54D-01
 IDIUse=3 WtCom= 8.50D-01 WtEn= 1.50D-01
 Coeff-Com: -0.304D+00 0.130D+01
 Coeff-En:   0.171D-02 0.998D+00
 Coeff:     -0.259D+00 0.126D+01
 Gap=     0.163 Goal=   None    Shift=    0.000
 RMSDP=1.51D-03 MaxDP=4.27D-02 DE=-1.33D-01 OVMax= 2.38D-01

 Cycle   3  Pass 1  IDiag  1:
 RMSU=  1.51D-03    CP:  9.89D-01  1.02D+00
 E= -614.363703139065     Delta-E=       -0.152303717246 Rises=F Damp=F
 DIIS: error= 2.21D-02 at cycle   3 NSaved=   3.
 NSaved= 3 IEnMin= 3 EnMin= -614.363703139065     IErMin= 2 ErrMin= 1.50D-02
 ErrMax= 2.21D-02  0.00D+00 EMaxC= 1.00D-01 BMatC= 1.26D-01 BMatP= 5.66D-02
 IDIUse=2 WtCom= 0.00D+00 WtEn= 1.00D+00
 Coeff-En:   0.427D-01 0.000D+00 0.957D+00
 Coeff:      0.427D-01 0.000D+00 0.957D+00
 Gap=     0.134 Goal=   None    Shift=    0.000
 RMSDP=3.88D-03 MaxDP=1.87D-01 DE=-1.52D-01 OVMax= 4.13D-01

 Cycle   4  Pass 1  IDiag  1:
 RMSU=  1.71D-03    CP:  1.01D+00  2.12D+00 -8.32D-01
 E= -613.548930281880     Delta-E=        0.814772857184 Rises=F Damp=F
 DIIS: error= 7.25D-02 at cycle   4 NSaved=   4.
 NSaved= 4 IEnMin= 3 EnMin= -614.363703139065     IErMin= 2 ErrMin= 1.50D-02
 ErrMax= 7.25D-02  0.00D+00 EMaxC= 1.00D-01 BMatC= 1.16D+00 BMatP= 5.66D-02
 IDIUse=2 WtCom= 0.00D+00 WtEn= 1.00D+00
 Coeff-En:   0.000D+00 0.000D+00 0.838D+00 0.162D+00
 Coeff:      0.000D+00 0.000D+00 0.838D+00 0.162D+00
 Gap=     0.147 Goal=   None    Shift=    0.000
 RMSDP=2.53D-03 MaxDP=1.59D-01 DE= 8.15D-01 OVMax= 2.35D-01

 Cycle   5  Pass 1  IDiag  1:
 RMSU=  4.33D-04    CP:  1.00D+00  1.13D+00  6.59D-02  4.90D-01
 E= -614.379714662068     Delta-E=       -0.830784380188 Rises=F Damp=F
 DIIS: error= 2.17D-02 at cycle   5 NSaved=   5.
 NSaved= 5 IEnMin= 5 EnMin= -614.379714662068     IErMin= 2 ErrMin= 1.50D-02
 ErrMax= 2.17D-02  0.00D+00 EMaxC= 1.00D-01 BMatC= 1.12D-01 BMatP= 5.66D-02
 IDIUse=2 WtCom= 0.00D+00 WtEn= 1.00D+00
 Coeff-En:   0.000D+00 0.000D+00 0.471D+00 0.000D+00 0.529D+00
 Coeff:      0.000D+00 0.000D+00 0.471D+00 0.000D+00 0.529D+00
 Gap=     0.175 Goal=   None    Shift=    0.000
 RMSDP=8.46D-04 MaxDP=2.50D-02 DE=-8.31D-01 OVMax= 9.29D-02

 Cycle   6  Pass 1  IDiag  1:
 RMSU=  1.63D-04    CP:  9.94D-01  1.02D+00  5.00D-01  2.24D-01  7.97D-01
 E= -614.466160917720     Delta-E=       -0.086446255652 Rises=F Damp=F
 DIIS: error= 2.17D-03 at cycle   6 NSaved=   6.
 NSaved= 6 IEnMin= 6 EnMin= -614.466160917720     IErMin= 6 ErrMin= 2.17D-03
 ErrMax= 2.17D-03  0.00D+00 EMaxC= 1.00D-01 BMatC= 1.88D-03 BMatP= 5.66D-02
 IDIUse=3 WtCom= 9.78D-01 WtEn= 2.17D-02
 Coeff-Com: -0.418D-01 0.753D-01 0.258D+00-0.435D-01 0.406D+00 0.347D+00
 Coeff-En:   0.000D+00 0.000D+00 0.000D+00 0.000D+00 0.000D+00 0.100D+01
 Coeff:     -0.409D-01 0.737D-01 0.252D+00-0.426D-01 0.397D+00 0.361D+00
 Gap=     0.175 Goal=   None    Shift=    0.000
 RMSDP=1.25D-04 MaxDP=4.52D-03 DE=-8.64D-02 OVMax= 9.39D-03

 Cycle   7  Pass 1  IDiag  1:
 RMSU=  6.21D-05    CP:  9.94D-01  1.04D+00  4.82D-01  2.60D-01  7.81D-01
                    CP:  5.13D-01
 E= -614.467413016583     Delta-E=       -0.001252098863 Rises=F Damp=F
 DIIS: error= 7.38D-04 at cycle   7 NSaved=   7.
 NSaved= 7 IEnMin= 7 EnMin= -614.467413016583     IErMin= 7 ErrMin= 7.38D-04
 ErrMax= 7.38D-04  0.00D+00 EMaxC= 1.00D-01 BMatC= 1.45D-04 BMatP= 1.88D-03
 IDIUse=3 WtCom= 9.93D-01 WtEn= 7.38D-03
 Coeff-Com: -0.723D-02 0.115D-01 0.754D-01-0.172D-01 0.131D+00 0.233D+00
 Coeff-Com:  0.574D+00
 Coeff-En:   0.000D+00 0.000D+00 0.000D+00 0.000D+00 0.000D+00 0.498D-01
 Coeff-En:   0.950D+00
 Coeff:     -0.717D-02 0.114D-01 0.749D-01-0.171D-01 0.130D+00 0.232D+00
 Coeff:      0.577D+00
 Gap=     0.175 Goal=   None    Shift=    0.000
 RMSDP=2.89D-05 MaxDP=8.62D-04 DE=-1.25D-03 OVMax= 2.17D-03

 Cycle   8  Pass 1  IDiag  1:
 RMSU=  1.93D-05    CP:  9.94D-01  1.04D+00  4.85D-01  2.55D-01  7.78D-01
                    CP:  5.50D-01  7.24D-01
 E= -614.467511239935     Delta-E=       -0.000098223352 Rises=F Damp=F
 DIIS: error= 1.76D-04 at cycle   8 NSaved=   8.
 NSaved= 8 IEnMin= 8 EnMin= -614.467511239935     IErMin= 8 ErrMin= 1.76D-04
 ErrMax= 1.76D-04  0.00D+00 EMaxC= 1.00D-01 BMatC= 1.50D-05 BMatP= 1.45D-04
 IDIUse=3 WtCom= 9.98D-01 WtEn= 1.76D-03
 Coeff-Com:  0.473D-02-0.819D-02 0.129D-01-0.254D-02 0.194D-01 0.103D+00
 Coeff-Com:  0.330D+00 0.541D+00
 Coeff-En:   0.000D+00 0.000D+00 0.000D+00 0.000D+00 0.000D+00 0.000D+00
 Coeff-En:   0.000D+00 0.100D+01
 Coeff:      0.472D-02-0.818D-02 0.129D-01-0.253D-02 0.193D-01 0.103D+00
 Coeff:      0.329D+00 0.542D+00
 Gap=     0.175 Goal=   None    Shift=    0.000
 RMSDP=1.59D-05 MaxDP=1.18D-03 DE=-9.82D-05 OVMax= 1.15D-03

 Cycle   9  Pass 1  IDiag  1:
 RMSU=  6.74D-06    CP:  9.94D-01  1.03D+00  4.88D-01  2.53D-01  7.77D-01
                    CP:  5.74D-01  7.41D-01  5.81D-01
 E= -614.467522441940     Delta-E=       -0.000011202004 Rises=F Damp=F
 DIIS: error= 9.20D-05 at cycle   9 NSaved=   9.
 NSaved= 9 IEnMin= 9 EnMin= -614.467522441940     IErMin= 9 ErrMin= 9.20D-05
 ErrMax= 9.20D-05  0.00D+00 EMaxC= 1.00D-01 BMatC= 1.78D-06 BMatP= 1.50D-05
 IDIUse=1 WtCom= 1.00D+00 WtEn= 0.00D+00
 Coeff-Com:  0.355D-02-0.570D-02 0.533D-02-0.984D-03 0.662D-02 0.578D-01
 Coeff-Com:  0.197D+00 0.374D+00 0.363D+00
 Coeff:      0.355D-02-0.570D-02 0.533D-02-0.984D-03 0.662D-02 0.578D-01
 Coeff:      0.197D+00 0.374D+00 0.363D+00
 Gap=     0.175 Goal=   None    Shift=    0.000
 RMSDP=4.39D-06 MaxDP=1.81D-04 DE=-1.12D-05 OVMax= 5.07D-04

 Cycle  10  Pass 1  IDiag  1:
 RMSU=  3.15D-06    CP:  9.94D-01  1.03D+00  4.88D-01  2.53D-01  7.77D-01
                    CP:  5.73D-01  7.42D-01  6.27D-01  5.71D-01
 E= -614.467523615007     Delta-E=       -0.000001173067 Rises=F Damp=F
 DIIS: error= 4.01D-05 at cycle  10 NSaved=  10.
 NSaved=10 IEnMin=10 EnMin= -614.467523615007     IErMin=10 ErrMin= 4.01D-05
 ErrMax= 4.01D-05  0.00D+00 EMaxC= 1.00D-01 BMatC= 2.54D-07 BMatP= 1.78D-06
 IDIUse=1 WtCom= 1.00D+00 WtEn= 0.00D+00
 Coeff-Com:  0.130D-02-0.181D-02 0.113D-02-0.206D-03 0.657D-03 0.154D-01
 Coeff-Com:  0.544D-01 0.119D+00 0.268D+00 0.542D+00
 Coeff:      0.130D-02-0.181D-02 0.113D-02-0.206D-03 0.657D-03 0.154D-01
 Coeff:      0.544D-01 0.119D+00 0.268D+00 0.542D+00
 Gap=     0.175 Goal=   None    Shift=    0.000
 RMSDP=1.54D-06 MaxDP=6.02D-05 DE=-1.17D-06 OVMax= 1.77D-04

 Cycle  11  Pass 1  IDiag  1:
 RMSU=  6.59D-07    CP:  9.94D-01  1.03D+00  4.88D-01  2.53D-01  7.77D-01
                    CP:  5.75D-01  7.45D-01  6.28D-01  6.27D-01  6.14D-01
 E= -614.467523806324     Delta-E=       -0.000000191317 Rises=F Damp=F
 DIIS: error= 7.24D-06 at cycle  11 NSaved=  11.
 NSaved=11 IEnMin=11 EnMin= -614.467523806324     IErMin=11 ErrMin= 7.24D-06
 ErrMax= 7.24D-06  0.00D+00 EMaxC= 1.00D-01 BMatC= 1.85D-08 BMatP= 2.54D-07
 IDIUse=1 WtCom= 1.00D+00 WtEn= 0.00D+00
 Coeff-Com:  0.593D-03-0.753D-03 0.462D-03-0.904D-04 0.135D-03 0.594D-02
 Coeff-Com:  0.216D-01 0.492D-01 0.141D+00 0.337D+00 0.445D+00
 Coeff:      0.593D-03-0.753D-03 0.462D-03-0.904D-04 0.135D-03 0.594D-02
 Coeff:      0.216D-01 0.492D-01 0.141D+00 0.337D+00 0.445D+00
 Gap=     0.175 Goal=   None    Shift=    0.000
 RMSDP=3.13D-07 MaxDP=1.14D-05 DE=-1.91D-07 OVMax= 2.46D-05

 Cycle  12  Pass 1  IDiag  1:
 RMSU=  2.47D-07    CP:  9.94D-01  1.03D+00  4.88D-01  2.52D-01  7.77D-01
                    CP:  5.75D-01  7.45D-01  6.28D-01  6.24D-01  6.26D-01
                    CP:  7.34D-01
 E= -614.467523820386     Delta-E=       -0.000000014062 Rises=F Damp=F
 DIIS: error= 2.98D-06 at cycle  12 NSaved=  12.
 NSaved=12 IEnMin=12 EnMin= -614.467523820386     IErMin=12 ErrMin= 2.98D-06
 ErrMax= 2.98D-06  0.00D+00 EMaxC= 1.00D-01 BMatC= 1.57D-09 BMatP= 1.85D-08
 IDIUse=1 WtCom= 1.00D+00 WtEn= 0.00D+00
 Coeff-Com:  0.146D-03-0.163D-03 0.107D-03-0.188D-04 0.402D-06 0.868D-03
 Coeff-Com:  0.344D-02 0.771D-02 0.349D-01 0.102D+00 0.244D+00 0.607D+00
 Coeff:      0.146D-03-0.163D-03 0.107D-03-0.188D-04 0.402D-06 0.868D-03
 Coeff:      0.344D-02 0.771D-02 0.349D-01 0.102D+00 0.244D+00 0.607D+00
 Gap=     0.175 Goal=   None    Shift=    0.000
 RMSDP=1.26D-07 MaxDP=3.44D-06 DE=-1.41D-08 OVMax= 6.19D-06

 Cycle  13  Pass 1  IDiag  1:
 RMSU=  7.64D-08    CP:  9.94D-01  1.03D+00  4.88D-01  2.52D-01  7.77D-01
                    CP:  5.74D-01  7.45D-01  6.27D-01  6.25D-01  6.33D-01
                    CP:  7.32D-01  7.14D-01
 E= -614.467523821396     Delta-E=       -0.000000001010 Rises=F Damp=F
 DIIS: error= 5.99D-07 at cycle  13 NSaved=  13.
 NSaved=13 IEnMin=13 EnMin= -614.467523821396     IErMin=13 ErrMin= 5.99D-07
 ErrMax= 5.99D-07  0.00D+00 EMaxC= 1.00D-01 BMatC= 1.95D-10 BMatP= 1.57D-09
 IDIUse=1 WtCom= 1.00D+00 WtEn= 0.00D+00
 Coeff-Com:  0.454D-04-0.469D-04 0.348D-04-0.470D-05-0.762D-06 0.715D-04
 Coeff-Com:  0.399D-03 0.606D-03 0.935D-02 0.341D-01 0.110D+00 0.370D+00
 Coeff-Com:  0.476D+00
 Coeff:      0.454D-04-0.469D-04 0.348D-04-0.470D-05-0.762D-06 0.715D-04
 Coeff:      0.399D-03 0.606D-03 0.935D-02 0.341D-01 0.110D+00 0.370D+00
 Coeff:      0.476D+00
 Gap=     0.175 Goal=   None    Shift=    0.000
 RMSDP=3.61D-08 MaxDP=1.05D-06 DE=-1.01D-09 OVMax= 2.08D-06

 Cycle  14  Pass 1  IDiag  1:
 RMSU=  3.02D-08    CP:  9.94D-01  1.03D+00  4.88D-01  2.52D-01  7.77D-01
                    CP:  5.74D-01  7.45D-01  6.27D-01  6.25D-01  6.33D-01
                    CP:  7.30D-01  7.38D-01  8.25D-01
 E= -614.467523821552     Delta-E=       -0.000000000156 Rises=F Damp=F
 DIIS: error= 1.56D-07 at cycle  14 NSaved=  14.
 NSaved=14 IEnMin=14 EnMin= -614.467523821552     IErMin=14 ErrMin= 1.56D-07
 ErrMax= 1.56D-07  0.00D+00 EMaxC= 1.00D-01 BMatC= 9.42D-12 BMatP= 1.95D-10
 IDIUse=1 WtCom= 1.00D+00 WtEn= 0.00D+00
 Coeff-Com:  0.588D-05-0.454D-05 0.829D-05-0.113D-05 0.362D-05-0.462D-04
 Coeff-Com: -0.132D-03-0.446D-03 0.532D-03 0.422D-02 0.213D-01 0.946D-01
 Coeff-Com:  0.209D+00 0.671D+00
 Coeff:      0.588D-05-0.454D-05 0.829D-05-0.113D-05 0.362D-05-0.462D-04
 Coeff:     -0.132D-03-0.446D-03 0.532D-03 0.422D-02 0.213D-01 0.946D-01
 Coeff:      0.209D+00 0.671D+00
 Gap=     0.175 Goal=   None    Shift=    0.000
 RMSDP=1.35D-08 MaxDP=5.44D-07 DE=-1.56D-10 OVMax= 5.34D-07

 Cycle  15  Pass 1  IDiag  1:
 RMSU=  9.41D-09    CP:  9.94D-01  1.03D+00  4.88D-01  2.52D-01  7.77D-01
                    CP:  5.74D-01  7.45D-01  6.27D-01  6.25D-01  6.32D-01
                    CP:  7.37D-01  7.53D-01  8.24D-01  8.56D-01
 E= -614.467523821552     Delta-E=        0.000000000000 Rises=F Damp=F
 DIIS: error= 3.24D-08 at cycle  15 NSaved=  15.
 NSaved=15 IEnMin=14 EnMin= -614.467523821552     IErMin=15 ErrMin= 3.24D-08
 ErrMax= 3.24D-08  0.00D+00 EMaxC= 1.00D-01 BMatC= 3.09D-13 BMatP= 9.42D-12
 IDIUse=1 WtCom= 1.00D+00 WtEn= 0.00D+00
 Coeff-Com: -0.785D-07 0.432D-06 0.105D-05-0.124D-06 0.773D-06-0.125D-04
 Coeff-Com: -0.479D-04-0.128D-03-0.299D-03-0.456D-03 0.478D-03 0.782D-02
 Coeff-Com:  0.348D-01 0.192D+00 0.766D+00
 Coeff:     -0.785D-07 0.432D-06 0.105D-05-0.124D-06 0.773D-06-0.125D-04
 Coeff:     -0.479D-04-0.128D-03-0.299D-03-0.456D-03 0.478D-03 0.782D-02
 Coeff:      0.348D-01 0.192D+00 0.766D+00
 Gap=     0.175 Goal=   None    Shift=    0.000
 RMSDP=3.07D-09 MaxDP=1.35D-07 DE= 2.27D-13 OVMax= 1.33D-07

 Error on total polarization charges =  0.01331
 SCF Done:  E(RB-P86) =  -614.467523822     A.U. after   15 cycles
            NFock= 15  Conv=0.31D-08     -V/T= 2.0047
 KE= 6.115962279715D+02 PE=-2.749555604698D+03 EE= 8.673986822743D+02
 Leave Link  502 at Mon Feb 22 21:20:53 2021, MaxMem=   104857600 cpu:             673.4 elap:              21.6
 (Enter /sw/arch/RedHatEnterpriseServer7/EB_production/2019/software/Gaussian/g16.c01/l601.exe)
 Copying SCF densities to generalized density rwf, IOpCl= 0 IROHF=0.

 **********************************************************************

            Population analysis using the SCF Density.

 **********************************************************************

 Orbital symmetries:
       Occupied  (A) (A) (A) (A) (A) (A) (A) (A) (A) (A) (A) (A)
                 (A) (A) (A) (A) (A) (A) (A) (A) (A) (A) (A) (A)
                 (A) (A) (A) (A) (A) (A) (A) (A) (A) (A) (A) (A)
                 (A) (A) (A) (A) (A) (A) (A) (A) (A) (A) (A)
       Virtual   (A) (A) (A) (A) (A) (A) (A) (A) (A) (A) (A) (A)
                 (A) (A) (A) (A) (A) (A) (A) (A) (A) (A) (A) (A)
                 (A) (A) (A) (A) (A) (A) (A) (A) (A) (A) (A) (A)
                 (A) (A) (A) (A) (A) (A) (A) (A) (A) (A) (A) (A)
                 (A) (A) (A) (A) (A) (A) (A) (A) (A) (A) (A) (A)
                 (A) (A) (A) (A) (A) (A) (A) (A) (A) (A) (A) (A)
                 (A) (A) (A) (A) (A) (A) (A) (A) (A) (A) (A) (A)
                 (A) (A) (A) (A) (A) (A) (A) (A) (A) (A) (A) (A)
                 (A) (A) (A) (A) (A) (A) (A) (A) (A) (A) (A) (A)
                 (A) (A) (A) (A) (A) (A) (A) (A) (A) (A) (A) (A)
                 (A) (A) (A) (A) (A) (A) (A) (A) (A) (A) (A) (A)
                 (A) (A) (A) (A) (A) (A) (A) (A) (A) (A) (A) (A)
                 (A) (A) (A) (A) (A) (A) (A) (A) (A) (A) (A) (A)
                 (A) (A) (A) (A) (A) (A) (A) (A) (A) (A) (A) (A)
                 (A) (A) (A) (A) (A) (A) (A) (A) (A) (A) (A) (A)
                 (A) (A) (A) (A) (A) (A) (A) (A) (A) (A) (A) (A)
                 (A) (A) (A) (A) (A) (A) (A) (A) (A) (A) (A) (A)
                 (A) (A) (A) (A) (A) (A) (A) (A) (A) (A) (A) (A)
                 (A) (A) (A) (A) (A) (A) (A) (A) (A) (A) (A) (A)
                 (A) (A) (A) (A) (A) (A) (A) (A) (A) (A) (A) (A)
                 (A) (A) (A) (A) (A) (A) (A) (A) (A) (A) (A) (A)
                 (A) (A) (A) (A) (A) (A) (A) (A) (A) (A) (A) (A)
                 (A)
 The electronic state is 1-A.
 Alpha  occ. eigenvalues --  -18.82269 -18.82130 -18.75832 -18.75791 -10.03578
 Alpha  occ. eigenvalues --  -10.03561  -9.91801  -9.91767  -9.90863  -9.90835
 Alpha  occ. eigenvalues --   -9.89995  -9.89949  -1.01701  -1.01688  -0.92260
 Alpha  occ. eigenvalues --   -0.92255  -0.74923  -0.73284  -0.69065  -0.63811
 Alpha  occ. eigenvalues --   -0.59419  -0.57211  -0.54570  -0.52930  -0.45967
 Alpha  occ. eigenvalues --   -0.45085  -0.44395  -0.42991  -0.42506  -0.41838
 Alpha  occ. eigenvalues --   -0.41487  -0.40120  -0.37618  -0.36234  -0.36024
 Alpha  occ. eigenvalues --   -0.34338  -0.34004  -0.33250  -0.32069  -0.30721
 Alpha  occ. eigenvalues --   -0.29976  -0.29671  -0.29479  -0.28355  -0.28112
 Alpha  occ. eigenvalues --   -0.23580  -0.23283
 Alpha virt. eigenvalues --   -0.05746  -0.05305   0.01177   0.01387   0.02732
 Alpha virt. eigenvalues --    0.04889   0.05236   0.05782   0.06094   0.07980
 Alpha virt. eigenvalues --    0.09042   0.09456   0.10290   0.10932   0.11324
 Alpha virt. eigenvalues --    0.11578   0.12645   0.13085   0.14620   0.14765
 Alpha virt. eigenvalues --    0.14903   0.16039   0.17515   0.18344   0.18818
 Alpha virt. eigenvalues --    0.19695   0.22167   0.22667   0.23589   0.24481
 Alpha virt. eigenvalues --    0.25053   0.25502   0.25895   0.27361   0.27521
 Alpha virt. eigenvalues --    0.28329   0.28855   0.29875   0.30321   0.31323
 Alpha virt. eigenvalues --    0.34053   0.34329   0.35302   0.35692   0.36054
 Alpha virt. eigenvalues --    0.37086   0.38245   0.39012   0.39751   0.39849
 Alpha virt. eigenvalues --    0.40487   0.41163   0.41908   0.42202   0.42871
 Alpha virt. eigenvalues --    0.43292   0.43574   0.44531   0.45094   0.45480
 Alpha virt. eigenvalues --    0.45811   0.45979   0.46888   0.47462   0.48227
 Alpha virt. eigenvalues --    0.48321   0.49249   0.50288   0.50786   0.51233
 Alpha virt. eigenvalues --    0.51886   0.54468   0.55107   0.56047   0.56778
 Alpha virt. eigenvalues --    0.58211   0.59792   0.61861   0.62172   0.64369
 Alpha virt. eigenvalues --    0.66845   0.69097   0.69993   0.72549   0.75859
 Alpha virt. eigenvalues --    0.79191   0.80324   0.86473   0.87555   1.04568
 Alpha virt. eigenvalues --    1.08055   1.10767   1.13782   1.15549   1.17551
 Alpha virt. eigenvalues --    1.18447   1.18766   1.21141   1.22699   1.23445
 Alpha virt. eigenvalues --    1.23869   1.25125   1.25862   1.26388   1.28265
 Alpha virt. eigenvalues --    1.29212   1.30261   1.30880   1.32020   1.33194
 Alpha virt. eigenvalues --    1.33429   1.34499   1.35181   1.35580   1.38377
 Alpha virt. eigenvalues --    1.38852   1.40149   1.41424   1.43967   1.44538
 Alpha virt. eigenvalues --    1.45252   1.46150   1.46633   1.48107   1.49288
 Alpha virt. eigenvalues --    1.49920   1.51450   1.53036   1.54738   1.55348
 Alpha virt. eigenvalues --    1.56175   1.58524   1.58959   1.59523   1.60814
 Alpha virt. eigenvalues --    1.64392   1.64731   1.65571   1.67992   1.71623
 Alpha virt. eigenvalues --    1.72943   1.74919   1.76007   1.76319   1.76629
 Alpha virt. eigenvalues --    1.76679   1.78008   1.78648   1.79174   1.79754
 Alpha virt. eigenvalues --    1.81249   1.81407   1.84334   1.89716   1.90683
 Alpha virt. eigenvalues --    1.91088   1.94279   1.96182   1.98007   2.04555
 Alpha virt. eigenvalues --    2.06037   2.06644   2.07573   2.10693   2.11071
 Alpha virt. eigenvalues --    2.11900   2.12877   2.15655   2.16595   2.16868
 Alpha virt. eigenvalues --    2.19437   2.20224   2.24001   2.25766   2.27707
 Alpha virt. eigenvalues --    2.31527   2.33131   2.34552   2.37000   2.40709
 Alpha virt. eigenvalues --    2.44627   2.45245   2.46286   2.46847   2.48888
 Alpha virt. eigenvalues --    2.49139   2.49564   2.50074   2.50802   2.51211
 Alpha virt. eigenvalues --    2.51754   2.52548   2.53185   2.53449   2.53958
 Alpha virt. eigenvalues --    2.55009   2.55805   2.56425   2.56772   2.57427
 Alpha virt. eigenvalues --    2.57825   2.60173   2.60519   2.61409   2.62436
 Alpha virt. eigenvalues --    2.62512   2.64775   2.65327   2.66467   2.66931
 Alpha virt. eigenvalues --    2.69094   2.70344   2.73924   2.74835   2.76762
 Alpha virt. eigenvalues --    2.77638   2.81801   2.83901   2.88009   2.88622
 Alpha virt. eigenvalues --    2.89568   2.92544   2.94205   2.99545   3.01109
 Alpha virt. eigenvalues --    3.02419   3.03382   3.06405   3.07876   3.09379
 Alpha virt. eigenvalues --    3.12055   3.14665   3.15640   3.20178   3.27741
 Alpha virt. eigenvalues --    3.28271   3.28929   3.30043   3.30774   3.32489
 Alpha virt. eigenvalues --    3.33311   3.34813   3.39091   3.39640   3.42672
 Alpha virt. eigenvalues --    3.45229   3.47616   3.81893   3.83713   4.00176
 Alpha virt. eigenvalues --    4.00752   4.17955   4.18260  21.65587  21.66083
 Alpha virt. eigenvalues --   21.74617  21.77219  21.80079  21.81389  21.83170
 Alpha virt. eigenvalues --   21.86155  43.03888  43.05139  43.11553  43.12253
          Condensed to atoms (all electrons):
               1          2          3          4          5          6
     1  O    7.991552   0.632635  -0.130996  -0.131416  -0.012618  -0.001712
     2  C    0.632635   4.874780   0.342110   0.068275  -0.038815  -0.014917
     3  O   -0.130996   0.342110   7.890634  -0.128600   0.008620  -0.002516
     4  C   -0.131416   0.068275  -0.128600   5.584396   0.149782  -0.000541
     5  C   -0.012618  -0.038815   0.008620   0.149782   5.355128   0.179035
     6  C   -0.001712  -0.014917  -0.002516  -0.000541   0.179035   5.258766
     7  C    0.000007   0.000079   0.000131   0.009461  -0.020109   0.198229
     8  C   -0.000002  -0.000221  -0.000003  -0.000569   0.003891  -0.024793
     9  C    0.000000  -0.000002   0.000000   0.000056  -0.001038   0.013726
    10  C   -0.000000  -0.000000  -0.000000  -0.000005  -0.000108  -0.000570
    11  O    0.000000   0.000000  -0.000000  -0.000000  -0.000000   0.000078
    12  O    0.000000  -0.000000  -0.000000   0.000000  -0.000001   0.000012
    13  H    0.002163  -0.019660   0.290220   0.013917   0.000272   0.000156
    14  H    0.006449  -0.060582   0.004452   0.431335  -0.029505  -0.001235
    15  H    0.005278   0.016336   0.006267   0.336794  -0.032436  -0.019682
    16  H    0.004543   0.019339  -0.000288  -0.051845   0.411191  -0.058182
    17  H    0.000323  -0.013195   0.005106  -0.032705   0.406077  -0.027980
    18  H   -0.000079  -0.001665  -0.000038  -0.000557  -0.047301   0.425740
    19  H    0.000042   0.001341   0.000149  -0.007287  -0.035690   0.407075
    20  H   -0.000004  -0.000116   0.000004  -0.000496  -0.006629  -0.041760
    21  H    0.000000  -0.000045  -0.000027   0.000067  -0.003855  -0.038261
    22  H    0.000000  -0.000005   0.000000  -0.000021  -0.001016  -0.003762
    23  H    0.000000   0.000007  -0.000000  -0.000008   0.000166  -0.003354
    24  H    0.000000   0.000000  -0.000000  -0.000000  -0.000070   0.000122
    25  H    0.000000  -0.000000   0.000000   0.000002  -0.000195   0.000490
    26  H   -0.000000   0.000000  -0.000000  -0.000000   0.000000  -0.000002
               7          8          9         10         11         12
     1  O    0.000007  -0.000002   0.000000  -0.000000   0.000000   0.000000
     2  C    0.000079  -0.000221  -0.000002  -0.000000   0.000000  -0.000000
     3  O    0.000131  -0.000003   0.000000  -0.000000  -0.000000  -0.000000
     4  C    0.009461  -0.000569   0.000056  -0.000005  -0.000000   0.000000
     5  C   -0.020109   0.003891  -0.001038  -0.000108  -0.000000  -0.000001
     6  C    0.198229  -0.024793   0.013726  -0.000570   0.000078   0.000012
     7  C    5.254335   0.216548  -0.027598  -0.008173  -0.001474  -0.001154
     8  C    0.216548   5.218775   0.225851  -0.025497  -0.004560  -0.010384
     9  C   -0.027598   0.225851   5.551388   0.057355  -0.129643  -0.113365
    10  C   -0.008173  -0.025497   0.057355   4.865720   0.600445   0.359849
    11  O   -0.001474  -0.004560  -0.129643   0.600445   8.013669  -0.126965
    12  O   -0.001154  -0.010384  -0.113365   0.359849  -0.126965   7.871377
    13  H   -0.000006   0.000000  -0.000000   0.000000  -0.000000  -0.000000
    14  H    0.000129  -0.000025   0.000001   0.000000  -0.000000   0.000000
    15  H    0.000829  -0.000319   0.000004  -0.000000   0.000000  -0.000000
    16  H   -0.001772  -0.001500   0.000023  -0.000007   0.000000   0.000000
    17  H   -0.006931   0.000663  -0.000050   0.000004  -0.000000   0.000000
    18  H   -0.050323   0.000285  -0.000625  -0.000051  -0.000043  -0.000000
    19  H   -0.031429  -0.008290  -0.000050  -0.000043   0.000011  -0.000004
    20  H    0.421154  -0.044146  -0.003505   0.000814   0.000139   0.000003
    21  H    0.409182  -0.038166  -0.004950  -0.001037  -0.000019   0.000028
    22  H   -0.049954   0.416711  -0.041324   0.007657  -0.001140   0.001502
    23  H   -0.039155   0.401277  -0.043561  -0.007535   0.014557   0.001775
    24  H   -0.009888  -0.027402   0.343571  -0.017042   0.008920   0.013685
    25  H   -0.009869  -0.028011   0.406380  -0.019333  -0.004661   0.000163
    26  H    0.000080  -0.000389   0.016829  -0.022519   0.002224   0.288811
              13         14         15         16         17         18
     1  O    0.002163   0.006449   0.005278   0.004543   0.000323  -0.000079
     2  C   -0.019660  -0.060582   0.016336   0.019339  -0.013195  -0.001665
     3  O    0.290220   0.004452   0.006267  -0.000288   0.005106  -0.000038
     4  C    0.013917   0.431335   0.336794  -0.051845  -0.032705  -0.000557
     5  C    0.000272  -0.029505  -0.032436   0.411191   0.406077  -0.047301
     6  C    0.000156  -0.001235  -0.019682  -0.058182  -0.027980   0.425740
     7  C   -0.000006   0.000129   0.000829  -0.001772  -0.006931  -0.050323
     8  C    0.000000  -0.000025  -0.000319  -0.001500   0.000663   0.000285
     9  C   -0.000000   0.000001   0.000004   0.000023  -0.000050  -0.000625
    10  C    0.000000   0.000000  -0.000000  -0.000007   0.000004  -0.000051
    11  O   -0.000000  -0.000000   0.000000   0.000000  -0.000000  -0.000043
    12  O   -0.000000   0.000000  -0.000000   0.000000   0.000000  -0.000000
    13  H    0.379172  -0.000373  -0.000626  -0.000193  -0.000178   0.000002
    14  H   -0.000373   0.498313  -0.020402  -0.004511   0.005718   0.002674
    15  H   -0.000626  -0.020402   0.535926   0.008360  -0.003899  -0.000057
    16  H   -0.000193  -0.004511   0.008360   0.553840  -0.025392  -0.004628
    17  H   -0.000178   0.005718  -0.003899  -0.025392   0.536931   0.007071
    18  H    0.000002   0.002674  -0.000057  -0.004628   0.007071   0.560464
    19  H   -0.000007   0.000271   0.004145   0.007025  -0.005266  -0.031586
    20  H   -0.000000   0.000167  -0.000068   0.002753   0.000294  -0.006088
    21  H    0.000001  -0.000058   0.000128   0.000363   0.003408   0.007842
    22  H   -0.000000   0.000020  -0.000023  -0.000054   0.000191   0.000188
    23  H   -0.000000  -0.000024   0.000027   0.000218  -0.000058   0.002846
    24  H   -0.000000  -0.000000   0.000001   0.000028  -0.000032  -0.000072
    25  H   -0.000000   0.000000  -0.000000  -0.000029   0.000023   0.000134
    26  H    0.000000  -0.000000  -0.000000  -0.000000   0.000000   0.000000
              19         20         21         22         23         24
     1  O    0.000042  -0.000004   0.000000   0.000000   0.000000   0.000000
     2  C    0.001341  -0.000116  -0.000045  -0.000005   0.000007   0.000000
     3  O    0.000149   0.000004  -0.000027   0.000000  -0.000000  -0.000000
     4  C   -0.007287  -0.000496   0.000067  -0.000021  -0.000008  -0.000000
     5  C   -0.035690  -0.006629  -0.003855  -0.001016   0.000166  -0.000070
     6  C    0.407075  -0.041760  -0.038261  -0.003762  -0.003354   0.000122
     7  C   -0.031429   0.421154   0.409182  -0.049954  -0.039155  -0.009888
     8  C   -0.008290  -0.044146  -0.038166   0.416711   0.401277  -0.027402
     9  C   -0.000050  -0.003505  -0.004950  -0.041324  -0.043561   0.343571
    10  C   -0.000043   0.000814  -0.001037   0.007657  -0.007535  -0.017042
    11  O    0.000011   0.000139  -0.000019  -0.001140   0.014557   0.008920
    12  O   -0.000004   0.000003   0.000028   0.001502   0.001775   0.013685
    13  H   -0.000007  -0.000000   0.000001  -0.000000  -0.000000  -0.000000
    14  H    0.000271   0.000167  -0.000058   0.000020  -0.000024  -0.000000
    15  H    0.004145  -0.000068   0.000128  -0.000023   0.000027   0.000001
    16  H    0.007025   0.002753   0.000363  -0.000054   0.000218   0.000028
    17  H   -0.005266   0.000294   0.003408   0.000191  -0.000058  -0.000032
    18  H   -0.031586  -0.006088   0.007842   0.000188   0.002846  -0.000072
    19  H    0.559220   0.007576  -0.006239   0.003115   0.000233   0.000159
    20  H    0.007576   0.561702  -0.032675   0.007092  -0.005144   0.000280
    21  H   -0.006239  -0.032675   0.564557  -0.005114   0.007241   0.003655
    22  H    0.003115   0.007092  -0.005114   0.544841  -0.024420  -0.004123
    23  H    0.000233  -0.005144   0.007241  -0.024420   0.548232   0.008227
    24  H    0.000159   0.000280   0.003655  -0.004123   0.008227   0.553757
    25  H   -0.000048   0.003483   0.000158   0.005813  -0.003936  -0.020676
    26  H   -0.000000  -0.000002   0.000003  -0.000163  -0.000007  -0.000722
              25         26
     1  O    0.000000  -0.000000
     2  C   -0.000000   0.000000
     3  O    0.000000  -0.000000
     4  C    0.000002  -0.000000
     5  C   -0.000195   0.000000
     6  C    0.000490  -0.000002
     7  C   -0.009869   0.000080
     8  C   -0.028011  -0.000389
     9  C    0.406380   0.016829
    10  C   -0.019333  -0.022519
    11  O   -0.004661   0.002224
    12  O    0.000163   0.288811
    13  H   -0.000000   0.000000
    14  H    0.000000  -0.000000
    15  H   -0.000000  -0.000000
    16  H   -0.000029  -0.000000
    17  H    0.000023   0.000000
    18  H    0.000134   0.000000
    19  H   -0.000048  -0.000000
    20  H    0.003483  -0.000002
    21  H    0.000158   0.000003
    22  H    0.005813  -0.000163
    23  H   -0.003936  -0.000007
    24  H   -0.020676  -0.000722
    25  H    0.490302  -0.000444
    26  H   -0.000444   0.382973
 Mulliken charges:
               1
     1  O   -0.366167
     2  C    0.194321
     3  O   -0.285225
     4  C   -0.240035
     5  C   -0.284773
     6  C   -0.244160
     7  C   -0.252328
     8  C   -0.269726
     9  C   -0.249475
    10  C    0.210073
    11  O   -0.371537
    12  O   -0.285331
    13  H    0.335140
    14  H    0.167186
    15  H    0.163419
    16  H    0.140717
    17  H    0.149876
    18  H    0.135869
    19  H    0.135577
    20  H    0.135173
    21  H    0.133813
    22  H    0.143990
    23  H    0.142398
    24  H    0.147625
    25  H    0.180254
    26  H    0.333326
 Sum of Mulliken charges =  -0.00000
 Mulliken charges with hydrogens summed into heavy atoms:
               1
     1  O   -0.366167
     2  C    0.194321
     3  O    0.049915
     4  C    0.090570
     5  C    0.005819
     6  C    0.027286
     7  C    0.016659
     8  C    0.016662
     9  C    0.078404
    10  C    0.210073
    11  O   -0.371537
    12  O    0.047995
 Electronic spatial extent (au):  <R**2>=           5323.5483
 Charge=             -0.0000 electrons
 Dipole moment (field-independent basis, Debye):
    X=             -0.8883    Y=              4.2762    Z=             -1.1508  Tot=              4.5166
 Quadrupole moment (field-independent basis, Debye-Ang):
   XX=            -83.8203   YY=            -78.7332   ZZ=            -70.8258
   XY=              1.7716   XZ=             -1.9498   YZ=              2.1755
 Traceless Quadrupole moment (field-independent basis, Debye-Ang):
   XX=             -6.0272   YY=             -0.9401   ZZ=              6.9673
   XY=              1.7716   XZ=             -1.9498   YZ=              2.1755
 Octapole moment (field-independent basis, Debye-Ang**2):
  XXX=           -101.0274  YYY=             10.7862  ZZZ=             -1.5691  XYY=             26.7398
  XXY=            158.7520  XXZ=            -50.5666  XZZ=            -10.7798  YZZ=              2.1545
  YYZ=              0.6634  XYZ=             16.7302
 Hexadecapole moment (field-independent basis, Debye-Ang**3):
 XXXX=          -5580.3437 YYYY=           -311.5964 ZZZZ=           -181.9822 XXXY=            237.5097
 XXXZ=            125.0888 YYYX=             22.0244 YYYZ=              4.7725 ZZZX=              7.2253
 ZZZY=             -6.9605 XXYY=          -1180.5927 XXZZ=          -1010.1721 YYZZ=            -86.5471
 XXYZ=             55.1812 YYXZ=              8.7838 ZZXY=              2.8350
 N-N= 6.560931706305D+02 E-N=-2.749555604272D+03  KE= 6.115962279715D+02
 No NMR shielding tensors so no spin-rotation constants.
 Leave Link  601 at Mon Feb 22 21:20:54 2021, MaxMem=   104857600 cpu:               7.1 elap:               0.3
 (Enter /sw/arch/RedHatEnterpriseServer7/EB_production/2019/software/Gaussian/g16.c01/l701.exe)
 ... and contract with generalized density number  0.
 Compute integral first derivatives.
 R6Disp: Adding Grimme-D3 dispersion energy 1st derivatives to the gradient.
 PrsmSu:  requested number of processors reduced to:  28 ShMem   1 Linda.
 D1PCM: PCM CHGder 1st derivatives, ID1Alg=3 FixD1E=F DoIter=F DoCFld=F I1PDM=0.
 GePol: Maximum number of non-zero 1st derivatives   =     219
 CoulSu:  requested number of processors reduced to:  28 ShMem   1 Linda.
 CoulSu:  requested number of processors reduced to:  29 ShMem   1 Linda.
 Leave Link  701 at Mon Feb 22 21:20:55 2021, MaxMem=   104857600 cpu:              26.5 elap:               0.9
 (Enter /sw/arch/RedHatEnterpriseServer7/EB_production/2019/software/Gaussian/g16.c01/l702.exe)
 L702 exits ... SP integral derivatives will be done elsewhere.
 Leave Link  702 at Mon Feb 22 21:20:55 2021, MaxMem=   104857600 cpu:               0.5 elap:               0.0
 (Enter /sw/arch/RedHatEnterpriseServer7/EB_production/2019/software/Gaussian/g16.c01/l703.exe)
 Integral derivatives from FoFJK, PRISM(SPDF).
 Compute integral first derivatives, UseDBF=F ICtDFT=           0.
 Calling FoFJK, ICntrl=      2527 FMM=F ISym2X=0 I1Cent= 0 IOpClX= 0 NMat=1 NMatS=1 NMatT=0.
 FoFJK:  IHMeth= 1 ICntrl=    2527 DoSepK=F KAlg= 0 I1Cent=           0 FoldK=F
 IRaf=         0 NMat=       1 IRICut=       1 DoRegI=T DoRafI=F ISym2E= 0 IDoP0=0 IntGTp=1.
 FoFCou: FMM=F IPFlag=           0 FMFlag=      100000 FMFlg1=         800
         NFxFlg=           0 DoJE=F BraDBF=F KetDBF=F FulRan=T
         wScrn=  0.000000 ICntrl=      2527 IOpCl=  0 I1Cent=           0 NGrid=           0
         NMat0=    1 NMatS0=      1 NMatT0=    0 NMatD0=    1 NMtDS0=    0 NMtDT0=    0
 Symmetry not used in FoFCou.
 Leave Link  703 at Mon Feb 22 21:20:58 2021, MaxMem=   104857600 cpu:              81.7 elap:               2.7
 (Enter /sw/arch/RedHatEnterpriseServer7/EB_production/2019/software/Gaussian/g16.c01/l716.exe)
 Dipole        =-3.49498802D-01 1.68239176D+00-4.52763190D-01
 ***** Axes restored to original set *****
 -------------------------------------------------------------------
 Center     Atomic                   Forces (Hartrees/Bohr)
 Number     Number              X              Y              Z
 -------------------------------------------------------------------
      1        8          -0.021830854   -0.002565769   -0.003902180
      2        6           0.074601406    0.021885159    0.012090711
      3        8          -0.041823964   -0.007937632   -0.008275698
      4        6          -0.023110029   -0.001168797    0.002200293
      5        6          -0.007886713   -0.008687529   -0.005081442
      6        6          -0.000570672    0.009419785    0.009857069
      7        6          -0.000574672   -0.009016925   -0.008827875
      8        6           0.005416638    0.007614304    0.004207013
      9        6          -0.003392645    0.022767260   -0.009445923
     10        6          -0.002459642   -0.079616700    0.003276287
     11        8          -0.003771480    0.023838306   -0.001779895
     12        8          -0.003502813    0.041523458   -0.002064285
     13        1           0.012304235   -0.013779219    0.004976828
     14        1           0.004953262    0.001383828   -0.000274444
     15        1          -0.006133945   -0.000802619   -0.004910611
     16        1           0.001943192    0.001447210    0.004541659
     17        1          -0.001320117    0.003762541    0.001225373
     18        1           0.002518878   -0.005405143   -0.001571941
     19        1          -0.001886439   -0.001287327   -0.005090924
     20        1           0.002255849    0.001528550    0.005700954
     21        1          -0.002139000    0.005689612    0.001657543
     22        1          -0.002076075   -0.001124619   -0.004495824
     23        1           0.000703381   -0.004623597   -0.000759399
     24        1          -0.000805462    0.005720073    0.000847072
     25        1           0.001687991   -0.002201998    0.003738944
     26        1           0.016899690   -0.008362212    0.002160694
 -------------------------------------------------------------------
 Cartesian Forces:  Max     0.079616700 RMS     0.016067612
 Leave Link  716 at Mon Feb 22 21:20:58 2021, MaxMem=   104857600 cpu:               2.0 elap:               0.1
 (Enter /sw/arch/RedHatEnterpriseServer7/EB_production/2019/software/Gaussian/g16.c01/l103.exe)

 GradGradGradGradGradGradGradGradGradGradGradGradGradGradGradGradGradGrad
 Berny optimization.
 FormGI is forming the generalized inverse of G from B-inverse, IUseBI=4.
 Internal  Forces:  Max     0.034852538 RMS     0.008030157
 Search for a local minimum.
 Step number   1 out of a maximum of  140
 All quantities printed in internal units (Hartrees-Bohrs-Radians)
 RMS Force = .80302D-02 SwitMx=.10000D-02 MixMth= 1
 Mixed Optimization -- RFO/linear search
 Second derivative matrix not updated -- first step.
 ITU=  0
     Eigenvalues ---    0.00230   0.00230   0.00230   0.00230   0.00230
     Eigenvalues ---    0.01066   0.01083   0.01365   0.01379   0.02303
     Eigenvalues ---    0.02313   0.03397   0.03439   0.03501   0.03520
     Eigenvalues ---    0.04233   0.04246   0.04762   0.04773   0.04787
     Eigenvalues ---    0.04791   0.05414   0.05427   0.08151   0.08185
     Eigenvalues ---    0.08296   0.08371   0.09431   0.09456   0.12084
     Eigenvalues ---    0.12110   0.12192   0.12246   0.12813   0.12835
     Eigenvalues ---    0.16000   0.16000   0.21965   0.21970   0.21970
     Eigenvalues ---    0.21977   0.21986   0.21994   0.25000   0.25000
     Eigenvalues ---    0.25000   0.25000   0.27131   0.27244   0.27275
     Eigenvalues ---    0.27281   0.27525   0.34195   0.34302   0.34318
     Eigenvalues ---    0.34327   0.34336   0.34377   0.34395   0.34396
     Eigenvalues ---    0.34401   0.34428   0.34429   0.34523   0.34881
     Eigenvalues ---    0.35031   0.51317   0.51536   0.54215   0.54380
     Eigenvalues ---    0.82284   0.82706
 RFO step:  Lambda=-3.09847819D-02 EMin= 2.30000000D-03
 Linear search not attempted -- first point.
 Maximum step size (   0.300) exceeded in Quadratic search.
    -- Step size scaled by   0.843
 Iteration  1 RMS(Cart)=  0.04989659 RMS(Int)=  0.00125805
 Iteration  2 RMS(Cart)=  0.00186998 RMS(Int)=  0.00004273
 Iteration  3 RMS(Cart)=  0.00000167 RMS(Int)=  0.00004271
 Iteration  4 RMS(Cart)=  0.00000000 RMS(Int)=  0.00004271
 ITry= 1 IFail=0 DXMaxC= 2.43D-01 DCOld= 1.00D+10 DXMaxT= 3.00D-01 DXLimC= 3.00D+00 Rises=F
 Variable       Old X    -DE/DX   Delta X   Delta X   Delta X     New X
                                 (Linear)    (Quad)   (Total)
    R1        2.36488  -0.02191   0.00000  -0.02152  -0.02152   2.34336
    R2        2.55687  -0.00781   0.00000  -0.01144  -0.01144   2.54543
    R3        2.79168   0.01181   0.00000   0.02620   0.02620   2.81788
    R4        1.85046  -0.00383   0.00000  -0.00591  -0.00591   1.84455
    R5        2.93189  -0.00219   0.00000  -0.00602  -0.00602   2.92587
    R6        2.06612   0.00168   0.00000   0.00378   0.00378   2.06990
    R7        2.06457   0.00721   0.00000   0.01614   0.01614   2.08071
    R8        2.94078  -0.01007   0.00000  -0.02806  -0.02806   2.91272
    R9        2.06797   0.00486   0.00000   0.01094   0.01094   2.07892
   R10        2.07002   0.00385   0.00000   0.00870   0.00870   2.07872
   R11        2.93822  -0.00983   0.00000  -0.02731  -0.02731   2.91092
   R12        2.06668   0.00590   0.00000   0.01326   0.01326   2.07994
   R13        2.06823   0.00529   0.00000   0.01191   0.01191   2.08014
   R14        2.93738  -0.00963   0.00000  -0.02671  -0.02671   2.91067
   R15        2.06699   0.00599   0.00000   0.01346   0.01346   2.08045
   R16        2.06668   0.00594   0.00000   0.01336   0.01336   2.08004
   R17        2.93752  -0.00552   0.00000  -0.01532  -0.01532   2.92220
   R18        2.06781   0.00487   0.00000   0.01095   0.01095   2.07876
   R19        2.06766   0.00429   0.00000   0.00966   0.00966   2.07732
   R20        2.78924   0.01289   0.00000   0.02849   0.02849   2.81774
   R21        2.06659   0.00531   0.00000   0.01192   0.01192   2.07851
   R22        2.06615   0.00419   0.00000   0.00941   0.00941   2.07555
   R23        2.36707  -0.02378   0.00000  -0.02347  -0.02347   2.34360
   R24        2.55837  -0.00825   0.00000  -0.01213  -0.01213   2.54623
   R25        1.85260  -0.00411   0.00000  -0.00636  -0.00636   1.84624
    A1        2.06641   0.02240   0.00000   0.06718   0.06712   2.13353
    A2        2.11647   0.01246   0.00000   0.03736   0.03730   2.15377
    A3        2.10031  -0.03485   0.00000  -0.10451  -0.10457   1.99574
    A4        2.10112  -0.03464   0.00000  -0.15285  -0.15285   1.94828
    A5        1.95554   0.00116   0.00000   0.00275   0.00274   1.95828
    A6        1.90925  -0.00470   0.00000  -0.02835  -0.02829   1.88096
    A7        1.88662   0.00279   0.00000   0.01710   0.01716   1.90378
    A8        1.90828   0.00336   0.00000   0.01665   0.01665   1.92493
    A9        1.92273  -0.00352   0.00000  -0.01505  -0.01506   1.90766
   A10        1.87980   0.00084   0.00000   0.00678   0.00690   1.88670
   A11        1.97577  -0.00551   0.00000  -0.01791  -0.01787   1.95790
   A12        1.89398   0.00168   0.00000   0.00491   0.00493   1.89890
   A13        1.90607   0.00160   0.00000   0.00526   0.00530   1.91137
   A14        1.90068   0.00185   0.00000   0.00663   0.00663   1.90731
   A15        1.89722   0.00217   0.00000   0.00902   0.00903   1.90625
   A16        1.88830  -0.00170   0.00000  -0.00775  -0.00779   1.88051
   A17        1.96011  -0.00315   0.00000  -0.00931  -0.00929   1.95081
   A18        1.90375   0.00120   0.00000   0.00483   0.00484   1.90859
   A19        1.90095   0.00108   0.00000   0.00408   0.00409   1.90504
   A20        1.90395   0.00111   0.00000   0.00440   0.00441   1.90836
   A21        1.90538   0.00122   0.00000   0.00499   0.00500   1.91038
   A22        1.88840  -0.00144   0.00000  -0.00913  -0.00913   1.87927
   A23        1.98360  -0.00663   0.00000  -0.02145  -0.02140   1.96220
   A24        1.89764   0.00228   0.00000   0.00805   0.00808   1.90571
[...]
                 (A) (A) (A) (A) (A) (A) (A) (A) (A) (A) (A) (A)
                 (A) (A) (A) (A) (A) (A) (A) (A) (A) (A) (A) (A)
                 (A) (A) (A) (A) (A) (A) (A) (A) (A) (A) (A) (A)
                 (A) (A) (A) (A) (A) (A) (A) (A) (A) (A) (A) (A)
                 (A) (A) (A) (A) (A) (A) (A) (A) (A) (A) (A) (A)
                 (A) (A) (A) (A) (A) (A) (A) (A) (A) (A) (A) (A)
                 (A) (A) (A) (A) (A) (A) (A) (A) (A) (A) (A) (A)
                 (A) (A) (A) (A) (A) (A) (A) (A) (A) (A) (A) (A)
                 (A) (A) (A) (A) (A) (A) (A) (A) (A) (A) (A) (A)
                 (A) (A) (A) (A) (A) (A) (A) (A) (A) (A) (A) (A)
                 (A) (A) (A) (A) (A) (A) (A) (A) (A) (A) (A) (A)
                 (A) (A) (A) (A) (A) (A) (A) (A) (A) (A) (A) (A)
                 (A) (A) (A) (A) (A) (A) (A) (A) (A) (A) (A) (A)
                 (A) (A) (A) (A) (A) (A) (A) (A) (A) (A) (A) (A)
                 (A) (A) (A) (A) (A) (A) (A) (A) (A) (A) (A) (A)
                 (A) (A) (A) (A) (A) (A) (A) (A) (A) (A) (A) (A)
                 (A) (A) (A) (A) (A) (A) (A) (A) (A) (A) (A) (A)
                 (A)
 The electronic state is 1-A.
 Alpha  occ. eigenvalues --  -18.81991 -18.81854 -18.77011 -18.76895 -10.03232
 Alpha  occ. eigenvalues --  -10.03186  -9.91055  -9.90971  -9.90179  -9.89556
 Alpha  occ. eigenvalues --   -9.89189  -9.89130  -1.02089  -1.02065  -0.93909
 Alpha  occ. eigenvalues --   -0.93850  -0.74441  -0.72436  -0.68185  -0.62890
 Alpha  occ. eigenvalues --   -0.57724  -0.54408  -0.52512  -0.51745  -0.45385
 Alpha  occ. eigenvalues --   -0.44946  -0.44118  -0.43671  -0.43037  -0.42117
 Alpha  occ. eigenvalues --   -0.41212  -0.39127  -0.37106  -0.36670  -0.35682
 Alpha  occ. eigenvalues --   -0.35049  -0.34638  -0.32135  -0.31690  -0.29867
 Alpha  occ. eigenvalues --   -0.29396  -0.29345  -0.29067  -0.28786  -0.28107
 Alpha  occ. eigenvalues --   -0.24856  -0.24488
 Alpha virt. eigenvalues --   -0.04826  -0.04561   0.02099   0.02513   0.03517
 Alpha virt. eigenvalues --    0.05260   0.05537   0.05848   0.06961   0.08690
 Alpha virt. eigenvalues --    0.09501   0.10210   0.11159   0.11448   0.12092
 Alpha virt. eigenvalues --    0.12442   0.13377   0.14070   0.14529   0.14874
 Alpha virt. eigenvalues --    0.16326   0.16755   0.17874   0.18192   0.19459
 Alpha virt. eigenvalues --    0.19749   0.22221   0.23080   0.23967   0.24803
 Alpha virt. eigenvalues --    0.25618   0.26375   0.27504   0.27586   0.27730
 Alpha virt. eigenvalues --    0.28405   0.29565   0.30013   0.32315   0.33185
 Alpha virt. eigenvalues --    0.33670   0.34899   0.35373   0.36480   0.37021
 Alpha virt. eigenvalues --    0.37314   0.37443   0.38885   0.39542   0.40119
 Alpha virt. eigenvalues --    0.40586   0.41086   0.42052   0.42295   0.43075
 Alpha virt. eigenvalues --    0.43505   0.43721   0.44516   0.45538   0.45702
 Alpha virt. eigenvalues --    0.46513   0.46928   0.47359   0.47515   0.48125
 Alpha virt. eigenvalues --    0.48653   0.48720   0.50497   0.51489   0.52120
 Alpha virt. eigenvalues --    0.53774   0.54648   0.55310   0.56795   0.58158
 Alpha virt. eigenvalues --    0.58551   0.61505   0.61834   0.63898   0.66662
 Alpha virt. eigenvalues --    0.68586   0.69810   0.73563   0.74967   0.75667
 Alpha virt. eigenvalues --    0.80934   0.83582   0.85629   0.90871   1.06394
 Alpha virt. eigenvalues --    1.06932   1.12259   1.13386   1.15728   1.17653
 Alpha virt. eigenvalues --    1.18646   1.18873   1.21672   1.23189   1.23334
 Alpha virt. eigenvalues --    1.24303   1.24599   1.25622   1.26967   1.29196
 Alpha virt. eigenvalues --    1.30393   1.30696   1.31071   1.31864   1.32492
 Alpha virt. eigenvalues --    1.33361   1.33827   1.36047   1.36775   1.37325
 Alpha virt. eigenvalues --    1.38070   1.39336   1.40846   1.43308   1.44073
 Alpha virt. eigenvalues --    1.46248   1.46586   1.47716   1.49365   1.49518
 Alpha virt. eigenvalues --    1.51198   1.51570   1.52699   1.54793   1.55194
 Alpha virt. eigenvalues --    1.58162   1.59645   1.60347   1.64003   1.64877
 Alpha virt. eigenvalues --    1.65866   1.66154   1.66910   1.68315   1.71631
 Alpha virt. eigenvalues --    1.72473   1.74467   1.75561   1.76530   1.76687
 Alpha virt. eigenvalues --    1.78146   1.78316   1.79173   1.79689   1.80300
 Alpha virt. eigenvalues --    1.81180   1.81408   1.84118   1.89321   1.90429
 Alpha virt. eigenvalues --    1.91717   1.94079   1.97452   2.01028   2.02539
 Alpha virt. eigenvalues --    2.03230   2.07161   2.08364   2.09217   2.10339
 Alpha virt. eigenvalues --    2.11968   2.13403   2.15314   2.17498   2.18986
 Alpha virt. eigenvalues --    2.20304   2.22385   2.25831   2.27682   2.30017
 Alpha virt. eigenvalues --    2.31840   2.35474   2.35578   2.37179   2.42665
 Alpha virt. eigenvalues --    2.43093   2.44402   2.46175   2.46363   2.47212
 Alpha virt. eigenvalues --    2.48784   2.49246   2.49847   2.50279   2.50799
 Alpha virt. eigenvalues --    2.51996   2.52481   2.52993   2.54257   2.55085
 Alpha virt. eigenvalues --    2.55193   2.56044   2.56892   2.57250   2.57981
 Alpha virt. eigenvalues --    2.59310   2.59657   2.60939   2.61689   2.62685
 Alpha virt. eigenvalues --    2.63185   2.65224   2.65789   2.67268   2.67782
 Alpha virt. eigenvalues --    2.70266   2.71997   2.74616   2.76289   2.80028
 Alpha virt. eigenvalues --    2.80229   2.82819   2.83658   2.85455   2.85936
 Alpha virt. eigenvalues --    2.88113   2.98338   2.99465   3.00782   3.01377
 Alpha virt. eigenvalues --    3.02378   3.05549   3.09977   3.10156   3.10737
 Alpha virt. eigenvalues --    3.12194   3.14876   3.17771   3.23177   3.25587
 Alpha virt. eigenvalues --    3.26714   3.28638   3.29213   3.31642   3.32101
 Alpha virt. eigenvalues --    3.32771   3.34636   3.39664   3.41783   3.41993
 Alpha virt. eigenvalues --    3.42970   3.49553   3.79018   3.80190   4.08004
 Alpha virt. eigenvalues --    4.08279   4.17657   4.18568  21.68544  21.69713
 Alpha virt. eigenvalues --   21.72486  21.75208  21.79415  21.82593  21.85061
 Alpha virt. eigenvalues --   21.87963  43.05786  43.07131  43.11752  43.16367
          Condensed to atoms (all electrons):
               1          2          3          4          5          6
     1  O    7.977145   0.605343  -0.111319  -0.107026  -0.012886  -0.001873
     2  C    0.605343   4.833017   0.328800   0.143527  -0.053464  -0.007805
     3  O   -0.111319   0.328800   7.901559  -0.128689  -0.008167  -0.003111
     4  C   -0.107026   0.143527  -0.128689   5.441497   0.236544  -0.013357
     5  C   -0.012886  -0.053464  -0.008167   0.236544   5.273575   0.178167
     6  C   -0.001873  -0.007805  -0.003111  -0.013357   0.178167   5.319469
     7  C    0.000005  -0.000804   0.000081   0.014486  -0.021354   0.159005
     8  C   -0.000002  -0.000128  -0.000005  -0.000722   0.004380  -0.008720
     9  C   -0.000000  -0.000003   0.000000   0.000060   0.000100   0.002885
    10  C   -0.000000  -0.000000  -0.000000  -0.000004   0.000010   0.000868
    11  O    0.000000   0.000000   0.000000  -0.000000   0.000001   0.000158
    12  O   -0.000000  -0.000000  -0.000000   0.000000  -0.000000   0.000023
    13  H    0.002309  -0.017253   0.283550   0.014445   0.000196   0.000144
    14  H    0.004150  -0.044834   0.004637   0.411904  -0.030029  -0.007133
    15  H    0.005030  -0.003414   0.005994   0.357288  -0.026903  -0.015757
    16  H    0.005804   0.008784   0.000702  -0.051796   0.420613  -0.052631
    17  H    0.000338  -0.003466   0.006166  -0.043700   0.416782  -0.040441
    18  H    0.000039  -0.000924  -0.000029  -0.003740  -0.046574   0.423270
    19  H    0.000004   0.000447   0.000129  -0.006097  -0.036901   0.411271
    20  H   -0.000014  -0.000071   0.000006  -0.000367  -0.005427  -0.041464
    21  H    0.000004  -0.000042  -0.000027  -0.000300  -0.005514  -0.041962
    22  H   -0.000000  -0.000001   0.000000  -0.000022  -0.000056  -0.005772
    23  H    0.000000   0.000005   0.000000  -0.000041   0.000223  -0.007443
    24  H    0.000000   0.000000  -0.000000  -0.000001  -0.000031  -0.000204
    25  H    0.000000  -0.000000   0.000000   0.000000  -0.000057   0.000011
    26  H   -0.000000   0.000000  -0.000000  -0.000000   0.000000  -0.000004
               7          8          9         10         11         12
     1  O    0.000005  -0.000002  -0.000000  -0.000000   0.000000  -0.000000
     2  C   -0.000804  -0.000128  -0.000003  -0.000000   0.000000  -0.000000
     3  O    0.000081  -0.000005   0.000000  -0.000000   0.000000  -0.000000
     4  C    0.014486  -0.000722   0.000060  -0.000004  -0.000000   0.000000
     5  C   -0.021354   0.004380   0.000100   0.000010   0.000001  -0.000000
     6  C    0.159005  -0.008720   0.002885   0.000868   0.000158   0.000023
     7  C    5.315203   0.117791   0.022954  -0.005928  -0.000420  -0.000576
     8  C    0.117791   5.378179   0.010319   0.054295   0.035544   0.016119
     9  C    0.022954   0.010319   5.890713  -0.023458  -0.168393  -0.180212
    10  C   -0.005928   0.054295  -0.023458   4.848495   0.620750   0.358301
    11  O   -0.000420   0.035544  -0.168393   0.620750   7.968794  -0.105465
    12  O   -0.000576   0.016119  -0.180212   0.358301  -0.105465   7.904628
    13  H   -0.000007   0.000000  -0.000000   0.000000  -0.000000  -0.000000
    14  H    0.000710  -0.000159   0.000003  -0.000000   0.000000   0.000000
    15  H    0.000494  -0.000215   0.000002  -0.000000   0.000000   0.000000
    16  H   -0.003415  -0.000755  -0.000027  -0.000003  -0.000000   0.000000
    17  H   -0.003996  -0.000124  -0.000047  -0.000001  -0.000000   0.000000
    18  H   -0.043935  -0.003934   0.000063  -0.000073  -0.000024  -0.000000
    19  H   -0.037894  -0.007571   0.000322  -0.000104  -0.000018  -0.000000
    20  H    0.416189  -0.038653  -0.007299   0.000294   0.000060   0.000004
    21  H    0.415435  -0.037320  -0.007092   0.000152   0.000041  -0.000002
    22  H   -0.037650   0.412302  -0.031355  -0.008569   0.002613   0.000116
    23  H   -0.034586   0.405023  -0.025852  -0.010572   0.003755   0.000183
    24  H   -0.002921  -0.036981   0.383313  -0.011605   0.002264   0.006087
    25  H   -0.003542  -0.032378   0.379265  -0.009474   0.001750   0.005195
    26  H    0.000088  -0.001901   0.019785  -0.017106   0.002416   0.282619
              13         14         15         16         17         18
     1  O    0.002309   0.004150   0.005030   0.005804   0.000338   0.000039
     2  C   -0.017253  -0.044834  -0.003414   0.008784  -0.003466  -0.000924
     3  O    0.283550   0.004637   0.005994   0.000702   0.006166  -0.000029
     4  C    0.014445   0.411904   0.357288  -0.051796  -0.043700  -0.003740
     5  C    0.000196  -0.030029  -0.026903   0.420613   0.416782  -0.046574
     6  C    0.000144  -0.007133  -0.015757  -0.052631  -0.040441   0.423270
     7  C   -0.000007   0.000710   0.000494  -0.003415  -0.003996  -0.043935
     8  C    0.000000  -0.000159  -0.000215  -0.000755  -0.000124  -0.003934
     9  C   -0.000000   0.000003   0.000002  -0.000027  -0.000047   0.000063
    10  C    0.000000  -0.000000  -0.000000  -0.000003  -0.000001  -0.000073
    11  O   -0.000000   0.000000   0.000000  -0.000000  -0.000000  -0.000024
    12  O   -0.000000   0.000000   0.000000   0.000000   0.000000  -0.000000
    13  H    0.388773  -0.000674  -0.000388  -0.000105  -0.000423  -0.000000
    14  H   -0.000674   0.507614  -0.019035  -0.003375   0.006343   0.002715
    15  H   -0.000388  -0.019035   0.525186   0.007343  -0.003875   0.000563
    16  H   -0.000105  -0.003375   0.007343   0.544037  -0.025656  -0.004349
    17  H   -0.000423   0.006343  -0.003875  -0.025656   0.536670   0.006817
    18  H   -0.000000   0.002715   0.000563  -0.004349   0.006817   0.563532
    19  H   -0.000001   0.000574   0.003489   0.006814  -0.004735  -0.035244
    20  H    0.000000   0.000186  -0.000091   0.002880   0.000408  -0.007007
    21  H    0.000000  -0.000087   0.000203   0.000555   0.003095   0.008237
    22  H   -0.000000   0.000031  -0.000040  -0.000071   0.000204   0.000135
    23  H    0.000000  -0.000039   0.000033   0.000230  -0.000071   0.003972
    24  H    0.000000  -0.000000   0.000001   0.000025  -0.000037  -0.000064
    25  H   -0.000000   0.000001  -0.000000  -0.000038   0.000025   0.000162
    26  H    0.000000  -0.000000  -0.000000  -0.000000  -0.000000   0.000000
              19         20         21         22         23         24
     1  O    0.000004  -0.000014   0.000004  -0.000000   0.000000   0.000000
     2  C    0.000447  -0.000071  -0.000042  -0.000001   0.000005   0.000000
     3  O    0.000129   0.000006  -0.000027   0.000000   0.000000  -0.000000
     4  C   -0.006097  -0.000367  -0.000300  -0.000022  -0.000041  -0.000001
     5  C   -0.036901  -0.005427  -0.005514  -0.000056   0.000223  -0.000031
     6  C    0.411271  -0.041464  -0.041962  -0.005772  -0.007443  -0.000204
     7  C   -0.037894   0.416189   0.415435  -0.037650  -0.034586  -0.002921
     8  C   -0.007571  -0.038653  -0.037320   0.412302   0.405023  -0.036981
     9  C    0.000322  -0.007299  -0.007092  -0.031355  -0.025852   0.383313
    10  C   -0.000104   0.000294   0.000152  -0.008569  -0.010572  -0.011605
    11  O   -0.000018   0.000060   0.000041   0.002613   0.003755   0.002264
    12  O   -0.000000   0.000004  -0.000002   0.000116   0.000183   0.006087
    13  H   -0.000001   0.000000   0.000000  -0.000000   0.000000   0.000000
    14  H    0.000574   0.000186  -0.000087   0.000031  -0.000039  -0.000000
    15  H    0.003489  -0.000091   0.000203  -0.000040   0.000033   0.000001
    16  H    0.006814   0.002880   0.000555  -0.000071   0.000230   0.000025
    17  H   -0.004735   0.000408   0.003095   0.000204  -0.000071  -0.000037
    18  H   -0.035244  -0.007007   0.008237   0.000135   0.003972  -0.000064
    19  H    0.564245   0.008196  -0.007095   0.004025   0.000282   0.000170
    20  H    0.008196   0.569738  -0.037342   0.007470  -0.006241   0.000656
    21  H   -0.007095  -0.037342   0.569334  -0.006110   0.007398   0.002609
    22  H    0.004025   0.007470  -0.006110   0.548312  -0.028809  -0.002989
    23  H    0.000282  -0.006241   0.007398  -0.028809   0.550225   0.005714
    24  H    0.000170   0.000656   0.002609  -0.002989   0.005714   0.487470
    25  H   -0.000065   0.002763   0.000646   0.005575  -0.003042  -0.015112
    26  H    0.000000  -0.000001  -0.000001   0.000000   0.000007  -0.000370
              25         26
     1  O    0.000000  -0.000000
     2  C   -0.000000   0.000000
     3  O    0.000000  -0.000000
     4  C    0.000000  -0.000000
     5  C   -0.000057   0.000000
     6  C    0.000011  -0.000004
     7  C   -0.003542   0.000088
     8  C   -0.032378  -0.001901
     9  C    0.379265   0.019785
    10  C   -0.009474  -0.017106
    11  O    0.001750   0.002416
    12  O    0.005195   0.282619
    13  H   -0.000000   0.000000
    14  H    0.000001  -0.000000
    15  H   -0.000000  -0.000000
    16  H   -0.000038  -0.000000
    17  H    0.000025  -0.000000
    18  H    0.000162   0.000000
    19  H   -0.000065   0.000000
    20  H    0.002763  -0.000001
    21  H    0.000646  -0.000001
    22  H    0.005575   0.000000
    23  H   -0.003042   0.000007
    24  H   -0.015112  -0.000370
    25  H    0.484902  -0.000414
    26  H   -0.000414   0.384951
 Mulliken charges:
               1
     1  O   -0.367050
     2  C    0.212286
     3  O   -0.280277
     4  C   -0.263890
     5  C   -0.283227
     6  C   -0.247596
     7  C   -0.265411
     8  C   -0.264381
     9  C   -0.266050
    10  C    0.203732
    11  O   -0.363825
    12  O   -0.287019
    13  H    0.329434
    14  H    0.166497
    15  H    0.164091
    16  H    0.144432
    17  H    0.149726
    18  H    0.136393
    19  H    0.135758
    20  H    0.135128
    21  H    0.135182
    22  H    0.140661
    23  H    0.139644
    24  H    0.182007
    25  H    0.183827
    26  H    0.329929
 Sum of Mulliken charges =  -0.00000
 Mulliken charges with hydrogens summed into heavy atoms:
               1
     1  O   -0.367050
     2  C    0.212286
     3  O    0.049157
     4  C    0.066698
     5  C    0.010931
     6  C    0.024554
     7  C    0.004900
     8  C    0.015923
     9  C    0.099784
    10  C    0.203732
    11  O   -0.363825
    12  O    0.042910
 Electronic spatial extent (au):  <R**2>=           5252.5123
 Charge=             -0.0000 electrons
 Dipole moment (field-independent basis, Debye):
    X=             -1.1116    Y=              2.3418    Z=             -1.6684  Tot=              3.0827
 Quadrupole moment (field-independent basis, Debye-Ang):
   XX=            -76.4188   YY=            -76.1579   ZZ=            -76.3762
   XY=             -5.4180   XZ=            -13.1963   YZ=             -1.4950
 Traceless Quadrupole moment (field-independent basis, Debye-Ang):
   XX=             -0.1012   YY=              0.1597   ZZ=             -0.0586
   XY=             -5.4180   XZ=            -13.1963   YZ=             -1.4950
 Octapole moment (field-independent basis, Debye-Ang**2):
  XXX=           -103.1297  YYY=              8.4575  ZZZ=             -3.5306  XYY=             40.2039
  XXY=             65.2502  XXZ=            -67.0218  XZZ=            -26.5587  YZZ=              0.7034
  YYZ=             -1.0312  XYZ=              0.0252
 Hexadecapole moment (field-independent basis, Debye-Ang**3):
 XXXX=          -5093.9820 YYYY=           -297.3520 ZZZZ=           -211.9438 XXXY=             70.8099
 XXXZ=           -439.4725 YYYX=              2.8895 YYYZ=             -8.6250 ZZZX=            -21.2770
 ZZZY=              0.9707 XXYY=          -1122.4492 XXZZ=          -1144.8376 YYZZ=            -77.1280
 XXYZ=            -55.2238 YYXZ=            -12.7516 ZZXY=              0.9173
 N-N= 6.595651904806D+02 E-N=-2.756499948038D+03  KE= 6.116882985780D+02
 Unable to Open any file for archive entry.
 1\1\GINC-TCN1789\SP\RBP86\TZVP\C8H14O4\ELENAA\22-Feb-2021\0\\# BP86/TZ
 VP SCRF=COSMORS geom=CHECKPOINT guess=CHECKPOINT\\COSMO-file for #TYFQ
 FVWCELRYAO-UHFFFAOYSA-N\\0,1\O,0,1.1007698782,1.9280576083,-1.27946574
 03\C,0,0.0379358927,1.9147802162,-1.8836953223\O,0,-0.4829029725,3.028
 3801832,-2.4756015755\C,0,-0.877113865,0.7228486901,-2.0203042422\C,0,
 -1.9390618565,0.7187370863,-0.897229636\C,0,-2.8671367669,-0.498839874
 2,-0.9868133707\C,0,-3.9291635225,-0.5198966611,0.1197885299\C,0,-4.85
 05966601,-1.7435978846,0.0348074272\C,0,-5.906883973,-1.7518099364,1.1
 402810894\C,0,-6.8268833425,-2.9500507843,1.0940521776\O,0,-6.76408447
 84,-3.8765465213,0.3009599737\O,0,-7.7750884415,-2.8872325627,2.075233
 1948\H,0,0.1331428331,3.7724947199,-2.3010358288\H,0,-0.2603411409,-0.
 1845006756,-1.9566625344\H,0,-1.3741785099,0.7447420862,-3.0014589851\
 H,0,-1.4307800066,0.7258540815,0.0817836403\H,0,-2.5342771691,1.645170
 2179,-0.9562174259\H,0,-2.2638183695,-1.4225595446,-0.9344163738\H,0,-
 3.3644496907,-0.5077260478,-1.9730358373\H,0,-3.4309018172,-0.50303826
 25,1.1057717372\H,0,-4.5346453119,0.4024572438,0.0633165762\H,0,-5.350
 4416102,-1.7657060461,-0.9478283645\H,0,-4.2498697064,-2.6659845656,0.
 0962357848\H,0,-6.5360781343,-0.8465714917,1.097712157\H,0,-5.43739806
 94,-1.7358053426,2.1392175539\H,0,-8.3340831891,-3.6897159326,1.995905
 3948\\Version=ES64L-G16RevC.01\State=1-A\HF=-614.4740765\RMSD=2.348e-0
 9\Dipole=-0.9616754,0.6948842,0.2516022\Quadrupole=-6.9793942,1.490070
 8,5.4893234,-2.6929193,-5.7937025,-5.6902446\PG=C01 [X(C8H14O4)]\\@
 The archive entry for this job was punched.


 MICHAEL FARADAY, ASKED BY A POLITICIAN WHAT GOOD
 HIS ELECTRICAL DISCOVERIES WERE, REPLIED 
 "AT PRESENT I DO NOT KNOW, BUT ONE DAY YOU WILL BE
 ABLE TO TAX THEM."
 Job cpu time:       0 days  0 hours  8 minutes 37.9 seconds.
 Elapsed time:       0 days  0 hours  0 minutes 16.9 seconds.
 File lengths (MBytes):  RWF=     82 Int=      0 D2E=      0 Chk=     12 Scr=      1
 Normal termination of Gaussian 16 at Mon Feb 22 21:41:17 2021.
