 Entering Gaussian System, Link 0=g16
 Input=UHZZMRAGKVHANO-UHFFFAOYSA-M.gjf
 Output=UHZZMRAGKVHANO-UHFFFAOYSA-M.log
 Initial command:
 /sw/arch/RedHatEnterpriseServer7/EB_production/2020/software/Gaussian/g16.c01/l1.exe "/scratch-local/elenaa.10684708/Gau-28648.inp" -scrdir="/scratch-local/elenaa.10684708/"
 Entering Link 1 = /sw/arch/RedHatEnterpriseServer7/EB_production/2020/software/Gaussian/g16.c01/l1.exe PID=     28651.
  
 Copyright (c) 1988-2019, Gaussian, Inc.  All Rights Reserved.
  
 This is part of the Gaussian(R) 16 program.  It is based on
 the Gaussian(R) 09 system (copyright 2009, Gaussian, Inc.),
 the Gaussian(R) 03 system (copyright 2003, Gaussian, Inc.),
 the Gaussian(R) 98 system (copyright 1998, Gaussian, Inc.),
 the Gaussian(R) 94 system (copyright 1995, Gaussian, Inc.),
 the Gaussian 92(TM) system (copyright 1992, Gaussian, Inc.),
 the Gaussian 90(TM) system (copyright 1990, Gaussian, Inc.),
 the Gaussian 88(TM) system (copyright 1988, Gaussian, Inc.),
 the Gaussian 86(TM) system (copyright 1986, Carnegie Mellon
 University), and the Gaussian 82(TM) system (copyright 1983,
 Carnegie Mellon University). Gaussian is a federally registered
 trademark of Gaussian, Inc.
  
 This software contains proprietary and confidential information,
 including trade secrets, belonging to Gaussian, Inc.
  
 This software is provided under written license and may be
 used, copied, transmitted, or stored only in accord with that
 written license.
  
 The following legend is applicable only to US Government
 contracts under FAR:
  
                    RESTRICTED RIGHTS LEGEND
  
 Use, reproduction and disclosure by the US Government is
 subject to restrictions as set forth in subparagraphs (a)
 and (c) of the Commercial Computer Software - Restricted
 Rights clause in FAR 52.227-19.
  
 Gaussian, Inc.
 340 Quinnipiac St., Bldg. 40, Wallingford CT 06492
  
  
 ---------------------------------------------------------------
 Warning -- This program may not be used in any manner that
 competes with the business of Gaussian, Inc. or will provide
 assistance to any competitor of Gaussian, Inc.  The licensee
 of this program is prohibited from giving any competitor of
 Gaussian, Inc. access to this program.  By using this program,
 the user acknowledges that Gaussian, Inc. is engaged in the
 business of creating and licensing software in the field of
 computational chemistry and represents and warrants to the
 licensee that it is not a competitor of Gaussian, Inc. and that
 it will not use this program in any manner prohibited above.
 ---------------------------------------------------------------
  

 Cite this work as:
 Gaussian 16, Revision C.01,
 M. J. Frisch, G. W. Trucks, H. B. Schlegel, G. E. Scuseria, 
 M. A. Robb, J. R. Cheeseman, G. Scalmani, V. Barone, 
 G. A. Petersson, H. Nakatsuji, X. Li, M. Caricato, A. V. Marenich, 
 J. Bloino, B. G. Janesko, R. Gomperts, B. Mennucci, H. P. Hratchian, 
 J. V. Ortiz, A. F. Izmaylov, J. L. Sonnenberg, D. Williams-Young, 
 F. Ding, F. Lipparini, F. Egidi, J. Goings, B. Peng, A. Petrone, 
 T. Henderson, D. Ranasinghe, V. G. Zakrzewski, J. Gao, N. Rega, 
 G. Zheng, W. Liang, M. Hada, M. Ehara, K. Toyota, R. Fukuda, 
 J. Hasegawa, M. Ishida, T. Nakajima, Y. Honda, O. Kitao, H. Nakai, 
 T. Vreven, K. Throssell, J. A. Montgomery, Jr., J. E. Peralta, 
 F. Ogliaro, M. J. Bearpark, J. J. Heyd, E. N. Brothers, K. N. Kudin, 
 V. N. Staroverov, T. A. Keith, R. Kobayashi, J. Normand, 
 K. Raghavachari, A. P. Rendell, J. C. Burant, S. S. Iyengar, 
 J. Tomasi, M. Cossi, J. M. Millam, M. Klene, C. Adamo, R. Cammi, 
 J. W. Ochterski, R. L. Martin, K. Morokuma, O. Farkas, 
 J. B. Foresman, and D. J. Fox, Gaussian, Inc., Wallingford CT, 2019.
 
 ******************************************
 Gaussian 16:  ES64L-G16RevC.01  3-Jul-2019
                21-Aug-2021 
 ******************************************
 %chk=UHZZMRAGKVHANO-UHFFFAOYSA-M.chk
 %NProcShared=24
 Will use up to   24 processors via shared memory.
 -------------------------------------------------------------
 #P BP86/TZVP EmpiricalDispersion=GD3 SCRF=(Solvent=Water) Opt
 -------------------------------------------------------------
 1/18=20,19=15,26=3,38=1/1,3;
 2/9=110,12=2,17=6,18=5,40=1/2;
 3/5=19,7=101,11=2,25=1,30=1,70=2201,71=1,72=1,74=404,124=31/1,2,3;
 4//1;
 5/5=2,38=5,53=1/2;
 6/7=2,8=2,9=2,10=2,28=1/1;
 7//1,2,3,16;
 1/18=20,19=15,26=3/3(2);
 2/9=110/2;
 99//99;
 2/9=110/2;
 3/5=19,7=101,11=2,25=1,30=1,70=2205,71=1,72=1,74=404,124=31/1,2,3;
 4/5=5,16=3,69=1/1;
 5/5=2,38=5,53=1/2;
 7//1,2,3,16;
 1/18=20,19=15,26=3/3(-5);
 2/9=110/2;
 6/7=2,8=2,9=2,10=2,19=2,28=1/1;
 99/9=1/99;
 Leave Link    1 at Sat Aug 21 09:33:12 2021, MaxMem=           0 cpu:               1.9 elap:               0.1
 (Enter /sw/arch/RedHatEnterpriseServer7/EB_production/2020/software/Gaussian/g16.c01/l101.exe)
 -------------------------------------
 Particle #UHZZMRAGKVHANO-UHFFFAOYSA-M
 -------------------------------------
 Symbolic Z-matrix:
 Charge =  0 Multiplicity = 1
 C                    -0.37983  -0.14816   1.54968 
 N                     0.59117  -0.1432    0.42582 
 C                     1.75924   0.69264   0.81166 
 C                     1.02067  -1.54991   0.223 
 C                    -0.06767   0.34569  -0.82555 
 C                    -0.63772   1.78188  -0.76307 
 Cl                   -2.3482    1.79509  -0.24924 
 Cl                    3.21237  -0.19974  -2.18691 
 H                    -0.69391   0.88105   1.8268 
 H                    -1.29344  -0.72901   1.28992 
 H                     0.06724  -0.60144   2.46351 
 H                     2.452     0.14311   1.48734 
 H                     2.33017   1.03896  -0.06755 
 H                     1.451     1.60938   1.36017 
 H                     0.15142  -2.20468  -0.01324 
 H                     1.73616  -1.64792  -0.61051 
 H                     1.51054  -1.96199   1.13409 
 H                     0.65276   0.31739  -1.66586 
 H                    -0.88783  -0.34549  -1.1274 
 H                    -0.04833   2.44877  -0.10522 
 H                    -0.60798   2.22213  -1.78248 
 
 Add virtual bond connecting atoms H13        and Cl8        Dist= 4.93D+00.
 Add virtual bond connecting atoms H16        and Cl8        Dist= 4.91D+00.
 Add virtual bond connecting atoms H18        and Cl8        Dist= 5.03D+00.
 ITRead=  0  0  0  0  0  0  0  0  0  0  0  0  0  0  0  0  0  0  0  0
 ITRead=  0
 MicOpt= -1 -1 -1 -1 -1 -1 -1 -1 -1 -1 -1 -1 -1 -1 -1 -1 -1 -1 -1 -1
 MicOpt= -1
 NAtoms=     21 NQM=       21 NQMF=       0 NMMI=      0 NMMIF=      0
                NMic=       0 NMicF=      0.
                    Isotopes and Nuclear Properties:
 (Nuclear quadrupole moments (NQMom) in fm**2, nuclear magnetic moments (NMagM)
  in nuclear magnetons)

  Atom         1           2           3           4           5           6           7           8           9          10
 IAtWgt=          12          14          12          12          12          12          35          35           1           1
 AtmWgt=  12.0000000  14.0030740  12.0000000  12.0000000  12.0000000  12.0000000  34.9688527  34.9688527   1.0078250   1.0078250
 NucSpn=           0           2           0           0           0           0           3           3           1           1
 AtZEff=  -0.0000000  -0.0000000  -0.0000000  -0.0000000  -0.0000000  -0.0000000  -0.0000000  -0.0000000  -0.0000000  -0.0000000
 NQMom=    0.0000000   2.0440000   0.0000000   0.0000000   0.0000000   0.0000000  -8.1650000  -8.1650000   0.0000000   0.0000000
 NMagM=    0.0000000   0.4037610   0.0000000   0.0000000   0.0000000   0.0000000   0.8218740   0.8218740   2.7928460   2.7928460
 AtZNuc=   6.0000000   7.0000000   6.0000000   6.0000000   6.0000000   6.0000000  17.0000000  17.0000000   1.0000000   1.0000000

  Atom        11          12          13          14          15          16          17          18          19          20
 IAtWgt=           1           1           1           1           1           1           1           1           1           1
 AtmWgt=   1.0078250   1.0078250   1.0078250   1.0078250   1.0078250   1.0078250   1.0078250   1.0078250   1.0078250   1.0078250
 NucSpn=           1           1           1           1           1           1           1           1           1           1
 AtZEff=  -0.0000000  -0.0000000  -0.0000000  -0.0000000  -0.0000000  -0.0000000  -0.0000000  -0.0000000  -0.0000000  -0.0000000
 NQMom=    0.0000000   0.0000000   0.0000000   0.0000000   0.0000000   0.0000000   0.0000000   0.0000000   0.0000000   0.0000000
 NMagM=    2.7928460   2.7928460   2.7928460   2.7928460   2.7928460   2.7928460   2.7928460   2.7928460   2.7928460   2.7928460
 AtZNuc=   1.0000000   1.0000000   1.0000000   1.0000000   1.0000000   1.0000000   1.0000000   1.0000000   1.0000000   1.0000000

  Atom        21
 IAtWgt=           1
 AtmWgt=   1.0078250
 NucSpn=           1
 AtZEff=  -0.0000000
 NQMom=    0.0000000
 NMagM=    2.7928460
 AtZNuc=   1.0000000
 Leave Link  101 at Sat Aug 21 09:33:13 2021, MaxMem=   104857600 cpu:               2.3 elap:               0.1
 (Enter /sw/arch/RedHatEnterpriseServer7/EB_production/2020/software/Gaussian/g16.c01/l103.exe)

 GradGradGradGradGradGradGradGradGradGradGradGradGradGradGradGradGradGrad
 Berny optimization.
 Initialization pass.
                           ----------------------------
                           !    Initial Parameters    !
                           ! (Angstroms and Degrees)  !
 --------------------------                            --------------------------
 ! Name  Definition              Value          Derivative Info.                !
 --------------------------------------------------------------------------------
 ! R1    R(1,2)                  1.4852         estimate D2E/DX2                !
 ! R2    R(1,9)                  1.1112         estimate D2E/DX2                !
 ! R3    R(1,10)                 1.1134         estimate D2E/DX2                !
 ! R4    R(1,11)                 1.1137         estimate D2E/DX2                !
 ! R5    R(2,3)                  1.4872         estimate D2E/DX2                !
 ! R6    R(2,4)                  1.4847         estimate D2E/DX2                !
 ! R7    R(2,5)                  1.4963         estimate D2E/DX2                !
 ! R8    R(3,12)                 1.1129         estimate D2E/DX2                !
 ! R9    R(3,13)                 1.104          estimate D2E/DX2                !
 ! R10   R(3,14)                 1.1119         estimate D2E/DX2                !
 ! R11   R(4,15)                 1.1136         estimate D2E/DX2                !
 ! R12   R(4,16)                 1.1028         estimate D2E/DX2                !
 ! R13   R(4,17)                 1.1135         estimate D2E/DX2                !
 ! R14   R(5,6)                  1.5464         estimate D2E/DX2                !
 ! R15   R(5,18)                 1.1072         estimate D2E/DX2                !
 ! R16   R(5,19)                 1.1142         estimate D2E/DX2                !
 ! R17   R(6,7)                  1.786          estimate D2E/DX2                !
 ! R18   R(6,20)                 1.1067         estimate D2E/DX2                !
 ! R19   R(6,21)                 1.1108         estimate D2E/DX2                !
 ! R20   R(8,13)                 2.6085         estimate D2E/DX2                !
 ! R21   R(8,16)                 2.6003         estimate D2E/DX2                !
 ! R22   R(8,18)                 2.6628         estimate D2E/DX2                !
 ! A1    A(2,1,9)              111.7408         estimate D2E/DX2                !
 ! A2    A(2,1,10)             111.2035         estimate D2E/DX2                !
 ! A3    A(2,1,11)             111.0882         estimate D2E/DX2                !
 ! A4    A(9,1,10)             108.0266         estimate D2E/DX2                !
 ! A5    A(9,1,11)             106.6066         estimate D2E/DX2                !
 ! A6    A(10,1,11)            107.9688         estimate D2E/DX2                !
 ! A7    A(1,2,3)              108.6047         estimate D2E/DX2                !
 ! A8    A(1,2,4)              106.8173         estimate D2E/DX2                !
 ! A9    A(1,2,5)              110.246          estimate D2E/DX2                !
 ! A10   A(3,2,4)              109.9201         estimate D2E/DX2                !
 ! A11   A(3,2,5)              112.2811         estimate D2E/DX2                !
 ! A12   A(4,2,5)              108.8253         estimate D2E/DX2                !
 ! A13   A(2,3,12)             111.6483         estimate D2E/DX2                !
 ! A14   A(2,3,13)             112.0766         estimate D2E/DX2                !
 ! A15   A(2,3,14)             111.9388         estimate D2E/DX2                !
 ! A16   A(12,3,13)            108.4517         estimate D2E/DX2                !
 ! A17   A(12,3,14)            106.2713         estimate D2E/DX2                !
 ! A18   A(13,3,14)            106.116          estimate D2E/DX2                !
 ! A19   A(2,4,15)             111.1153         estimate D2E/DX2                !
 ! A20   A(2,4,16)             112.0317         estimate D2E/DX2                !
 ! A21   A(2,4,17)             111.4768         estimate D2E/DX2                !
 ! A22   A(15,4,16)            107.0875         estimate D2E/DX2                !
 ! A23   A(15,4,17)            107.42           estimate D2E/DX2                !
 ! A24   A(16,4,17)            107.4633         estimate D2E/DX2                !
 ! A25   A(2,5,6)              115.5913         estimate D2E/DX2                !
 ! A26   A(2,5,18)             109.8682         estimate D2E/DX2                !
 ! A27   A(2,5,19)             110.3637         estimate D2E/DX2                !
 ! A28   A(6,5,18)             107.1123         estimate D2E/DX2                !
 ! A29   A(6,5,19)             108.4034         estimate D2E/DX2                !
 ! A30   A(18,5,19)            104.9205         estimate D2E/DX2                !
 ! A31   A(5,6,7)              111.8092         estimate D2E/DX2                !
 ! A32   A(5,6,20)             112.7879         estimate D2E/DX2                !
 ! A33   A(5,6,21)             108.7316         estimate D2E/DX2                !
 ! A34   A(7,6,20)             109.5451         estimate D2E/DX2                !
 ! A35   A(7,6,21)             106.662          estimate D2E/DX2                !
 ! A36   A(20,6,21)            107.0023         estimate D2E/DX2                !
 ! A37   A(13,8,16)             65.16           estimate D2E/DX2                !
 ! A38   A(13,8,18)             54.8095         estimate D2E/DX2                !
 ! A39   A(16,8,18)             56.2082         estimate D2E/DX2                !
 ! A40   A(3,13,8)             132.295          estimate D2E/DX2                !
 ! A41   A(4,16,8)             140.9871         estimate D2E/DX2                !
 ! A42   A(5,18,8)             141.1611         estimate D2E/DX2                !
 ! D1    D(9,1,2,3)             56.848          estimate D2E/DX2                !
 ! D2    D(9,1,2,4)            175.3573         estimate D2E/DX2                !
 ! D3    D(9,1,2,5)            -66.5577         estimate D2E/DX2                !
 ! D4    D(10,1,2,3)           177.6484         estimate D2E/DX2                !
 ! D5    D(10,1,2,4)           -63.8422         estimate D2E/DX2                !
 ! D6    D(10,1,2,5)            54.2427         estimate D2E/DX2                !
 ! D7    D(11,1,2,3)           -62.0696         estimate D2E/DX2                !
 ! D8    D(11,1,2,4)            56.4398         estimate D2E/DX2                !
 ! D9    D(11,1,2,5)           174.5247         estimate D2E/DX2                !
 ! D10   D(1,2,3,12)            78.753          estimate D2E/DX2                !
 ! D11   D(1,2,3,13)          -159.3467         estimate D2E/DX2                !
 ! D12   D(1,2,3,14)           -40.2496         estimate D2E/DX2                !
 ! D13   D(4,2,3,12)           -37.7786         estimate D2E/DX2                !
 ! D14   D(4,2,3,13)            84.1216         estimate D2E/DX2                !
 ! D15   D(4,2,3,14)          -156.7812         estimate D2E/DX2                !
 ! D16   D(5,2,3,12)          -159.0707         estimate D2E/DX2                !
 ! D17   D(5,2,3,13)           -37.1704         estimate D2E/DX2                !
 ! D18   D(5,2,3,14)            81.9267         estimate D2E/DX2                !
 ! D19   D(1,2,4,15)            59.2933         estimate D2E/DX2                !
 ! D20   D(1,2,4,16)           179.0334         estimate D2E/DX2                !
 ! D21   D(1,2,4,17)           -60.4955         estimate D2E/DX2                !
 ! D22   D(3,2,4,15)           176.9409         estimate D2E/DX2                !
 ! D23   D(3,2,4,16)           -63.319          estimate D2E/DX2                !
 ! D24   D(3,2,4,17)            57.1521         estimate D2E/DX2                !
 ! D25   D(5,2,4,15)           -59.7183         estimate D2E/DX2                !
 ! D26   D(5,2,4,16)            60.0218         estimate D2E/DX2                !
 ! D27   D(5,2,4,17)          -179.507          estimate D2E/DX2                !
 ! D28   D(1,2,5,6)             60.4023         estimate D2E/DX2                !
 ! D29   D(1,2,5,18)          -178.2674         estimate D2E/DX2                !
 ! D30   D(1,2,5,19)           -63.0436         estimate D2E/DX2                !
 ! D31   D(3,2,5,6)            -60.8371         estimate D2E/DX2                !
 ! D32   D(3,2,5,18)            60.4932         estimate D2E/DX2                !
 ! D33   D(3,2,5,19)           175.7171         estimate D2E/DX2                !
 ! D34   D(4,2,5,6)            177.2452         estimate D2E/DX2                !
 ! D35   D(4,2,5,18)           -61.4245         estimate D2E/DX2                !
 ! D36   D(4,2,5,19)            53.7994         estimate D2E/DX2                !
 ! D37   D(2,3,13,8)           -47.2869         estimate D2E/DX2                !
 ! D38   D(12,3,13,8)           76.4236         estimate D2E/DX2                !
 ! D39   D(14,3,13,8)         -169.7567         estimate D2E/DX2                !
 ! D40   D(2,4,16,8)            11.3632         estimate D2E/DX2                !
 ! D41   D(15,4,16,8)          133.434          estimate D2E/DX2                !
 ! D42   D(17,4,16,8)         -111.4128         estimate D2E/DX2                !
 ! D43   D(2,5,6,7)            -91.5753         estimate D2E/DX2                !
 ! D44   D(2,5,6,20)            32.4085         estimate D2E/DX2                !
 ! D45   D(2,5,6,21)           150.9218         estimate D2E/DX2                !
 ! D46   D(18,5,6,7)           145.6231         estimate D2E/DX2                !
 ! D47   D(18,5,6,20)          -90.3931         estimate D2E/DX2                !
 ! D48   D(18,5,6,21)           28.1203         estimate D2E/DX2                !
 ! D49   D(19,5,6,7)            32.8948         estimate D2E/DX2                !
 ! D50   D(19,5,6,20)          156.8785         estimate D2E/DX2                !
 ! D51   D(19,5,6,21)          -84.6081         estimate D2E/DX2                !
 ! D52   D(2,5,18,8)            -4.7593         estimate D2E/DX2                !
 ! D53   D(6,5,18,8)           121.5268         estimate D2E/DX2                !
 ! D54   D(19,5,18,8)         -123.3927         estimate D2E/DX2                !
 ! D55   D(16,8,13,3)            5.3157         estimate D2E/DX2                !
 ! D56   D(18,8,13,3)           70.2599         estimate D2E/DX2                !
 ! D57   D(13,8,16,4)           15.9524         estimate D2E/DX2                !
 ! D58   D(18,8,16,4)          -47.025          estimate D2E/DX2                !
 ! D59   D(13,8,18,5)          -38.7104         estimate D2E/DX2                !
 ! D60   D(16,8,18,5)           42.86           estimate D2E/DX2                !
 --------------------------------------------------------------------------------
 Trust Radius=3.00D-01 FncErr=1.00D-07 GrdErr=1.00D-06 EigMax=2.50D+02 EigMin=1.00D-04
 Number of steps in this run=    126 maximum allowed number of steps=    126.
 GradGradGradGradGradGradGradGradGradGradGradGradGradGradGradGradGradGrad

 Leave Link  103 at Sat Aug 21 09:33:13 2021, MaxMem=   104857600 cpu:               0.2 elap:               0.0
 (Enter /sw/arch/RedHatEnterpriseServer7/EB_production/2020/software/Gaussian/g16.c01/l202.exe)
                          Input orientation:                          
 ---------------------------------------------------------------------
 Center     Atomic      Atomic             Coordinates (Angstroms)
 Number     Number       Type             X           Y           Z
 ---------------------------------------------------------------------
      1          6           0       -0.379825   -0.148163    1.549680
      2          7           0        0.591170   -0.143196    0.425819
      3          6           0        1.759243    0.692637    0.811655
      4          6           0        1.020673   -1.549906    0.222995
      5          6           0       -0.067666    0.345693   -0.825547
      6          6           0       -0.637715    1.781876   -0.763071
      7         17           0       -2.348200    1.795085   -0.249237
      8         17           0        3.212366   -0.199743   -2.186906
      9          1           0       -0.693911    0.881047    1.826799
     10          1           0       -1.293443   -0.729009    1.289922
     11          1           0        0.067236   -0.601440    2.463509
     12          1           0        2.451996    0.143105    1.487336
     13          1           0        2.330172    1.038964   -0.067552
     14          1           0        1.450998    1.609381    1.360173
     15          1           0        0.151418   -2.204677   -0.013239
     16          1           0        1.736164   -1.647916   -0.610511
     17          1           0        1.510537   -1.961994    1.134090
     18          1           0        0.652758    0.317391   -1.665863
     19          1           0       -0.887828   -0.345488   -1.127398
     20          1           0       -0.048329    2.448773   -0.105224
     21          1           0       -0.607981    2.222129   -1.782478
 ---------------------------------------------------------------------
                    Distance matrix (angstroms):
                    1          2          3          4          5
     1  C    0.000000
     2  N    1.485234   0.000000
     3  C    2.413967   1.487239   0.000000
     4  C    2.384611   1.484737   2.433312   0.000000
     5  C    2.446025   1.496327   2.477579   2.424297   0.000000
     6  C    3.023305   2.574785   3.067835   3.850110   1.546441
     7  Cl   3.299517   3.585043   4.383146   4.770878   2.762916
     8  Cl   5.183490   3.701378   3.449533   3.526199   3.592967
     9  H    1.111179   2.159456   2.661575   3.379574   2.777360
    10  H    1.113353   2.154441   3.401280   2.677188   2.670716
    11  H    1.113736   2.153294   2.695579   2.613146   3.425368
    12  H    2.847443   2.161356   1.112851   2.552162   3.426247
    13  H    3.371764   2.159872   1.104041   2.915725   2.608603
    14  H    2.544953   2.164220   1.111893   3.385181   2.946289
    15  H    2.637079   2.153104   3.414671   1.113614   2.685559
    16  H    3.375366   2.156194   2.738846   1.102844   2.697132
    17  H    2.652577   2.157524   2.685681   1.113498   3.414135
    18  H    3.409206   2.142678   2.739200   2.681407   1.107223
    19  H    2.731987   2.154261   3.441601   2.629935   1.114231
    20  H    3.097204   2.721997   2.681790   4.152099   2.223102
    21  H    4.095561   3.450986   3.830486   4.571945   2.174550
                    6          7          8          9         10
     6  C    0.000000
     7  Cl   1.786046   0.000000
     8  Cl   4.558206   6.217218   0.000000
     9  H    2.742641   2.807501   5.704116   0.000000
    10  H    3.308973   3.138881   5.715835   1.799988   0.000000
    11  H    4.072833   4.351627   5.628460   1.783960   1.801396
    12  H    4.158872   5.365315   3.767726   3.249081   3.850697
    13  H    3.137518   4.742562   2.608510   3.571916   4.254298
    14  H    2.983394   4.130205   4.353977   2.312757   3.606239
    15  H    4.132503   4.722487   4.256053   3.690801   2.442017
    16  H    4.173973   5.354139   2.600269   4.270995   3.692500
    17  H    4.714952   5.560493   4.126835   3.663648   3.067057
    18  H    2.150598   3.632652   2.662800   3.785487   3.690436
    19  H    2.172779   2.736038   4.237380   3.204570   2.480937
    20  H    1.106748   2.395298   4.688301   2.570458   3.687145
    21  H    1.110809   2.358295   4.541374   3.851333   4.314941
                   11         12         13         14         15
    11  H    0.000000
    12  H    2.682227   0.000000
    13  H    3.770686   1.798633   0.000000
    14  H    2.831939   1.779925   1.771079   0.000000
    15  H    2.951565   3.613373   3.907829   4.257019   0.000000
    16  H    3.651032   2.849760   2.804813   3.817709   1.782733
    17  H    2.387798   2.332932   3.334890   3.579019   1.795122
    18  H    4.270691   3.634597   2.426723   3.385752   3.056687
    19  H    3.724550   4.269658   3.659987   3.934416   2.403740
    20  H    3.989429   3.755526   2.765185   2.258307   4.658643
    21  H    5.143624   4.937356   3.601888   3.806719   4.827370
                   16         17         18         19         20
    16  H    0.000000
    17  H    1.786949   0.000000
    18  H    2.479913   3.710946   0.000000
    19  H    2.974697   3.671454   1.761465   0.000000
    20  H    4.496954   4.839507   2.733113   3.091519   0.000000
    21  H    4.673946   5.522805   2.287157   2.664602   1.782627
                   21
    21  H    0.000000
 Stoichiometry    C5H13Cl2N
 Framework group  C1[X(C5H13Cl2N)]
 Deg. of freedom    57
 Full point group                 C1      NOp   1
 Largest Abelian subgroup         C1      NOp   1
 Largest concise Abelian subgroup C1      NOp   1
                         Standard orientation:                         
 ---------------------------------------------------------------------
 Center     Atomic      Atomic             Coordinates (Angstroms)
 Number     Number       Type             X           Y           Z
 ---------------------------------------------------------------------
      1          6           0        1.058452    1.839425    0.100203
      2          7           0       -0.124319    0.945086    0.015765
      3          6           0       -0.758704    0.869289    1.358780
      4          6           0       -1.063309    1.564990   -0.952977
      5          6           0        0.279974   -0.401059   -0.497496
      6          6           0        1.314689   -1.161401    0.364319
      7         17           0        2.989106   -0.823836   -0.157538
      8         17           0       -3.222234   -1.078805   -0.067836
      9          1           0        1.781927    1.493530    0.869397
     10          1           0        1.592443    1.894041   -0.875207
     11          1           0        0.759426    2.873342    0.386569
     12          1           0       -1.378434    1.768815    1.571440
     13          1           0       -1.394515   -0.026734    1.467389
     14          1           0       -0.003119    0.812059    2.172489
     15          1           0       -0.588353    1.681850   -1.953425
     16          1           0       -1.972423    0.957011   -1.094884
     17          1           0       -1.386636    2.576252   -0.617292
     18          1           0       -0.610757   -1.052555   -0.587459
     19          1           0        0.679631   -0.316750   -1.534163
     20          1           0        1.213230   -0.946203    1.445192
     21          1           0        1.154370   -2.252826    0.233982
 ---------------------------------------------------------------------
 Rotational constants (GHZ):           1.8778634           0.6226794           0.5261895
 Leave Link  202 at Sat Aug 21 09:33:13 2021, MaxMem=   104857600 cpu:               0.6 elap:               0.1
 (Enter /sw/arch/RedHatEnterpriseServer7/EB_production/2020/software/Gaussian/g16.c01/l301.exe)
 Standard basis: TZVP (5D, 7F)
 Ernie: Thresh=  0.10000D-02 Tol=  0.10000D-05 Strict=F.
 There are   244 symmetry adapted cartesian basis functions of A   symmetry.
 There are   236 symmetry adapted basis functions of A   symmetry.
   236 basis functions,   408 primitive gaussians,   244 cartesian basis functions
    42 alpha electrons       42 beta electrons
       nuclear repulsion energy       552.1369782259 Hartrees.
 IExCor=  404 DFT=T Ex=B Corr=P86 ExCW=0 ScaHFX=  0.000000
 ScaDFX=  1.000000  1.000000  1.000000  1.000000 ScalE2=  1.000000  1.000000
 IRadAn=      5 IRanWt=     -1 IRanGd=            0 ICorTp=0 IEmpDi=131
 NAtoms=   21 NActive=   21 NUniq=   21 SFac= 1.00D+00 NAtFMM=   60 NAOKFM=F Big=F
 Integral buffers will be    131072 words long.
 Raffenetti 2 integral format.
 Two-electron integral symmetry is turned on.
 R6Disp:  Grimme-D3 Dispersion energy=       -0.0278603384 Hartrees.
 Nuclear repulsion after empirical dispersion term =      552.1091178875 Hartrees.
 ------------------------------------------------------------------------------
 Polarizable Continuum Model (PCM)
 =================================
 Model                : PCM.
 Atomic radii         : UFF (Universal Force Field).
 Polarization charges : Total charges.
 Charge compensation  : None.
 Solution method      : On-the-fly selection.
 Cavity type          : Scaled VdW (van der Waals Surface) (Alpha=1.100).
 Cavity algorithm     : GePol (No added spheres)
                        Default sphere list used, NSphG=   21.
                        Lebedev-Laikov grids with approx.  5.0 points / Ang**2.
                        Smoothing algorithm: York/Karplus (Gamma=1.0000).
                        Polarization charges: spherical gaussians, with
                                              point-specific exponents (IZeta= 3).
                        Self-potential: point-specific (ISelfS= 7).
                        Self-field    : sphere-specific E.n sum rule (ISelfD= 2).
 1st derivatives      : Analytical E(r).r(x)/FMM algorithm (CHGder, D1EAlg=3).
                        Cavity 1st derivative terms included.
 Solvent              : Water, Eps=  78.355300 Eps(inf)=   1.777849
 ------------------------------------------------------------------------------
 GePol: Number of generator spheres                  =      21
 GePol: Total number of spheres                      =      21
 GePol: Number of exposed spheres                    =      20 ( 95.24%)
 GePol: Number of points                             =    1487
 GePol: Average weight of points                     =       0.15
 GePol: Minimum weight of points                     =   0.12D-07
 GePol: Maximum weight of points                     =    0.21616
 GePol: Number of points with low weight             =      69
 GePol: Fraction of low-weight points (<1% of avg)   =       4.64%
 GePol: Cavity surface area                          =    222.173 Ang**2
 GePol: Cavity volume                                =    230.364 Ang**3
 Leave Link  301 at Sat Aug 21 09:33:13 2021, MaxMem=   104857600 cpu:               1.2 elap:               0.1
 (Enter /sw/arch/RedHatEnterpriseServer7/EB_production/2020/software/Gaussian/g16.c01/l302.exe)
 NPDir=0 NMtPBC=     1 NCelOv=     1 NCel=       1 NClECP=     1 NCelD=      1
         NCelK=      1 NCelE2=     1 NClLst=     1 CellRange=     0.0.
 One-electron integrals computed using PRISM.
 One-electron integral symmetry used in STVInt
 NBasis=   236 RedAO= T EigKep=  3.48D-04  NBF=   236
 NBsUse=   236 1.00D-06 EigRej= -1.00D+00 NBFU=   236
 Precomputing XC quadrature grid using
 IXCGrd= 4 IRadAn=           5 IRanWt=          -1 IRanGd=           0 AccXCQ= 0.00D+00.
 Generated NRdTot=       0 NPtTot=           0 NUsed=           0 NTot=          32
 NSgBfM=   242   242   242   242   242 MxSgAt=    21 MxSgA2=    21.
 Leave Link  302 at Sat Aug 21 09:33:14 2021, MaxMem=   104857600 cpu:               4.7 elap:               0.2
 (Enter /sw/arch/RedHatEnterpriseServer7/EB_production/2020/software/Gaussian/g16.c01/l303.exe)
 DipDrv:  MaxL=1.
 Leave Link  303 at Sat Aug 21 09:33:14 2021, MaxMem=   104857600 cpu:               1.4 elap:               0.1
 (Enter /sw/arch/RedHatEnterpriseServer7/EB_production/2020/software/Gaussian/g16.c01/l401.exe)
 ExpMin= 9.52D-02 ExpMax= 6.95D+04 ExpMxC= 2.37D+03 IAcc=3 IRadAn=         5 AccDes= 0.00D+00
 Harris functional with IExCor=  404 and IRadAn=       5 diagonalized for initial guess.
 HarFok:  IExCor=  404 AccDes= 0.00D+00 IRadAn=         5 IDoV= 1 UseB2=F ITyADJ=14
 ICtDFT=  3500011 ScaDFX=  1.000000  1.000000  1.000000  1.000000
 FoFCou: FMM=F IPFlag=           0 FMFlag=      100000 FMFlg1=           0
         NFxFlg=           0 DoJE=T BraDBF=F KetDBF=T FulRan=T
         wScrn=  0.000000 ICntrl=       500 IOpCl=  0 I1Cent=   200000004 NGrid=           0
         NMat0=    1 NMatS0=      1 NMatT0=    0 NMatD0=    1 NMtDS0=    0 NMtDT0=    0
 Petite list used in FoFCou.
 Harris En= -1173.68863663899    
 JPrj=0 DoOrth=F DoCkMO=F.
 Leave Link  401 at Sat Aug 21 09:33:15 2021, MaxMem=   104857600 cpu:              11.1 elap:               0.5
 (Enter /sw/arch/RedHatEnterpriseServer7/EB_production/2020/software/Gaussian/g16.c01/l502.exe)
 Integral symmetry usage will be decided dynamically.
 Closed shell SCF:
 Using DIIS extrapolation, IDIIS=  1040.
 NGot=   104857600 LenX=   104729546 LenY=   104669569
 Requested convergence on RMS density matrix=1.00D-08 within 128 cycles.
 Requested convergence on MAX density matrix=1.00D-06.
 Requested convergence on             energy=1.00D-06.
 No special actions if energy rises.
 Fock matrices will be formed incrementally for  20 cycles.

 Cycle   1  Pass 1  IDiag  1:
 FoFJK:  IHMeth= 1 ICntrl=     500 DoSepK=F KAlg= 0 I1Cent=           0 FoldK=F
 IRaf= 940000000 NMat=       1 IRICut=       1 DoRegI=T DoRafI=F ISym2E= 0 IDoP0=0 IntGTp=1.
 FoFCou: FMM=F IPFlag=           0 FMFlag=      100000 FMFlg1=           0
         NFxFlg=           0 DoJE=T BraDBF=F KetDBF=F FulRan=T
         wScrn=  0.000000 ICntrl=       500 IOpCl=  0 I1Cent=           0 NGrid=           0
         NMat0=    1 NMatS0=      1 NMatT0=    0 NMatD0=    1 NMtDS0=    0 NMtDT0=    0
 Symmetry not used in FoFCou.
 Inv3:  Mode=1 IEnd=     6633507.
 Iteration    1 A*A^-1 deviation from unit magnitude is 2.89D-15 for   1274.
 Iteration    1 A*A^-1 deviation from orthogonality  is 1.62D-15 for    952     25.
 Iteration    1 A^-1*A deviation from unit magnitude is 2.66D-15 for   1274.
 Iteration    1 A^-1*A deviation from orthogonality  is 1.91D-15 for    977     82.
 E= -1173.56346678914    
 DIIS: error= 1.89D-02 at cycle   1 NSaved=   1.
 NSaved= 1 IEnMin= 1 EnMin= -1173.56346678914     IErMin= 1 ErrMin= 1.89D-02
 ErrMax= 1.89D-02  0.00D+00 EMaxC= 1.00D-01 BMatC= 1.88D-01 BMatP= 1.88D-01
 IDIUse=3 WtCom= 8.11D-01 WtEn= 1.89D-01
 Coeff-Com:  0.100D+01
 Coeff-En:   0.100D+01
 Coeff:      0.100D+01
 Gap=     0.190 Goal=   None    Shift=    0.000
 GapD=    0.190 DampG=1.000 DampE=0.500 DampFc=0.5000 IDamp=-1.
 Damping current iteration by 5.00D-01
 RMSDP=3.89D-03 MaxDP=1.56D-01              OVMax= 1.41D-01

 Cycle   2  Pass 1  IDiag  1:
 RMSU=  1.94D-03    CP:  9.96D-01
 E= -1173.61543830906     Delta-E=       -0.051971519918 Rises=F Damp=T
 DIIS: error= 8.93D-03 at cycle   2 NSaved=   2.
 NSaved= 2 IEnMin= 2 EnMin= -1173.61543830906     IErMin= 2 ErrMin= 8.93D-03
 ErrMax= 8.93D-03  0.00D+00 EMaxC= 1.00D-01 BMatC= 2.71D-02 BMatP= 1.88D-01
 IDIUse=3 WtCom= 9.11D-01 WtEn= 8.93D-02
 Coeff-Com:  0.185D+00 0.815D+00
 Coeff-En:   0.310D+00 0.690D+00
 Coeff:      0.197D+00 0.803D+00
 Gap=     0.165 Goal=   None    Shift=    0.000
 RMSDP=7.15D-04 MaxDP=2.54D-02 DE=-5.20D-02 OVMax= 8.57D-02

 Cycle   3  Pass 1  IDiag  1:
 RMSU=  7.12D-04    CP:  9.97D-01  9.68D-01
 E= -1173.71850909132     Delta-E=       -0.103070782257 Rises=F Damp=F
 DIIS: error= 5.99D-03 at cycle   3 NSaved=   3.
 NSaved= 3 IEnMin= 3 EnMin= -1173.71850909132     IErMin= 3 ErrMin= 5.99D-03
 ErrMax= 5.99D-03  0.00D+00 EMaxC= 1.00D-01 BMatC= 7.03D-03 BMatP= 2.71D-02
 IDIUse=3 WtCom= 9.40D-01 WtEn= 5.99D-02
 Coeff-Com:  0.168D-01 0.315D+00 0.668D+00
 Coeff-En:   0.000D+00 0.000D+00 0.100D+01
 Coeff:      0.158D-01 0.296D+00 0.688D+00
 Gap=     0.186 Goal=   None    Shift=    0.000
 RMSDP=4.93D-04 MaxDP=1.34D-02 DE=-1.03D-01 OVMax= 1.86D-02

 Cycle   4  Pass 1  IDiag  1:
 RMSU=  3.38D-04    CP:  9.98D-01  8.79D-01  5.60D-01
 E= -1173.72117791807     Delta-E=       -0.002668826749 Rises=F Damp=F
 DIIS: error= 3.34D-03 at cycle   4 NSaved=   4.
 NSaved= 4 IEnMin= 4 EnMin= -1173.72117791807     IErMin= 4 ErrMin= 3.34D-03
 ErrMax= 3.34D-03  0.00D+00 EMaxC= 1.00D-01 BMatC= 3.30D-03 BMatP= 7.03D-03
 IDIUse=3 WtCom= 9.67D-01 WtEn= 3.34D-02
 Coeff-Com: -0.110D-02 0.109D+00 0.429D+00 0.464D+00
 Coeff-En:   0.000D+00 0.000D+00 0.360D+00 0.640D+00
 Coeff:     -0.107D-02 0.105D+00 0.426D+00 0.470D+00
 Gap=     0.178 Goal=   None    Shift=    0.000
 RMSDP=2.25D-04 MaxDP=6.83D-03 DE=-2.67D-03 OVMax= 9.61D-03

 Cycle   5  Pass 1  IDiag  1:
 RMSU=  1.18D-04    CP:  9.97D-01  9.11D-01  6.42D-01  4.96D-01
 E= -1173.72400652657     Delta-E=       -0.002828608504 Rises=F Damp=F
 DIIS: error= 5.70D-04 at cycle   5 NSaved=   5.
 NSaved= 5 IEnMin= 5 EnMin= -1173.72400652657     IErMin= 5 ErrMin= 5.70D-04
 ErrMax= 5.70D-04  0.00D+00 EMaxC= 1.00D-01 BMatC= 1.01D-04 BMatP= 3.30D-03
 IDIUse=3 WtCom= 9.94D-01 WtEn= 5.70D-03
 Coeff-Com: -0.125D-02 0.331D-01 0.161D+00 0.234D+00 0.573D+00
 Coeff-En:   0.000D+00 0.000D+00 0.000D+00 0.000D+00 0.100D+01
 Coeff:     -0.124D-02 0.329D-01 0.160D+00 0.233D+00 0.576D+00
 Gap=     0.177 Goal=   None    Shift=    0.000
 RMSDP=6.61D-05 MaxDP=2.00D-03 DE=-2.83D-03 OVMax= 1.75D-03

 Cycle   6  Pass 1  IDiag  1:
 RMSU=  2.71D-05    CP:  9.97D-01  9.20D-01  6.81D-01  4.95D-01  5.77D-01
 E= -1173.72409844748     Delta-E=       -0.000091920914 Rises=F Damp=F
 DIIS: error= 2.53D-04 at cycle   6 NSaved=   6.
 NSaved= 6 IEnMin= 6 EnMin= -1173.72409844748     IErMin= 6 ErrMin= 2.53D-04
 ErrMax= 2.53D-04  0.00D+00 EMaxC= 1.00D-01 BMatC= 1.06D-05 BMatP= 1.01D-04
 IDIUse=3 WtCom= 9.97D-01 WtEn= 2.53D-03
 Coeff-Com: -0.107D-02 0.117D-01 0.674D-01 0.108D+00 0.330D+00 0.484D+00
 Coeff-En:   0.000D+00 0.000D+00 0.000D+00 0.000D+00 0.000D+00 0.100D+01
 Coeff:     -0.107D-02 0.117D-01 0.672D-01 0.108D+00 0.329D+00 0.485D+00
 Gap=     0.178 Goal=   None    Shift=    0.000
 RMSDP=2.18D-05 MaxDP=7.54D-04 DE=-9.19D-05 OVMax= 7.40D-04

 Cycle   7  Pass 1  IDiag  1:
 RMSU=  7.96D-06    CP:  9.97D-01  9.17D-01  6.69D-01  5.22D-01  6.25D-01
                    CP:  5.16D-01
 E= -1173.72410844841     Delta-E=       -0.000010000930 Rises=F Damp=F
 DIIS: error= 4.01D-05 at cycle   7 NSaved=   7.
 NSaved= 7 IEnMin= 7 EnMin= -1173.72410844841     IErMin= 7 ErrMin= 4.01D-05
 ErrMax= 4.01D-05  0.00D+00 EMaxC= 1.00D-01 BMatC= 5.77D-07 BMatP= 1.06D-05
 IDIUse=1 WtCom= 1.00D+00 WtEn= 0.00D+00
 Coeff-Com: -0.436D-03 0.334D-02 0.210D-01 0.348D-01 0.119D+00 0.259D+00
 Coeff-Com:  0.563D+00
 Coeff:     -0.436D-03 0.334D-02 0.210D-01 0.348D-01 0.119D+00 0.259D+00
 Coeff:      0.563D+00
 Gap=     0.178 Goal=   None    Shift=    0.000
 RMSDP=3.08D-06 MaxDP=1.03D-04 DE=-1.00D-05 OVMax= 1.81D-04

 Cycle   8  Pass 1  IDiag  1:
 RMSU=  2.21D-06    CP:  9.97D-01  9.16D-01  6.70D-01  5.22D-01  6.27D-01
                    CP:  5.30D-01  7.65D-01
 E= -1173.72410891469     Delta-E=       -0.000000466278 Rises=F Damp=F
 DIIS: error= 1.90D-05 at cycle   8 NSaved=   8.
 NSaved= 8 IEnMin= 8 EnMin= -1173.72410891469     IErMin= 8 ErrMin= 1.90D-05
 ErrMax= 1.90D-05  0.00D+00 EMaxC= 1.00D-01 BMatC= 5.21D-08 BMatP= 5.77D-07
 IDIUse=1 WtCom= 1.00D+00 WtEn= 0.00D+00
 Coeff-Com: -0.120D-03 0.606D-03 0.445D-02 0.766D-02 0.303D-01 0.990D-01
 Coeff-Com:  0.312D+00 0.546D+00
 Coeff:     -0.120D-03 0.606D-03 0.445D-02 0.766D-02 0.303D-01 0.990D-01
 Coeff:      0.312D+00 0.546D+00
 Gap=     0.178 Goal=   None    Shift=    0.000
 RMSDP=1.46D-06 MaxDP=6.69D-05 DE=-4.66D-07 OVMax= 6.39D-05

 Cycle   9  Pass 1  IDiag  1:
 RMSU=  6.72D-07    CP:  9.97D-01  9.17D-01  6.70D-01  5.21D-01  6.29D-01
                    CP:  5.51D-01  7.52D-01  6.70D-01
 E= -1173.72410896755     Delta-E=       -0.000000052862 Rises=F Damp=F
 DIIS: error= 3.91D-06 at cycle   9 NSaved=   9.
 NSaved= 9 IEnMin= 9 EnMin= -1173.72410896755     IErMin= 9 ErrMin= 3.91D-06
 ErrMax= 3.91D-06  0.00D+00 EMaxC= 1.00D-01 BMatC= 2.09D-09 BMatP= 5.21D-08
 IDIUse=1 WtCom= 1.00D+00 WtEn= 0.00D+00
 Coeff-Com: -0.333D-04 0.106D-03 0.104D-02 0.184D-02 0.772D-02 0.305D-01
 Coeff-Com:  0.107D+00 0.253D+00 0.599D+00
 Coeff:     -0.333D-04 0.106D-03 0.104D-02 0.184D-02 0.772D-02 0.305D-01
 Coeff:      0.107D+00 0.253D+00 0.599D+00
 Gap=     0.178 Goal=   None    Shift=    0.000
 RMSDP=3.91D-07 MaxDP=1.13D-05 DE=-5.29D-08 OVMax= 1.00D-05

 Cycle  10  Pass 1  IDiag  1:
 RMSU=  1.58D-07    CP:  9.97D-01  9.17D-01  6.70D-01  5.21D-01  6.28D-01
                    CP:  5.53D-01  7.72D-01  6.77D-01  6.43D-01
 E= -1173.72410896965     Delta-E=       -0.000000002099 Rises=F Damp=F
 DIIS: error= 6.13D-07 at cycle  10 NSaved=  10.
 NSaved=10 IEnMin=10 EnMin= -1173.72410896965     IErMin=10 ErrMin= 6.13D-07
 ErrMax= 6.13D-07  0.00D+00 EMaxC= 1.00D-01 BMatC= 7.65D-11 BMatP= 2.09D-09
 IDIUse=1 WtCom= 1.00D+00 WtEn= 0.00D+00
 Coeff-Com: -0.243D-05-0.177D-05 0.604D-04 0.127D-03 0.528D-03 0.349D-02
 Coeff-Com:  0.165D-01 0.540D-01 0.202D+00 0.724D+00
 Coeff:     -0.243D-05-0.177D-05 0.604D-04 0.127D-03 0.528D-03 0.349D-02
 Coeff:      0.165D-01 0.540D-01 0.202D+00 0.724D+00
 Gap=     0.178 Goal=   None    Shift=    0.000
 RMSDP=7.50D-08 MaxDP=2.64D-06 DE=-2.10D-09 OVMax= 2.25D-06

 Cycle  11  Pass 1  IDiag  1:
 RMSU=  3.54D-08    CP:  9.97D-01  9.17D-01  6.70D-01  5.21D-01  6.28D-01
                    CP:  5.53D-01  7.71D-01  6.88D-01  6.89D-01  8.45D-01
 E= -1173.72410896971     Delta-E=       -0.000000000057 Rises=F Damp=F
 DIIS: error= 2.15D-07 at cycle  11 NSaved=  11.
 NSaved=11 IEnMin=11 EnMin= -1173.72410896971     IErMin=11 ErrMin= 2.15D-07
 ErrMax= 2.15D-07  0.00D+00 EMaxC= 1.00D-01 BMatC= 2.13D-11 BMatP= 7.65D-11
 IDIUse=1 WtCom= 1.00D+00 WtEn= 0.00D+00
 Coeff-Com:  0.537D-06-0.702D-05-0.272D-04-0.355D-04-0.163D-03 0.305D-04
 Coeff-Com:  0.269D-02 0.145D-01 0.746D-01 0.414D+00 0.494D+00
 Coeff:      0.537D-06-0.702D-05-0.272D-04-0.355D-04-0.163D-03 0.305D-04
 Coeff:      0.269D-02 0.145D-01 0.746D-01 0.414D+00 0.494D+00
 Gap=     0.178 Goal=   None    Shift=    0.000
 RMSDP=1.68D-08 MaxDP=5.60D-07 DE=-5.73D-11 OVMax= 8.83D-07

 Cycle  12  Pass 1  IDiag  1:
 RMSU=  9.81D-09    CP:  9.97D-01  9.17D-01  6.70D-01  5.21D-01  6.28D-01
                    CP:  5.52D-01  7.72D-01  6.88D-01  6.93D-01  8.71D-01
                    CP:  6.82D-01
 E= -1173.72410896973     Delta-E=       -0.000000000022 Rises=F Damp=F
 DIIS: error= 3.93D-08 at cycle  12 NSaved=  12.
 NSaved=12 IEnMin=12 EnMin= -1173.72410896973     IErMin=12 ErrMin= 3.93D-08
 ErrMax= 3.93D-08  0.00D+00 EMaxC= 1.00D-01 BMatC= 5.05D-13 BMatP= 2.13D-11
 IDIUse=1 WtCom= 1.00D+00 WtEn= 0.00D+00
 Coeff-Com:  0.254D-06-0.253D-05-0.141D-04-0.222D-04-0.976D-04-0.232D-03
 Coeff-Com:  0.475D-04 0.230D-02 0.179D-01 0.128D+00 0.204D+00 0.648D+00
 Coeff:      0.254D-06-0.253D-05-0.141D-04-0.222D-04-0.976D-04-0.232D-03
 Coeff:      0.475D-04 0.230D-02 0.179D-01 0.128D+00 0.204D+00 0.648D+00
 Gap=     0.178 Goal=   None    Shift=    0.000
 RMSDP=6.22D-09 MaxDP=2.63D-07 DE=-2.18D-11 OVMax= 1.50D-07

 Error on total polarization charges =  0.01626
 SCF Done:  E(RB-P86) =  -1173.72410897     A.U. after   12 cycles
            NFock= 12  Conv=0.62D-08     -V/T= 2.0035
 KE= 1.169575661964D+03 PE=-3.877617153689D+03 EE= 9.822082648672D+02
 Leave Link  502 at Sat Aug 21 09:33:30 2021, MaxMem=   104857600 cpu:             352.5 elap:              15.0
 (Enter /sw/arch/RedHatEnterpriseServer7/EB_production/2020/software/Gaussian/g16.c01/l601.exe)
 Copying SCF densities to generalized density rwf, IOpCl= 0 IROHF=0.

 **********************************************************************

            Population analysis using the SCF Density.

 **********************************************************************

 Orbital symmetries:
       Occupied  (A) (A) (A) (A) (A) (A) (A) (A) (A) (A) (A) (A)
                 (A) (A) (A) (A) (A) (A) (A) (A) (A) (A) (A) (A)
                 (A) (A) (A) (A) (A) (A) (A) (A) (A) (A) (A) (A)
                 (A) (A) (A) (A) (A) (A)
       Virtual   (A) (A) (A) (A) (A) (A) (A) (A) (A) (A) (A) (A)
                 (A) (A) (A) (A) (A) (A) (A) (A) (A) (A) (A) (A)
                 (A) (A) (A) (A) (A) (A) (A) (A) (A) (A) (A) (A)
                 (A) (A) (A) (A) (A) (A) (A) (A) (A) (A) (A) (A)
                 (A) (A) (A) (A) (A) (A) (A) (A) (A) (A) (A) (A)
                 (A) (A) (A) (A) (A) (A) (A) (A) (A) (A) (A) (A)
                 (A) (A) (A) (A) (A) (A) (A) (A) (A) (A) (A) (A)
                 (A) (A) (A) (A) (A) (A) (A) (A) (A) (A) (A) (A)
                 (A) (A) (A) (A) (A) (A) (A) (A) (A) (A) (A) (A)
                 (A) (A) (A) (A) (A) (A) (A) (A) (A) (A) (A) (A)
                 (A) (A) (A) (A) (A) (A) (A) (A) (A) (A) (A) (A)
                 (A) (A) (A) (A) (A) (A) (A) (A) (A) (A) (A) (A)
                 (A) (A) (A) (A) (A) (A) (A) (A) (A) (A) (A) (A)
                 (A) (A) (A) (A) (A) (A) (A) (A) (A) (A) (A) (A)
                 (A) (A) (A) (A) (A) (A) (A) (A) (A) (A) (A) (A)
                 (A) (A) (A) (A) (A) (A) (A) (A) (A) (A) (A) (A)
                 (A) (A)
 The electronic state is 1-A.
 Alpha  occ. eigenvalues -- -100.75858-100.63823 -14.15634  -9.98109  -9.97242
 Alpha  occ. eigenvalues --   -9.96090  -9.95368  -9.95264  -9.19690  -9.07690
 Alpha  occ. eigenvalues --   -7.02281  -7.01109  -7.01096  -6.89513  -6.89510
 Alpha  occ. eigenvalues --   -6.89490  -0.96733  -0.80755  -0.71281  -0.69494
 Alpha  occ. eigenvalues --   -0.69166  -0.62770  -0.61997  -0.56628  -0.50457
 Alpha  occ. eigenvalues --   -0.49365  -0.48316  -0.43171  -0.41488  -0.40646
 Alpha  occ. eigenvalues --   -0.39060  -0.37616  -0.37069  -0.36539  -0.35935
 Alpha  occ. eigenvalues --   -0.35723  -0.35106  -0.27908  -0.27513  -0.20719
 Alpha  occ. eigenvalues --   -0.20688  -0.20458
 Alpha virt. eigenvalues --   -0.02640   0.00675   0.01659   0.03363   0.03864
 Alpha virt. eigenvalues --    0.04004   0.04839   0.05710   0.06090   0.08236
 Alpha virt. eigenvalues --    0.08886   0.09816   0.09938   0.10825   0.11624
 Alpha virt. eigenvalues --    0.12280   0.13434   0.14695   0.14917   0.17898
 Alpha virt. eigenvalues --    0.18501   0.20656   0.22514   0.23430   0.24165
 Alpha virt. eigenvalues --    0.24276   0.25336   0.27699   0.28409   0.29676
 Alpha virt. eigenvalues --    0.31477   0.31542   0.32480   0.32815   0.33075
 Alpha virt. eigenvalues --    0.35279   0.36668   0.37394   0.37730   0.38145
 Alpha virt. eigenvalues --    0.38530   0.39146   0.39892   0.40410   0.41339
 Alpha virt. eigenvalues --    0.41462   0.42418   0.43399   0.43888   0.44252
 Alpha virt. eigenvalues --    0.44911   0.45433   0.45598   0.46565   0.47158
 Alpha virt. eigenvalues --    0.49878   0.52893   0.56035   0.60177   0.62129
 Alpha virt. eigenvalues --    0.64455   0.68087   0.74594   0.76797   0.78685
 Alpha virt. eigenvalues --    0.80118   0.81114   0.82144   0.83671   0.84484
 Alpha virt. eigenvalues --    0.85653   0.87376   0.88641   0.99716   1.02208
 Alpha virt. eigenvalues --    1.04572   1.12786   1.14567   1.16505   1.17486
 Alpha virt. eigenvalues --    1.18641   1.19357   1.20653   1.23746   1.24157
 Alpha virt. eigenvalues --    1.25287   1.27449   1.27818   1.28947   1.30721
 Alpha virt. eigenvalues --    1.31699   1.33301   1.35036   1.36650   1.38967
 Alpha virt. eigenvalues --    1.42983   1.44568   1.47777   1.48151   1.48710
 Alpha virt. eigenvalues --    1.50177   1.53256   1.54557   1.55774   1.59929
 Alpha virt. eigenvalues --    1.60495   1.63077   1.65273   1.66330   1.66709
 Alpha virt. eigenvalues --    1.67868   1.68992   1.69334   1.70153   1.70851
 Alpha virt. eigenvalues --    1.71759   1.72363   1.73022   1.73848   1.75069
 Alpha virt. eigenvalues --    1.82054   1.84867   1.86522   1.87264   1.88914
 Alpha virt. eigenvalues --    1.90621   1.93162   1.96863   1.98169   1.99905
 Alpha virt. eigenvalues --    2.06384   2.11773   2.14399   2.15826   2.16982
 Alpha virt. eigenvalues --    2.19247   2.20707   2.25587   2.26542   2.26818
 Alpha virt. eigenvalues --    2.27401   2.28276   2.28922   2.29464   2.31349
 Alpha virt. eigenvalues --    2.31848   2.34886   2.36394   2.37175   2.41063
 Alpha virt. eigenvalues --    2.41508   2.42285   2.44151   2.46570   2.51370
 Alpha virt. eigenvalues --    2.53343   2.55305   2.58796   2.60350   2.60898
 Alpha virt. eigenvalues --    2.62177   2.64428   2.70011   2.70167   2.76899
 Alpha virt. eigenvalues --    2.80416   2.84591   2.86818   2.89388   2.94853
 Alpha virt. eigenvalues --    3.01019   3.03422   3.05195   3.09587   3.14377
 Alpha virt. eigenvalues --    3.17812   3.19395   3.23696   3.25633   3.27217
 Alpha virt. eigenvalues --    3.27940   3.29917   3.33032   3.57349   3.57703
 Alpha virt. eigenvalues --    3.59465  21.57669  21.75963  21.77864  21.79764
 Alpha virt. eigenvalues --   21.81639  24.09995  24.79730  31.62906
          Condensed to atoms (all electrons):
               1          2          3          4          5          6
     1  C    5.261612   0.252185  -0.119339  -0.101039  -0.111046   0.005497
     2  N    0.252185   6.437560   0.224102   0.270746   0.183692  -0.026231
     3  C   -0.119339   0.224102   5.315465  -0.096285  -0.073043  -0.007641
     4  C   -0.101039   0.270746  -0.096285   5.264976  -0.126164   0.017616
     5  C   -0.111046   0.183692  -0.073043  -0.126164   5.670702   0.145826
     6  C    0.005497  -0.026231  -0.007641   0.017616   0.145826   5.142694
     7  Cl   0.012319  -0.016408  -0.006366  -0.002388  -0.026407   0.222650
     8  Cl   0.000573   0.006355  -0.040578  -0.050812  -0.044672   0.002867
     9  H    0.392508  -0.013393  -0.009925   0.009893  -0.023213   0.012686
    10  H    0.380091  -0.020569   0.011369  -0.006285   0.002283  -0.006186
    11  H    0.377623  -0.014612  -0.004021  -0.009840   0.011789  -0.000807
    12  H   -0.006569  -0.013104   0.381665  -0.003996   0.007440   0.001300
    13  H    0.009033  -0.023225   0.338202   0.004116   0.007682  -0.005822
    14  H   -0.000650  -0.018576   0.376059   0.008871  -0.012767  -0.001246
    15  H   -0.007479  -0.013436   0.011046   0.379516  -0.011545   0.000044
    16  H    0.010229  -0.021729   0.006424   0.332085  -0.002309   0.001184
    17  H   -0.011578  -0.010252  -0.013319   0.383006   0.011655  -0.000707
    18  H    0.008435  -0.023262  -0.013090   0.001389   0.324779  -0.014550
    19  H   -0.019894  -0.011275   0.010617  -0.000845   0.380539  -0.035294
    20  H   -0.006689   0.000710   0.016048   0.000177  -0.051653   0.414178
    21  H    0.001331   0.002838  -0.001942  -0.000323  -0.033872   0.412894
               7          8          9         10         11         12
     1  C    0.012319   0.000573   0.392508   0.380091   0.377623  -0.006569
     2  N   -0.016408   0.006355  -0.013393  -0.020569  -0.014612  -0.013104
     3  C   -0.006366  -0.040578  -0.009925   0.011369  -0.004021   0.381665
     4  C   -0.002388  -0.050812   0.009893  -0.006285  -0.009840  -0.003996
     5  C   -0.026407  -0.044672  -0.023213   0.002283   0.011789   0.007440
     6  C    0.222650   0.002867   0.012686  -0.006186  -0.000807   0.001300
     7  Cl  16.995733  -0.000026  -0.002298  -0.001181   0.001353  -0.000098
     8  Cl  -0.000026  17.823519   0.000017   0.000017  -0.000022   0.000619
     9  H   -0.002298   0.000017   0.462443  -0.020648  -0.017262  -0.000139
    10  H   -0.001181   0.000017  -0.020648   0.471654  -0.017804  -0.000072
    11  H    0.001353  -0.000022  -0.017262  -0.017804   0.475375   0.001405
    12  H   -0.000098   0.000619  -0.000139  -0.000072   0.001405   0.473211
    13  H    0.000225   0.045637   0.000244  -0.000415   0.000117  -0.013213
    14  H    0.000805   0.002522   0.003121   0.000419  -0.001301  -0.020293
    15  H   -0.000011   0.001266   0.000207   0.002715  -0.000852   0.000343
    16  H    0.000029   0.056511  -0.000455   0.000005   0.000228  -0.000835
    17  H    0.000059   0.000695   0.000106  -0.000247   0.004546   0.002675
    18  H    0.005570   0.059160  -0.000261   0.000225  -0.000186   0.000147
    19  H   -0.008695   0.000644   0.001150   0.003518  -0.000133  -0.000171
    20  H   -0.033846  -0.000045  -0.002795   0.000729  -0.000112   0.000342
    21  H   -0.037773   0.000437   0.000402  -0.000093   0.000036  -0.000026
              13         14         15         16         17         18
     1  C    0.009033  -0.000650  -0.007479   0.010229  -0.011578   0.008435
     2  N   -0.023225  -0.018576  -0.013436  -0.021729  -0.010252  -0.023262
     3  C    0.338202   0.376059   0.011046   0.006424  -0.013319  -0.013090
     4  C    0.004116   0.008871   0.379516   0.332085   0.383006   0.001389
     5  C    0.007682  -0.012767  -0.011545  -0.002309   0.011655   0.324779
     6  C   -0.005822  -0.001246   0.000044   0.001184  -0.000707  -0.014550
     7  Cl   0.000225   0.000805  -0.000011   0.000029   0.000059   0.005570
     8  Cl   0.045637   0.002522   0.001266   0.056511   0.000695   0.059160
     9  H    0.000244   0.003121   0.000207  -0.000455   0.000106  -0.000261
    10  H   -0.000415   0.000419   0.002715   0.000005  -0.000247   0.000225
    11  H    0.000117  -0.001301  -0.000852   0.000228   0.004546  -0.000186
    12  H   -0.013213  -0.020293   0.000343  -0.000835   0.002675   0.000147
    13  H    0.485283  -0.022842  -0.000217  -0.005007  -0.000083  -0.001190
    14  H   -0.022842   0.498658  -0.000284   0.000035   0.000152   0.000242
    15  H   -0.000217  -0.000284   0.493923  -0.017703  -0.021917  -0.001622
    16  H   -0.005007   0.000035  -0.017703   0.495183  -0.015262   0.000406
    17  H   -0.000083   0.000152  -0.021917  -0.015262   0.482781   0.000340
    18  H   -0.001190   0.000242  -0.001622   0.000406   0.000340   0.474629
    19  H    0.000553  -0.000169   0.003920  -0.001794   0.000006  -0.005993
    20  H   -0.001416  -0.000491  -0.000033   0.000009  -0.000013   0.001278
    21  H    0.000493  -0.000001  -0.000020  -0.000087   0.000018  -0.001906
              19         20         21
     1  C   -0.019894  -0.006689   0.001331
     2  N   -0.011275   0.000710   0.002838
     3  C    0.010617   0.016048  -0.001942
     4  C   -0.000845   0.000177  -0.000323
     5  C    0.380539  -0.051653  -0.033872
     6  C   -0.035294   0.414178   0.412894
     7  Cl  -0.008695  -0.033846  -0.037773
     8  Cl   0.000644  -0.000045   0.000437
     9  H    0.001150  -0.002795   0.000402
    10  H    0.003518   0.000729  -0.000093
    11  H   -0.000133  -0.000112   0.000036
    12  H   -0.000171   0.000342  -0.000026
    13  H    0.000553  -0.001416   0.000493
    14  H   -0.000169  -0.000491  -0.000001
    15  H    0.003920  -0.000033  -0.000020
    16  H   -0.001794   0.000009  -0.000087
    17  H    0.000006  -0.000013   0.000018
    18  H   -0.005993   0.001278  -0.001906
    19  H    0.458906   0.003695   0.001032
    20  H    0.003695   0.459995  -0.017025
    21  H    0.001032  -0.017025   0.451825
 Mulliken charges:
               1
     1  C   -0.327152
     2  N   -0.152115
     3  C   -0.305446
     4  C   -0.274413
     5  C   -0.229697
     6  C   -0.280951
     7  Cl  -0.103247
     8  Cl  -0.864683
     9  H    0.207613
    10  H    0.200475
    11  H    0.194479
    12  H    0.189369
    13  H    0.181845
    14  H    0.187736
    15  H    0.182138
    16  H    0.162853
    17  H    0.187339
    18  H    0.185458
    19  H    0.219683
    20  H    0.216955
    21  H    0.221761
 Sum of Mulliken charges =  -0.00000
 Mulliken charges with hydrogens summed into heavy atoms:
               1
     1  C    0.275414
     2  N   -0.152115
     3  C    0.253505
     4  C    0.257917
     5  C    0.175445
     6  C    0.157765
     7  Cl  -0.103247
     8  Cl  -0.864683
 Electronic spatial extent (au):  <R**2>=           2097.0302
 Charge=             -0.0000 electrons
 Dipole moment (field-independent basis, Debye):
    X=             11.4564    Y=              8.4120    Z=              0.9785  Tot=             14.2467
 Quadrupole moment (field-independent basis, Debye-Ang):
   XX=           -113.8786   YY=            -60.0947   ZZ=            -60.3358
   XY=            -15.0041   XZ=             -0.2976   YZ=             -0.9593
 Traceless Quadrupole moment (field-independent basis, Debye-Ang):
   XX=            -35.7756   YY=             18.0083   ZZ=             17.7673
   XY=            -15.0041   XZ=             -0.2976   YZ=             -0.9593
 Octapole moment (field-independent basis, Debye-Ang**2):
  XXX=            152.9488  YYY=             29.5275  ZZZ=              2.9568  XYY=             24.3740
  XXY=             65.4038  XXZ=              3.3855  XZZ=              7.9252  YZZ=              8.2382
  YYZ=              1.0970  XYZ=              0.4107
 Hexadecapole moment (field-independent basis, Debye-Ang**3):
 XXXX=          -2457.3771 YYYY=           -588.2207 ZZZZ=           -235.9504 XXXY=           -164.3255
 XXXZ=            -18.2377 YYYX=            -53.4187 YYYZ=             -0.0201 ZZZX=             -3.2209
 ZZZY=             -2.8517 XXYY=           -479.0473 XXZZ=           -363.0901 YYZZ=           -143.6444
 XXYZ=             -5.4986 YYXZ=              0.1094 ZZXY=            -12.8470
 N-N= 5.521091178875D+02 E-N=-3.877617159373D+03  KE= 1.169575661964D+03
 No NMR shielding tensors so no spin-rotation constants.
 Leave Link  601 at Sat Aug 21 09:33:30 2021, MaxMem=   104857600 cpu:               3.4 elap:               0.2
 (Enter /sw/arch/RedHatEnterpriseServer7/EB_production/2020/software/Gaussian/g16.c01/l701.exe)
 ... and contract with generalized density number  0.
 Compute integral first derivatives.
 R6Disp: Adding Grimme-D3 dispersion energy 1st derivatives to the gradient.
 D1PCM: PCM CHGder 1st derivatives, ID1Alg=3 FixD1E=F DoIter=F DoCFld=F I1PDM=0.
 GePol: Maximum number of non-zero 1st derivatives   =     259
 Leave Link  701 at Sat Aug 21 09:33:31 2021, MaxMem=   104857600 cpu:              21.0 elap:               0.9
 (Enter /sw/arch/RedHatEnterpriseServer7/EB_production/2020/software/Gaussian/g16.c01/l702.exe)
 L702 exits ... SP integral derivatives will be done elsewhere.
 Leave Link  702 at Sat Aug 21 09:33:32 2021, MaxMem=   104857600 cpu:               0.3 elap:               0.0
 (Enter /sw/arch/RedHatEnterpriseServer7/EB_production/2020/software/Gaussian/g16.c01/l703.exe)
 Integral derivatives from FoFJK, PRISM(SPDF).
 Compute integral first derivatives, UseDBF=F ICtDFT=           0.
 Calling FoFJK, ICntrl=      2527 FMM=F ISym2X=0 I1Cent= 0 IOpClX= 0 NMat=1 NMatS=1 NMatT=0.
 FoFJK:  IHMeth= 1 ICntrl=    2527 DoSepK=F KAlg= 0 I1Cent=           0 FoldK=F
 IRaf=         0 NMat=       1 IRICut=       1 DoRegI=T DoRafI=F ISym2E= 0 IDoP0=0 IntGTp=1.
 FoFCou: FMM=F IPFlag=           0 FMFlag=      100000 FMFlg1=         800
         NFxFlg=           0 DoJE=F BraDBF=F KetDBF=F FulRan=T
         wScrn=  0.000000 ICntrl=      2527 IOpCl=  0 I1Cent=           0 NGrid=           0
         NMat0=    1 NMatS0=      1 NMatT0=    0 NMatD0=    1 NMtDS0=    0 NMtDT0=    0
 Symmetry not used in FoFCou.
 Leave Link  703 at Sat Aug 21 09:33:34 2021, MaxMem=   104857600 cpu:              50.4 elap:               2.1
 (Enter /sw/arch/RedHatEnterpriseServer7/EB_production/2020/software/Gaussian/g16.c01/l716.exe)
 Dipole        = 4.50728642D+00 3.30951652D+00 3.84977371D-01
 ***** Axes restored to original set *****
 -------------------------------------------------------------------
 Center     Atomic                   Forces (Hartrees/Bohr)
 Number     Number              X              Y              Z
 -------------------------------------------------------------------
      1        6          -0.023609282    0.001058037    0.028894219
      2        7          -0.003435555   -0.005624758    0.007060374
      3        6           0.025858040    0.025988152    0.011815446
      4        6           0.007914649   -0.037796120   -0.005876105
      5        6          -0.014737738    0.013964563   -0.028065134
      6        6           0.019776594   -0.002780174   -0.008759448
      7       17          -0.015181679    0.004341834    0.005790604
      8       17           0.001059097    0.000198802   -0.003032996
      9        1           0.004423482   -0.007383815   -0.006606626
     10        1           0.010307798    0.004697159   -0.001749287
     11        1           0.000932435    0.002903491   -0.011500348
     12        1          -0.010158859    0.000080792   -0.007252141
     13        1          -0.004104451   -0.010342803   -0.000959975
     14        1          -0.004542857   -0.009929473   -0.003909649
     15        1           0.003491563    0.010551584    0.003402693
     16        1          -0.001132059    0.009591655    0.001209221
     17        1          -0.006106362    0.009431959   -0.005157678
     18        1           0.006633632   -0.002451050    0.009922441
     19        1           0.007832732    0.002332596    0.009379695
     20        1          -0.005014531   -0.003655614   -0.002425256
     21        1          -0.000206651   -0.005176820    0.007819948
 -------------------------------------------------------------------
 Cartesian Forces:  Max     0.037796120 RMS     0.011331049
 Leave Link  716 at Sat Aug 21 09:33:34 2021, MaxMem=   104857600 cpu:               0.5 elap:               0.1
 (Enter /sw/arch/RedHatEnterpriseServer7/EB_production/2020/software/Gaussian/g16.c01/l103.exe)

 GradGradGradGradGradGradGradGradGradGradGradGradGradGradGradGradGradGrad
 Berny optimization.
 FormGI is forming the generalized inverse of G from B-inverse, IUseBI=4.
 Internal  Forces:  Max     0.016243514 RMS     0.004621030
 Search for a local minimum.
 Step number   1 out of a maximum of  126
 All quantities printed in internal units (Hartrees-Bohrs-Radians)
 RMS Force = .46210D-02 SwitMx=.10000D-02 MixMth= 1
 Mixed Optimization -- RFO/linear search
 Second derivative matrix not updated -- first step.
 ITU=  0
     Eigenvalues ---    0.00230   0.00329   0.00399   0.00564   0.00589
     Eigenvalues ---    0.01540   0.02078   0.02488   0.03244   0.03471
     Eigenvalues ---    0.03935   0.04111   0.04707   0.05189   0.05226
     Eigenvalues ---    0.05384   0.05552   0.05635   0.05853   0.05872
     Eigenvalues ---    0.06601   0.07829   0.08277   0.09438   0.11500
     Eigenvalues ---    0.11550   0.11771   0.12249   0.13858   0.15679
     Eigenvalues ---    0.16000   0.16000   0.16000   0.16000   0.16000
     Eigenvalues ---    0.16954   0.19544   0.22250   0.27247   0.27956
     Eigenvalues ---    0.28431   0.29998   0.31063   0.32156   0.32208
     Eigenvalues ---    0.32220   0.32232   0.32248   0.32279   0.32300
     Eigenvalues ---    0.32400   0.32476   0.32514   0.32544   0.32947
     Eigenvalues ---    0.33196   0.33977
 RFO step:  Lambda=-1.19328183D-02 EMin= 2.30000000D-03
 Linear search not attempted -- first point.
 Iteration  1 RMS(Cart)=  0.02505700 RMS(Int)=  0.00075212
 Iteration  2 RMS(Cart)=  0.00069366 RMS(Int)=  0.00037934
 Iteration  3 RMS(Cart)=  0.00000052 RMS(Int)=  0.00037934
 ITry= 1 IFail=0 DXMaxC= 1.47D-01 DCOld= 1.00D+10 DXMaxT= 3.00D-01 DXLimC= 3.00D+00 Rises=F
 Variable       Old X    -DE/DX   Delta X   Delta X   Delta X     New X
                                 (Linear)    (Quad)   (Total)
    R1        2.80669   0.01202   0.00000   0.03419   0.03419   2.84087
    R2        2.09982  -0.00974   0.00000  -0.02893  -0.02893   2.07089
    R3        2.10393  -0.01050   0.00000  -0.03141  -0.03141   2.07252
    R4        2.10466  -0.01024   0.00000  -0.03066  -0.03066   2.07400
    R5        2.81047   0.00970   0.00000   0.02953   0.02954   2.84001
    R6        2.80575   0.01101   0.00000   0.03390   0.03383   2.83958
    R7        2.82765   0.00930   0.00000   0.03010   0.03012   2.85777
    R8        2.10298  -0.01077   0.00000  -0.03215  -0.03215   2.07083
    R9        2.08634  -0.00247   0.00000  -0.00903  -0.00891   2.07742
   R10        2.10117  -0.00886   0.00000  -0.02636  -0.02636   2.07481
   R11        2.10443  -0.00965   0.00000  -0.02889  -0.02889   2.07553
   R12        2.08407  -0.00152   0.00000  -0.00545  -0.00560   2.07847
   R13        2.10421  -0.01040   0.00000  -0.03111  -0.03111   2.07310
   R14        2.92235  -0.00642   0.00000  -0.02203  -0.02203   2.90032
   R15        2.09235  -0.00302   0.00000  -0.00510  -0.00508   2.08727
   R16        2.10559  -0.00975   0.00000  -0.02924  -0.02924   2.07635
   R17        3.37514   0.01624   0.00000   0.05711   0.05711   3.43225
   R18        2.09145  -0.00632   0.00000  -0.01850  -0.01850   2.07295
   R19        2.09913  -0.00924   0.00000  -0.02741  -0.02741   2.07172
   R20        4.92937   0.00126   0.00000   0.00198   0.00211   4.93148
   R21        4.91380   0.00030   0.00000  -0.02181  -0.02192   4.89188
   R22        5.03196  -0.00086   0.00000  -0.00502  -0.00502   5.02695
    A1        1.95024  -0.00409   0.00000  -0.02289  -0.02322   1.92702
    A2        1.94087  -0.00432   0.00000  -0.02674  -0.02720   1.91367
    A3        1.93886  -0.00657   0.00000  -0.03756  -0.03803   1.90083
    A4        1.88542   0.00439   0.00000   0.02431   0.02398   1.90940
    A5        1.86064   0.00605   0.00000   0.03821   0.03787   1.89851
    A6        1.88441   0.00554   0.00000   0.03048   0.02989   1.91430
    A7        1.89551   0.00031   0.00000   0.00192   0.00198   1.89749
    A8        1.86431   0.00142   0.00000   0.01323   0.01317   1.87748
    A9        1.92416   0.00085   0.00000   0.00842   0.00846   1.93262
   A10        1.91847  -0.00015   0.00000   0.00468   0.00448   1.92295
   A11        1.95967  -0.00117   0.00000  -0.01424  -0.01434   1.94534
   A12        1.89936  -0.00113   0.00000  -0.01250  -0.01249   1.88687
   A13        1.94863  -0.00468   0.00000  -0.04375  -0.04415   1.90448
   A14        1.95611  -0.00323   0.00000  -0.01250  -0.01253   1.94358
   A15        1.95370  -0.00546   0.00000  -0.04246  -0.04264   1.91106
   A16        1.89284   0.00332   0.00000   0.02206   0.02129   1.91413
   A17        1.85478   0.00413   0.00000   0.03319   0.03133   1.88611
   A18        1.85207   0.00703   0.00000   0.05174   0.05151   1.90358
   A19        1.93933  -0.00446   0.00000  -0.04027  -0.04060   1.89873
   A20        1.95532  -0.00419   0.00000  -0.00804  -0.00798   1.94735
   A21        1.94564  -0.00491   0.00000  -0.04573  -0.04603   1.89961
   A22        1.86903   0.00570   0.00000   0.03965   0.03938   1.90840
   A23        1.87483   0.00357   0.00000   0.02723   0.02522   1.90005
   A24        1.87559   0.00528   0.00000   0.03397   0.03352   1.90911
   A25        2.01745   0.00273   0.00000   0.00712   0.00727   2.02472
   A26        1.91756  -0.00419   0.00000  -0.02436  -0.02433   1.89324
   A27        1.92621  -0.00431   0.00000  -0.05438  -0.05418   1.87203
   A28        1.86946   0.00113   0.00000   0.01636   0.01604   1.88550
   A29        1.89200   0.00159   0.00000   0.02501   0.02452   1.91651
   A30        1.83121   0.00334   0.00000   0.03567   0.03453   1.86574
   A31        1.95144   0.00976   0.00000   0.04193   0.04196   1.99340
   A32        1.96852  -0.00066   0.00000  -0.00329  -0.00331   1.96521
   A33        1.89772  -0.00347   0.00000  -0.01609  -0.01609   1.88163
   A34        1.91192  -0.00548   0.00000  -0.02862  -0.02861   1.88331
   A35        1.86160  -0.00195   0.00000  -0.00055  -0.00050   1.86110
   A36        1.86754   0.00138   0.00000   0.00533   0.00527   1.87281
   A37        1.13726  -0.00085   0.00000  -0.00695  -0.00695   1.13031
   A38        0.95661  -0.00032   0.00000  -0.00944  -0.00950   0.94711
   A39        0.98102  -0.00086   0.00000  -0.01203  -0.01194   0.96908
   A40        2.30898   0.00479   0.00000   0.02908   0.02899   2.33797
   A41        2.46069   0.00531   0.00000   0.02665   0.02655   2.48724
   A42        2.46373   0.00636   0.00000   0.03666   0.03667   2.50040
    D1        0.99218  -0.00005   0.00000   0.00586   0.00586   0.99804
    D2        3.06056   0.00072   0.00000   0.01963   0.01957   3.08013
    D3       -1.16165   0.00065   0.00000   0.01690   0.01696  -1.14469
    D4        3.10055  -0.00027   0.00000   0.00257   0.00249   3.10304
    D5       -1.11426   0.00049   0.00000   0.01633   0.01620  -1.09805
    D6        0.94671   0.00043   0.00000   0.01360   0.01360   0.96031
    D7       -1.08332  -0.00060   0.00000  -0.00216  -0.00210  -1.08542
    D8        0.98506   0.00017   0.00000   0.01161   0.01162   0.99668
    D9        3.04603   0.00010   0.00000   0.00887   0.00901   3.05504
   D10        1.37450  -0.00034   0.00000  -0.00789  -0.00778   1.36672
   D11       -2.78113  -0.00174   0.00000  -0.01997  -0.01989  -2.80102
   D12       -0.70249   0.00128   0.00000   0.00839   0.00809  -0.69440
   D13       -0.65936  -0.00215   0.00000  -0.02748  -0.02735  -0.68671
   D14        1.46820  -0.00355   0.00000  -0.03956  -0.03946   1.42874
   D15       -2.73635  -0.00053   0.00000  -0.01120  -0.01148  -2.74783
   D16       -2.77631   0.00018   0.00000  -0.00525  -0.00512  -2.78142
   D17       -0.64875  -0.00122   0.00000  -0.01733  -0.01723  -0.66598
   D18        1.42989   0.00180   0.00000   0.01103   0.01075   1.44064
   D19        1.03486  -0.00085   0.00000  -0.00929  -0.00903   1.02583
   D20        3.12472   0.00050   0.00000   0.00809   0.00798   3.13270
   D21       -1.05585   0.00092   0.00000   0.01403   0.01370  -1.04215
   D22        3.08820   0.00025   0.00000   0.00298   0.00339   3.09159
   D23       -1.10513   0.00161   0.00000   0.02036   0.02040  -1.08473
   D24        0.99749   0.00202   0.00000   0.02630   0.02612   1.02361
   D25       -1.04228  -0.00205   0.00000  -0.01995  -0.01962  -1.06190
   D26        1.04758  -0.00069   0.00000  -0.00256  -0.00261   1.04497
   D27       -3.13299  -0.00027   0.00000   0.00338   0.00311  -3.12988
   D28        1.05422  -0.00022   0.00000  -0.00090  -0.00086   1.05335
   D29       -3.11135  -0.00005   0.00000   0.00675   0.00637  -3.10498
   D30       -1.10032  -0.00091   0.00000   0.00458   0.00480  -1.09552
   D31       -1.06181  -0.00042   0.00000   0.00041   0.00048  -1.06133
   D32        1.05581  -0.00025   0.00000   0.00806   0.00771   1.06352
   D33        3.06684  -0.00112   0.00000   0.00590   0.00614   3.07298
   D34        3.09351   0.00132   0.00000   0.01254   0.01247   3.10598
   D35       -1.07206   0.00149   0.00000   0.02019   0.01970  -1.05236
   D36        0.93898   0.00063   0.00000   0.01802   0.01813   0.95711
   D37       -0.82531   0.00065   0.00000   0.00656   0.00656  -0.81875
   D38        1.33384  -0.00511   0.00000  -0.04177  -0.04279   1.29105
   D39       -2.96281   0.00465   0.00000   0.03213   0.03306  -2.92975
   D40        0.19832  -0.00028   0.00000  -0.00192  -0.00187   0.19646
   D41        2.32886  -0.00459   0.00000  -0.03034  -0.03120   2.29766
   D42       -1.94452   0.00491   0.00000   0.03720   0.03820  -1.90632
   D43       -1.59829   0.00061   0.00000   0.03506   0.03508  -1.56321
   D44        0.56563   0.00040   0.00000   0.02709   0.02711   0.59274
   D45        2.63408  -0.00058   0.00000   0.02106   0.02113   2.65522
   D46        2.54160   0.00334   0.00000   0.04931   0.04942   2.59103
   D47       -1.57766   0.00313   0.00000   0.04134   0.04145  -1.53621
   D48        0.49079   0.00215   0.00000   0.03532   0.03547   0.52626
   D49        0.57412  -0.00182   0.00000  -0.01174  -0.01191   0.56221
   D50        2.73805  -0.00203   0.00000  -0.01971  -0.01989   2.71816
   D51       -1.47669  -0.00301   0.00000  -0.02573  -0.02586  -1.50255
   D52       -0.08307  -0.00153   0.00000  -0.01927  -0.01941  -0.10247
   D53        2.12104  -0.00008   0.00000  -0.01515  -0.01551   2.10553
   D54       -2.15361   0.00377   0.00000   0.03697   0.03758  -2.11603
   D55        0.09278   0.00132   0.00000   0.01070   0.01064   0.10342
   D56        1.22627   0.00079   0.00000   0.00144   0.00148   1.22774
   D57        0.27842   0.00023   0.00000  -0.00611  -0.00604   0.27238
   D58       -0.82074   0.00002   0.00000  -0.00035  -0.00019  -0.82093
   D59       -0.67562   0.00194   0.00000   0.01558   0.01579  -0.65983
   D60        0.74805   0.00150   0.00000   0.01897   0.01928   0.76733
         Item               Value     Threshold  Converged?
 Maximum Force            0.016244     0.000450     NO 
 RMS     Force            0.004621     0.000300     NO 
 Maximum Displacement     0.146833     0.001800     NO 
 RMS     Displacement     0.025160     0.001200     NO 
 Predicted change in Energy=-6.438450D-03
 Lowest energy point so far.  Saving SCF results.
 GradGradGradGradGradGradGradGradGradGradGradGradGradGradGradGradGradGrad

 Leave Link  103 at Sat Aug 21 09:33:34 2021, MaxMem=   104857600 cpu:               1.1 elap:               0.1
 (Enter /sw/arch/RedHatEnterpriseServer7/EB_production/2020/software/Gaussian/g16.c01/l202.exe)
                          Input orientation:                          
 ---------------------------------------------------------------------
 Center     Atomic      Atomic             Coordinates (Angstroms)
 Number     Number       Type             X           Y           Z
 ---------------------------------------------------------------------
      1          6           0       -0.391956   -0.157048    1.575869
      2          7           0        0.588228   -0.147148    0.436075
      3          6           0        1.764191    0.706869    0.818673
      4          6           0        1.030291   -1.564674    0.205581
      5          6           0       -0.069195    0.352149   -0.830988
      6          6           0       -0.635914    1.777505   -0.778502
      7         17           0       -2.362099    1.872786   -0.221689
      8         17           0        3.226218   -0.196511   -2.189250
      9          1           0       -0.698422    0.865112    1.825264
     10          1           0       -1.275240   -0.744525    1.297482
     11          1           0        0.088720   -0.606033    2.454448
     12          1           0        2.419238    0.136974    1.487246
     13          1           0        2.329792    1.029445   -0.067079
     14          1           0        1.411787    1.593640    1.361745
     15          1           0        0.147894   -2.177900   -0.021680
     16          1           0        1.746658   -1.634767   -0.626068
     17          1           0        1.498714   -1.943218    1.122517
     18          1           0        0.670717    0.308349   -1.649896
     19          1           0       -0.868851   -0.357370   -1.084758
     20          1           0       -0.039655    2.445114   -0.144396
     21          1           0       -0.611284    2.185802   -1.795643
 ---------------------------------------------------------------------
                    Distance matrix (angstroms):
                    1          2          3          4          5
     1  C    0.000000
     2  N    1.503325   0.000000
     3  C    2.443085   1.502869   0.000000
     4  C    2.425260   1.502640   2.464630   0.000000
     5  C    2.481213   1.512268   2.491689   2.440811   0.000000
     6  C    3.056972   2.584185   3.075343   3.861971   1.534785
     7  Cl   3.351553   3.635549   4.412254   4.848402   2.817976
     8  Cl   5.221960   3.722064   3.464278   3.525505   3.606335
     9  H    1.095870   2.147087   2.665094   3.393476   2.777541
    10  H    1.096731   2.138082   3.402050   2.679621   2.680975
    11  H    1.097514   2.129298   2.684525   2.619724   3.425951
    12  H    2.827917   2.130325   1.095836   2.543118   3.407757
    13  H    3.393369   2.161152   1.099326   2.914189   2.607187
    14  H    2.522746   2.136693   1.097942   3.384849   2.922787
    15  H    2.632004   2.127766   3.411819   1.098325   2.665194
    16  H    3.406736   2.164052   2.751517   1.099880   2.699473
    17  H    2.640182   2.127453   2.680627   1.097036   3.397533
    18  H    3.428036   2.136717   2.729164   2.660885   1.104535
    19  H    2.710442   2.116650   3.418855   2.594089   1.098757
    20  H    3.139216   2.729653   2.683813   4.164813   2.202903
    21  H    4.111465   3.444133   3.829461   4.556944   2.141659
                    6          7          8          9         10
     6  C    0.000000
     7  Cl   1.816269   0.000000
     8  Cl   4.561033   6.275554   0.000000
     9  H    2.759705   2.823694   5.713683   0.000000
    10  H    3.328527   3.215504   5.720205   1.789471   0.000000
    11  H    4.081460   4.394629   5.619211   1.783180   1.793916
    12  H    4.142332   5.366068   3.778763   3.219355   3.802923
    13  H    3.140244   4.769588   2.609628   3.574639   4.243260
    14  H    2.967751   4.102122   4.371083   2.280040   3.562480
    15  H    4.102727   4.769499   4.254450   3.658876   2.412481
    16  H    4.164552   5.417410   2.588671   4.270462   3.691131
    17  H    4.691939   5.592374   4.123476   3.634278   3.026929
    18  H    2.150588   3.699352   2.660146   3.776409   3.685422
    19  H    2.169273   2.819268   4.244452   3.160972   2.447471
    20  H    1.096958   2.393174   4.671781   2.609587   3.712072
    21  H    1.096306   2.375007   4.533957   3.855228   4.312201
                   11         12         13         14         15
    11  H    0.000000
    12  H    2.630371   0.000000
    13  H    3.749038   1.794556   0.000000
    14  H    2.789814   1.775551   1.789578   0.000000
    15  H    2.933510   3.576941   3.879407   4.211390   0.000000
    16  H    3.646455   2.838579   2.783979   3.806068   1.793412
    17  H    2.355884   2.303821   3.307953   3.546005   1.785771
    18  H    4.245050   3.595602   2.403709   3.357252   3.017593
    19  H    3.674882   4.203702   3.631837   3.872096   2.340563
    20  H    4.009983   3.746454   2.761227   2.258352   4.628444
    21  H    5.132993   4.915193   3.602086   3.796389   4.771289
                   16         17         18         19         20
    16  H    0.000000
    17  H    1.792810   0.000000
    18  H    2.445726   3.666253   0.000000
    19  H    2.946698   3.604489   1.769981   0.000000
    20  H    4.479771   4.819658   2.708675   3.070141   0.000000
    21  H    4.639456   5.478737   2.278069   2.653192   1.766527
                   21
    21  H    0.000000
 Stoichiometry    C5H13Cl2N
 Framework group  C1[X(C5H13Cl2N)]
 Deg. of freedom    57
 Full point group                 C1      NOp   1
 RotChk:  IX=0 Diff= 2.07D-02
 Largest Abelian subgroup         C1      NOp   1
 Largest concise Abelian subgroup C1      NOp   1
                         Standard orientation:                         
 ---------------------------------------------------------------------
 Center     Atomic      Atomic             Coordinates (Angstroms)
 Number     Number       Type             X           Y           Z
 ---------------------------------------------------------------------
      1          6           0        1.060551    1.872188    0.098757
      2          7           0       -0.130470    0.958747    0.014605
      3          6           0       -0.754386    0.852942    1.377744
      4          6           0       -1.102967    1.569443   -0.954533
      5          6           0        0.272469   -0.398726   -0.516302
[...]
 Cavity type          : VdW (van der Waals Surface) (Alpha=1.000).
 Cavity algorithm     : GePol (No added spheres)
                        Default sphere list used, NSphG=   21.
                        Tesserae with average area of 0.200 Ang**2.
                        Smoothing algorithm: None.
                        Polarization charges: point-like.
                        Self-potential: constant (ISelfS= 1).
                        Self-field    : global E.n sum rule (ISelfD= 3).
 Solvent              : Water, Eps=  78.355300 Eps(inf)=   1.777849
 ------------------------------------------------------------------------------
 One-electron integrals computed using PRISM.
 NBasis=   236 RedAO= T EigKep=  3.11D-04  NBF=   236
 NBsUse=   236 1.00D-06 EigRej= -1.00D+00 NBFU=   236
 Initial guess from the checkpoint file:  "UHZZMRAGKVHANO-UHFFFAOYSA-M.chk"
 B after Tr=    -0.000000   -0.000000   -0.000000
         Rot=    1.000000   -0.000000   -0.000000   -0.000000 Ang=   0.00 deg.
 Requested convergence on RMS density matrix=1.00D-08 within 128 cycles.
 Requested convergence on MAX density matrix=1.00D-06.
 Requested convergence on             energy=1.00D-06.
 No special actions if energy rises.
 Inv3:  Mode=1 IEnd=     5762988.
 Iteration    1 A*A^-1 deviation from unit magnitude is 4.93D-14 for    558.
 Iteration    1 A*A^-1 deviation from orthogonality  is 1.08D-13 for    587    259.
 Iteration    1 A^-1*A deviation from unit magnitude is 5.06D-14 for    587.
 Iteration    1 A^-1*A deviation from orthogonality  is 3.06D-14 for    867    558.
 Error on nuclear    polarization charges =  0.02712
 Error on electronic polarization charges = -0.06058
 SCF Done:  E(RB-P86) =  -1173.72203005     A.U. after   10 cycles
            NFock= 10  Conv=0.68D-08     -V/T= 2.0035
 --------------------------------------------------------------------
 Variational C-PCM results
 =========================
 <psi(f)|   H    |psi(f)>                     (a.u.) =   -1173.653679
 <psi(f)|H+V(f)/2|psi(f)>                     (a.u.) =   -1173.722030
 Total free energy in solution:
 - with all non electrostatic terms           (a.u.) =   -1173.707406
 --------------------------------------------------------------------
 (Polarized solute)-Solvent               (kcal/mol) =     -42.89
 --------------------------------------------------------------------
 Cavitation energy                        (kcal/mol) =      25.63
 Dispersion energy                        (kcal/mol) =     -17.94
 Repulsion energy                         (kcal/mol) =       1.48
 Total non electrostatic                  (kcal/mol) =       9.18
 --------------------------------------------------------------------
 Partition over spheres:
 Sphere  on Atom  Surface  Charge   GEl     GCav    GDR
    1      C1      12.99  -0.042   -0.95    1.53   -0.96
    2      N2       0.00   0.000    0.00    0.00    0.00
    3      C3      13.77  -0.072   -1.49    1.62   -1.09
    4      C4      14.25  -0.057   -0.98    1.67   -1.14
    5      C5       6.30  -0.043   -0.53    0.74   -0.37
    6      C6       9.81  -0.061   -0.79    1.15   -0.44
    7     Cl7      34.86   0.141    0.46    4.06   -2.92
    8     Cl8      42.87   0.731  -25.66    4.99   -3.26
    9      H9       4.88  -0.046   -1.15    0.69   -0.36
   10      H10      6.48  -0.055   -1.48    0.91   -0.60
   11      H11      6.44  -0.057   -1.71    0.91   -0.65
   12      H12      6.44  -0.055   -1.36    0.91   -0.67
   13      H13      3.23  -0.014    0.07    0.46   -0.07
   14      H14      5.65  -0.054   -1.40    0.80   -0.52
   15      H15      6.45  -0.057   -1.38    0.91   -0.67
   16      H16      3.41  -0.016    0.09    0.48   -0.09
   17      H17      6.44  -0.057   -1.46    0.91   -0.64
   18      H18      2.18  -0.010    0.07    0.31    0.00
   19      H19      6.42  -0.061   -1.39    0.91   -0.62
   20      H20      5.40  -0.056   -1.14    0.76   -0.54
   21      H21      6.48  -0.060   -0.73    0.92   -0.83
 --------------------------------------------------------------------
 - cavitation energy not included in the total energy.
 - dispersion energy not included in the total energy.
 - repulsion  energy not included in the total energy.
 After PCM corrections, the energy is  -1173.72203005     a.u.
 --------------------------------------------------------------------
 Writing COSMO formatted file "UHZZMRAGKVHANO-UHFFFAOYSA-M.cosmo"
 Recomputed dielectric energy= -0.068398 old= -0.068351 diff=-4.73D-05

 **********************************************************************

            Population analysis using the SCF Density.

 **********************************************************************

 Orbital symmetries:
       Occupied  (A) (A) (A) (A) (A) (A) (A) (A) (A) (A) (A) (A)
                 (A) (A) (A) (A) (A) (A) (A) (A) (A) (A) (A) (A)
                 (A) (A) (A) (A) (A) (A) (A) (A) (A) (A) (A) (A)
                 (A) (A) (A) (A) (A) (A)
       Virtual   (A) (A) (A) (A) (A) (A) (A) (A) (A) (A) (A) (A)
                 (A) (A) (A) (A) (A) (A) (A) (A) (A) (A) (A) (A)
                 (A) (A) (A) (A) (A) (A) (A) (A) (A) (A) (A) (A)
                 (A) (A) (A) (A) (A) (A) (A) (A) (A) (A) (A) (A)
                 (A) (A) (A) (A) (A) (A) (A) (A) (A) (A) (A) (A)
                 (A) (A) (A) (A) (A) (A) (A) (A) (A) (A) (A) (A)
                 (A) (A) (A) (A) (A) (A) (A) (A) (A) (A) (A) (A)
                 (A) (A) (A) (A) (A) (A) (A) (A) (A) (A) (A) (A)
                 (A) (A) (A) (A) (A) (A) (A) (A) (A) (A) (A) (A)
                 (A) (A) (A) (A) (A) (A) (A) (A) (A) (A) (A) (A)
                 (A) (A) (A) (A) (A) (A) (A) (A) (A) (A) (A) (A)
                 (A) (A) (A) (A) (A) (A) (A) (A) (A) (A) (A) (A)
                 (A) (A) (A) (A) (A) (A) (A) (A) (A) (A) (A) (A)
                 (A) (A) (A) (A) (A) (A) (A) (A) (A) (A) (A) (A)
                 (A) (A) (A) (A) (A) (A) (A) (A) (A) (A) (A) (A)
                 (A) (A) (A) (A) (A) (A) (A) (A) (A) (A) (A) (A)
                 (A) (A)
 The electronic state is 1-A.
 Alpha  occ. eigenvalues -- -100.75183-100.64768 -14.13527  -9.97008  -9.95842
 Alpha  occ. eigenvalues --   -9.94237  -9.94076  -9.94035  -9.18949  -9.08643
 Alpha  occ. eigenvalues --   -7.01527  -7.00389  -7.00375  -6.90466  -6.90452
 Alpha  occ. eigenvalues --   -6.90451  -0.93633  -0.79041  -0.70389  -0.67889
 Alpha  occ. eigenvalues --   -0.67827  -0.63724  -0.60984  -0.55180  -0.48425
 Alpha  occ. eigenvalues --   -0.47600  -0.46343  -0.42055  -0.40824  -0.39497
 Alpha  occ. eigenvalues --   -0.38098  -0.36485  -0.35878  -0.35686  -0.35589
 Alpha  occ. eigenvalues --   -0.35292  -0.34353  -0.27486  -0.27004  -0.21675
 Alpha  occ. eigenvalues --   -0.21664  -0.21453
 Alpha virt. eigenvalues --   -0.03124   0.00946   0.03079   0.04915   0.05055
 Alpha virt. eigenvalues --    0.05702   0.06055   0.06840   0.07777   0.09173
 Alpha virt. eigenvalues --    0.09873   0.10789   0.11415   0.11574   0.12797
 Alpha virt. eigenvalues --    0.13163   0.14556   0.15006   0.16007   0.18510
 Alpha virt. eigenvalues --    0.19339   0.21475   0.22922   0.23877   0.24454
 Alpha virt. eigenvalues --    0.25266   0.26326   0.27840   0.28146   0.29622
 Alpha virt. eigenvalues --    0.30902   0.32403   0.32891   0.33878   0.34161
 Alpha virt. eigenvalues --    0.35191   0.37475   0.38569   0.38727   0.39064
 Alpha virt. eigenvalues --    0.40051   0.40176   0.40595   0.41704   0.43320
 Alpha virt. eigenvalues --    0.43488   0.44014   0.44242   0.45452   0.45796
 Alpha virt. eigenvalues --    0.46031   0.46693   0.47080   0.47721   0.48462
 Alpha virt. eigenvalues --    0.50238   0.54278   0.56851   0.62028   0.65237
 Alpha virt. eigenvalues --    0.66064   0.67355   0.75009   0.77007   0.77379
 Alpha virt. eigenvalues --    0.79976   0.80274   0.81375   0.82788   0.83463
 Alpha virt. eigenvalues --    0.86091   0.87117   0.93422   1.00925   1.01359
 Alpha virt. eigenvalues --    1.05341   1.14302   1.16220   1.17955   1.18300
 Alpha virt. eigenvalues --    1.19244   1.19703   1.21200   1.23072   1.25420
 Alpha virt. eigenvalues --    1.26048   1.27751   1.28504   1.30124   1.30656
 Alpha virt. eigenvalues --    1.31867   1.33255   1.33839   1.34566   1.41316
 Alpha virt. eigenvalues --    1.44402   1.44616   1.45594   1.46911   1.49535
 Alpha virt. eigenvalues --    1.50842   1.53626   1.54511   1.55899   1.59651
 Alpha virt. eigenvalues --    1.62739   1.65110   1.67280   1.68027   1.68962
 Alpha virt. eigenvalues --    1.70278   1.71472   1.71963   1.72513   1.72691
 Alpha virt. eigenvalues --    1.73810   1.74337   1.75584   1.76294   1.76708
 Alpha virt. eigenvalues --    1.81669   1.85115   1.86635   1.88189   1.89893
 Alpha virt. eigenvalues --    1.91522   1.95716   1.96716   1.99917   2.00674
 Alpha virt. eigenvalues --    2.07428   2.10910   2.13029   2.16950   2.19901
 Alpha virt. eigenvalues --    2.20584   2.21716   2.25320   2.26147   2.26300
 Alpha virt. eigenvalues --    2.27638   2.28403   2.29671   2.31657   2.32329
 Alpha virt. eigenvalues --    2.33683   2.35236   2.38611   2.39394   2.41517
 Alpha virt. eigenvalues --    2.43044   2.44303   2.45536   2.50688   2.55736
 Alpha virt. eigenvalues --    2.56753   2.58400   2.62279   2.63593   2.64611
 Alpha virt. eigenvalues --    2.65185   2.67279   2.70333   2.70802   2.76931
 Alpha virt. eigenvalues --    2.81812   2.86724   2.89171   2.94088   2.95420
 Alpha virt. eigenvalues --    3.06370   3.07959   3.09715   3.14378   3.19157
 Alpha virt. eigenvalues --    3.20945   3.22129   3.23975   3.25729   3.27091
 Alpha virt. eigenvalues --    3.30430   3.31069   3.35748   3.57107   3.57966
 Alpha virt. eigenvalues --    3.58466  21.59841  21.80793  21.81636  21.83231
 Alpha virt. eigenvalues --   21.84662  24.18109  24.72950  31.66572
          Condensed to atoms (all electrons):
               1          2          3          4          5          6
     1  C    5.198158   0.227646  -0.108071  -0.077990  -0.081489  -0.003269
     2  N    0.227646   6.559892   0.229406   0.250693   0.165239  -0.029450
     3  C   -0.108071   0.229406   5.252977  -0.088209  -0.091271   0.001154
     4  C   -0.077990   0.250693  -0.088209   5.194786  -0.118828   0.017106
     5  C   -0.081489   0.165239  -0.091271  -0.118828   5.578722   0.184652
     6  C   -0.003269  -0.029450   0.001154   0.017106   0.184652   5.094992
     7  Cl   0.001964  -0.009045  -0.008325  -0.001110  -0.026095   0.206020
     8  Cl  -0.000175   0.004801  -0.034206  -0.034831  -0.056090   0.005029
     9  H    0.396185  -0.018175  -0.006124   0.009119  -0.017597   0.006593
    10  H    0.382173  -0.019598   0.011407  -0.006194   0.000405  -0.003682
    11  H    0.382092  -0.015055  -0.006981  -0.008476   0.009333  -0.000210
    12  H   -0.006556  -0.017465   0.388928  -0.006187   0.008758   0.000705
    13  H    0.010540  -0.021322   0.337932  -0.003450   0.008064  -0.004772
    14  H   -0.006974  -0.017305   0.391665   0.008362  -0.010580  -0.002818
    15  H   -0.006861  -0.018152   0.009307   0.388891  -0.007748   0.000240
    16  H    0.009178  -0.018800  -0.001242   0.347690  -0.008359   0.001241
    17  H   -0.009534  -0.016645  -0.008046   0.389295   0.010703  -0.000861
    18  H    0.010492  -0.026509  -0.010346   0.001850   0.334346  -0.022954
    19  H   -0.015066  -0.019286   0.011452  -0.003753   0.384135  -0.026502
    20  H   -0.002619  -0.007552   0.013449  -0.000089  -0.035182   0.410738
    21  H    0.000248   0.005146  -0.000589  -0.000331  -0.045013   0.422327
               7          8          9         10         11         12
     1  C    0.001964  -0.000175   0.396185   0.382173   0.382092  -0.006556
     2  N   -0.009045   0.004801  -0.018175  -0.019598  -0.015055  -0.017465
     3  C   -0.008325  -0.034206  -0.006124   0.011407  -0.006981   0.388928
     4  C   -0.001110  -0.034831   0.009119  -0.006194  -0.008476  -0.006187
     5  C   -0.026095  -0.056090  -0.017597   0.000405   0.009333   0.008758
     6  C    0.206020   0.005029   0.006593  -0.003682  -0.000210   0.000705
     7  Cl  17.053463  -0.000043   0.002378  -0.000564   0.001214  -0.000069
     8  Cl  -0.000043  17.827770   0.000019   0.000008   0.000009   0.000375
     9  H    0.002378   0.000019   0.468595  -0.023601  -0.016411  -0.000364
    10  H   -0.000564   0.000008  -0.023601   0.473112  -0.017550  -0.000033
    11  H    0.001214   0.000009  -0.016411  -0.017550   0.473055   0.003050
    12  H   -0.000069   0.000375  -0.000364  -0.000033   0.003050   0.469866
    13  H    0.000344   0.045084   0.000162  -0.000511   0.000059  -0.017313
    14  H    0.002134   0.000555   0.002812  -0.000018  -0.000063  -0.021387
    15  H   -0.000037   0.000577   0.000072   0.002536  -0.000319   0.000137
    16  H   -0.000013   0.044613  -0.000507   0.000045   0.000182  -0.000653
    17  H    0.000042   0.000547   0.000090   0.000103   0.004059   0.002819
    18  H    0.005149   0.062090  -0.000278   0.000135  -0.000318   0.000331
    19  H   -0.004661  -0.000012   0.000658   0.003633  -0.000135  -0.000275
    20  H   -0.033266   0.000270  -0.001310   0.000377  -0.000056   0.000151
    21  H   -0.033009   0.000992   0.000223  -0.000060   0.000030  -0.000000
              13         14         15         16         17         18
     1  C    0.010540  -0.006974  -0.006861   0.009178  -0.009534   0.010492
     2  N   -0.021322  -0.017305  -0.018152  -0.018800  -0.016645  -0.026509
     3  C    0.337932   0.391665   0.009307  -0.001242  -0.008046  -0.010346
     4  C   -0.003450   0.008362   0.388891   0.347690   0.389295   0.001850
     5  C    0.008064  -0.010580  -0.007748  -0.008359   0.010703   0.334346
     6  C   -0.004772  -0.002818   0.000240   0.001241  -0.000861  -0.022954
     7  Cl   0.000344   0.002134  -0.000037  -0.000013   0.000042   0.005149
     8  Cl   0.045084   0.000555   0.000577   0.044613   0.000547   0.062090
     9  H    0.000162   0.002812   0.000072  -0.000507   0.000090  -0.000278
    10  H   -0.000511  -0.000018   0.002536   0.000045   0.000103   0.000135
    11  H    0.000059  -0.000063  -0.000319   0.000182   0.004059  -0.000318
    12  H   -0.017313  -0.021387   0.000137  -0.000653   0.002819   0.000331
    13  H    0.516287  -0.017616   0.000350  -0.001755  -0.000455  -0.004774
    14  H   -0.017616   0.472815  -0.000367   0.000449   0.000163  -0.000070
    15  H    0.000350  -0.000367   0.474859  -0.018994  -0.020434  -0.001863
    16  H   -0.001755   0.000449  -0.018994   0.517289  -0.017361   0.000440
    17  H   -0.000455   0.000163  -0.020434  -0.017361   0.471466   0.000294
    18  H   -0.004774  -0.000070  -0.001863   0.000440   0.000294   0.504665
    19  H    0.000381  -0.000192   0.004035  -0.001426   0.000033  -0.007025
    20  H   -0.000863  -0.002344  -0.000029   0.000022  -0.000008  -0.000066
    21  H   -0.000037   0.000264  -0.000031  -0.000088   0.000019   0.000066
              19         20         21
     1  C   -0.015066  -0.002619   0.000248
     2  N   -0.019286  -0.007552   0.005146
     3  C    0.011452   0.013449  -0.000589
     4  C   -0.003753  -0.000089  -0.000331
     5  C    0.384135  -0.035182  -0.045013
     6  C   -0.026502   0.410738   0.422327
     7  Cl  -0.004661  -0.033266  -0.033009
     8  Cl  -0.000012   0.000270   0.000992
     9  H    0.000658  -0.001310   0.000223
    10  H    0.003633   0.000377  -0.000060
    11  H   -0.000135  -0.000056   0.000030
    12  H   -0.000275   0.000151  -0.000000
    13  H    0.000381  -0.000863  -0.000037
    14  H   -0.000192  -0.002344   0.000264
    15  H    0.004035  -0.000029  -0.000031
    16  H   -0.001426   0.000022  -0.000088
    17  H    0.000033  -0.000008   0.000019
    18  H   -0.007025  -0.000066   0.000066
    19  H    0.447806   0.004213  -0.001132
    20  H    0.004213   0.453318  -0.018006
    21  H   -0.001132  -0.018006   0.440678
 Mulliken charges:
               1
     1  C   -0.300073
     2  N   -0.188465
     3  C   -0.284269
     4  C   -0.258345
     5  C   -0.186106
     6  C   -0.256282
     7  Cl  -0.156471
     8  Cl  -0.867383
     9  H    0.197459
    10  H    0.197875
    11  H    0.192491
    12  H    0.195181
    13  H    0.153665
    14  H    0.200513
    15  H    0.193830
    16  H    0.148048
    17  H    0.193710
    18  H    0.154345
    19  H    0.223119
    20  H    0.218851
    21  H    0.228304
 Sum of Mulliken charges =  -0.00000
 Mulliken charges with hydrogens summed into heavy atoms:
               1
     1  C    0.287752
     2  N   -0.188465
     3  C    0.265090
     4  C    0.277244
     5  C    0.191358
     6  C    0.190874
     7  Cl  -0.156471
     8  Cl  -0.867383
 Electronic spatial extent (au):  <R**2>=           2098.9698
 Charge=             -0.0000 electrons
 Dipole moment (field-independent basis, Debye):
    X=             11.3654    Y=              9.2418    Z=              0.4453  Tot=             14.6554
 Quadrupole moment (field-independent basis, Debye-Ang):
   XX=           -115.0800   YY=            -59.2310   ZZ=            -60.6746
   XY=            -13.9255   XZ=              0.0776   YZ=             -0.4894
 Traceless Quadrupole moment (field-independent basis, Debye-Ang):
   XX=            -36.7515   YY=             19.0975   ZZ=             17.6540
   XY=            -13.9255   XZ=              0.0776   YZ=             -0.4894
 Octapole moment (field-independent basis, Debye-Ang**2):
  XXX=            149.2924  YYY=             35.3653  ZZZ=              1.5058  XYY=             24.3580
  XXY=             68.5096  XXZ=              1.3450  XZZ=              8.5443  YZZ=              8.7186
  YYZ=              0.3323  XYZ=             -0.1690
 Hexadecapole moment (field-independent basis, Debye-Ang**3):
 XXXX=          -2383.6952 YYYY=           -657.1198 ZZZZ=           -228.9960 XXXY=           -157.8731
 XXXZ=             -6.3473 YYYX=            -51.2169 YYYZ=              5.4892 ZZZX=             -1.7821
 ZZZY=             -3.9988 XXYY=           -492.1101 XXZZ=           -356.2767 YYZZ=           -153.1540
 XXYZ=             -3.6693 YYXZ=             -0.4055 ZZXY=            -11.5556
 N-N= 5.485046639730D+02 E-N=-3.870376287726D+03  KE= 1.169635313003D+03
 Unable to Open any file for archive entry.
 1\1\GINC-TCN1212\SP\RBP86\TZVP\C5H13Cl2N1\ELENAA\21-Aug-2021\0\\# BP86
 /TZVP SCRF=COSMORS geom=CHECKPOINT guess=CHECKPOINT\\COSMO-file for #U
 HZZMRAGKVHANO-UHFFFAOYSA-M\\0,1\C,0,-0.4372459236,-0.2148457275,1.6221
 392584\N,0,0.5570128198,-0.1603103686,0.4899302706\C,0,1.7349055378,0.
 6992119144,0.8870587452\C,0,1.060962141,-1.5608495055,0.2067231838\C,0
 ,-0.0659132566,0.3472152692,-0.81364362\C,0,-0.5614044009,1.7755212851
 ,-0.8450747493\Cl,0,-2.2046520235,2.034465031,-0.0617369477\Cl,0,3.034
 1401113,0.0234369378,-2.4447651407\H,0,-0.744557849,0.8015974638,1.882
 5765102\H,0,-1.3067859159,-0.7990266947,1.3020839617\H,0,0.0493632514,
 -0.6935161705,2.4794343879\H,0,2.2244184568,0.2271368419,1.7461148427\
 H,0,2.4172159178,0.7523705438,0.0271538012\H,0,1.3777037358,1.69282387
 55,1.1758123201\H,0,0.2088970252,-2.1856783213,-0.0842097515\H,0,1.796
 6796419,-1.4954545574,-0.6066589002\H,0,1.5207359726,-1.9523568949,1.1
 208312209\H,0,0.7485513643,0.2608864339,-1.5588288897\H,0,-0.868678927
 3,-0.3550392689,-1.0718929454\H,0,0.1237823117,2.492750199,-0.38166660
 25\H,0,-0.6952969906,2.0542107139,-1.8964289556\\Version=ES64L-G16RevC
 .01\State=1-A\HF=-1173.7220301\RMSD=6.818e-09\Dipole=-3.3778344,-0.508
 1853,4.6451403\Quadrupole=-14.902636,13.2913933,1.6112427,6.3871847,19
 .6179297,-6.4206\PG=C01 [X(C5H13Cl2N1)]\\@
 The archive entry for this job was punched.


 IN-LAWS ARE LIKE SEEDS. YOU DON'T NEED THEM
 BUT THEY COME WITH THE TOMATO.
 Job cpu time:       0 days  0 hours  5 minutes  4.1 seconds.
 Elapsed time:       0 days  0 hours  0 minutes 13.1 seconds.
 File lengths (MBytes):  RWF=     51 Int=      0 D2E=      0 Chk=      8 Scr=      1
 Normal termination of Gaussian 16 at Sat Aug 21 09:38:57 2021.
