 Entering Gaussian System, Link 0=g16
 Input=UMGDCJDMYOKAJW-UHFFFAOYSA-N.gjf
 Output=UMGDCJDMYOKAJW-UHFFFAOYSA-N.log
 Initial command:
 /sw/arch/RedHatEnterpriseServer7/EB_production/2019/software/Gaussian/g16.c01/l1.exe "/scratch-local/elenaa.9715278/Gau-2017.inp" -scrdir="/scratch-local/elenaa.9715278/"
 Entering Link 1 = /sw/arch/RedHatEnterpriseServer7/EB_production/2019/software/Gaussian/g16.c01/l1.exe PID=      2018.
  
 Copyright (c) 1988-2019, Gaussian, Inc.  All Rights Reserved.
  
 This is part of the Gaussian(R) 16 program.  It is based on
 the Gaussian(R) 09 system (copyright 2009, Gaussian, Inc.),
 the Gaussian(R) 03 system (copyright 2003, Gaussian, Inc.),
 the Gaussian(R) 98 system (copyright 1998, Gaussian, Inc.),
 the Gaussian(R) 94 system (copyright 1995, Gaussian, Inc.),
 the Gaussian 92(TM) system (copyright 1992, Gaussian, Inc.),
 the Gaussian 90(TM) system (copyright 1990, Gaussian, Inc.),
 the Gaussian 88(TM) system (copyright 1988, Gaussian, Inc.),
 the Gaussian 86(TM) system (copyright 1986, Carnegie Mellon
 University), and the Gaussian 82(TM) system (copyright 1983,
 Carnegie Mellon University). Gaussian is a federally registered
 trademark of Gaussian, Inc.
  
 This software contains proprietary and confidential information,
 including trade secrets, belonging to Gaussian, Inc.
  
 This software is provided under written license and may be
 used, copied, transmitted, or stored only in accord with that
 written license.
  
 The following legend is applicable only to US Government
 contracts under FAR:
  
                    RESTRICTED RIGHTS LEGEND
  
 Use, reproduction and disclosure by the US Government is
 subject to restrictions as set forth in subparagraphs (a)
 and (c) of the Commercial Computer Software - Restricted
 Rights clause in FAR 52.227-19.
  
 Gaussian, Inc.
 340 Quinnipiac St., Bldg. 40, Wallingford CT 06492
  
  
 ---------------------------------------------------------------
 Warning -- This program may not be used in any manner that
 competes with the business of Gaussian, Inc. or will provide
 assistance to any competitor of Gaussian, Inc.  The licensee
 of this program is prohibited from giving any competitor of
 Gaussian, Inc. access to this program.  By using this program,
 the user acknowledges that Gaussian, Inc. is engaged in the
 business of creating and licensing software in the field of
 computational chemistry and represents and warrants to the
 licensee that it is not a competitor of Gaussian, Inc. and that
 it will not use this program in any manner prohibited above.
 ---------------------------------------------------------------
  

 Cite this work as:
 Gaussian 16, Revision C.01,
 M. J. Frisch, G. W. Trucks, H. B. Schlegel, G. E. Scuseria, 
 M. A. Robb, J. R. Cheeseman, G. Scalmani, V. Barone, 
 G. A. Petersson, H. Nakatsuji, X. Li, M. Caricato, A. V. Marenich, 
 J. Bloino, B. G. Janesko, R. Gomperts, B. Mennucci, H. P. Hratchian, 
 J. V. Ortiz, A. F. Izmaylov, J. L. Sonnenberg, D. Williams-Young, 
 F. Ding, F. Lipparini, F. Egidi, J. Goings, B. Peng, A. Petrone, 
 T. Henderson, D. Ranasinghe, V. G. Zakrzewski, J. Gao, N. Rega, 
 G. Zheng, W. Liang, M. Hada, M. Ehara, K. Toyota, R. Fukuda, 
 J. Hasegawa, M. Ishida, T. Nakajima, Y. Honda, O. Kitao, H. Nakai, 
 T. Vreven, K. Throssell, J. A. Montgomery, Jr., J. E. Peralta, 
 F. Ogliaro, M. J. Bearpark, J. J. Heyd, E. N. Brothers, K. N. Kudin, 
 V. N. Staroverov, T. A. Keith, R. Kobayashi, J. Normand, 
 K. Raghavachari, A. P. Rendell, J. C. Burant, S. S. Iyengar, 
 J. Tomasi, M. Cossi, J. M. Millam, M. Klene, C. Adamo, R. Cammi, 
 J. W. Ochterski, R. L. Martin, K. Morokuma, O. Farkas, 
 J. B. Foresman, and D. J. Fox, Gaussian, Inc., Wallingford CT, 2019.
 
 ******************************************
 Gaussian 16:  ES64L-G16RevC.01  3-Jul-2019
                22-Feb-2021 
 ******************************************
 %chk=UMGDCJDMYOKAJW-UHFFFAOYSA-N.chk
 %NProcShared=32
 Will use up to   32 processors via shared memory.
 -------------------------------------------------------------
 #P BP86/TZVP EmpiricalDispersion=GD3 SCRF=(Solvent=Water) Opt
 -------------------------------------------------------------
 1/18=20,19=15,26=3,38=1/1,3;
 2/9=110,12=2,17=6,18=5,40=1/2;
 3/5=19,7=101,11=2,25=1,30=1,70=2201,71=1,72=1,74=404,124=31/1,2,3;
 4//1;
 5/5=2,38=5,53=1/2;
 6/7=2,8=2,9=2,10=2,28=1/1;
 7//1,2,3,16;
 1/18=20,19=15,26=3/3(2);
 2/9=110/2;
 99//99;
 2/9=110/2;
 3/5=19,7=101,11=2,25=1,30=1,70=2205,71=1,72=1,74=404,124=31/1,2,3;
 4/5=5,16=3,69=1/1;
 5/5=2,38=5,53=1/2;
 7//1,2,3,16;
 1/18=20,19=15,26=3/3(-5);
 2/9=110/2;
 6/7=2,8=2,9=2,10=2,19=2,28=1/1;
 99/9=1/99;
 Leave Link    1 at Mon Feb 22 21:20:44 2021, MaxMem=           0 cpu:               1.6 elap:               0.1
 (Enter /sw/arch/RedHatEnterpriseServer7/EB_production/2019/software/Gaussian/g16.c01/l101.exe)
 -------------------------------------
 Particle #UMGDCJDMYOKAJW-UHFFFAOYSA-N
 -------------------------------------
 Symbolic Z-matrix:
 Charge =  0 Multiplicity = 1
 N                    -0.47402   0.78521  -1.67787 
 C                     0.18452   0.35374  -0.6287 
 N                     1.44786   0.01704  -0.73447 
 S                    -0.60149   0.2331    0.8743 
 H                    -1.40754   1.0387   -1.59605 
 H                    -0.02938   0.85346  -2.53753 
 H                     1.8991    0.08265  -1.59088 
 H                     1.93458  -0.29714   0.04451 
 
 ITRead=  0  0  0  0  0  0  0  0
 MicOpt= -1 -1 -1 -1 -1 -1 -1 -1
 NAtoms=      8 NQM=        8 NQMF=       0 NMMI=      0 NMMIF=      0
                NMic=       0 NMicF=      0.
                    Isotopes and Nuclear Properties:
 (Nuclear quadrupole moments (NQMom) in fm**2, nuclear magnetic moments (NMagM)
  in nuclear magnetons)

  Atom         1           2           3           4           5           6           7           8
 IAtWgt=          14          12          14          32           1           1           1           1
 AtmWgt=  14.0030740  12.0000000  14.0030740  31.9720718   1.0078250   1.0078250   1.0078250   1.0078250
 NucSpn=           2           0           2           0           1           1           1           1
 AtZEff=  -0.0000000  -0.0000000  -0.0000000  -0.0000000  -0.0000000  -0.0000000  -0.0000000  -0.0000000
 NQMom=    2.0440000   0.0000000   2.0440000   0.0000000   0.0000000   0.0000000   0.0000000   0.0000000
 NMagM=    0.4037610   0.0000000   0.4037610   0.0000000   2.7928460   2.7928460   2.7928460   2.7928460
 AtZNuc=   7.0000000   6.0000000   7.0000000  16.0000000   1.0000000   1.0000000   1.0000000   1.0000000
 Leave Link  101 at Mon Feb 22 21:20:44 2021, MaxMem=   104857600 cpu:               2.2 elap:               0.1
 (Enter /sw/arch/RedHatEnterpriseServer7/EB_production/2019/software/Gaussian/g16.c01/l103.exe)

 GradGradGradGradGradGradGradGradGradGradGradGradGradGradGradGradGradGrad
 Berny optimization.
 Initialization pass.
                           ----------------------------
                           !    Initial Parameters    !
                           ! (Angstroms and Degrees)  !
 --------------------------                            --------------------------
 ! Name  Definition              Value          Derivative Info.                !
 --------------------------------------------------------------------------------
 ! R1    R(1,2)                  1.3117         estimate D2E/DX2                !
 ! R2    R(1,5)                  0.9708         estimate D2E/DX2                !
 ! R3    R(1,6)                  0.9702         estimate D2E/DX2                !
 ! R4    R(2,3)                  1.3117         estimate D2E/DX2                !
 ! R5    R(2,4)                  1.7004         estimate D2E/DX2                !
 ! R6    R(3,7)                  0.9702         estimate D2E/DX2                !
 ! R7    R(3,8)                  0.9708         estimate D2E/DX2                !
 ! A1    A(2,1,5)              120.083          estimate D2E/DX2                !
 ! A2    A(2,1,6)              120.1155         estimate D2E/DX2                !
 ! A3    A(5,1,6)              119.8014         estimate D2E/DX2                !
 ! A4    A(1,2,3)              120.2298         estimate D2E/DX2                !
 ! A5    A(1,2,4)              119.8847         estimate D2E/DX2                !
 ! A6    A(3,2,4)              119.8853         estimate D2E/DX2                !
 ! A7    A(2,3,7)              120.1158         estimate D2E/DX2                !
 ! A8    A(2,3,8)              120.0828         estimate D2E/DX2                !
 ! A9    A(7,3,8)              119.8013         estimate D2E/DX2                !
 ! D1    D(5,1,2,3)           -179.6453         estimate D2E/DX2                !
 ! D2    D(5,1,2,4)              0.2456         estimate D2E/DX2                !
 ! D3    D(6,1,2,3)              0.2481         estimate D2E/DX2                !
 ! D4    D(6,1,2,4)           -179.8611         estimate D2E/DX2                !
 ! D5    D(1,2,3,7)             -0.2481         estimate D2E/DX2                !
 ! D6    D(1,2,3,8)            179.6455         estimate D2E/DX2                !
 ! D7    D(4,2,3,7)            179.8611         estimate D2E/DX2                !
 ! D8    D(4,2,3,8)             -0.2453         estimate D2E/DX2                !
 --------------------------------------------------------------------------------
 Trust Radius=3.00D-01 FncErr=1.00D-07 GrdErr=1.00D-06 EigMax=2.50D+02 EigMin=1.00D-04
 Number of steps in this run=     34 maximum allowed number of steps=    100.
 GradGradGradGradGradGradGradGradGradGradGradGradGradGradGradGradGradGrad

 Leave Link  103 at Mon Feb 22 21:20:44 2021, MaxMem=   104857600 cpu:               0.3 elap:               0.0
 (Enter /sw/arch/RedHatEnterpriseServer7/EB_production/2019/software/Gaussian/g16.c01/l202.exe)
                          Input orientation:                          
 ---------------------------------------------------------------------
 Center     Atomic      Atomic             Coordinates (Angstroms)
 Number     Number       Type             X           Y           Z
 ---------------------------------------------------------------------
      1          7           0       -0.474020    0.785210   -1.677870
      2          6           0        0.184520    0.353740   -0.628700
      3          7           0        1.447860    0.017040   -0.734470
      4         16           0       -0.601490    0.233100    0.874300
      5          1           0       -1.407540    1.038700   -1.596050
      6          1           0       -0.029380    0.853460   -2.537530
      7          1           0        1.899100    0.082650   -1.590880
      8          1           0        1.934580   -0.297140    0.044510
 ---------------------------------------------------------------------
                    Distance matrix (angstroms):
                    1          2          3          4          5
     1  N    0.000000
     2  C    1.311716   0.000000
     3  N    2.274579   1.311710   0.000000
     4  S    2.614316   1.700404   2.614318   0.000000
     5  H    0.970779   1.984840   3.152684   2.720540   0.000000
     6  H    0.970246   1.984718   2.476462   3.514647   1.679293
     7  H    2.476460   1.984708   0.970237   3.514641   3.442082
     8  H    3.152686   1.984834   0.970781   2.720544   3.955461
                    6          7          8
     6  H    0.000000
     7  H    2.282396   0.000000
     8  H    3.442085   1.679285   0.000000
 Stoichiometry    CH4N2S
 Framework group  C1[X(CH4N2S)]
 Deg. of freedom    18
 Full point group                 C1      NOp   1
 Largest Abelian subgroup         C1      NOp   1
 Largest concise Abelian subgroup C1      NOp   1
                         Standard orientation:                         
 ---------------------------------------------------------------------
 Center     Atomic      Atomic             Coordinates (Angstroms)
 Number     Number       Type             X           Y           Z
 ---------------------------------------------------------------------
      1          7           0        1.015407    1.137292    0.000138
      2          6           0        0.361833   -0.000003   -0.000724
      3          7           0        1.015412   -1.137288    0.000139
      4         16           0       -1.338571   -0.000001   -0.000160
      5          1           0        0.529554    1.977731    0.004697
      6          1           0        1.985643    1.141201   -0.002215
      7          1           0        1.985639   -1.141195   -0.002214
      8          1           0        0.529562   -1.977730    0.004695
 ---------------------------------------------------------------------
 Rotational constants (GHZ):          10.8141578           5.2685246           3.5426121
 Leave Link  202 at Mon Feb 22 21:20:44 2021, MaxMem=   104857600 cpu:               0.4 elap:               0.0
 (Enter /sw/arch/RedHatEnterpriseServer7/EB_production/2019/software/Gaussian/g16.c01/l301.exe)
 Standard basis: TZVP (5D, 7F)
 Ernie: Thresh=  0.10000D-02 Tol=  0.10000D-05 Strict=F.
 There are   107 symmetry adapted cartesian basis functions of A   symmetry.
 There are   103 symmetry adapted basis functions of A   symmetry.
   103 basis functions,   184 primitive gaussians,   107 cartesian basis functions
    20 alpha electrons       20 beta electrons
       nuclear repulsion energy       159.8574959810 Hartrees.
 IExCor=  404 DFT=T Ex=B Corr=P86 ExCW=0 ScaHFX=  0.000000
 ScaDFX=  1.000000  1.000000  1.000000  1.000000 ScalE2=  1.000000  1.000000
 IRadAn=      5 IRanWt=     -1 IRanGd=            0 ICorTp=0 IEmpDi=131
 NAtoms=    8 NActive=    8 NUniq=    8 SFac= 1.00D+00 NAtFMM=   60 NAOKFM=F Big=F
 Integral buffers will be    131072 words long.
 Raffenetti 2 integral format.
 Two-electron integral symmetry is turned on.
 R6Disp:  Grimme-D3 Dispersion energy=       -0.0035335464 Hartrees.
 Nuclear repulsion after empirical dispersion term =      159.8539624345 Hartrees.
 ------------------------------------------------------------------------------
 Polarizable Continuum Model (PCM)
 =================================
 Model                : PCM.
 Atomic radii         : UFF (Universal Force Field).
 Polarization charges : Total charges.
 Charge compensation  : None.
 Solution method      : On-the-fly selection.
 Cavity type          : Scaled VdW (van der Waals Surface) (Alpha=1.100).
 Cavity algorithm     : GePol (No added spheres)
                        Default sphere list used, NSphG=    8.
                        Lebedev-Laikov grids with approx.  5.0 points / Ang**2.
                        Smoothing algorithm: York/Karplus (Gamma=1.0000).
                        Polarization charges: spherical gaussians, with
                                              point-specific exponents (IZeta= 3).
                        Self-potential: point-specific (ISelfS= 7).
                        Self-field    : sphere-specific E.n sum rule (ISelfD= 2).
 1st derivatives      : Analytical E(r).r(x)/FMM algorithm (CHGder, D1EAlg=3).
                        Cavity 1st derivative terms included.
 Solvent              : Water, Eps=  78.355300 Eps(inf)=   1.777849
 ------------------------------------------------------------------------------
 Spheres list:
 ISph  on   Nord     Re0    Alpha      Xe            Ye            Ze
    1   N      1    1.8300  1.100      1.015407      1.137292      0.000138
    2   C      2    1.9255  1.100      0.361833     -0.000003     -0.000724
    3   N      3    1.8300  1.100      1.015412     -1.137288      0.000139
    4   S      4    2.0175  1.100     -1.338571     -0.000001     -0.000160
    5   H      5    1.4430  1.100      0.529554      1.977731      0.004697
    6   H      6    1.4430  1.100      1.985643      1.141201     -0.002215
    7   H      7    1.4430  1.100      1.985639     -1.141195     -0.002214
    8   H      8    1.4430  1.100      0.529562     -1.977730      0.004695
 ------------------------------------------------------------------------------
 GePol: Number of generator spheres                  =       8
 GePol: Total number of spheres                      =       8
 GePol: Number of exposed spheres                    =       8 (100.00%)
 GePol: Number of points                             =     891
 GePol: Average weight of points                     =       0.14
 GePol: Minimum weight of points                     =   0.49D-05
 GePol: Maximum weight of points                     =    0.20299
 GePol: Number of points with low weight             =      24
 GePol: Fraction of low-weight points (<1% of avg)   =       2.69%
 GePol: Cavity surface area                          =    120.978 Ang**2
 GePol: Cavity volume                                =    106.255 Ang**3
 Leave Link  301 at Mon Feb 22 21:20:44 2021, MaxMem=   104857600 cpu:               2.1 elap:               0.1
 (Enter /sw/arch/RedHatEnterpriseServer7/EB_production/2019/software/Gaussian/g16.c01/l302.exe)
 NPDir=0 NMtPBC=     1 NCelOv=     1 NCel=       1 NClECP=     1 NCelD=      1
         NCelK=      1 NCelE2=     1 NClLst=     1 CellRange=     0.0.
 One-electron integrals computed using PRISM.
 One-electron integral symmetry used in STVInt
 PrsmSu:  requested number of processors reduced to:  30 ShMem   1 Linda.
 NBasis=   103 RedAO= T EigKep=  1.17D-03  NBF=   103
 NBsUse=   103 1.00D-06 EigRej= -1.00D+00 NBFU=   103
 Precomputing XC quadrature grid using
 IXCGrd= 4 IRadAn=           5 IRanWt=          -1 IRanGd=           0 AccXCQ= 0.00D+00.
 Generated NRdTot=       0 NPtTot=           0 NUsed=           0 NTot=          32
 NSgBfM=   106   106   106   106   106 MxSgAt=     8 MxSgA2=     8.
 Leave Link  302 at Mon Feb 22 21:20:44 2021, MaxMem=   104857600 cpu:               4.8 elap:               0.2
 (Enter /sw/arch/RedHatEnterpriseServer7/EB_production/2019/software/Gaussian/g16.c01/l303.exe)
 DipDrv:  MaxL=1.
 Leave Link  303 at Mon Feb 22 21:20:45 2021, MaxMem=   104857600 cpu:               3.0 elap:               0.1
 (Enter /sw/arch/RedHatEnterpriseServer7/EB_production/2019/software/Gaussian/g16.c01/l401.exe)
 ExpMin= 9.52D-02 ExpMax= 6.07D+04 ExpMxC= 2.07D+03 IAcc=3 IRadAn=         5 AccDes= 0.00D+00
 Harris functional with IExCor=  404 and IRadAn=       5 diagonalized for initial guess.
 HarFok:  IExCor=  404 AccDes= 0.00D+00 IRadAn=         5 IDoV= 1 UseB2=F ITyADJ=14
 ICtDFT=  3500011 ScaDFX=  1.000000  1.000000  1.000000  1.000000
 FoFCou: FMM=F IPFlag=           0 FMFlag=      100000 FMFlg1=           0
         NFxFlg=           0 DoJE=T BraDBF=F KetDBF=T FulRan=T
         wScrn=  0.000000 ICntrl=       500 IOpCl=  0 I1Cent=   200000004 NGrid=           0
         NMat0=    1 NMatS0=      1 NMatT0=    0 NMatD0=    1 NMtDS0=    0 NMtDT0=    0
 Petite list used in FoFCou.
 Harris En= -548.328685873163    
 JPrj=0 DoOrth=F DoCkMO=F.
 Leave Link  401 at Mon Feb 22 21:20:45 2021, MaxMem=   104857600 cpu:              11.4 elap:               0.4
 (Enter /sw/arch/RedHatEnterpriseServer7/EB_production/2019/software/Gaussian/g16.c01/l502.exe)
 Keep J ints in memory in canonical form, NReq=44139902.
 FoFCou: FMM=F IPFlag=           0 FMFlag=           0 FMFlg1=           0
         NFxFlg=           0 DoJE=F BraDBF=F KetDBF=F FulRan=T
         wScrn=  0.000000 ICntrl=       600 IOpCl=  0 I1Cent=           0 NGrid=           0
         NMat0=    1 NMatS0=   5356 NMatT0=    0 NMatD0=    1 NMtDS0=    0 NMtDT0=    0
 Symmetry not used in FoFCou.
 Two-electron integral symmetry not used.
 Closed shell SCF:
 Using DIIS extrapolation, IDIIS=  1040.
 NGot=   104857600 LenX=    90483852 LenY=    90471962
 Requested convergence on RMS density matrix=1.00D-08 within 128 cycles.
 Requested convergence on MAX density matrix=1.00D-06.
 Requested convergence on             energy=1.00D-06.
 No special actions if energy rises.

 Cycle   1  Pass 1  IDiag  1:
 Inv3:  Mode=1 IEnd=     2381643.
 Iteration    1 A*A^-1 deviation from unit magnitude is 2.66D-15 for    565.
 Iteration    1 A*A^-1 deviation from orthogonality  is 1.84D-15 for    442    237.
 Iteration    1 A^-1*A deviation from unit magnitude is 3.11D-15 for    565.
 Iteration    1 A^-1*A deviation from orthogonality  is 2.89D-15 for    563    476.
 E= -548.254288996729    
 DIIS: error= 4.94D-02 at cycle   1 NSaved=   1.
 NSaved= 1 IEnMin= 1 EnMin= -548.254288996729     IErMin= 1 ErrMin= 4.94D-02
 ErrMax= 4.94D-02  0.00D+00 EMaxC= 1.00D-01 BMatC= 1.20D-01 BMatP= 1.20D-01
 IDIUse=3 WtCom= 5.06D-01 WtEn= 4.94D-01
 Coeff-Com:  0.100D+01
 Coeff-En:   0.100D+01
 Coeff:      0.100D+01
 Gap=     0.178 Goal=   None    Shift=    0.000
 GapD=    0.178 DampG=1.000 DampE=0.500 DampFc=0.5000 IDamp=-1.
 Damping current iteration by 5.00D-01
 RMSDP=5.29D-03 MaxDP=1.19D-01              OVMax= 1.90D-01

 Cycle   2  Pass 1  IDiag  1:
 E= -548.278248484914     Delta-E=       -0.023959488185 Rises=F Damp=T
 DIIS: error= 1.44D-02 at cycle   2 NSaved=   2.
 NSaved= 2 IEnMin= 2 EnMin= -548.278248484914     IErMin= 2 ErrMin= 1.44D-02
 ErrMax= 1.44D-02  0.00D+00 EMaxC= 1.00D-01 BMatC= 1.43D-02 BMatP= 1.20D-01
 IDIUse=3 WtCom= 8.56D-01 WtEn= 1.44D-01
 Coeff-Com:  0.203D+00 0.797D+00
 Coeff-En:   0.360D+00 0.640D+00
 Coeff:      0.225D+00 0.775D+00
 Gap=     0.229 Goal=   None    Shift=    0.000
 RMSDP=1.80D-03 MaxDP=4.03D-02 DE=-2.40D-02 OVMax= 1.49D-01

 Cycle   3  Pass 1  IDiag  1:
 E= -548.338820055694     Delta-E=       -0.060571570780 Rises=F Damp=F
 DIIS: error= 8.07D-03 at cycle   3 NSaved=   3.
 NSaved= 3 IEnMin= 3 EnMin= -548.338820055694     IErMin= 3 ErrMin= 8.07D-03
 ErrMax= 8.07D-03  0.00D+00 EMaxC= 1.00D-01 BMatC= 3.10D-03 BMatP= 1.43D-02
 IDIUse=3 WtCom= 9.19D-01 WtEn= 8.07D-02
 Coeff-Com:  0.335D-01 0.299D+00 0.667D+00
 Coeff-En:   0.000D+00 0.000D+00 0.100D+01
 Coeff:      0.308D-01 0.275D+00 0.694D+00
 Gap=     0.169 Goal=   None    Shift=    0.000
 RMSDP=1.31D-03 MaxDP=3.54D-02 DE=-6.06D-02 OVMax= 6.79D-02

 Cycle   4  Pass 1  IDiag  1:
 E= -548.340637540187     Delta-E=       -0.001817484493 Rises=F Damp=F
 DIIS: error= 5.13D-03 at cycle   4 NSaved=   4.
 NSaved= 4 IEnMin= 4 EnMin= -548.340637540187     IErMin= 4 ErrMin= 5.13D-03
 ErrMax= 5.13D-03  0.00D+00 EMaxC= 1.00D-01 BMatC= 2.02D-03 BMatP= 3.10D-03
 IDIUse=3 WtCom= 9.49D-01 WtEn= 5.13D-02
 Coeff-Com:  0.630D-02 0.765D-01 0.440D+00 0.477D+00
 Coeff-En:   0.000D+00 0.000D+00 0.383D+00 0.617D+00
 Coeff:      0.597D-02 0.725D-01 0.437D+00 0.484D+00
 Gap=     0.159 Goal=   None    Shift=    0.000
 RMSDP=5.47D-04 MaxDP=1.67D-02 DE=-1.82D-03 OVMax= 2.83D-02

 Cycle   5  Pass 1  IDiag  1:
 E= -548.342888848140     Delta-E=       -0.002251307953 Rises=F Damp=F
 DIIS: error= 1.27D-03 at cycle   5 NSaved=   5.
 NSaved= 5 IEnMin= 5 EnMin= -548.342888848140     IErMin= 5 ErrMin= 1.27D-03
 ErrMax= 1.27D-03  0.00D+00 EMaxC= 1.00D-01 BMatC= 7.19D-05 BMatP= 2.02D-03
 IDIUse=3 WtCom= 9.87D-01 WtEn= 1.27D-02
 Coeff-Com:  0.243D-02 0.303D-01 0.237D+00 0.266D+00 0.464D+00
 Coeff-En:   0.000D+00 0.000D+00 0.000D+00 0.000D+00 0.100D+01
 Coeff:      0.240D-02 0.300D-01 0.234D+00 0.263D+00 0.471D+00
 Gap=     0.161 Goal=   None    Shift=    0.000
 RMSDP=8.48D-05 MaxDP=1.44D-03 DE=-2.25D-03 OVMax= 4.05D-03

 Cycle   6  Pass 1  IDiag  1:
 E= -548.342945615919     Delta-E=       -0.000056767779 Rises=F Damp=F
 DIIS: error= 4.12D-04 at cycle   6 NSaved=   6.
 NSaved= 6 IEnMin= 6 EnMin= -548.342945615919     IErMin= 6 ErrMin= 4.12D-04
 ErrMax= 4.12D-04  0.00D+00 EMaxC= 1.00D-01 BMatC= 9.14D-06 BMatP= 7.19D-05
 IDIUse=3 WtCom= 9.96D-01 WtEn= 4.12D-03
 Coeff-Com:  0.475D-03 0.287D-02 0.538D-01 0.482D-01 0.276D+00 0.619D+00
 Coeff-En:   0.000D+00 0.000D+00 0.000D+00 0.000D+00 0.144D+00 0.856D+00
 Coeff:      0.473D-03 0.286D-02 0.535D-01 0.480D-01 0.275D+00 0.620D+00
 Gap=     0.160 Goal=   None    Shift=    0.000
 RMSDP=3.55D-05 MaxDP=5.62D-04 DE=-5.68D-05 OVMax= 1.48D-03

 Cycle   7  Pass 1  IDiag  1:
 E= -548.342956027241     Delta-E=       -0.000010411322 Rises=F Damp=F
 DIIS: error= 1.53D-05 at cycle   7 NSaved=   7.
 NSaved= 7 IEnMin= 7 EnMin= -548.342956027241     IErMin= 7 ErrMin= 1.53D-05
 ErrMax= 1.53D-05  0.00D+00 EMaxC= 1.00D-01 BMatC= 2.23D-08 BMatP= 9.14D-06
 IDIUse=1 WtCom= 1.00D+00 WtEn= 0.00D+00
 Coeff-Com:  0.609D-04 0.157D-03 0.906D-02 0.692D-02 0.596D-01 0.152D+00
 Coeff-Com:  0.772D+00
 Coeff:      0.609D-04 0.157D-03 0.906D-02 0.692D-02 0.596D-01 0.152D+00
 Coeff:      0.772D+00
 Gap=     0.160 Goal=   None    Shift=    0.000
 RMSDP=3.66D-06 MaxDP=8.04D-05 DE=-1.04D-05 OVMax= 7.42D-05

 Cycle   8  Pass 1  IDiag  1:
 E= -548.342956053356     Delta-E=       -0.000000026115 Rises=F Damp=F
 DIIS: error= 4.83D-06 at cycle   8 NSaved=   8.
 NSaved= 8 IEnMin= 8 EnMin= -548.342956053356     IErMin= 8 ErrMin= 4.83D-06
 ErrMax= 4.83D-06  0.00D+00 EMaxC= 1.00D-01 BMatC= 1.65D-09 BMatP= 2.23D-08
 IDIUse=1 WtCom= 1.00D+00 WtEn= 0.00D+00
 Coeff-Com: -0.153D-04-0.123D-03-0.905D-03-0.799D-03-0.108D-02-0.141D-02
 Coeff-Com:  0.191D+00 0.813D+00
 Coeff:     -0.153D-04-0.123D-03-0.905D-03-0.799D-03-0.108D-02-0.141D-02
 Coeff:      0.191D+00 0.813D+00
 Gap=     0.160 Goal=   None    Shift=    0.000
 RMSDP=8.42D-07 MaxDP=1.75D-05 DE=-2.61D-08 OVMax= 1.60D-05

 Cycle   9  Pass 1  IDiag  1:
 E= -548.342956045120     Delta-E=        0.000000008236 Rises=F Damp=F
 DIIS: error= 1.22D-06 at cycle   9 NSaved=   9.
 NSaved= 9 IEnMin= 8 EnMin= -548.342956053356     IErMin= 9 ErrMin= 1.22D-06
 ErrMax= 1.22D-06  0.00D+00 EMaxC= 1.00D-01 BMatC= 1.06D-10 BMatP= 1.65D-09
 IDIUse=1 WtCom= 1.00D+00 WtEn= 0.00D+00
 Coeff-Com: -0.101D-04-0.335D-04-0.479D-03-0.329D-03-0.176D-02-0.364D-02
 Coeff-Com:  0.494D-01 0.277D+00 0.679D+00
 Coeff:     -0.101D-04-0.335D-04-0.479D-03-0.329D-03-0.176D-02-0.364D-02
 Coeff:      0.494D-01 0.277D+00 0.679D+00
 Gap=     0.160 Goal=   None    Shift=    0.000
 RMSDP=1.63D-07 MaxDP=2.66D-06 DE= 8.24D-09 OVMax= 6.74D-06

 Cycle  10  Pass 1  IDiag  1:
 E= -548.342956055295     Delta-E=       -0.000000010175 Rises=F Damp=F
 DIIS: error= 1.51D-07 at cycle  10 NSaved=  10.
 NSaved=10 IEnMin=10 EnMin= -548.342956055295     IErMin=10 ErrMin= 1.51D-07
 ErrMax= 1.51D-07  0.00D+00 EMaxC= 1.00D-01 BMatC= 8.57D-13 BMatP= 1.06D-10
 IDIUse=1 WtCom= 1.00D+00 WtEn= 0.00D+00
 Coeff-Com: -0.169D-05-0.246D-06-0.350D-04-0.239D-04-0.142D-03-0.191D-03
 Coeff-Com:  0.182D-02 0.972D-02 0.985D-01 0.890D+00
 Coeff:     -0.169D-05-0.246D-06-0.350D-04-0.239D-04-0.142D-03-0.191D-03
 Coeff:      0.182D-02 0.972D-02 0.985D-01 0.890D+00
 Gap=     0.160 Goal=   None    Shift=    0.000
 RMSDP=1.00D-08 MaxDP=1.56D-07 DE=-1.02D-08 OVMax= 2.56D-07

 Cycle  11  Pass 1  IDiag  1:
 E= -548.342956055297     Delta-E=       -0.000000000002 Rises=F Damp=F
 DIIS: error= 2.37D-08 at cycle  11 NSaved=  11.
 NSaved=11 IEnMin=11 EnMin= -548.342956055297     IErMin=11 ErrMin= 2.37D-08
 ErrMax= 2.37D-08  0.00D+00 EMaxC= 1.00D-01 BMatC= 3.79D-14 BMatP= 8.57D-13
 IDIUse=1 WtCom= 1.00D+00 WtEn= 0.00D+00
 Coeff-Com: -0.450D-06 0.192D-06-0.630D-05-0.520D-05-0.259D-04-0.288D-04
 Coeff-Com:  0.215D-04-0.181D-03 0.248D-01 0.293D+00 0.682D+00
 Coeff:     -0.450D-06 0.192D-06-0.630D-05-0.520D-05-0.259D-04-0.288D-04
 Coeff:      0.215D-04-0.181D-03 0.248D-01 0.293D+00 0.682D+00
 Gap=     0.160 Goal=   None    Shift=    0.000
 RMSDP=2.15D-09 MaxDP=3.89D-08 DE=-1.93D-12 OVMax= 1.41D-07

 Error on total polarization charges =  0.01463
 SCF Done:  E(RB-P86) =  -548.342956055     A.U. after   11 cycles
            NFock= 11  Conv=0.22D-08     -V/T= 2.0026
 KE= 5.469474225867D+02 PE=-1.617061218080D+03 EE= 3.619168770034D+02
 Leave Link  502 at Mon Feb 22 21:20:47 2021, MaxMem=   104857600 cpu:              63.4 elap:               2.3
 (Enter /sw/arch/RedHatEnterpriseServer7/EB_production/2019/software/Gaussian/g16.c01/l601.exe)
 Copying SCF densities to generalized density rwf, IOpCl= 0 IROHF=0.

 **********************************************************************

            Population analysis using the SCF Density.

 **********************************************************************

 Orbital symmetries:
       Occupied  (A) (A) (A) (A) (A) (A) (A) (A) (A) (A) (A) (A)
                 (A) (A) (A) (A) (A) (A) (A) (A)
       Virtual   (A) (A) (A) (A) (A) (A) (A) (A) (A) (A) (A) (A)
                 (A) (A) (A) (A) (A) (A) (A) (A) (A) (A) (A) (A)
                 (A) (A) (A) (A) (A) (A) (A) (A) (A) (A) (A) (A)
                 (A) (A) (A) (A) (A) (A) (A) (A) (A) (A) (A) (A)
                 (A) (A) (A) (A) (A) (A) (A) (A) (A) (A) (A) (A)
                 (A) (A) (A) (A) (A) (A) (A) (A) (A) (A) (A) (A)
                 (A) (A) (A) (A) (A) (A) (A) (A) (A) (A) (A)
 The electronic state is 1-A.
 Alpha  occ. eigenvalues --  -88.07800 -14.03254 -14.03253 -10.01398  -7.63403
 Alpha  occ. eigenvalues --   -5.65884  -5.65082  -5.64824  -0.93264  -0.84521
 Alpha  occ. eigenvalues --   -0.67249  -0.58708  -0.53160  -0.50894  -0.46937
 Alpha  occ. eigenvalues --   -0.39166  -0.33521  -0.26001  -0.20131  -0.19307
 Alpha virt. eigenvalues --   -0.03282   0.01813   0.03663   0.06561   0.08564
 Alpha virt. eigenvalues --    0.10527   0.13513   0.17327   0.20654   0.20937
 Alpha virt. eigenvalues --    0.24581   0.27756   0.28842   0.28979   0.32256
 Alpha virt. eigenvalues --    0.32850   0.34075   0.35293   0.39459   0.44954
 Alpha virt. eigenvalues --    0.46342   0.47832   0.49316   0.52653   0.60802
 Alpha virt. eigenvalues --    0.63036   0.67127   0.68262   0.71297   0.74509
 Alpha virt. eigenvalues --    0.77554   0.82147   0.98584   1.16307   1.16356
 Alpha virt. eigenvalues --    1.19608   1.27085   1.32147   1.43410   1.45562
 Alpha virt. eigenvalues --    1.47171   1.50687   1.53048   1.57240   1.60541
 Alpha virt. eigenvalues --    1.69210   1.70432   1.82487   1.85650   1.86182
 Alpha virt. eigenvalues --    1.88245   1.89251   1.89559   1.92617   2.02724
 Alpha virt. eigenvalues --    2.08962   2.10878   2.13729   2.16789   2.21170
 Alpha virt. eigenvalues --    2.33065   2.41513   2.44841   2.48945   2.50049
 Alpha virt. eigenvalues --    2.55993   2.60951   2.64237   2.65336   2.72811
 Alpha virt. eigenvalues --    2.80400   2.81480   2.89125   3.30485   3.46186
 Alpha virt. eigenvalues --    3.57642   3.68436   3.91315   3.92283  18.49679
 Alpha virt. eigenvalues --   21.53366  31.37820  31.39478
          Condensed to atoms (all electrons):
               1          2          3          4          5          6
     1  N    6.422976   0.386338  -0.078871  -0.138180   0.374179   0.346776
     2  C    0.386338   4.602430   0.386341   0.633405  -0.021668  -0.014390
     3  N   -0.078871   0.386341   6.422965  -0.138178   0.008912  -0.002751
     4  S   -0.138180   0.633405  -0.138178  16.125675   0.004425   0.011255
     5  H    0.374179  -0.021668   0.008912   0.004425   0.374475  -0.017989
     6  H    0.346776  -0.014390  -0.002751   0.011255  -0.017989   0.412175
     7  H   -0.002751  -0.014390   0.346778   0.011255  -0.000683  -0.000520
     8  H    0.008912  -0.021667   0.374178   0.004425  -0.000144  -0.000683
               7          8
     1  N   -0.002751   0.008912
     2  C   -0.014390  -0.021667
     3  N    0.346778   0.374178
     4  S    0.011255   0.004425
     5  H   -0.000683  -0.000144
     6  H   -0.000520  -0.000683
     7  H    0.412173  -0.017989
     8  H   -0.017989   0.374475
 Mulliken charges:
               1
     1  N   -0.319381
     2  C    0.063601
     3  N   -0.319374
     4  S   -0.514082
     5  H    0.278493
     6  H    0.266126
     7  H    0.266126
     8  H    0.278493
 Sum of Mulliken charges =  -0.00000
 Mulliken charges with hydrogens summed into heavy atoms:
               1
     1  N    0.225238
     2  C    0.063601
     3  N    0.225244
     4  S   -0.514082
 Electronic spatial extent (au):  <R**2>=            354.8103
 Charge=             -0.0000 electrons
 Dipole moment (field-independent basis, Debye):
    X=              8.0391    Y=             -0.0000    Z=              0.0074  Tot=              8.0391
 Quadrupole moment (field-independent basis, Debye-Ang):
   XX=            -29.3188   YY=            -24.1917   ZZ=            -35.2834
   XY=             -0.0001   XZ=             -0.0128   YZ=              0.0000
 Traceless Quadrupole moment (field-independent basis, Debye-Ang):
   XX=              0.2792   YY=              5.4063   ZZ=             -5.6855
   XY=             -0.0001   XZ=             -0.0128   YZ=              0.0000
 Octapole moment (field-independent basis, Debye-Ang**2):
  XXX=             38.7169  YYY=             -0.0001  ZZZ=              0.0079  XYY=             14.3372
  XXY=              0.0000  XXZ=             -0.0349  XZZ=              4.4938  YZZ=             -0.0000
  YYZ=              0.0748  XYZ=              0.0000
 Hexadecapole moment (field-independent basis, Debye-Ang**3):
 XXXX=           -243.1765 YYYY=           -107.9433 ZZZZ=            -43.3666 XXXY=             -0.0001
 XXXZ=             -0.0879 YYYX=             -0.0002 YYYZ=              0.0001 ZZZX=             -0.0088
 ZZZY=              0.0000 XXYY=            -66.6493 XXZZ=            -59.9503 YYZZ=            -36.1545
 XXYZ=              0.0000 YYXZ=              0.0192 ZZXY=             -0.0001
 N-N= 1.598539624345D+02 E-N=-1.617061218109D+03  KE= 5.469474225867D+02
 No NMR shielding tensors so no spin-rotation constants.
 Leave Link  601 at Mon Feb 22 21:20:48 2021, MaxMem=   104857600 cpu:               3.0 elap:               0.1
 (Enter /sw/arch/RedHatEnterpriseServer7/EB_production/2019/software/Gaussian/g16.c01/l701.exe)
 ... and contract with generalized density number  0.
 Compute integral first derivatives.
 R6Disp: Adding Grimme-D3 dispersion energy 1st derivatives to the gradient.
 PrsmSu:  requested number of processors reduced to:  30 ShMem   1 Linda.
 D1PCM: PCM CHGder 1st derivatives, ID1Alg=3 FixD1E=F DoIter=F DoCFld=F I1PDM=0.
 GePol: Maximum number of non-zero 1st derivatives   =     335
 CoulSu:  requested number of processors reduced to:  30 ShMem   1 Linda.
 CoulSu:  requested number of processors reduced to:  30 ShMem   1 Linda.
 Leave Link  701 at Mon Feb 22 21:20:48 2021, MaxMem=   104857600 cpu:              16.9 elap:               0.6
 (Enter /sw/arch/RedHatEnterpriseServer7/EB_production/2019/software/Gaussian/g16.c01/l702.exe)
 L702 exits ... SP integral derivatives will be done elsewhere.
 Leave Link  702 at Mon Feb 22 21:20:48 2021, MaxMem=   104857600 cpu:               0.7 elap:               0.0
 (Enter /sw/arch/RedHatEnterpriseServer7/EB_production/2019/software/Gaussian/g16.c01/l703.exe)
 Integral derivatives from FoFJK, PRISM(SPDF).
 Compute integral first derivatives, UseDBF=F ICtDFT=           0.
 Calling FoFJK, ICntrl=      2527 FMM=F ISym2X=0 I1Cent= 0 IOpClX= 0 NMat=1 NMatS=1 NMatT=0.
 FoFJK:  IHMeth= 1 ICntrl=    2527 DoSepK=F KAlg= 0 I1Cent=           0 FoldK=F
 IRaf=         0 NMat=       1 IRICut=       1 DoRegI=T DoRafI=F ISym2E= 0 IDoP0=0 IntGTp=1.
 FoFCou: FMM=F IPFlag=           0 FMFlag=      100000 FMFlg1=         800
         NFxFlg=           0 DoJE=F BraDBF=F KetDBF=F FulRan=T
         wScrn=  0.000000 ICntrl=      2527 IOpCl=  0 I1Cent=           0 NGrid=           0
         NMat0=    1 NMatS0=      1 NMatT0=    0 NMatD0=    1 NMtDS0=    0 NMtDT0=    0
 Symmetry not used in FoFCou.
 Leave Link  703 at Mon Feb 22 21:20:49 2021, MaxMem=   104857600 cpu:              11.3 elap:               0.4
 (Enter /sw/arch/RedHatEnterpriseServer7/EB_production/2019/software/Gaussian/g16.c01/l716.exe)
 Dipole        = 3.16282368D+00-1.09618264D-05 2.92830337D-03
 ***** Axes restored to original set *****
 -------------------------------------------------------------------
 Center     Atomic                   Forces (Hartrees/Bohr)
 Number     Number              X              Y              Z
 -------------------------------------------------------------------
      1        7           0.011307069   -0.003454565    0.000030712
      2        6          -0.019649391   -0.002773544    0.037755692
      3        7          -0.006828452    0.003791907   -0.008861152
      4       16          -0.009108656   -0.001375545    0.017437105
      5        1          -0.039652990    0.010765833    0.002861547
      6        1           0.015998779    0.005445373   -0.043606604
      7        1           0.026830802    0.001118455   -0.038300896
      8        1           0.021102838   -0.013517914    0.032683596
 -------------------------------------------------------------------
 Cartesian Forces:  Max     0.043606604 RMS     0.020671528
 Leave Link  716 at Mon Feb 22 21:20:49 2021, MaxMem=   104857600 cpu:               0.9 elap:               0.1
 (Enter /sw/arch/RedHatEnterpriseServer7/EB_production/2019/software/Gaussian/g16.c01/l103.exe)

 GradGradGradGradGradGradGradGradGradGradGradGradGradGradGradGradGradGrad
 Berny optimization.
 FormGI is forming the generalized inverse of G from B-inverse, IUseBI=4.
 Internal  Forces:  Max     0.046361635 RMS     0.022487531
 Search for a local minimum.
 Step number   1 out of a maximum of   34
 All quantities printed in internal units (Hartrees-Bohrs-Radians)
 RMS Force = .22488D-01 SwitMx=.10000D-02 MixMth= 1
 Mixed Optimization -- RFO/linear search
 Second derivative matrix not updated -- first step.
 ITU=  0
     Eigenvalues ---    0.02860   0.02860   0.02860   0.02860   0.02860
     Eigenvalues ---    0.16000   0.16000   0.16000   0.16000   0.25000
     Eigenvalues ---    0.25000   0.35842   0.53218   0.53218   0.53327
     Eigenvalues ---    0.53329   0.64042   0.64043
 RFO step:  Lambda=-2.20876980D-02 EMin= 2.85960787D-02
 Linear search not attempted -- first point.
 Iteration  1 RMS(Cart)=  0.05269474 RMS(Int)=  0.00059710
 Iteration  2 RMS(Cart)=  0.00054519 RMS(Int)=  0.00000040
 Iteration  3 RMS(Cart)=  0.00000027 RMS(Int)=  0.00000032
 ITry= 1 IFail=0 DXMaxC= 1.11D-01 DCOld= 1.00D+10 DXMaxT= 3.00D-01 DXLimC= 3.00D+00 Rises=F
 Variable       Old X    -DE/DX   Delta X   Delta X   Delta X     New X
                                 (Linear)    (Quad)   (Total)
    R1        2.47878   0.04296   0.00000   0.06485   0.06485   2.54363
    R2        1.83451   0.04118   0.00000   0.07430   0.07430   1.90881
    R3        1.83350   0.04635   0.00000   0.08346   0.08346   1.91696
    R4        2.47877   0.04297   0.00000   0.06485   0.06485   2.54362
    R5        3.21330   0.01972   0.00000   0.05183   0.05183   3.26513
    R6        1.83348   0.04636   0.00000   0.08348   0.08348   1.91696
    R7        1.83451   0.04118   0.00000   0.07430   0.07430   1.90881
    A1        2.09584  -0.00307   0.00000  -0.01687  -0.01687   2.07898
    A2        2.09641   0.00724   0.00000   0.03975   0.03975   2.13617
    A3        2.09093  -0.00417   0.00000  -0.02288  -0.02288   2.06804
    A4        2.09841  -0.01177   0.00000  -0.04324  -0.04324   2.05517
    A5        2.09238   0.00588   0.00000   0.02163   0.02162   2.11401
    A6        2.09239   0.00588   0.00000   0.02162   0.02162   2.11401
    A7        2.09642   0.00724   0.00000   0.03975   0.03975   2.13617
    A8        2.09584  -0.00307   0.00000  -0.01687  -0.01687   2.07897
    A9        2.09093  -0.00417   0.00000  -0.02288  -0.02288   2.06804
    D1       -3.13540  -0.00017   0.00000  -0.00339  -0.00339  -3.13880
    D2        0.00429  -0.00005   0.00000  -0.00090  -0.00090   0.00339
    D3        0.00433  -0.00012   0.00000  -0.00240  -0.00240   0.00193
    D4       -3.13917   0.00000   0.00000   0.00010   0.00010  -3.13907
    D5       -0.00433   0.00012   0.00000   0.00240   0.00240  -0.00193
    D6        3.13541   0.00017   0.00000   0.00339   0.00339   3.13880
    D7        3.13917  -0.00000   0.00000  -0.00010  -0.00010   3.13907
    D8       -0.00428   0.00005   0.00000   0.00090   0.00090  -0.00338
         Item               Value     Threshold  Converged?
 Maximum Force            0.046362     0.000450     NO 
 RMS     Force            0.022488     0.000300     NO 
 Maximum Displacement     0.110966     0.001800     NO 
 RMS     Displacement     0.052583     0.001200     NO 
 Predicted change in Energy=-1.152636D-02
 Lowest energy point so far.  Saving SCF results.
 GradGradGradGradGradGradGradGradGradGradGradGradGradGradGradGradGradGrad

 Leave Link  103 at Mon Feb 22 21:20:49 2021, MaxMem=   104857600 cpu:               0.5 elap:               0.0
 (Enter /sw/arch/RedHatEnterpriseServer7/EB_production/2019/software/Gaussian/g16.c01/l202.exe)
                          Input orientation:                          
 ---------------------------------------------------------------------
 Center     Atomic      Atomic             Coordinates (Angstroms)
 Number     Number       Type             X           Y           Z
 ---------------------------------------------------------------------
      1          7           0       -0.483451    0.790936   -1.690114
      2          6           0        0.168567    0.352519   -0.597200
      3          7           0        1.463745    0.012647   -0.734285
      4         16           0       -0.630289    0.229340    0.929907
      5          1           0       -1.455434    1.053886   -1.610092
      6          1           0       -0.034131    0.868794   -2.596251
      7          1           0        1.951044    0.075324   -1.621778
      8          1           0        1.973579   -0.316686    0.073123
 ---------------------------------------------------------------------
                    Distance matrix (angstroms):
                    1          2          3          4          5
     1  N    0.000000
     2  C    1.346031   0.000000
     3  N    2.304542   1.346028   0.000000
     4  S    2.683554   1.727831   2.683555   0.000000
     5  H    1.010098   2.038442   3.220687   2.795056   0.000000
     6  H    1.014413   2.074567   2.538412   3.632918   1.739790
     7  H    2.538413   2.074566   1.014412   3.632918   3.544265
     8  H    3.220687   2.038440   1.010098   2.795058   4.058301
                    6          7          8
     6  H    0.000000
     7  H    2.349492   0.000000
     8  H    3.544265   1.739789   0.000000
 Stoichiometry    CH4N2S
 Framework group  C1[X(CH4N2S)]
 Deg. of freedom    18
 Full point group                 C1      NOp   1
 RotChk:  IX=0 Diff= 2.83D-04
 Largest Abelian subgroup         C1      NOp   1
 Largest concise Abelian subgroup C1      NOp   1
                         Standard orientation:                         
 ---------------------------------------------------------------------
 Center     Atomic      Atomic             Coordinates (Angstroms)
 Number     Number       Type             X           Y           Z
 ---------------------------------------------------------------------
      1          7           0        1.048153    1.152272    0.000024
      2          6           0        0.352406   -0.000001    0.000212
      3          7           0        1.048156   -1.152270    0.000024
      4         16           0       -1.375425   -0.000001   -0.000190
      5          1           0        0.546781    2.029151    0.002628
      6          1           0        2.062315    1.174748   -0.001907
      7          1           0        2.062317   -1.174744   -0.001906
      8          1           0        0.546785   -2.029151    0.002625
 ---------------------------------------------------------------------
 Rotational constants (GHZ):          10.4707929           4.9755695           3.3728442
 Leave Link  202 at Mon Feb 22 21:20:49 2021, MaxMem=   104857600 cpu:               0.9 elap:               0.1
 (Enter /sw/arch/RedHatEnterpriseServer7/EB_production/2019/software/Gaussian/g16.c01/l301.exe)
 Standard basis: TZVP (5D, 7F)
 Ernie: Thresh=  0.10000D-02 Tol=  0.10000D-05 Strict=F.
 There are   107 symmetry adapted cartesian basis functions of A   symmetry.
 There are   103 symmetry adapted basis functions of A   symmetry.
   103 basis functions,   184 primitive gaussians,   107 cartesian basis functions
    20 alpha electrons       20 beta electrons
       nuclear repulsion energy       155.8628020942 Hartrees.
 IExCor=  404 DFT=T Ex=B Corr=P86 ExCW=0 ScaHFX=  0.000000
 ScaDFX=  1.000000  1.000000  1.000000  1.000000 ScalE2=  1.000000  1.000000
 IRadAn=      5 IRanWt=     -1 IRanGd=            0 ICorTp=0 IEmpDi=131
 NAtoms=    8 NActive=    8 NUniq=    8 SFac= 1.00D+00 NAtFMM=   60 NAOKFM=F Big=F
 Integral buffers will be    131072 words long.
 Raffenetti 2 integral format.
 Two-electron integral symmetry is turned on.
 R6Disp:  Grimme-D3 Dispersion energy=       -0.0037222546 Hartrees.
 Nuclear repulsion after empirical dispersion term =      155.8590798396 Hartrees.
 ------------------------------------------------------------------------------
 Polarizable Continuum Model (PCM)
 =================================
 Model                : PCM.
 Atomic radii         : UFF (Universal Force Field).
 Polarization charges : Total charges.
 Charge compensation  : None.
 Solution method      : On-the-fly selection.
 Cavity type          : Scaled VdW (van der Waals Surface) (Alpha=1.100).
 Cavity algorithm     : GePol (No added spheres)
                        Default sphere list used, NSphG=    8.
                        Lebedev-Laikov grids with approx.  5.0 points / Ang**2.
                        Smoothing algorithm: York/Karplus (Gamma=1.0000).
                        Polarization charges: spherical gaussians, with
                                              point-specific exponents (IZeta= 3).
                        Self-potential: point-specific (ISelfS= 7).
                        Self-field    : sphere-specific E.n sum rule (ISelfD= 2).
 1st derivatives      : Analytical E(r).r(x)/FMM algorithm (CHGder, D1EAlg=3).
                        Cavity 1st derivative terms included.
 Solvent              : Water, Eps=  78.355300 Eps(inf)=   1.777849
 ------------------------------------------------------------------------------
 Spheres list:
 ISph  on   Nord     Re0    Alpha      Xe            Ye            Ze
    1   N      1    1.8300  1.100      1.048153      1.152272      0.000024
    2   C      2    1.9255  1.100      0.352406     -0.000001      0.000212
    3   N      3    1.8300  1.100      1.048156     -1.152270      0.000024
    4   S      4    2.0175  1.100     -1.375425     -0.000001     -0.000190
    5   H      5    1.4430  1.100      0.546781      2.029151      0.002628
    6   H      6    1.4430  1.100      2.062315      1.174748     -0.001907
    7   H      7    1.4430  1.100      2.062317     -1.174744     -0.001906
    8   H      8    1.4430  1.100      0.546785     -2.029151      0.002625
 ------------------------------------------------------------------------------
 GePol: Number of generator spheres                  =       8
 GePol: Total number of spheres                      =       8
 GePol: Number of exposed spheres                    =       8 (100.00%)
 GePol: Number of points                             =     937
 GePol: Average weight of points                     =       0.13
 GePol: Minimum weight of points                     =   0.88D-09
 GePol: Maximum weight of points                     =    0.20295
 GePol: Number of points with low weight             =      58
 GePol: Fraction of low-weight points (<1% of avg)   =       6.19%
 GePol: Cavity surface area                          =    123.264 Ang**2
 GePol: Cavity volume                                =    108.569 Ang**3
 Leave Link  301 at Mon Feb 22 21:20:49 2021, MaxMem=   104857600 cpu:               2.2 elap:               0.1
 (Enter /sw/arch/RedHatEnterpriseServer7/EB_production/2019/software/Gaussian/g16.c01/l302.exe)
 NPDir=0 NMtPBC=     1 NCelOv=     1 NCel=       1 NClECP=     1 NCelD=      1
         NCelK=      1 NCelE2=     1 NClLst=     1 CellRange=     0.0.
 One-electron integrals computed using PRISM.
 One-electron integral symmetry used in STVInt
 PrsmSu:  requested number of processors reduced to:  30 ShMem   1 Linda.
 NBasis=   103 RedAO= T EigKep=  1.35D-03  NBF=   103
 NBsUse=   103 1.00D-06 EigRej= -1.00D+00 NBFU=   103
 Precomputing XC quadrature grid using
 IXCGrd= 4 IRadAn=           5 IRanWt=          -1 IRanGd=           0 AccXCQ= 0.00D+00.
 Generated NRdTot=       0 NPtTot=           0 NUsed=           0 NTot=          32
 NSgBfM=   106   106   106   106   106 MxSgAt=     8 MxSgA2=     8.
 Leave Link  302 at Mon Feb 22 21:20:50 2021, MaxMem=   104857600 cpu:               5.3 elap:               0.2
 (Enter /sw/arch/RedHatEnterpriseServer7/EB_production/2019/software/Gaussian/g16.c01/l303.exe)
 DipDrv:  MaxL=1.
 Leave Link  303 at Mon Feb 22 21:20:50 2021, MaxMem=   104857600 cpu:               0.7 elap:               0.0
 (Enter /sw/arch/RedHatEnterpriseServer7/EB_production/2019/software/Gaussian/g16.c01/l401.exe)
 Initial guess from the checkpoint file:  "UMGDCJDMYOKAJW-UHFFFAOYSA-N.chk"
 B after Tr=    -0.000000    0.000000    0.000000
         Rot=    1.000000    0.000000    0.000001    0.000000 Ang=   0.00 deg.
 Guess basis will be translated and rotated to current coordinates.
 JPrj=2 DoOrth=T DoCkMO=T.
 Generating alternative initial guess.
 ExpMin= 9.52D-02 ExpMax= 6.07D+04 ExpMxC= 2.07D+03 IAcc=3 IRadAn=         5 AccDes= 0.00D+00
 Harris functional with IExCor=  404 and IRadAn=       5 diagonalized for initial guess.
 HarFok:  IExCor=  404 AccDes= 0.00D+00 IRadAn=         5 IDoV= 1 UseB2=F ITyADJ=14
 ICtDFT=  3500011 ScaDFX=  1.000000  1.000000  1.000000  1.000000
 FoFCou: FMM=F IPFlag=           0 FMFlag=      100000 FMFlg1=           0
         NFxFlg=           0 DoJE=T BraDBF=F KetDBF=T FulRan=T
         wScrn=  0.000000 ICntrl=       500 IOpCl=  0 I1Cent=   200000004 NGrid=           0
         NMat0=    1 NMatS0=      1 NMatT0=    0 NMatD0=    1 NMtDS0=    0 NMtDT0=    0
 Petite list used in FoFCou.
 Harris En= -548.326744050895    
 Leave Link  401 at Mon Feb 22 21:20:50 2021, MaxMem=   104857600 cpu:               7.9 elap:               0.3
 (Enter /sw/arch/RedHatEnterpriseServer7/EB_production/2019/software/Gaussian/g16.c01/l502.exe)
 Keep J ints in memory in canonical form, NReq=44139902.
 FoFCou: FMM=F IPFlag=           0 FMFlag=           0 FMFlg1=           0
         NFxFlg=           0 DoJE=F BraDBF=F KetDBF=F FulRan=T
         wScrn=  0.000000 ICntrl=       600 IOpCl=  0 I1Cent=           0 NGrid=           0
         NMat0=    1 NMatS0=   5356 NMatT0=    0 NMatD0=    1 NMtDS0=    0 NMtDT0=    0
 Symmetry not used in FoFCou.
 Two-electron integral symmetry not used.
 Closed shell SCF:
 Using DIIS extrapolation, IDIIS=  1040.
 NGot=   104857600 LenX=    90483852 LenY=    90471962
 Requested convergence on RMS density matrix=1.00D-08 within 128 cycles.
 Requested convergence on MAX density matrix=1.00D-06.
 Requested convergence on             energy=1.00D-06.
 No special actions if energy rises.

 Cycle   1  Pass 1  IDiag  1:
 Inv3:  Mode=1 IEnd=     2633907.
 Iteration    1 A*A^-1 deviation from unit magnitude is 2.66D-15 for    390.
 Iteration    1 A*A^-1 deviation from orthogonality  is 1.43D-15 for    145     89.
 Iteration    1 A^-1*A deviation from unit magnitude is 2.55D-15 for    565.
 Iteration    1 A^-1*A deviation from orthogonality  is 7.87D-15 for    420    391.
 E= -548.351568271845    
 DIIS: error= 6.40D-03 at cycle   1 NSaved=   1.
 NSaved= 1 IEnMin= 1 EnMin= -548.351568271845     IErMin= 1 ErrMin= 6.40D-03
 ErrMax= 6.40D-03  0.00D+00 EMaxC= 1.00D-01 BMatC= 3.18D-03 BMatP= 3.18D-03
 IDIUse=3 WtCom= 9.36D-01 WtEn= 6.40D-02
 Coeff-Com:  0.100D+01
 Coeff-En:   0.100D+01
 Coeff:      0.100D+01
 Gap=     0.522 Goal=   None    Shift=    0.000
 GapD=    0.522 DampG=2.000 DampE=1.000 DampFc=2.0000 IDamp=-1.
 RMSDP=5.80D-04 MaxDP=7.55D-03              OVMax= 1.90D-02

 Cycle   2  Pass 1  IDiag  1:
 E= -548.352590681238     Delta-E=       -0.001022409393 Rises=F Damp=F
 DIIS: error= 5.53D-03 at cycle   2 NSaved=   2.
 NSaved= 2 IEnMin= 2 EnMin= -548.352590681238     IErMin= 2 ErrMin= 5.53D-03
 ErrMax= 5.53D-03  0.00D+00 EMaxC= 1.00D-01 BMatC= 1.87D-03 BMatP= 3.18D-03
 IDIUse=3 WtCom= 9.45D-01 WtEn= 5.53D-02
 Coeff-Com:  0.412D+00 0.588D+00
 Coeff-En:   0.312D+00 0.688D+00
 Coeff:      0.406D+00 0.594D+00
 Gap=     0.148 Goal=   None    Shift=    0.000
 RMSDP=5.95D-04 MaxDP=8.10D-03 DE=-1.02D-03 OVMax= 3.67D-02

 Cycle   3  Pass 1  IDiag  1:
 E= -548.353075250811     Delta-E=       -0.000484569572 Rises=F Damp=F
 DIIS: error= 4.07D-03 at cycle   3 NSaved=   3.
 NSaved= 3 IEnMin= 3 EnMin= -548.353075250811     IErMin= 3 ErrMin= 4.07D-03
 ErrMax= 4.07D-03  0.00D+00 EMaxC= 1.00D-01 BMatC= 1.20D-03 BMatP= 1.87D-03
 IDIUse=3 WtCom= 9.59D-01 WtEn= 4.07D-02
 Coeff-Com:  0.487D-01 0.438D+00 0.513D+00
 Coeff-En:   0.000D+00 0.438D+00 0.562D+00
 Coeff:      0.467D-01 0.438D+00 0.515D+00
 Gap=     0.155 Goal=   None    Shift=    0.000
 RMSDP=3.70D-04 MaxDP=6.60D-03 DE=-4.85D-04 OVMax= 2.25D-02

 Cycle   4  Pass 1  IDiag  1:
 E= -548.354267060735     Delta-E=       -0.001191809924 Rises=F Damp=F
 DIIS: error= 6.56D-04 at cycle   4 NSaved=   4.
 NSaved= 4 IEnMin= 4 EnMin= -548.354267060735     IErMin= 4 ErrMin= 6.56D-04
 ErrMax= 6.56D-04  0.00D+00 EMaxC= 1.00D-01 BMatC= 3.56D-05 BMatP= 1.20D-03
 IDIUse=3 WtCom= 9.93D-01 WtEn= 6.56D-03
 Coeff-Com:  0.160D-01 0.224D+00 0.299D+00 0.462D+00
 Coeff-En:   0.000D+00 0.000D+00 0.000D+00 0.100D+01
 Coeff:      0.159D-01 0.222D+00 0.297D+00 0.465D+00
 Gap=     0.154 Goal=   None    Shift=    0.000
 RMSDP=8.01D-05 MaxDP=2.34D-03 DE=-1.19D-03 OVMax= 3.74D-03

 Cycle   5  Pass 1  IDiag  1:
 E= -548.354308712143     Delta-E=       -0.000041651408 Rises=F Damp=F
 DIIS: error= 1.34D-04 at cycle   5 NSaved=   5.
 NSaved= 5 IEnMin= 5 EnMin= -548.354308712143     IErMin= 5 ErrMin= 1.34D-04
 ErrMax= 1.34D-04  0.00D+00 EMaxC= 1.00D-01 BMatC= 1.33D-06 BMatP= 3.56D-05
 IDIUse=3 WtCom= 9.99D-01 WtEn= 1.34D-03
 Coeff-Com:  0.272D-02 0.663D-01 0.995D-01 0.212D+00 0.620D+00
 Coeff-En:   0.000D+00 0.000D+00 0.000D+00 0.000D+00 0.100D+01
 Coeff:      0.272D-02 0.662D-01 0.994D-01 0.211D+00 0.620D+00
 Gap=     0.154 Goal=   None    Shift=    0.000
 RMSDP=8.24D-06 MaxDP=2.13D-04 DE=-4.17D-05 OVMax= 6.41D-04

 Cycle   6  Pass 1  IDiag  1:
 E= -548.354309359069     Delta-E=       -0.000000646926 Rises=F Damp=F
 DIIS: error= 9.73D-05 at cycle   6 NSaved=   6.
 NSaved= 6 IEnMin= 6 EnMin= -548.354309359069     IErMin= 6 ErrMin= 9.73D-05
 ErrMax= 9.73D-05  0.00D+00 EMaxC= 1.00D-01 BMatC= 3.98D-07 BMatP= 1.33D-06
 IDIUse=1 WtCom= 1.00D+00 WtEn= 0.00D+00
 Coeff-Com:  0.138D-03 0.187D-01 0.322D-01 0.824D-01 0.396D+00 0.471D+00
 Coeff:      0.138D-03 0.187D-01 0.322D-01 0.824D-01 0.396D+00 0.471D+00
 Gap=     0.154 Goal=   None    Shift=    0.000
 RMSDP=5.49D-06 MaxDP=1.25D-04 DE=-6.47D-07 OVMax= 2.80D-04

 Cycle   7  Pass 1  IDiag  1:
 E= -548.354309674722     Delta-E=       -0.000000315653 Rises=F Damp=F
 DIIS: error= 8.64D-06 at cycle   7 NSaved=   7.
 NSaved= 7 IEnMin= 7 EnMin= -548.354309674722     IErMin= 7 ErrMin= 8.64D-06
 ErrMax= 8.64D-06  0.00D+00 EMaxC= 1.00D-01 BMatC= 6.06D-09 BMatP= 3.98D-07
 IDIUse=1 WtCom= 1.00D+00 WtEn= 0.00D+00
 Coeff-Com: -0.139D-03 0.244D-02 0.538D-02 0.165D-01 0.982D-01 0.178D+00
 Coeff-Com:  0.700D+00
 Coeff:     -0.139D-03 0.244D-02 0.538D-02 0.165D-01 0.982D-01 0.178D+00
 Coeff:      0.700D+00
 Gap=     0.154 Goal=   None    Shift=    0.000
 RMSDP=1.13D-06 MaxDP=2.45D-05 DE=-3.16D-07 OVMax= 2.56D-05

 Cycle   8  Pass 1  IDiag  1:
 E= -548.354309740537     Delta-E=       -0.000000065815 Rises=F Damp=F
 DIIS: error= 1.38D-06 at cycle   8 NSaved=   8.
 NSaved= 8 IEnMin= 8 EnMin= -548.354309740537     IErMin= 8 ErrMin= 1.38D-06
 ErrMax= 1.38D-06  0.00D+00 EMaxC= 1.00D-01 BMatC= 1.53D-10 BMatP= 6.06D-09
 IDIUse=1 WtCom= 1.00D+00 WtEn= 0.00D+00
 Coeff-Com: -0.289D-04 0.262D-03 0.766D-03 0.281D-02 0.166D-01 0.384D-01
 Coeff-Com:  0.222D+00 0.720D+00
 Coeff:     -0.289D-04 0.262D-03 0.766D-03 0.281D-02 0.166D-01 0.384D-01
 Coeff:      0.222D+00 0.720D+00
 Gap=     0.154 Goal=   None    Shift=    0.000
 RMSDP=2.87D-07 MaxDP=6.68D-06 DE=-6.58D-08 OVMax= 5.31D-06

 Cycle   9  Pass 1  IDiag  1:
 E= -548.354309740710     Delta-E=       -0.000000000173 Rises=F Damp=F
 DIIS: error= 3.34D-07 at cycle   9 NSaved=   9.
 NSaved= 9 IEnMin= 9 EnMin= -548.354309740710     IErMin= 9 ErrMin= 3.34D-07
 ErrMax= 3.34D-07  0.00D+00 EMaxC= 1.00D-01 BMatC= 7.52D-12 BMatP= 1.53D-10
 IDIUse=1 WtCom= 1.00D+00 WtEn= 0.00D+00
 Coeff-Com: -0.340D-05-0.310D-04-0.413D-04 0.164D-03 0.333D-03 0.327D-02
 Coeff-Com:  0.318D-01 0.207D+00 0.758D+00
 Coeff:     -0.340D-05-0.310D-04-0.413D-04 0.164D-03 0.333D-03 0.327D-02
 Coeff:      0.318D-01 0.207D+00 0.758D+00
 Gap=     0.154 Goal=   None    Shift=    0.000
 RMSDP=3.63D-08 MaxDP=5.29D-07 DE=-1.73D-10 OVMax= 1.68D-06

 Cycle  10  Pass 1  IDiag  1:
 E= -548.354309740719     Delta-E=       -0.000000000009 Rises=F Damp=F
 DIIS: error= 1.43D-08 at cycle  10 NSaved=  10.
 NSaved=10 IEnMin=10 EnMin= -548.354309740719     IErMin=10 ErrMin= 1.43D-08
 ErrMax= 1.43D-08  0.00D+00 EMaxC= 1.00D-01 BMatC= 2.03D-14 BMatP= 7.52D-12
 IDIUse=1 WtCom= 1.00D+00 WtEn= 0.00D+00
 Coeff-Com:  0.746D-07-0.101D-04-0.192D-04-0.521D-04-0.224D-03-0.370D-03
 Coeff-Com: -0.161D-02 0.604D-02 0.334D-01 0.963D+00
 Coeff:      0.746D-07-0.101D-04-0.192D-04-0.521D-04-0.224D-03-0.370D-03
 Coeff:     -0.161D-02 0.604D-02 0.334D-01 0.963D+00
 Gap=     0.154 Goal=   None    Shift=    0.000
 RMSDP=3.43D-09 MaxDP=7.24D-08 DE=-9.21D-12 OVMax= 8.34D-08

 Error on total polarization charges =  0.01475
 SCF Done:  E(RB-P86) =  -548.354309741     A.U. after   10 cycles
            NFock= 10  Conv=0.34D-08     -V/T= 2.0036
 KE= 5.463961375932D+02 PE=-1.608792034680D+03 EE= 3.581825075064D+02
 Leave Link  502 at Mon Feb 22 21:20:52 2021, MaxMem=   104857600 cpu:              60.3 elap:               2.2
 (Enter /sw/arch/RedHatEnterpriseServer7/EB_production/2019/software/Gaussian/g16.c01/l701.exe)
 ... and contract with generalized density number  0.
 Compute integral first derivatives.
 R6Disp: Adding Grimme-D3 dispersion energy 1st derivatives to the gradient.
 PrsmSu:  requested number of processors reduced to:  30 ShMem   1 Linda.
 D1PCM: PCM CHGder 1st derivatives, ID1Alg=3 FixD1E=F DoIter=F DoCFld=F I1PDM=0.
 GePol: Maximum number of non-zero 1st derivatives   =     339
 CoulSu:  requested number of processors reduced to:  29 ShMem   1 Linda.
 CoulSu:  requested number of processors reduced to:  30 ShMem   1 Linda.
 Leave Link  701 at Mon Feb 22 21:20:53 2021, MaxMem=   104857600 cpu:              12.7 elap:               0.4
 (Enter /sw/arch/RedHatEnterpriseServer7/EB_production/2019/software/Gaussian/g16.c01/l702.exe)
 L702 exits ... SP integral derivatives will be done elsewhere.
 Leave Link  702 at Mon Feb 22 21:20:53 2021, MaxMem=   104857600 cpu:               0.9 elap:               0.1
 (Enter /sw/arch/RedHatEnterpriseServer7/EB_production/2019/software/Gaussian/g16.c01/l703.exe)
 Integral derivatives from FoFJK, PRISM(SPDF).
 Compute integral first derivatives, UseDBF=F ICtDFT=           0.
 Calling FoFJK, ICntrl=      2527 FMM=F ISym2X=0 I1Cent= 0 IOpClX= 0 NMat=1 NMatS=1 NMatT=0.
 FoFJK:  IHMeth= 1 ICntrl=    2527 DoSepK=F KAlg= 0 I1Cent=           0 FoldK=F
 IRaf=         0 NMat=       1 IRICut=       1 DoRegI=T DoRafI=F ISym2E= 0 IDoP0=0 IntGTp=1.
 FoFCou: FMM=F IPFlag=           0 FMFlag=      100000 FMFlg1=         800
         NFxFlg=           0 DoJE=F BraDBF=F KetDBF=F FulRan=T
         wScrn=  0.000000 ICntrl=      2527 IOpCl=  0 I1Cent=           0 NGrid=           0
         NMat0=    1 NMatS0=      1 NMatT0=    0 NMatD0=    1 NMtDS0=    0 NMtDT0=    0
 Symmetry not used in FoFCou.
 Leave Link  703 at Mon Feb 22 21:20:53 2021, MaxMem=   104857600 cpu:              13.2 elap:               0.5
 (Enter /sw/arch/RedHatEnterpriseServer7/EB_production/2019/software/Gaussian/g16.c01/l716.exe)
 Dipole        = 3.12538614D+00-3.30556310D-06 8.56734527D-04
 ***** Axes restored to original set *****
 -------------------------------------------------------------------
 Center     Atomic                   Forces (Hartrees/Bohr)
 Number     Number              X              Y              Z
 -------------------------------------------------------------------
      1        7           0.001840198   -0.000066263   -0.002077048
      2        6          -0.004996972   -0.000783623    0.009537157
      3        7           0.000632176    0.000416483   -0.002669653
      4       16           0.001599194    0.000313256   -0.003002288
      5        1          -0.002572454    0.000656955    0.000075240
      6        1           0.000088558    0.000580752   -0.002415234
      7        1           0.001986586   -0.000177706   -0.001484378
      8        1           0.001422715   -0.000939853    0.002036204
 -------------------------------------------------------------------
 Cartesian Forces:  Max     0.009537157 RMS     0.002662109
 Leave Link  716 at Mon Feb 22 21:20:53 2021, MaxMem=   104857600 cpu:               1.2 elap:               0.1
 (Enter /sw/arch/RedHatEnterpriseServer7/EB_production/2019/software/Gaussian/g16.c01/l103.exe)

 GradGradGradGradGradGradGradGradGradGradGradGradGradGradGradGradGradGrad
 Berny optimization.
 Using GEDIIS/GDIIS optimizer.
 FormGI is forming the generalized inverse of G from B-inverse, IUseBI=4.
 Internal  Forces:  Max     0.004281507 RMS     0.001847529
 Search for a local minimum.
 Step number   2 out of a maximum of   34
 All quantities printed in internal units (Hartrees-Bohrs-Radians)
 RMS Force = .18475D-02 SwitMx=.10000D-02 MixMth= 1
 Mixed Optimization -- RFO/linear search
 Update second derivatives using D2CorX and points    1    2
 DE= -1.14D-02 DEPred=-1.15D-02 R= 9.85D-01
 TightC=F SS=  1.41D+00  RLast= 2.09D-01 DXNew= 5.0454D-01 6.2707D-01
 Trust test= 9.85D-01 RLast= 2.09D-01 DXMaxT set to 5.05D-01
 ITU=  1  0
 Use linear search instead of GDIIS.
     Eigenvalues ---    0.02860   0.02860   0.02860   0.02860   0.02860
     Eigenvalues ---    0.15930   0.16000   0.16000   0.16000   0.24889
     Eigenvalues ---    0.25000   0.36544   0.52691   0.53218   0.53328
     Eigenvalues ---    0.53495   0.62446   0.64042
 RFO step:  Lambda=-1.07041624D-04 EMin= 2.85957412D-02
 Quartic linear search produced a step of  0.07784.
 Iteration  1 RMS(Cart)=  0.00518138 RMS(Int)=  0.00001653
 Iteration  2 RMS(Cart)=  0.00001689 RMS(Int)=  0.00000005
 Iteration  3 RMS(Cart)=  0.00000000 RMS(Int)=  0.00000005
 ITry= 1 IFail=0 DXMaxC= 1.37D-02 DCOld= 1.00D+10 DXMaxT= 5.05D-01 DXLimC= 3.00D+00 Rises=F
 Variable       Old X    -DE/DX   Delta X   Delta X   Delta X     New X
                                 (Linear)    (Quad)   (Total)
    R1        2.54363   0.00428   0.00505   0.00271   0.00776   2.55139
    R2        1.90881   0.00265   0.00578   0.00029   0.00608   1.91489
    R3        1.91696   0.00224   0.00650  -0.00118   0.00532   1.92228
    R4        2.54362   0.00428   0.00505   0.00272   0.00776   2.55139
    R5        3.26513  -0.00342   0.00403  -0.01368  -0.00964   3.25548
    R6        1.91696   0.00224   0.00650  -0.00118   0.00532   1.92228
    R7        1.90881   0.00265   0.00578   0.00029   0.00608   1.91489
    A1        2.07898  -0.00053  -0.00131  -0.00261  -0.00392   2.07506
    A2        2.13617   0.00129   0.00309   0.00647   0.00956   2.14573
    A3        2.06804  -0.00077  -0.00178  -0.00386  -0.00564   2.06240
    A4        2.05517  -0.00171  -0.00337  -0.00468  -0.00804   2.04712
    A5        2.11401   0.00086   0.00168   0.00234   0.00402   2.11803
    A6        2.11401   0.00086   0.00168   0.00234   0.00402   2.11803
    A7        2.13617   0.00129   0.00309   0.00647   0.00956   2.14573
    A8        2.07897  -0.00053  -0.00131  -0.00261  -0.00392   2.07506
    A9        2.06804  -0.00076  -0.00178  -0.00386  -0.00564   2.06240
    D1       -3.13880  -0.00005  -0.00026  -0.00197  -0.00223  -3.14103
    D2        0.00339  -0.00006  -0.00007  -0.00227  -0.00234   0.00105
    D3        0.00193  -0.00004  -0.00019  -0.00137  -0.00156   0.00037
    D4       -3.13907  -0.00004   0.00001  -0.00167  -0.00167  -3.14074
    D5       -0.00193   0.00004   0.00019   0.00137   0.00156  -0.00037
    D6        3.13880   0.00005   0.00026   0.00197   0.00223   3.14103
    D7        3.13907   0.00004  -0.00001   0.00167   0.00167   3.14074
    D8       -0.00338   0.00006   0.00007   0.00227   0.00234  -0.00104
         Item               Value     Threshold  Converged?
 Maximum Force            0.004282     0.000450     NO 
 RMS     Force            0.001848     0.000300     NO 
 Maximum Displacement     0.013653     0.001800     NO 
 RMS     Displacement     0.005175     0.001200     NO 
 Predicted change in Energy=-9.829484D-05
 Lowest energy point so far.  Saving SCF results.
 GradGradGradGradGradGradGradGradGradGradGradGradGradGradGradGradGradGrad

 Leave Link  103 at Mon Feb 22 21:20:53 2021, MaxMem=   104857600 cpu:               3.2 elap:               0.1
 (Enter /sw/arch/RedHatEnterpriseServer7/EB_production/2019/software/Gaussian/g16.c01/l202.exe)
                          Input orientation:                          
 ---------------------------------------------------------------------
 Center     Atomic      Atomic             Coordinates (Angstroms)
 Number     Number       Type             X           Y           Z
 ---------------------------------------------------------------------
      1          7           0       -0.483687    0.791237   -1.691076
      2          6           0        0.165884    0.352420   -0.591817
      3          7           0        1.464692    0.012475   -0.734665
      4         16           0       -0.630345    0.230530    0.930993
      5          1           0       -1.459236    1.053421   -1.611273
      6          1           0       -0.037714    0.872006   -2.601756
      7          1           0        1.958269    0.074215   -1.621978
      8          1           0        1.975768   -0.319544    0.074883
 ---------------------------------------------------------------------
                    Distance matrix (angstroms):
                    1          2          3          4          5
     1  N    0.000000
     2  C    1.350138   0.000000
     3  N    2.305943   1.350137   0.000000
     4  S    2.685357   1.722727   2.685357   0.000000
     5  H    1.013314   2.042476   3.225115   2.797736   0.000000
     6  H    1.017229   2.085971   2.545986   3.639096   1.742037
     7  H    2.545987   2.085971   1.017229   3.639096   3.555039
     8  H    3.225115   2.042476   1.013314   2.797737   4.065392
                    6          7          8
     6  H    0.000000
     7  H    2.362284   0.000000
     8  H    3.555039   1.742037   0.000000
 Stoichiometry    CH4N2S
 Framework group  C1[X(CH4N2S)]
 Deg. of freedom    18
 Full point group                 C1      NOp   1
 RotChk:  IX=0 Diff= 6.84D-04
 Largest Abelian subgroup         C1      NOp   1
 Largest concise Abelian subgroup C1      NOp   1
                         Standard orientation:                         
 ---------------------------------------------------------------------
 Center     Atomic      Atomic             Coordinates (Angstroms)
 Number     Number       Type             X           Y           Z
 ---------------------------------------------------------------------
      1          7           0        1.049776    1.152972   -0.000006
      2          6           0        0.347261   -0.000000    0.000181
      3          7           0        1.049777   -1.152971   -0.000005
      4         16           0       -1.375466   -0.000000   -0.000067
      5          1           0        0.546895    2.032696    0.000630
      6          1           0        2.066615    1.181143   -0.000595
      7          1           0        2.066615   -1.181142   -0.000595
      8          1           0        0.546897   -2.032696    0.000628
 ---------------------------------------------------------------------
 Rotational constants (GHZ):          10.4481531           4.9711380           3.3684566
 Leave Link  202 at Mon Feb 22 21:20:54 2021, MaxMem=   104857600 cpu:               1.0 elap:               0.1
 (Enter /sw/arch/RedHatEnterpriseServer7/EB_production/2019/software/Gaussian/g16.c01/l301.exe)
 Standard basis: TZVP (5D, 7F)
 Ernie: Thresh=  0.10000D-02 Tol=  0.10000D-05 Strict=F.
 There are   107 symmetry adapted cartesian basis functions of A   symmetry.
 There are   103 symmetry adapted basis functions of A   symmetry.
   103 basis functions,   184 primitive gaussians,   107 cartesian basis functions
    20 alpha electrons       20 beta electrons
       nuclear repulsion energy       155.7178624607 Hartrees.
 IExCor=  404 DFT=T Ex=B Corr=P86 ExCW=0 ScaHFX=  0.000000
 ScaDFX=  1.000000  1.000000  1.000000  1.000000 ScalE2=  1.000000  1.000000
 IRadAn=      5 IRanWt=     -1 IRanGd=            0 ICorTp=0 IEmpDi=131
 NAtoms=    8 NActive=    8 NUniq=    8 SFac= 1.00D+00 NAtFMM=   60 NAOKFM=F Big=F
 Integral buffers will be    131072 words long.
 Raffenetti 2 integral format.
 Two-electron integral symmetry is turned on.
 R6Disp:  Grimme-D3 Dispersion energy=       -0.0037349971 Hartrees.
 Nuclear repulsion after empirical dispersion term =      155.7141274635 Hartrees.
 ------------------------------------------------------------------------------
 Polarizable Continuum Model (PCM)
 =================================
 Model                : PCM.
 Atomic radii         : UFF (Universal Force Field).
 Polarization charges : Total charges.
 Charge compensation  : None.
 Solution method      : On-the-fly selection.
 Cavity type          : Scaled VdW (van der Waals Surface) (Alpha=1.100).
 Cavity algorithm     : GePol (No added spheres)
                        Default sphere list used, NSphG=    8.
                        Lebedev-Laikov grids with approx.  5.0 points / Ang**2.
                        Smoothing algorithm: York/Karplus (Gamma=1.0000).
                        Polarization charges: spherical gaussians, with
                                              point-specific exponents (IZeta= 3).
                        Self-potential: point-specific (ISelfS= 7).
                        Self-field    : sphere-specific E.n sum rule (ISelfD= 2).
 1st derivatives      : Analytical E(r).r(x)/FMM algorithm (CHGder, D1EAlg=3).
                        Cavity 1st derivative terms included.
 Solvent              : Water, Eps=  78.355300 Eps(inf)=   1.777849
 ------------------------------------------------------------------------------
 Spheres list:
 ISph  on   Nord     Re0    Alpha      Xe            Ye            Ze
    1   N      1    1.8300  1.100      1.049776      1.152972     -0.000006
    2   C      2    1.9255  1.100      0.347261     -0.000000      0.000181
    3   N      3    1.8300  1.100      1.049777     -1.152971     -0.000005
    4   S      4    2.0175  1.100     -1.375466     -0.000000     -0.000067
    5   H      5    1.4430  1.100      0.546895      2.032696      0.000630
    6   H      6    1.4430  1.100      2.066615      1.181143     -0.000595
    7   H      7    1.4430  1.100      2.066615     -1.181142     -0.000595
    8   H      8    1.4430  1.100      0.546897     -2.032696      0.000628
 ------------------------------------------------------------------------------
 GePol: Number of generator spheres                  =       8
 GePol: Total number of spheres                      =       8
 GePol: Number of exposed spheres                    =       8 (100.00%)
 GePol: Number of points                             =     935
 GePol: Average weight of points                     =       0.13
 GePol: Minimum weight of points                     =   0.59D-08
 GePol: Maximum weight of points                     =    0.20292
 GePol: Number of points with low weight             =      58
 GePol: Fraction of low-weight points (<1% of avg)   =       6.20%
 GePol: Cavity surface area                          =    123.359 Ang**2
 GePol: Cavity volume                                =    108.667 Ang**3
 Leave Link  301 at Mon Feb 22 21:20:54 2021, MaxMem=   104857600 cpu:               1.7 elap:               0.1
 (Enter /sw/arch/RedHatEnterpriseServer7/EB_production/2019/software/Gaussian/g16.c01/l302.exe)
 NPDir=0 NMtPBC=     1 NCelOv=     1 NCel=       1 NClECP=     1 NCelD=      1
         NCelK=      1 NCelE2=     1 NClLst=     1 CellRange=     0.0.
 One-electron integrals computed using PRISM.
 One-electron integral symmetry used in STVInt
 PrsmSu:  requested number of processors reduced to:  30 ShMem   1 Linda.
 NBasis=   103 RedAO= T EigKep=  1.37D-03  NBF=   103
 NBsUse=   103 1.00D-06 EigRej= -1.00D+00 NBFU=   103
 Precomputing XC quadrature grid using
 IXCGrd= 4 IRadAn=           5 IRanWt=          -1 IRanGd=           0 AccXCQ= 0.00D+00.
 Generated NRdTot=       0 NPtTot=           0 NUsed=           0 NTot=          32
 NSgBfM=   106   106   106   106   106 MxSgAt=     8 MxSgA2=     8.
 Leave Link  302 at Mon Feb 22 21:20:54 2021, MaxMem=   104857600 cpu:               4.7 elap:               0.2
 (Enter /sw/arch/RedHatEnterpriseServer7/EB_production/2019/software/Gaussian/g16.c01/l303.exe)
 DipDrv:  MaxL=1.
 Leave Link  303 at Mon Feb 22 21:20:54 2021, MaxMem=   104857600 cpu:               1.8 elap:               0.1
 (Enter /sw/arch/RedHatEnterpriseServer7/EB_production/2019/software/Gaussian/g16.c01/l401.exe)
 Initial guess from the checkpoint file:  "UMGDCJDMYOKAJW-UHFFFAOYSA-N.chk"
 B after Tr=    -0.000000    0.000000    0.000000
         Rot=    1.000000    0.000000    0.000000    0.000000 Ang=   0.00 deg.
 Guess basis will be translated and rotated to current coordinates.
 JPrj=2 DoOrth=T DoCkMO=T.
 Leave Link  401 at Mon Feb 22 21:20:54 2021, MaxMem=   104857600 cpu:               3.1 elap:               0.1
 (Enter /sw/arch/RedHatEnterpriseServer7/EB_production/2019/software/Gaussian/g16.c01/l502.exe)
 Keep J ints in memory in canonical form, NReq=44139902.
 FoFCou: FMM=F IPFlag=           0 FMFlag=           0 FMFlg1=           0
         NFxFlg=           0 DoJE=F BraDBF=F KetDBF=F FulRan=T
         wScrn=  0.000000 ICntrl=       600 IOpCl=  0 I1Cent=           0 NGrid=           0
         NMat0=    1 NMatS0=   5356 NMatT0=    0 NMatD0=    1 NMtDS0=    0 NMtDT0=    0
 Symmetry not used in FoFCou.
 Two-electron integral symmetry not used.
 Closed shell SCF:
 Using DIIS extrapolation, IDIIS=  1040.
 NGot=   104857600 LenX=    90483852 LenY=    90471962
 Requested convergence on RMS density matrix=1.00D-08 within 128 cycles.
 Requested convergence on MAX density matrix=1.00D-06.
 Requested convergence on             energy=1.00D-06.
 No special actions if energy rises.

 Cycle   1  Pass 1  IDiag  1:
 Inv3:  Mode=1 IEnd=     2622675.
 Iteration    1 A*A^-1 deviation from unit magnitude is 2.89D-15 for    722.
 Iteration    1 A*A^-1 deviation from orthogonality  is 1.66D-15 for    341     25.
 Iteration    1 A^-1*A deviation from unit magnitude is 2.89D-15 for    722.
 Iteration    1 A^-1*A deviation from orthogonality  is 6.96D-15 for    417    389.
 E= -548.354392822086    
 DIIS: error= 6.97D-04 at cycle   1 NSaved=   1.
 NSaved= 1 IEnMin= 1 EnMin= -548.354392822086     IErMin= 1 ErrMin= 6.97D-04
 ErrMax= 6.97D-04  0.00D+00 EMaxC= 1.00D-01 BMatC= 3.87D-05 BMatP= 3.87D-05
 IDIUse=3 WtCom= 9.93D-01 WtEn= 6.97D-03
 Coeff-Com:  0.100D+01
 Coeff-En:   0.100D+01
 Coeff:      0.100D+01
 Gap=     0.512 Goal=   None    Shift=    0.000
 RMSDP=8.72D-05 MaxDP=1.24D-03              OVMax= 2.49D-03

 Cycle   2  Pass 1  IDiag  1:
 E= -548.354426272385     Delta-E=       -0.000033450299 Rises=F Damp=F
 DIIS: error= 5.23D-04 at cycle   2 NSaved=   2.
 NSaved= 2 IEnMin= 2 EnMin= -548.354426272385     IErMin= 2 ErrMin= 5.23D-04
 ErrMax= 5.23D-04  0.00D+00 EMaxC= 1.00D-01 BMatC= 1.49D-05 BMatP= 3.87D-05
 IDIUse=3 WtCom= 9.95D-01 WtEn= 5.23D-03
 Coeff-Com:  0.340D+00 0.660D+00
 Coeff-En:   0.000D+00 0.100D+01
 Coeff:      0.339D+00 0.661D+00
 Gap=     0.154 Goal=   None    Shift=    0.000
 RMSDP=4.00D-05 MaxDP=7.42D-04 DE=-3.35D-05 OVMax= 2.30D-03

 Cycle   3  Pass 1  IDiag  1:
 E= -548.354427361437     Delta-E=       -0.000001089052 Rises=F Damp=F
 DIIS: error= 4.75D-04 at cycle   3 NSaved=   3.
 NSaved= 3 IEnMin= 3 EnMin= -548.354427361437     IErMin= 3 ErrMin= 4.75D-04
 ErrMax= 4.75D-04  0.00D+00 EMaxC= 1.00D-01 BMatC= 1.18D-05 BMatP= 1.49D-05
 IDIUse=3 WtCom= 9.95D-01 WtEn= 4.75D-03
 Coeff-Com:  0.259D-01 0.467D+00 0.507D+00
 Coeff-En:   0.000D+00 0.481D+00 0.519D+00
 Coeff:      0.257D-01 0.467D+00 0.507D+00
 Gap=     0.154 Goal=   None    Shift=    0.000
 RMSDP=2.91D-05 MaxDP=5.71D-04 DE=-1.09D-06 OVMax= 1.87D-03

 Cycle   4  Pass 1  IDiag  1:
 E= -548.354437437958     Delta-E=       -0.000010076521 Rises=F Damp=F
 DIIS: error= 8.12D-05 at cycle   4 NSaved=   4.
 NSaved= 4 IEnMin= 4 EnMin= -548.354437437958     IErMin= 4 ErrMin= 8.12D-05
 ErrMax= 8.12D-05  0.00D+00 EMaxC= 1.00D-01 BMatC= 3.05D-07 BMatP= 1.18D-05
 IDIUse=1 WtCom= 1.00D+00 WtEn= 0.00D+00
 Coeff-Com:  0.775D-02 0.200D+00 0.269D+00 0.523D+00
 Coeff:      0.775D-02 0.200D+00 0.269D+00 0.523D+00
 Gap=     0.154 Goal=   None    Shift=    0.000
 RMSDP=9.91D-06 MaxDP=1.71D-04 DE=-1.01D-05 OVMax= 4.95D-04

 Cycle   5  Pass 1  IDiag  1:
 E= -548.354437806684     Delta-E=       -0.000000368726 Rises=F Damp=F
 DIIS: error= 2.98D-05 at cycle   5 NSaved=   5.
 NSaved= 5 IEnMin= 5 EnMin= -548.354437806684     IErMin= 5 ErrMin= 2.98D-05
 ErrMax= 2.98D-05  0.00D+00 EMaxC= 1.00D-01 BMatC= 4.68D-08 BMatP= 3.05D-07
 IDIUse=1 WtCom= 1.00D+00 WtEn= 0.00D+00
 Coeff-Com:  0.121D-02 0.860D-01 0.131D+00 0.323D+00 0.458D+00
 Coeff:      0.121D-02 0.860D-01 0.131D+00 0.323D+00 0.458D+00
 Gap=     0.154 Goal=   None    Shift=    0.000
 RMSDP=2.01D-06 MaxDP=3.56D-05 DE=-3.69D-07 OVMax= 9.07D-05

 Cycle   6  Pass 1  IDiag  1:
 E= -548.354437847378     Delta-E=       -0.000000040694 Rises=F Damp=F
 DIIS: error= 8.53D-06 at cycle   6 NSaved=   6.
 NSaved= 6 IEnMin= 6 EnMin= -548.354437847378     IErMin= 6 ErrMin= 8.53D-06
 ErrMax= 8.53D-06  0.00D+00 EMaxC= 1.00D-01 BMatC= 3.74D-09 BMatP= 4.68D-08
 IDIUse=1 WtCom= 1.00D+00 WtEn= 0.00D+00
 Coeff-Com:  0.323D-04 0.183D-01 0.360D-01 0.109D+00 0.259D+00 0.578D+00
 Coeff:      0.323D-04 0.183D-01 0.360D-01 0.109D+00 0.259D+00 0.578D+00
 Gap=     0.154 Goal=   None    Shift=    0.000
 RMSDP=5.40D-07 MaxDP=1.02D-05 DE=-4.07D-08 OVMax= 2.40D-05

 Cycle   7  Pass 1  IDiag  1:
 E= -548.354437850976     Delta-E=       -0.000000003598 Rises=F Damp=F
 DIIS: error= 1.37D-06 at cycle   7 NSaved=   7.
 NSaved= 7 IEnMin= 7 EnMin= -548.354437850976     IErMin= 7 ErrMin= 1.37D-06
 ErrMax= 1.37D-06  0.00D+00 EMaxC= 1.00D-01 BMatC= 1.59D-10 BMatP= 3.74D-09
 IDIUse=1 WtCom= 1.00D+00 WtEn= 0.00D+00
 Coeff-Com: -0.908D-04 0.305D-02 0.888D-02 0.330D-01 0.899D-01 0.279D+00
 Coeff-Com:  0.586D+00
 Coeff:     -0.908D-04 0.305D-02 0.888D-02 0.330D-01 0.899D-01 0.279D+00
 Coeff:      0.586D+00
 Gap=     0.154 Goal=   None    Shift=    0.000
 RMSDP=1.87D-07 MaxDP=4.82D-06 DE=-3.60D-09 OVMax= 4.61D-06

 Cycle   8  Pass 1  IDiag  1:
 E= -548.354437851144     Delta-E=       -0.000000000168 Rises=F Damp=F
 DIIS: error= 2.81D-07 at cycle   8 NSaved=   8.
 NSaved= 8 IEnMin= 8 EnMin= -548.354437851144     IErMin= 8 ErrMin= 2.81D-07
 ErrMax= 2.81D-07  0.00D+00 EMaxC= 1.00D-01 BMatC= 5.20D-12 BMatP= 1.59D-10
 IDIUse=1 WtCom= 1.00D+00 WtEn= 0.00D+00
 Coeff-Com: -0.260D-04-0.278D-03-0.388D-04 0.259D-02 0.344D-02 0.351D-01
 Coeff-Com:  0.169D+00 0.791D+00
 Coeff:     -0.260D-04-0.278D-03-0.388D-04 0.259D-02 0.344D-02 0.351D-01
 Coeff:      0.169D+00 0.791D+00
 Gap=     0.154 Goal=   None    Shift=    0.000
 RMSDP=3.30D-08 MaxDP=9.78D-07 DE=-1.68D-10 OVMax= 1.53D-06

 Cycle   9  Pass 1  IDiag  1:
 E= -548.354437851152     Delta-E=       -0.000000000008 Rises=F Damp=F
 DIIS: error= 1.48D-08 at cycle   9 NSaved=   9.
 NSaved= 9 IEnMin= 9 EnMin= -548.354437851152     IErMin= 9 ErrMin= 1.48D-08
[...]
 J. V. Ortiz, A. F. Izmaylov, J. L. Sonnenberg, D. Williams-Young, 
 F. Ding, F. Lipparini, F. Egidi, J. Goings, B. Peng, A. Petrone, 
 T. Henderson, D. Ranasinghe, V. G. Zakrzewski, J. Gao, N. Rega, 
 G. Zheng, W. Liang, M. Hada, M. Ehara, K. Toyota, R. Fukuda, 
 J. Hasegawa, M. Ishida, T. Nakajima, Y. Honda, O. Kitao, H. Nakai, 
 T. Vreven, K. Throssell, J. A. Montgomery, Jr., J. E. Peralta, 
 F. Ogliaro, M. J. Bearpark, J. J. Heyd, E. N. Brothers, K. N. Kudin, 
 V. N. Staroverov, T. A. Keith, R. Kobayashi, J. Normand, 
 K. Raghavachari, A. P. Rendell, J. C. Burant, S. S. Iyengar, 
 J. Tomasi, M. Cossi, J. M. Millam, M. Klene, C. Adamo, R. Cammi, 
 J. W. Ochterski, R. L. Martin, K. Morokuma, O. Farkas, 
 J. B. Foresman, and D. J. Fox, Gaussian, Inc., Wallingford CT, 2019.
 
 ******************************************
 Gaussian 16:  ES64L-G16RevC.01  3-Jul-2019
                22-Feb-2021 
 ******************************************
 %chk=UMGDCJDMYOKAJW-UHFFFAOYSA-N.chk
 %NProcShared=32
 Will use up to   32 processors via shared memory.
 ---------------------------------------------------------
 # BP86/TZVP SCRF=COSMORS geom=CHECKPOINT guess=CHECKPOINT
 ---------------------------------------------------------
 1/29=2,38=1,172=1/1;
 2/12=2,40=1/2;
 3/5=19,7=101,11=2,14=-4,25=1,30=1,70=12101,74=404,116=-2/1,2,3;
 4/5=1/1;
 5/5=2,38=6/2;
 6/7=2,8=2,9=2,10=2,28=1/1;
 99/5=1,9=1/99;
 -------------------------------------------
 COSMO-file for #UMGDCJDMYOKAJW-UHFFFAOYSA-N
 -------------------------------------------
 Structure from the checkpoint file:  "UMGDCJDMYOKAJW-UHFFFAOYSA-N.chk"
 Charge =  0 Multiplicity = 1
 Redundant internal coordinates found in file.  (old form).
 N,0,-0.48380419,0.7912189035,-1.6908687586
 C,0,0.1642681545,0.3522400301,-0.5886731864
 N,0,1.4645863731,0.0124516031,-0.7344527851
 S,0,-0.6293958739,0.2311553819,0.92956869
 H,0,-1.4596074148,1.0533166819,-1.6133520847
 H,0,-0.0367133738,0.8718342195,-2.6006564618
 H,0,1.956972206,0.0749618865,-1.6220064157
 H,0,1.9773241126,-0.3204187039,0.0737509992
 Recover connectivity data from disk.
                           ----------------------------
                           !    Current Parameters    !
                           ! (Angstroms and Degrees)  !
 --------------------------                            --------------------------
 ! Name  Definition              Value                                          !
 --------------------------------------------------------------------------------
 ! R1    R(1,2)                  1.3519                                         !
 ! R2    R(1,5)                  1.0134                                         !
 ! R3    R(1,6)                  1.0169                                         !
 ! R4    R(2,3)                  1.3519                                         !
 ! R5    R(2,4)                  1.7174                                         !
 ! R6    R(3,7)                  1.0169                                         !
 ! R7    R(3,8)                  1.0134                                         !
 ! A1    A(2,1,5)              118.8975                                         !
 ! A2    A(2,1,6)              122.984                                          !
 ! A3    A(5,1,6)              118.1185                                         !
 ! A4    A(1,2,3)              117.0528                                         !
 ! A5    A(1,2,4)              121.4736                                         !
 ! A6    A(3,2,4)              121.4736                                         !
 ! A7    A(2,3,7)              122.984                                          !
 ! A8    A(2,3,8)              118.8975                                         !
 ! A9    A(7,3,8)              118.1185                                         !
 ! D1    D(5,1,2,3)            179.9874                                         !
 ! D2    D(5,1,2,4)              0.0043                                         !
 ! D3    D(6,1,2,3)             -0.0095                                         !
 ! D4    D(6,1,2,4)           -179.9926                                         !
 ! D5    D(1,2,3,7)              0.0095                                         !
 ! D6    D(1,2,3,8)           -179.9873                                         !
 ! D7    D(4,2,3,7)            179.9926                                         !
 ! D8    D(4,2,3,8)             -0.0042                                         !
 --------------------------------------------------------------------------------
                          Input orientation:                          
 ---------------------------------------------------------------------
 Center     Atomic      Atomic             Coordinates (Angstroms)
 Number     Number       Type             X           Y           Z
 ---------------------------------------------------------------------
      1          7           0       -0.483804    0.791219   -1.690869
      2          6           0        0.164268    0.352240   -0.588673
      3          7           0        1.464586    0.012452   -0.734453
      4         16           0       -0.629396    0.231155    0.929569
      5          1           0       -1.459607    1.053317   -1.613352
      6          1           0       -0.036713    0.871834   -2.600656
      7          1           0        1.956972    0.074962   -1.622006
      8          1           0        1.977324   -0.320419    0.073751
 ---------------------------------------------------------------------
                    Distance matrix (angstroms):
                    1          2          3          4          5
     1  N    0.000000
     2  C    1.351864   0.000000
     3  N    2.305957   1.351864   0.000000
     4  S    2.683572   1.717446   2.683572   0.000000
     5  H    1.013359   2.044125   3.225953   2.798508   0.000000
     6  H    1.016908   2.087690   2.544633   3.636514   1.741360
     7  H    2.544633   2.087690   1.016908   3.636514   3.553909
     8  H    3.225953   2.044125   1.013359   2.798508   4.067673
                    6          7          8
     6  H    0.000000
     7  H    2.359564   0.000000
     8  H    3.553909   1.741360   0.000000
 Stoichiometry    CH4N2S
 Framework group  C1[X(CH4N2S)]
 Deg. of freedom    18
 Full point group                 C1      NOp   1
 Largest Abelian subgroup         C1      NOp   1
 Largest concise Abelian subgroup C1      NOp   1
                         Standard orientation:                         
 ---------------------------------------------------------------------
 Center     Atomic      Atomic             Coordinates (Angstroms)
 Number     Number       Type             X           Y           Z
 ---------------------------------------------------------------------
      1          7           0        1.049399    1.152978   -0.000011
      2          6           0        0.343583    0.000000    0.000114
      3          7           0        1.049399   -1.152978   -0.000011
      4         16           0       -1.373864    0.000000   -0.000012
      5          1           0        0.548415    2.033837   -0.000117
      6          1           0        2.065954    1.179782   -0.000050
      7          1           0        2.065954   -1.179782   -0.000051
      8          1           0        0.548415   -2.033837   -0.000118
 ---------------------------------------------------------------------
 Rotational constants (GHZ):          10.4474359           4.9807365           3.3727861
 Standard basis: TZVP (5D, 7F)
 There are   107 symmetry adapted cartesian basis functions of A   symmetry.
 There are   103 symmetry adapted basis functions of A   symmetry.
   103 basis functions,   184 primitive gaussians,   107 cartesian basis functions
    20 alpha electrons       20 beta electrons
       nuclear repulsion energy       155.7958376191 Hartrees.
 NAtoms=    8 NActive=    8 NUniq=    8 SFac= 1.00D+00 NAtFMM=   60 NAOKFM=F Big=F
 Integral buffers will be    131072 words long.
 Raffenetti 2 integral format.
 Two-electron integral symmetry is turned on.
 Warning! Using old PCM defaults because the COSMOthermo output has been requested.
 These settings can be overridden by following keywords.
 ------------------------------------------------------------------------------
 Polarizable Continuum Model (PCM)
 =================================
 Model                : C-PCM.
 Atomic radii         : Klamt.
 XCosmo               : -1.000 (infinite dielectric limit)
 Polarization charges : Electronic and nuclear charges.
 Charge compensation  : Type 3 (Electronic density weighted correction).
 Solution method      : On-the-fly selection.
 Cavity type          : VdW (van der Waals Surface) (Alpha=1.000).
 Cavity algorithm     : GePol (No added spheres)
                        Default sphere list used, NSphG=    8.
                        Tesserae with average area of 0.200 Ang**2.
                        Smoothing algorithm: None.
                        Polarization charges: point-like.
                        Self-potential: constant (ISelfS= 1).
                        Self-field    : global E.n sum rule (ISelfD= 3).
 Solvent              : Water, Eps=  78.355300 Eps(inf)=   1.777849
 ------------------------------------------------------------------------------
 Spheres list:
 ISph  on   Nord     Re0    Alpha      Xe            Ye            Ze
    1   N      1    1.8300  1.000      1.049399      1.152978     -0.000011
    2   C      2    2.0000  1.000      0.343583      0.000000      0.000114
    3   N      3    1.8300  1.000      1.049399     -1.152978     -0.000011
    4   S      4    2.1600  1.000     -1.373864     -0.000000     -0.000012
    5   H      5    1.3000  1.000      0.548415      2.033837     -0.000117
    6   H      6    1.3000  1.000      2.065954      1.179782     -0.000050
    7   H      7    1.3000  1.000      2.065954     -1.179782     -0.000051
    8   H      8    1.3000  1.000      0.548415     -2.033837     -0.000118
 ------------------------------------------------------------------------------
 One-electron integrals computed using PRISM.
 PrsmSu:  requested number of processors reduced to:  30 ShMem   1 Linda.
 NBasis=   103 RedAO= T EigKep=  1.38D-03  NBF=   103
 NBsUse=   103 1.00D-06 EigRej= -1.00D+00 NBFU=   103
 Initial guess from the checkpoint file:  "UMGDCJDMYOKAJW-UHFFFAOYSA-N.chk"
 B after Tr=    -0.000000    0.000000    0.000000
         Rot=    1.000000   -0.000000    0.000000   -0.000000 Ang=   0.00 deg.
 Keep J ints in memory in canonical form, NReq=44139902.
 Requested convergence on RMS density matrix=1.00D-08 within 128 cycles.
 Requested convergence on MAX density matrix=1.00D-06.
 Requested convergence on             energy=1.00D-06.
 No special actions if energy rises.
 Inv3:  Mode=1 IEnd=     1411788.
 Iteration    1 A*A^-1 deviation from unit magnitude is 3.11D-15 for    383.
 Iteration    1 A*A^-1 deviation from orthogonality  is 1.76D-15 for    299     56.
 Iteration    1 A^-1*A deviation from unit magnitude is 3.11D-15 for    190.
 Iteration    1 A^-1*A deviation from orthogonality  is 1.55D-15 for    443    255.
 Error on nuclear    polarization charges =  0.01580
 Error on electronic polarization charges = -0.04088
 SCF Done:  E(RB-P86) =  -548.358811303     A.U. after   10 cycles
            NFock= 10  Conv=0.25D-08     -V/T= 2.0037
 --------------------------------------------------------------------
 Variational C-PCM results
 =========================
 <psi(f)|   H    |psi(f)>                     (a.u.) =    -548.323227
 <psi(f)|H+V(f)/2|psi(f)>                     (a.u.) =    -548.358811
 Total free energy in solution:
 - with all non electrostatic terms           (a.u.) =    -548.352910
 --------------------------------------------------------------------
 (Polarized solute)-Solvent               (kcal/mol) =     -22.33
 --------------------------------------------------------------------
 Cavitation energy                        (kcal/mol) =      13.59
 Dispersion energy                        (kcal/mol) =     -10.85
 Repulsion energy                         (kcal/mol) =       0.96
 Total non electrostatic                  (kcal/mol) =       3.70
 --------------------------------------------------------------------
 Partition over spheres:
 Sphere  on Atom  Surface  Charge   GEl     GCav    GDR
    1      N1      14.03  -0.010   -0.87    1.70   -1.25
    2      C2       8.02   0.015   -0.14    0.94   -0.52
    3      N3      14.03  -0.010   -0.87    1.70   -1.25
    4      S4      42.23   0.464   -9.74    4.83   -3.58
    5      H5       7.64  -0.107   -1.52    1.08   -0.81
    6      H6       7.98  -0.124   -3.83    1.13   -0.83
    7      H7       7.98  -0.124   -3.83    1.13   -0.83
    8      H8       7.64  -0.107   -1.52    1.08   -0.81
 --------------------------------------------------------------------
 - cavitation energy not included in the total energy.
 - dispersion energy not included in the total energy.
 - repulsion  energy not included in the total energy.
 After PCM corrections, the energy is  -548.358811303     a.u.
 --------------------------------------------------------------------
 Writing COSMO formatted file "UMGDCJDMYOKAJW-UHFFFAOYSA-N.cosmo"
 Recomputed dielectric energy= -0.035729 old= -0.035584 diff=-1.45D-04

 **********************************************************************

            Population analysis using the SCF Density.

 **********************************************************************

 Orbital symmetries:
       Occupied  (A) (A) (A) (A) (A) (A) (A) (A) (A) (A) (A) (A)
                 (A) (A) (A) (A) (A) (A) (A) (A)
       Virtual   (A) (A) (A) (A) (A) (A) (A) (A) (A) (A) (A) (A)
                 (A) (A) (A) (A) (A) (A) (A) (A) (A) (A) (A) (A)
                 (A) (A) (A) (A) (A) (A) (A) (A) (A) (A) (A) (A)
                 (A) (A) (A) (A) (A) (A) (A) (A) (A) (A) (A) (A)
                 (A) (A) (A) (A) (A) (A) (A) (A) (A) (A) (A) (A)
                 (A) (A) (A) (A) (A) (A) (A) (A) (A) (A) (A) (A)
                 (A) (A) (A) (A) (A) (A) (A) (A) (A) (A) (A)
 The electronic state is 1-A.
 Alpha  occ. eigenvalues --  -88.08326 -14.03057 -14.03057 -10.01796  -7.63832
 Alpha  occ. eigenvalues --   -5.66331  -5.65515  -5.65257  -0.90094  -0.81406
 Alpha  occ. eigenvalues --   -0.66165  -0.56335  -0.50495  -0.48817  -0.43682
 Alpha  occ. eigenvalues --   -0.37194  -0.33723  -0.24512  -0.20247  -0.19545
 Alpha virt. eigenvalues --   -0.03790   0.02153   0.03315   0.06343   0.08604
 Alpha virt. eigenvalues --    0.10192   0.13754   0.17035   0.20240   0.21072
 Alpha virt. eigenvalues --    0.24744   0.27829   0.28706   0.28961   0.31859
 Alpha virt. eigenvalues --    0.32167   0.33478   0.33496   0.39167   0.44257
 Alpha virt. eigenvalues --    0.45756   0.48214   0.48499   0.51514   0.59280
 Alpha virt. eigenvalues --    0.62073   0.66849   0.68226   0.71959   0.74328
 Alpha virt. eigenvalues --    0.76678   0.80390   0.97979   1.17759   1.18165
 Alpha virt. eigenvalues --    1.19672   1.27969   1.31476   1.42817   1.43693
 Alpha virt. eigenvalues --    1.45336   1.50047   1.53270   1.54998   1.59667
 Alpha virt. eigenvalues --    1.66937   1.68968   1.83774   1.86812   1.86825
 Alpha virt. eigenvalues --    1.87943   1.88641   1.89326   1.90884   2.01040
 Alpha virt. eigenvalues --    2.08463   2.10817   2.13600   2.15472   2.20319
 Alpha virt. eigenvalues --    2.30706   2.38164   2.43940   2.44955   2.48614
 Alpha virt. eigenvalues --    2.50326   2.57952   2.58496   2.60039   2.66914
 Alpha virt. eigenvalues --    2.78254   2.79770   2.82680   3.27295   3.40839
 Alpha virt. eigenvalues --    3.47183   3.63894   3.79305   3.80635  18.46732
 Alpha virt. eigenvalues --   21.42682  31.33255  31.34811
          Condensed to atoms (all electrons):
               1          2          3          4          5          6
     1  N    6.485032   0.379316  -0.085183  -0.125923   0.360719   0.341599
     2  C    0.379316   4.636612   0.379316   0.615020  -0.020202  -0.012625
     3  N   -0.085183   0.379316   6.485032  -0.125923   0.007867  -0.003224
     4  S   -0.125923   0.615020  -0.125923  16.121935   0.004194   0.008578
     5  H    0.360719  -0.020202   0.007867   0.004194   0.372585  -0.017400
     6  H    0.341599  -0.012625  -0.003224   0.008578  -0.017400   0.388961
     7  H   -0.003224  -0.012625   0.341599   0.008578  -0.000400  -0.000472
     8  H    0.007867  -0.020202   0.360719   0.004194  -0.000211  -0.000400
               7          8
     1  N   -0.003224   0.007867
     2  C   -0.012625  -0.020202
     3  N    0.341599   0.360719
     4  S    0.008578   0.004194
     5  H   -0.000400  -0.000211
     6  H   -0.000472  -0.000400
     7  H    0.388961  -0.017400
     8  H   -0.017400   0.372585
 Mulliken charges:
               1
     1  N   -0.360202
     2  C    0.055390
     3  N   -0.360202
     4  S   -0.510652
     5  H    0.292849
     6  H    0.294984
     7  H    0.294984
     8  H    0.292849
 Sum of Mulliken charges =  -0.00000
 Mulliken charges with hydrogens summed into heavy atoms:
               1
     1  N    0.227631
     2  C    0.055390
     3  N    0.227631
     4  S   -0.510652
 Electronic spatial extent (au):  <R**2>=            369.4540
 Charge=             -0.0000 electrons
 Dipole moment (field-independent basis, Debye):
    X=              8.3229    Y=              0.0000    Z=             -0.0005  Tot=              8.3229
 Quadrupole moment (field-independent basis, Debye-Ang):
   XX=            -28.5750   YY=            -23.6452   ZZ=            -35.8052
   XY=              0.0000   XZ=             -0.0002   YZ=             -0.0002
 Traceless Quadrupole moment (field-independent basis, Debye-Ang):
   XX=              0.7668   YY=              5.6966   ZZ=             -6.4634
   XY=              0.0000   XZ=             -0.0002   YZ=             -0.0002
 Octapole moment (field-independent basis, Debye-Ang**2):
  XXX=             42.5529  YYY=              0.0000  ZZZ=             -0.0008  XYY=             15.5329
  XXY=              0.0000  XXZ=             -0.0020  XZZ=              4.1151  YZZ=              0.0000
  YYZ=             -0.0029  XYZ=             -0.0001
 Hexadecapole moment (field-independent basis, Debye-Ang**3):
 XXXX=           -248.5364 YYYY=           -108.2147 ZZZZ=            -44.3838 XXXY=              0.0000
 XXXZ=             -0.0003 YYYX=              0.0000 YYYZ=             -0.0007 ZZZX=              0.0000
 ZZZY=             -0.0002 XXYY=            -67.5357 XXZZ=            -63.3188 YYZZ=            -37.7915
 XXYZ=             -0.0002 YYXZ=             -0.0023 ZZXY=              0.0000
 N-N= 1.557958376191D+02 E-N=-1.608682423275D+03  KE= 5.463620605723D+02
 Unable to Open any file for archive entry.
 1\1\GINC-TCN1649\SP\RBP86\TZVP\C1H4N2S1\ELENAA\22-Feb-2021\0\\# BP86/T
 ZVP SCRF=COSMORS geom=CHECKPOINT guess=CHECKPOINT\\COSMO-file for #UMG
 DCJDMYOKAJW-UHFFFAOYSA-N\\0,1\N,0,-0.48380419,0.7912189035,-1.69086875
 86\C,0,0.1642681545,0.3522400301,-0.5886731864\N,0,1.4645863731,0.0124
 516031,-0.7344527851\S,0,-0.6293958739,0.2311553819,0.92956869\H,0,-1.
 4596074148,1.0533166819,-1.6133520847\H,0,-0.0367133738,0.8718342195,-
 2.6006564618\H,0,1.956972206,0.0749618865,-1.6220064157\H,0,1.97732411
 26,-0.3204187039,0.0737509992\\Version=ES64L-G16RevC.01\State=1-A\HF=-
 548.3588113\RMSD=2.463e-09\Dipole=1.5130822,0.2304413,-2.8947815\Quadr
 upole=2.7968158,-3.7476869,0.9508711,-2.4048119,0.9724122,-1.6008774\P
 G=C01 [X(C1H4N2S1)]\\@
 The archive entry for this job was punched.


 IF THE FACTS DO NOT CONFORM TO THE THEORY, THEY MUST BE DISPOSED OF.
 Job cpu time:       0 days  0 hours  1 minutes  9.6 seconds.
 Elapsed time:       0 days  0 hours  0 minutes  2.8 seconds.
 File lengths (MBytes):  RWF=     11 Int=      0 D2E=      0 Chk=      4 Scr=      1
 Normal termination of Gaussian 16 at Mon Feb 22 21:21:08 2021.
