 Entering Gaussian System, Link 0=g16
 Input=UNXHWFMMPAWVPI-ZXZARUISSA-N.gjf
 Output=UNXHWFMMPAWVPI-ZXZARUISSA-N.log
 Initial command:
 /sw/arch/RedHatEnterpriseServer7/EB_production/2019/software/Gaussian/g16.c01/l1.exe "/scratch-local/elenaa.9715279/Gau-8628.inp" -scrdir="/scratch-local/elenaa.9715279/"
 Entering Link 1 = /sw/arch/RedHatEnterpriseServer7/EB_production/2019/software/Gaussian/g16.c01/l1.exe PID=      8629.
  
 Copyright (c) 1988-2019, Gaussian, Inc.  All Rights Reserved.
  
 This is part of the Gaussian(R) 16 program.  It is based on
 the Gaussian(R) 09 system (copyright 2009, Gaussian, Inc.),
 the Gaussian(R) 03 system (copyright 2003, Gaussian, Inc.),
 the Gaussian(R) 98 system (copyright 1998, Gaussian, Inc.),
 the Gaussian(R) 94 system (copyright 1995, Gaussian, Inc.),
 the Gaussian 92(TM) system (copyright 1992, Gaussian, Inc.),
 the Gaussian 90(TM) system (copyright 1990, Gaussian, Inc.),
 the Gaussian 88(TM) system (copyright 1988, Gaussian, Inc.),
 the Gaussian 86(TM) system (copyright 1986, Carnegie Mellon
 University), and the Gaussian 82(TM) system (copyright 1983,
 Carnegie Mellon University). Gaussian is a federally registered
 trademark of Gaussian, Inc.
  
 This software contains proprietary and confidential information,
 including trade secrets, belonging to Gaussian, Inc.
  
 This software is provided under written license and may be
 used, copied, transmitted, or stored only in accord with that
 written license.
  
 The following legend is applicable only to US Government
 contracts under FAR:
  
                    RESTRICTED RIGHTS LEGEND
  
 Use, reproduction and disclosure by the US Government is
 subject to restrictions as set forth in subparagraphs (a)
 and (c) of the Commercial Computer Software - Restricted
 Rights clause in FAR 52.227-19.
  
 Gaussian, Inc.
 340 Quinnipiac St., Bldg. 40, Wallingford CT 06492
  
  
 ---------------------------------------------------------------
 Warning -- This program may not be used in any manner that
 competes with the business of Gaussian, Inc. or will provide
 assistance to any competitor of Gaussian, Inc.  The licensee
 of this program is prohibited from giving any competitor of
 Gaussian, Inc. access to this program.  By using this program,
 the user acknowledges that Gaussian, Inc. is engaged in the
 business of creating and licensing software in the field of
 computational chemistry and represents and warrants to the
 licensee that it is not a competitor of Gaussian, Inc. and that
 it will not use this program in any manner prohibited above.
 ---------------------------------------------------------------
  

 Cite this work as:
 Gaussian 16, Revision C.01,
 M. J. Frisch, G. W. Trucks, H. B. Schlegel, G. E. Scuseria, 
 M. A. Robb, J. R. Cheeseman, G. Scalmani, V. Barone, 
 G. A. Petersson, H. Nakatsuji, X. Li, M. Caricato, A. V. Marenich, 
 J. Bloino, B. G. Janesko, R. Gomperts, B. Mennucci, H. P. Hratchian, 
 J. V. Ortiz, A. F. Izmaylov, J. L. Sonnenberg, D. Williams-Young, 
 F. Ding, F. Lipparini, F. Egidi, J. Goings, B. Peng, A. Petrone, 
 T. Henderson, D. Ranasinghe, V. G. Zakrzewski, J. Gao, N. Rega, 
 G. Zheng, W. Liang, M. Hada, M. Ehara, K. Toyota, R. Fukuda, 
 J. Hasegawa, M. Ishida, T. Nakajima, Y. Honda, O. Kitao, H. Nakai, 
 T. Vreven, K. Throssell, J. A. Montgomery, Jr., J. E. Peralta, 
 F. Ogliaro, M. J. Bearpark, J. J. Heyd, E. N. Brothers, K. N. Kudin, 
 V. N. Staroverov, T. A. Keith, R. Kobayashi, J. Normand, 
 K. Raghavachari, A. P. Rendell, J. C. Burant, S. S. Iyengar, 
 J. Tomasi, M. Cossi, J. M. Millam, M. Klene, C. Adamo, R. Cammi, 
 J. W. Ochterski, R. L. Martin, K. Morokuma, O. Farkas, 
 J. B. Foresman, and D. J. Fox, Gaussian, Inc., Wallingford CT, 2019.
 
 ******************************************
 Gaussian 16:  ES64L-G16RevC.01  3-Jul-2019
                22-Feb-2021 
 ******************************************
 %chk=UNXHWFMMPAWVPI-ZXZARUISSA-N.chk
 %NProcShared=32
 Will use up to   32 processors via shared memory.
 -------------------------------------------------------------
 #P BP86/TZVP EmpiricalDispersion=GD3 SCRF=(Solvent=Water) Opt
 -------------------------------------------------------------
 1/18=20,19=15,26=3,38=1/1,3;
 2/9=110,12=2,17=6,18=5,40=1/2;
 3/5=19,7=101,11=2,25=1,30=1,70=2201,71=1,72=1,74=404,124=31/1,2,3;
 4//1;
 5/5=2,38=5,53=1/2;
 6/7=2,8=2,9=2,10=2,28=1/1;
 7//1,2,3,16;
 1/18=20,19=15,26=3/3(2);
 2/9=110/2;
 99//99;
 2/9=110/2;
 3/5=19,7=101,11=2,25=1,30=1,70=2205,71=1,72=1,74=404,124=31/1,2,3;
 4/5=5,16=3,69=1/1;
 5/5=2,38=5,53=1/2;
 7//1,2,3,16;
 1/18=20,19=15,26=3/3(-5);
 2/9=110/2;
 6/7=2,8=2,9=2,10=2,19=2,28=1/1;
 99/9=1/99;
 Leave Link    1 at Mon Feb 22 21:20:53 2021, MaxMem=           0 cpu:               2.2 elap:               0.1
 (Enter /sw/arch/RedHatEnterpriseServer7/EB_production/2019/software/Gaussian/g16.c01/l101.exe)
 -------------------------------------
 Particle #UNXHWFMMPAWVPI-ZXZARUISSA-N
 -------------------------------------
 Symbolic Z-matrix:
 Charge =  0 Multiplicity = 1
 O                    -1.02159   1.50742  -0.40991 
 C                    -1.7405    0.2867   -0.56547 
 C                    -2.79011   0.09671   0.55957 
 O                    -3.75072   1.14853   0.45533 
 C                    -2.17778   0.06039   1.99409 
 O                    -1.233    -1.00534   2.1045 
 C                    -3.22835  -0.14639   3.11434 
 O                    -4.13433   0.94962   3.20461 
 H                    -0.41761   1.54123  -1.18114 
 H                    -1.03162  -0.54453  -0.57192 
 H                    -2.24211   0.30639  -1.53606 
 H                    -3.30955  -0.84826   0.37993 
 H                    -4.14316   1.04675  -0.43775 
 H                    -1.65088   0.99848   2.18821 
 H                    -0.52081  -0.79765   1.46523 
 H                    -3.79671  -1.06309   2.93598 
 H                    -2.72478  -0.23716   4.08044 
 H                    -4.72736   0.72229   3.95236 
 
 ITRead=  0  0  0  0  0  0  0  0  0  0  0  0  0  0  0  0  0  0
 MicOpt= -1 -1 -1 -1 -1 -1 -1 -1 -1 -1 -1 -1 -1 -1 -1 -1 -1 -1
 NAtoms=     18 NQM=       18 NQMF=       0 NMMI=      0 NMMIF=      0
                NMic=       0 NMicF=      0.
                    Isotopes and Nuclear Properties:
 (Nuclear quadrupole moments (NQMom) in fm**2, nuclear magnetic moments (NMagM)
  in nuclear magnetons)

  Atom         1           2           3           4           5           6           7           8           9          10
 IAtWgt=          16          12          12          16          12          16          12          16           1           1
 AtmWgt=  15.9949146  12.0000000  12.0000000  15.9949146  12.0000000  15.9949146  12.0000000  15.9949146   1.0078250   1.0078250
 NucSpn=           0           0           0           0           0           0           0           0           1           1
 AtZEff=  -0.0000000  -0.0000000  -0.0000000  -0.0000000  -0.0000000  -0.0000000  -0.0000000  -0.0000000  -0.0000000  -0.0000000
 NQMom=    0.0000000   0.0000000   0.0000000   0.0000000   0.0000000   0.0000000   0.0000000   0.0000000   0.0000000   0.0000000
 NMagM=    0.0000000   0.0000000   0.0000000   0.0000000   0.0000000   0.0000000   0.0000000   0.0000000   2.7928460   2.7928460
 AtZNuc=   8.0000000   6.0000000   6.0000000   8.0000000   6.0000000   8.0000000   6.0000000   8.0000000   1.0000000   1.0000000

  Atom        11          12          13          14          15          16          17          18
 IAtWgt=           1           1           1           1           1           1           1           1
 AtmWgt=   1.0078250   1.0078250   1.0078250   1.0078250   1.0078250   1.0078250   1.0078250   1.0078250
 NucSpn=           1           1           1           1           1           1           1           1
 AtZEff=  -0.0000000  -0.0000000  -0.0000000  -0.0000000  -0.0000000  -0.0000000  -0.0000000  -0.0000000
 NQMom=    0.0000000   0.0000000   0.0000000   0.0000000   0.0000000   0.0000000   0.0000000   0.0000000
 NMagM=    2.7928460   2.7928460   2.7928460   2.7928460   2.7928460   2.7928460   2.7928460   2.7928460
 AtZNuc=   1.0000000   1.0000000   1.0000000   1.0000000   1.0000000   1.0000000   1.0000000   1.0000000
 Leave Link  101 at Mon Feb 22 21:20:54 2021, MaxMem=   104857600 cpu:               2.9 elap:               0.1
 (Enter /sw/arch/RedHatEnterpriseServer7/EB_production/2019/software/Gaussian/g16.c01/l103.exe)

 GradGradGradGradGradGradGradGradGradGradGradGradGradGradGradGradGradGrad
 Berny optimization.
 Initialization pass.
                           ----------------------------
                           !    Initial Parameters    !
                           ! (Angstroms and Degrees)  !
 --------------------------                            --------------------------
 ! Name  Definition              Value          Derivative Info.                !
 --------------------------------------------------------------------------------
 ! R1    R(1,2)                  1.4252         estimate D2E/DX2                !
 ! R2    R(1,9)                  0.9802         estimate D2E/DX2                !
 ! R3    R(2,3)                  1.5503         estimate D2E/DX2                !
 ! R4    R(2,10)                 1.0925         estimate D2E/DX2                !
 ! R5    R(2,11)                 1.0927         estimate D2E/DX2                !
 ! R6    R(3,4)                  1.4283         estimate D2E/DX2                !
 ! R7    R(3,5)                  1.5602         estimate D2E/DX2                !
 ! R8    R(3,12)                 1.0932         estimate D2E/DX2                !
 ! R9    R(4,13)                 0.9808         estimate D2E/DX2                !
 ! R10   R(5,6)                  1.4285         estimate D2E/DX2                !
 ! R11   R(5,7)                  1.5497         estimate D2E/DX2                !
 ! R12   R(5,14)                 1.0933         estimate D2E/DX2                !
 ! R13   R(6,15)                 0.9793         estimate D2E/DX2                !
 ! R14   R(7,8)                  1.4248         estimate D2E/DX2                !
 ! R15   R(7,16)                 1.0932         estimate D2E/DX2                !
 ! R16   R(7,17)                 1.0932         estimate D2E/DX2                !
 ! R17   R(8,18)                 0.9811         estimate D2E/DX2                !
 ! A1    A(2,1,9)              104.7434         estimate D2E/DX2                !
 ! A2    A(1,2,3)              111.5474         estimate D2E/DX2                !
 ! A3    A(1,2,10)             108.9679         estimate D2E/DX2                !
 ! A4    A(1,2,11)             108.2444         estimate D2E/DX2                !
 ! A5    A(3,2,10)             110.5086         estimate D2E/DX2                !
 ! A6    A(3,2,11)             109.633          estimate D2E/DX2                !
 ! A7    A(10,2,11)            107.8382         estimate D2E/DX2                !
 ! A8    A(2,3,4)              108.188          estimate D2E/DX2                !
 ! A9    A(2,3,5)              113.852          estimate D2E/DX2                !
 ! A10   A(2,3,12)             107.9617         estimate D2E/DX2                !
 ! A11   A(4,3,5)              110.3783         estimate D2E/DX2                !
 ! A12   A(4,3,12)             107.7588         estimate D2E/DX2                !
 ! A13   A(5,3,12)             108.5094         estimate D2E/DX2                !
 ! A14   A(3,4,13)             105.0194         estimate D2E/DX2                !
 ! A15   A(3,5,6)              110.3659         estimate D2E/DX2                !
 ! A16   A(3,5,7)              113.6856         estimate D2E/DX2                !
 ! A17   A(3,5,14)             109.4162         estimate D2E/DX2                !
 ! A18   A(6,5,7)              107.0349         estimate D2E/DX2                !
 ! A19   A(6,5,14)             107.9189         estimate D2E/DX2                !
 ! A20   A(7,5,14)             108.2317         estimate D2E/DX2                !
 ! A21   A(5,6,15)             105.8019         estimate D2E/DX2                !
 ! A22   A(5,7,8)              111.9762         estimate D2E/DX2                !
 ! A23   A(5,7,16)             110.2672         estimate D2E/DX2                !
 ! A24   A(5,7,17)             109.7331         estimate D2E/DX2                !
 ! A25   A(8,7,16)             108.9514         estimate D2E/DX2                !
 ! A26   A(8,7,17)             107.5035         estimate D2E/DX2                !
 ! A27   A(16,7,17)            108.3019         estimate D2E/DX2                !
 ! A28   A(7,8,18)             104.738          estimate D2E/DX2                !
 ! D1    D(9,1,2,3)           -177.9891         estimate D2E/DX2                !
 ! D2    D(9,1,2,10)            59.7338         estimate D2E/DX2                !
 ! D3    D(9,1,2,11)           -57.2902         estimate D2E/DX2                !
 ! D4    D(1,2,3,4)             63.217          estimate D2E/DX2                !
 ! D5    D(1,2,3,5)            -59.8775         estimate D2E/DX2                !
 ! D6    D(1,2,3,12)           179.577          estimate D2E/DX2                !
 ! D7    D(10,2,3,4)          -175.3963         estimate D2E/DX2                !
 ! D8    D(10,2,3,5)            61.5092         estimate D2E/DX2                !
 ! D9    D(10,2,3,12)          -59.0363         estimate D2E/DX2                !
 ! D10   D(11,2,3,4)           -56.6661         estimate D2E/DX2                !
 ! D11   D(11,2,3,5)          -179.7607         estimate D2E/DX2                !
 ! D12   D(11,2,3,12)           59.6939         estimate D2E/DX2                !
 ! D13   D(2,3,4,13)            60.0528         estimate D2E/DX2                !
 ! D14   D(5,3,4,13)          -174.7701         estimate D2E/DX2                !
 ! D15   D(12,3,4,13)          -56.4388         estimate D2E/DX2                !
 ! D16   D(2,3,5,6)            -59.0482         estimate D2E/DX2                !
 ! D17   D(2,3,5,7)           -179.318          estimate D2E/DX2                !
 ! D18   D(2,3,5,14)            59.5602         estimate D2E/DX2                !
 ! D19   D(4,3,5,6)            179.0606         estimate D2E/DX2                !
 ! D20   D(4,3,5,7)             58.7907         estimate D2E/DX2                !
 ! D21   D(4,3,5,14)           -62.331          estimate D2E/DX2                !
 ! D22   D(12,3,5,6)            61.1896         estimate D2E/DX2                !
 ! D23   D(12,3,5,7)           -59.0802         estimate D2E/DX2                !
 ! D24   D(12,3,5,14)          179.798          estimate D2E/DX2                !
 ! D25   D(3,5,6,15)            62.6455         estimate D2E/DX2                !
 ! D26   D(7,5,6,15)          -173.1668         estimate D2E/DX2                !
 ! D27   D(14,5,6,15)          -56.8731         estimate D2E/DX2                !
 ! D28   D(3,5,7,8)            -64.9521         estimate D2E/DX2                !
 ! D29   D(3,5,7,16)            56.5372         estimate D2E/DX2                !
 ! D30   D(3,5,7,17)           175.7522         estimate D2E/DX2                !
 ! D31   D(6,5,7,8)            172.916          estimate D2E/DX2                !
 ! D32   D(6,5,7,16)           -65.5947         estimate D2E/DX2                !
 ! D33   D(6,5,7,17)            53.6203         estimate D2E/DX2                !
 ! D34   D(14,5,7,8)            56.8299         estimate D2E/DX2                !
 ! D35   D(14,5,7,16)          178.3192         estimate D2E/DX2                !
 ! D36   D(14,5,7,17)          -62.4659         estimate D2E/DX2                !
 ! D37   D(5,7,8,18)          -178.4453         estimate D2E/DX2                !
 ! D38   D(16,7,8,18)           59.3113         estimate D2E/DX2                !
 ! D39   D(17,7,8,18)          -57.8457         estimate D2E/DX2                !
 --------------------------------------------------------------------------------
 Trust Radius=3.00D-01 FncErr=1.00D-07 GrdErr=1.00D-06 EigMax=2.50D+02 EigMin=1.00D-04
 Number of steps in this run=     94 maximum allowed number of steps=    108.
 GradGradGradGradGradGradGradGradGradGradGradGradGradGradGradGradGradGrad

 Leave Link  103 at Mon Feb 22 21:20:54 2021, MaxMem=   104857600 cpu:               0.3 elap:               0.0
 (Enter /sw/arch/RedHatEnterpriseServer7/EB_production/2019/software/Gaussian/g16.c01/l202.exe)
                          Input orientation:                          
 ---------------------------------------------------------------------
 Center     Atomic      Atomic             Coordinates (Angstroms)
 Number     Number       Type             X           Y           Z
 ---------------------------------------------------------------------
      1          8           0       -1.021590    1.507420   -0.409910
      2          6           0       -1.740500    0.286700   -0.565470
      3          6           0       -2.790110    0.096710    0.559570
      4          8           0       -3.750720    1.148530    0.455330
      5          6           0       -2.177780    0.060390    1.994090
      6          8           0       -1.233000   -1.005340    2.104500
      7          6           0       -3.228350   -0.146390    3.114340
      8          8           0       -4.134330    0.949620    3.204610
      9          1           0       -0.417610    1.541230   -1.181140
     10          1           0       -1.031620   -0.544530   -0.571920
     11          1           0       -2.242110    0.306390   -1.536060
     12          1           0       -3.309550   -0.848260    0.379930
     13          1           0       -4.143160    1.046750   -0.437750
     14          1           0       -1.650880    0.998480    2.188210
     15          1           0       -0.520810   -0.797650    1.465230
     16          1           0       -3.796710   -1.063090    2.935980
     17          1           0       -2.724780   -0.237160    4.080440
     18          1           0       -4.727360    0.722290    3.952360
 ---------------------------------------------------------------------
                    Distance matrix (angstroms):
                    1          2          3          4          5
     1  O    0.000000
     2  C    1.425197   0.000000
     3  C    2.461231   1.550320   0.000000
     4  O    2.885410   2.413663   1.428273   0.000000
     5  C    3.034780   2.606488   1.560165   2.454785   0.000000
     6  O    3.561027   3.009263   2.454774   3.701058   1.428489
     7  C    4.474954   3.992777   2.603460   3.003335   1.549650
     8  O    4.802608   4.514797   3.087170   2.783031   2.466612
     9  H    0.980169   1.924301   3.278028   3.733881   3.920864
    10  H    2.058360   1.092472   2.187178   3.363807   2.874721
    11  H    2.049477   1.092724   2.176220   2.636425   3.539296
    12  H    3.377549   2.154956   1.093187   2.046335   2.170728
    13  H    3.155502   2.523245   1.930795   0.980796   3.278638
    14  H    2.721260   2.845596   2.182545   2.726668   1.093306
    15  H    3.013350   2.605226   2.601888   3.903823   1.939452
    16  H    5.050128   4.279028   2.829435   3.323703   2.184101
    17  H    5.109565   4.777836   3.537268   4.014239   2.177292
    18  H    5.777418   5.433402   3.956679   3.655780   3.282269
                    6          7          8          9         10
     6  O    0.000000
     7  C    2.395620   0.000000
     8  O    3.667400   1.424846   0.000000
     9  H    4.236190   5.403653   5.779171   0.000000
    10  H    2.723256   4.309600   5.110917   2.257997   0.000000
    11  H    3.999077   4.775343   5.144725   2.231501   1.766046
    12  H    2.703863   2.824219   3.448398   4.063240   2.487415
    13  H    4.375287   3.857176   3.643666   3.831039   3.497407
    14  H    2.048640   2.157975   2.683837   3.628781   3.222217
    15  H    0.979294   3.236430   4.374462   3.533311   2.115414
    16  H    2.695794   1.093245   2.058434   5.928868   4.496664
    17  H    2.592267   1.093239   2.040185   6.014144   4.960415
    18  H    4.313913   1.924555   0.981068   6.752587   5.977661
                   11         12         13         14         15
    11  H    0.000000
    12  H    2.478641   0.000000
    13  H    2.316983   2.225886   0.000000
    14  H    3.833892   3.071077   3.620698   0.000000
    15  H    3.631738   2.992910   4.488270   2.241839   0.000000
    16  H    4.928630   2.610913   3.994184   3.068194   3.600706
    17  H    5.663346   3.795942   4.906554   2.502119   3.465683
    18  H    6.039221   4.151996   4.440679   3.557139   5.117724
                   16         17         18
    16  H    0.000000
    17  H    1.772282   0.000000
    18  H    2.255376   2.224247   0.000000
 Stoichiometry    C4H10O4
 Framework group  C1[X(C4H10O4)]
 Deg. of freedom    48
 Full point group                 C1      NOp   1
 Largest Abelian subgroup         C1      NOp   1
 Largest concise Abelian subgroup C1      NOp   1
                         Standard orientation:                         
 ---------------------------------------------------------------------
 Center     Atomic      Atomic             Coordinates (Angstroms)
 Number     Number       Type             X           Y           Z
 ---------------------------------------------------------------------
      1          8           0       -2.337699   -0.130004    0.950919
      2          6           0       -1.958051   -0.012682   -0.417763
      3          6           0       -0.448602   -0.304845   -0.617011
      4          8           0       -0.204063   -1.661630   -0.243784
      5          6           0        0.490067    0.654904    0.177908
      6          8           0        0.260447    2.010020   -0.211344
      7          6           0        1.998067    0.370104   -0.037134
      8          8           0        2.377400   -0.906018    0.470611
      9          1           0       -3.302993    0.039979    0.957479
     10          1           0       -2.203061    0.992234   -0.769343
     11          1           0       -2.549587   -0.724177   -0.999060
     12          1           0       -0.223921   -0.206395   -1.682319
     13          1           0       -0.766609   -2.195693   -0.844017
     14          1           0        0.275086    0.570853    1.246569
     15          1           0       -0.667255    2.204602    0.034671
     16          1           0        2.244192    0.416277   -1.101312
     17          1           0        2.594098    1.122568    0.486044
     18          1           0        3.342484   -0.964075    0.304071
 ---------------------------------------------------------------------
 Rotational constants (GHZ):           2.8077299           1.3986970           1.0759970
 Leave Link  202 at Mon Feb 22 21:20:54 2021, MaxMem=   104857600 cpu:               0.8 elap:               0.1
 (Enter /sw/arch/RedHatEnterpriseServer7/EB_production/2019/software/Gaussian/g16.c01/l301.exe)
 Standard basis: TZVP (5D, 7F)
 Ernie: Thresh=  0.10000D-02 Tol=  0.10000D-05 Strict=F.
 There are   220 symmetry adapted cartesian basis functions of A   symmetry.
 There are   212 symmetry adapted basis functions of A   symmetry.
   212 basis functions,   360 primitive gaussians,   220 cartesian basis functions
    33 alpha electrons       33 beta electrons
       nuclear repulsion energy       422.1572905101 Hartrees.
 IExCor=  404 DFT=T Ex=B Corr=P86 ExCW=0 ScaHFX=  0.000000
 ScaDFX=  1.000000  1.000000  1.000000  1.000000 ScalE2=  1.000000  1.000000
 IRadAn=      5 IRanWt=     -1 IRanGd=            0 ICorTp=0 IEmpDi=131
 NAtoms=   18 NActive=   18 NUniq=   18 SFac= 1.00D+00 NAtFMM=   60 NAOKFM=F Big=F
 Integral buffers will be    131072 words long.
 Raffenetti 2 integral format.
 Two-electron integral symmetry is turned on.
 R6Disp:  Grimme-D3 Dispersion energy=       -0.0169173857 Hartrees.
 Nuclear repulsion after empirical dispersion term =      422.1403731244 Hartrees.
 ------------------------------------------------------------------------------
 Polarizable Continuum Model (PCM)
 =================================
 Model                : PCM.
 Atomic radii         : UFF (Universal Force Field).
 Polarization charges : Total charges.
 Charge compensation  : None.
 Solution method      : On-the-fly selection.
 Cavity type          : Scaled VdW (van der Waals Surface) (Alpha=1.100).
 Cavity algorithm     : GePol (No added spheres)
                        Default sphere list used, NSphG=   18.
                        Lebedev-Laikov grids with approx.  5.0 points / Ang**2.
                        Smoothing algorithm: York/Karplus (Gamma=1.0000).
                        Polarization charges: spherical gaussians, with
                                              point-specific exponents (IZeta= 3).
                        Self-potential: point-specific (ISelfS= 7).
                        Self-field    : sphere-specific E.n sum rule (ISelfD= 2).
 1st derivatives      : Analytical E(r).r(x)/FMM algorithm (CHGder, D1EAlg=3).
                        Cavity 1st derivative terms included.
 Solvent              : Water, Eps=  78.355300 Eps(inf)=   1.777849
 ------------------------------------------------------------------------------
 Spheres list:
 ISph  on   Nord     Re0    Alpha      Xe            Ye            Ze
    1   O      1    1.7500  1.100     -2.337699     -0.130004      0.950919
    2   C      2    1.9255  1.100     -1.958051     -0.012682     -0.417763
    3   C      3    1.9255  1.100     -0.448602     -0.304845     -0.617011
    4   O      4    1.7500  1.100     -0.204063     -1.661630     -0.243784
    5   C      5    1.9255  1.100      0.490067      0.654904      0.177908
    6   O      6    1.7500  1.100      0.260447      2.010020     -0.211344
    7   C      7    1.9255  1.100      1.998067      0.370104     -0.037134
    8   O      8    1.7500  1.100      2.377400     -0.906018      0.470611
    9   H      9    1.4430  1.100     -3.302993      0.039979      0.957479
   10   H     10    1.4430  1.100     -2.203061      0.992234     -0.769343
   11   H     11    1.4430  1.100     -2.549587     -0.724177     -0.999060
   12   H     12    1.4430  1.100     -0.223921     -0.206395     -1.682319
   13   H     13    1.4430  1.100     -0.766609     -2.195693     -0.844017
   14   H     14    1.4430  1.100      0.275086      0.570853      1.246569
   15   H     15    1.4430  1.100     -0.667255      2.204602      0.034671
   16   H     16    1.4430  1.100      2.244192      0.416277     -1.101312
   17   H     17    1.4430  1.100      2.594098      1.122568      0.486044
   18   H     18    1.4430  1.100      3.342484     -0.964075      0.304071
 ------------------------------------------------------------------------------
 GePol: Number of generator spheres                  =      18
 GePol: Total number of spheres                      =      18
 GePol: Number of exposed spheres                    =      18 (100.00%)
 GePol: Number of points                             =    1406
 GePol: Average weight of points                     =       0.13
 GePol: Minimum weight of points                     =   0.11D-08
 GePol: Maximum weight of points                     =    0.20311
 GePol: Number of points with low weight             =      96
 GePol: Fraction of low-weight points (<1% of avg)   =       6.83%
 GePol: Cavity surface area                          =    185.934 Ang**2
 GePol: Cavity volume                                =    179.489 Ang**3
 Leave Link  301 at Mon Feb 22 21:20:54 2021, MaxMem=   104857600 cpu:               1.8 elap:               0.1
 (Enter /sw/arch/RedHatEnterpriseServer7/EB_production/2019/software/Gaussian/g16.c01/l302.exe)
 NPDir=0 NMtPBC=     1 NCelOv=     1 NCel=       1 NClECP=     1 NCelD=      1
         NCelK=      1 NCelE2=     1 NClLst=     1 CellRange=     0.0.
 One-electron integrals computed using PRISM.
 One-electron integral symmetry used in STVInt
 PrsmSu:  requested number of processors reduced to:  29 ShMem   1 Linda.
 NBasis=   212 RedAO= T EigKep=  2.10D-04  NBF=   212
 NBsUse=   212 1.00D-06 EigRej= -1.00D+00 NBFU=   212
 Precomputing XC quadrature grid using
 IXCGrd= 4 IRadAn=           5 IRanWt=          -1 IRanGd=           0 AccXCQ= 0.00D+00.
 Generated NRdTot=       0 NPtTot=           0 NUsed=           0 NTot=          32
 NSgBfM=   219   219   219   219   219 MxSgAt=    18 MxSgA2=    18.
 Leave Link  302 at Mon Feb 22 21:20:54 2021, MaxMem=   104857600 cpu:               7.0 elap:               0.3
 (Enter /sw/arch/RedHatEnterpriseServer7/EB_production/2019/software/Gaussian/g16.c01/l303.exe)
 DipDrv:  MaxL=1.
 Leave Link  303 at Mon Feb 22 21:20:55 2021, MaxMem=   104857600 cpu:               2.2 elap:               0.1
 (Enter /sw/arch/RedHatEnterpriseServer7/EB_production/2019/software/Gaussian/g16.c01/l401.exe)
 ExpMin= 9.52D-02 ExpMax= 2.70D+04 ExpMxC= 9.22D+02 IAcc=3 IRadAn=         5 AccDes= 0.00D+00
 Harris functional with IExCor=  404 and IRadAn=       5 diagonalized for initial guess.
 HarFok:  IExCor=  404 AccDes= 0.00D+00 IRadAn=         5 IDoV= 1 UseB2=F ITyADJ=14
 ICtDFT=  3500011 ScaDFX=  1.000000  1.000000  1.000000  1.000000
 FoFCou: FMM=F IPFlag=           0 FMFlag=      100000 FMFlg1=           0
         NFxFlg=           0 DoJE=T BraDBF=F KetDBF=T FulRan=T
         wScrn=  0.000000 ICntrl=       500 IOpCl=  0 I1Cent=   200000004 NGrid=           0
         NMat0=    1 NMatS0=      1 NMatT0=    0 NMatD0=    1 NMtDS0=    0 NMtDT0=    0
 Petite list used in FoFCou.
 Harris En= -459.637584761848    
 JPrj=0 DoOrth=F DoCkMO=F.
 Leave Link  401 at Mon Feb 22 21:20:55 2021, MaxMem=   104857600 cpu:              12.7 elap:               0.5
 (Enter /sw/arch/RedHatEnterpriseServer7/EB_production/2019/software/Gaussian/g16.c01/l502.exe)
 Integral symmetry usage will be decided dynamically.
 Closed shell SCF:
 Using DIIS extrapolation, IDIIS=  1040.
 NGot=   104857600 LenX=   104750978 LenY=   104702137
 Requested convergence on RMS density matrix=1.00D-08 within 128 cycles.
 Requested convergence on MAX density matrix=1.00D-06.
 Requested convergence on             energy=1.00D-06.
 No special actions if energy rises.
 Fock matrices will be formed incrementally for  20 cycles.

 Cycle   1  Pass 1  IDiag  1:
 FoFJK:  IHMeth= 1 ICntrl=     500 DoSepK=F KAlg= 0 I1Cent=           0 FoldK=F
 IRaf= 940000000 NMat=       1 IRICut=       1 DoRegI=T DoRafI=F ISym2E= 0 IDoP0=0 IntGTp=1.
 FoFCou: FMM=F IPFlag=           0 FMFlag=      100000 FMFlg1=           0
         NFxFlg=           0 DoJE=T BraDBF=F KetDBF=F FulRan=T
         wScrn=  0.000000 ICntrl=       500 IOpCl=  0 I1Cent=           0 NGrid=           0
         NMat0=    1 NMatS0=      1 NMatT0=    0 NMatD0=    1 NMtDS0=    0 NMtDT0=    0
 Symmetry not used in FoFCou.
 Inv3:  Mode=1 IEnd=     5930508.
 Iteration    1 A*A^-1 deviation from unit magnitude is 3.11D-15 for    602.
 Iteration    1 A*A^-1 deviation from orthogonality  is 1.78D-15 for   1157   1002.
 Iteration    1 A^-1*A deviation from unit magnitude is 3.11D-15 for    219.
 Iteration    1 A^-1*A deviation from orthogonality  is 1.89D-15 for   1007    492.
 E= -459.295853419346    
 DIIS: error= 2.35D-02 at cycle   1 NSaved=   1.
 NSaved= 1 IEnMin= 1 EnMin= -459.295853419346     IErMin= 1 ErrMin= 2.35D-02
 ErrMax= 2.35D-02  0.00D+00 EMaxC= 1.00D-01 BMatC= 2.63D-01 BMatP= 2.63D-01
 IDIUse=3 WtCom= 7.65D-01 WtEn= 2.35D-01
 Coeff-Com:  0.100D+01
 Coeff-En:   0.100D+01
 Coeff:      0.100D+01
 Gap=     0.168 Goal=   None    Shift=    0.000
 GapD=    0.168 DampG=1.000 DampE=0.500 DampFc=0.5000 IDamp=-1.
 Damping current iteration by 5.00D-01
 RMSDP=1.08D-02 MaxDP=6.57D-01              OVMax= 1.87D-01

 Cycle   2  Pass 1  IDiag  1:
 RMSU=  5.36D-03    CP:  1.04D+00
 E= -459.322009618835     Delta-E=       -0.026156199489 Rises=F Damp=T
 DIIS: error= 1.25D-02 at cycle   2 NSaved=   2.
 NSaved= 2 IEnMin= 2 EnMin= -459.322009618835     IErMin= 2 ErrMin= 1.25D-02
 ErrMax= 1.25D-02  0.00D+00 EMaxC= 1.00D-01 BMatC= 6.06D-02 BMatP= 2.63D-01
 IDIUse=3 WtCom= 8.75D-01 WtEn= 1.25D-01
 Coeff-Com:  0.304D+00 0.696D+00
 Coeff-En:   0.447D+00 0.553D+00
 Coeff:      0.322D+00 0.678D+00
 Gap=     0.222 Goal=   None    Shift=    0.000
 RMSDP=2.87D-03 MaxDP=1.89D-01 DE=-2.62D-02 OVMax= 1.24D-01

 Cycle   3  Pass 1  IDiag  1:
 RMSU=  1.09D-03    CP:  1.02D+00  5.10D-01
 E= -459.498986614092     Delta-E=       -0.176976995257 Rises=F Damp=F
 DIIS: error= 3.63D-03 at cycle   3 NSaved=   3.
 NSaved= 3 IEnMin= 3 EnMin= -459.498986614092     IErMin= 3 ErrMin= 3.63D-03
 ErrMax= 3.63D-03  0.00D+00 EMaxC= 1.00D-01 BMatC= 6.76D-03 BMatP= 6.06D-02
 IDIUse=3 WtCom= 9.64D-01 WtEn= 3.63D-02
 Coeff-Com:  0.113D+00 0.286D+00 0.601D+00
 Coeff-En:   0.000D+00 0.000D+00 0.100D+01
 Coeff:      0.109D+00 0.275D+00 0.616D+00
 Gap=     0.223 Goal=   None    Shift=    0.000
 RMSDP=5.67D-04 MaxDP=1.76D-02 DE=-1.77D-01 OVMax= 1.77D-02

 Cycle   4  Pass 1  IDiag  1:
 RMSU=  4.51D-04    CP:  1.02D+00  5.34D-01  7.20D-01
 E= -459.503261130362     Delta-E=       -0.004274516271 Rises=F Damp=F
 DIIS: error= 2.46D-03 at cycle   4 NSaved=   4.
 NSaved= 4 IEnMin= 4 EnMin= -459.503261130362     IErMin= 4 ErrMin= 2.46D-03
 ErrMax= 2.46D-03  0.00D+00 EMaxC= 1.00D-01 BMatC= 2.46D-03 BMatP= 6.76D-03
 IDIUse=3 WtCom= 9.75D-01 WtEn= 2.46D-02
 Coeff-Com:  0.362D-01 0.810D-01 0.377D+00 0.505D+00
 Coeff-En:   0.000D+00 0.000D+00 0.265D+00 0.735D+00
 Coeff:      0.353D-01 0.790D-01 0.375D+00 0.511D+00
 Gap=     0.222 Goal=   None    Shift=    0.000
 RMSDP=2.62D-04 MaxDP=9.08D-03 DE=-4.27D-03 OVMax= 7.28D-03

 Cycle   5  Pass 1  IDiag  1:
 RMSU=  1.20D-04    CP:  1.02D+00  5.23D-01  8.10D-01  5.64D-01
 E= -459.505357407392     Delta-E=       -0.002096277029 Rises=F Damp=F
 DIIS: error= 2.87D-04 at cycle   5 NSaved=   5.
 NSaved= 5 IEnMin= 5 EnMin= -459.505357407392     IErMin= 5 ErrMin= 2.87D-04
 ErrMax= 2.87D-04  0.00D+00 EMaxC= 1.00D-01 BMatC= 4.62D-05 BMatP= 2.46D-03
 IDIUse=3 WtCom= 9.97D-01 WtEn= 2.87D-03
 Coeff-Com:  0.814D-02 0.100D-01 0.109D+00 0.194D+00 0.679D+00
 Coeff-En:   0.000D+00 0.000D+00 0.000D+00 0.000D+00 0.100D+01
 Coeff:      0.812D-02 0.100D-01 0.109D+00 0.193D+00 0.680D+00
 Gap=     0.222 Goal=   None    Shift=    0.000
 RMSDP=4.15D-05 MaxDP=7.95D-04 DE=-2.10D-03 OVMax= 1.38D-03

 Cycle   6  Pass 1  IDiag  1:
 RMSU=  2.76D-05    CP:  1.02D+00  5.22D-01  8.08D-01  5.96D-01  7.77D-01
 E= -459.505382089619     Delta-E=       -0.000024682227 Rises=F Damp=F
 DIIS: error= 1.97D-04 at cycle   6 NSaved=   6.
 NSaved= 6 IEnMin= 6 EnMin= -459.505382089619     IErMin= 6 ErrMin= 1.97D-04
 ErrMax= 1.97D-04  0.00D+00 EMaxC= 1.00D-01 BMatC= 1.45D-05 BMatP= 4.62D-05
 IDIUse=3 WtCom= 9.98D-01 WtEn= 1.97D-03
 Coeff-Com:  0.379D-02 0.232D-02 0.535D-01 0.101D+00 0.445D+00 0.394D+00
 Coeff-En:   0.000D+00 0.000D+00 0.000D+00 0.000D+00 0.164D+00 0.836D+00
 Coeff:      0.379D-02 0.232D-02 0.534D-01 0.101D+00 0.444D+00 0.395D+00
 Gap=     0.222 Goal=   None    Shift=    0.000
 RMSDP=1.89D-05 MaxDP=6.40D-04 DE=-2.47D-05 OVMax= 5.65D-04

 Cycle   7  Pass 1  IDiag  1:
 RMSU=  8.78D-06    CP:  1.02D+00  5.21D-01  8.10D-01  5.88D-01  7.80D-01
                    CP:  4.47D-01
 E= -459.505391927305     Delta-E=       -0.000009837687 Rises=F Damp=F
 DIIS: error= 3.33D-05 at cycle   7 NSaved=   7.
 NSaved= 7 IEnMin= 7 EnMin= -459.505391927305     IErMin= 7 ErrMin= 3.33D-05
 ErrMax= 3.33D-05  0.00D+00 EMaxC= 1.00D-01 BMatC= 3.37D-07 BMatP= 1.45D-05
 IDIUse=1 WtCom= 1.00D+00 WtEn= 0.00D+00
 Coeff-Com:  0.120D-02 0.137D-04 0.148D-01 0.284D-01 0.137D+00 0.180D+00
 Coeff-Com:  0.639D+00
 Coeff:      0.120D-02 0.137D-04 0.148D-01 0.284D-01 0.137D+00 0.180D+00
 Coeff:      0.639D+00
 Gap=     0.222 Goal=   None    Shift=    0.000
 RMSDP=3.91D-06 MaxDP=8.07D-05 DE=-9.84D-06 OVMax= 1.11D-04

 Cycle   8  Pass 1  IDiag  1:
 RMSU=  2.31D-06    CP:  1.02D+00  5.21D-01  8.10D-01  5.88D-01  7.90D-01
                    CP:  5.10D-01  7.32D-01
 E= -459.505392152216     Delta-E=       -0.000000224911 Rises=F Damp=F
 DIIS: error= 7.97D-06 at cycle   8 NSaved=   8.
 NSaved= 8 IEnMin= 8 EnMin= -459.505392152216     IErMin= 8 ErrMin= 7.97D-06
 ErrMax= 7.97D-06  0.00D+00 EMaxC= 1.00D-01 BMatC= 3.81D-08 BMatP= 3.37D-07
 IDIUse=1 WtCom= 1.00D+00 WtEn= 0.00D+00
 Coeff-Com:  0.381D-03-0.195D-03 0.374D-02 0.698D-02 0.364D-01 0.631D-01
 Coeff-Com:  0.339D+00 0.551D+00
 Coeff:      0.381D-03-0.195D-03 0.374D-02 0.698D-02 0.364D-01 0.631D-01
 Coeff:      0.339D+00 0.551D+00
 Gap=     0.222 Goal=   None    Shift=    0.000
 RMSDP=1.16D-06 MaxDP=2.62D-05 DE=-2.25D-07 OVMax= 3.77D-05

 Cycle   9  Pass 1  IDiag  1:
 RMSU=  7.72D-07    CP:  1.02D+00  5.21D-01  8.10D-01  5.89D-01  7.88D-01
                    CP:  5.06D-01  7.55D-01  7.36D-01
 E= -459.505392182952     Delta-E=       -0.000000030736 Rises=F Damp=F
 DIIS: error= 2.86D-06 at cycle   9 NSaved=   9.
 NSaved= 9 IEnMin= 9 EnMin= -459.505392182952     IErMin= 9 ErrMin= 2.86D-06
 ErrMax= 2.86D-06  0.00D+00 EMaxC= 1.00D-01 BMatC= 4.16D-09 BMatP= 3.81D-08
 IDIUse=1 WtCom= 1.00D+00 WtEn= 0.00D+00
 Coeff-Com:  0.548D-04-0.103D-03 0.413D-04-0.878D-04 0.659D-03 0.774D-02
 Coeff-Com:  0.895D-01 0.293D+00 0.609D+00
 Coeff:      0.548D-04-0.103D-03 0.413D-04-0.878D-04 0.659D-03 0.774D-02
 Coeff:      0.895D-01 0.293D+00 0.609D+00
 Gap=     0.222 Goal=   None    Shift=    0.000
 RMSDP=3.79D-07 MaxDP=1.17D-05 DE=-3.07D-08 OVMax= 1.06D-05

 Cycle  10  Pass 1  IDiag  1:
 RMSU=  1.92D-07    CP:  1.02D+00  5.21D-01  8.10D-01  5.88D-01  7.88D-01
                    CP:  5.07D-01  7.71D-01  7.70D-01  7.31D-01
 E= -459.505392186375     Delta-E=       -0.000000003422 Rises=F Damp=F
 DIIS: error= 7.28D-07 at cycle  10 NSaved=  10.
 NSaved=10 IEnMin=10 EnMin= -459.505392186375     IErMin=10 ErrMin= 7.28D-07
 ErrMax= 7.28D-07  0.00D+00 EMaxC= 1.00D-01 BMatC= 2.62D-10 BMatP= 4.16D-09
 IDIUse=1 WtCom= 1.00D+00 WtEn= 0.00D+00
 Coeff-Com:  0.212D-04-0.530D-04-0.742D-04-0.233D-03-0.622D-03 0.262D-02
 Coeff-Com:  0.421D-01 0.154D+00 0.350D+00 0.453D+00
 Coeff:      0.212D-04-0.530D-04-0.742D-04-0.233D-03-0.622D-03 0.262D-02
 Coeff:      0.421D-01 0.154D+00 0.350D+00 0.453D+00
 Gap=     0.222 Goal=   None    Shift=    0.000
 RMSDP=1.04D-07 MaxDP=2.01D-06 DE=-3.42D-09 OVMax= 2.66D-06

 Cycle  11  Pass 1  IDiag  1:
 RMSU=  6.93D-08    CP:  1.02D+00  5.21D-01  8.10D-01  5.88D-01  7.88D-01
                    CP:  5.07D-01  7.71D-01  7.70D-01  7.44D-01  6.08D-01
 E= -459.505392186532     Delta-E=       -0.000000000157 Rises=F Damp=F
 DIIS: error= 2.38D-07 at cycle  11 NSaved=  11.
 NSaved=11 IEnMin=11 EnMin= -459.505392186532     IErMin=11 ErrMin= 2.38D-07
 ErrMax= 2.38D-07  0.00D+00 EMaxC= 1.00D-01 BMatC= 2.86D-11 BMatP= 2.62D-10
 IDIUse=1 WtCom= 1.00D+00 WtEn= 0.00D+00
 Coeff-Com:  0.260D-05-0.125D-04-0.454D-04-0.107D-03-0.430D-03 0.174D-03
 Coeff-Com:  0.876D-02 0.374D-01 0.939D-01 0.270D+00 0.590D+00
 Coeff:      0.260D-05-0.125D-04-0.454D-04-0.107D-03-0.430D-03 0.174D-03
 Coeff:      0.876D-02 0.374D-01 0.939D-01 0.270D+00 0.590D+00
 Gap=     0.222 Goal=   None    Shift=    0.000
 RMSDP=3.59D-08 MaxDP=9.11D-07 DE=-1.57D-10 OVMax= 8.04D-07

 Cycle  12  Pass 1  IDiag  1:
 RMSU=  1.35D-08    CP:  1.02D+00  5.21D-01  8.10D-01  5.88D-01  7.88D-01
                    CP:  5.07D-01  7.71D-01  7.73D-01  7.42D-01  6.65D-01
                    CP:  6.29D-01
 E= -459.505392186555     Delta-E=       -0.000000000023 Rises=F Damp=F
 DIIS: error= 1.78D-08 at cycle  12 NSaved=  12.
 NSaved=12 IEnMin=12 EnMin= -459.505392186555     IErMin=12 ErrMin= 1.78D-08
 ErrMax= 1.78D-08  0.00D+00 EMaxC= 1.00D-01 BMatC= 1.94D-13 BMatP= 2.86D-11
 IDIUse=1 WtCom= 1.00D+00 WtEn= 0.00D+00
 Coeff-Com:  0.429D-07-0.161D-05-0.781D-05-0.174D-04-0.780D-04-0.237D-04
 Coeff-Com:  0.957D-03 0.463D-02 0.127D-01 0.548D-01 0.161D+00 0.766D+00
 Coeff:      0.429D-07-0.161D-05-0.781D-05-0.174D-04-0.780D-04-0.237D-04
 Coeff:      0.957D-03 0.463D-02 0.127D-01 0.548D-01 0.161D+00 0.766D+00
 Gap=     0.222 Goal=   None    Shift=    0.000
 RMSDP=4.33D-09 MaxDP=9.84D-08 DE=-2.27D-11 OVMax= 9.37D-08

 Error on total polarization charges =  0.00947
 SCF Done:  E(RB-P86) =  -459.505392187     A.U. after   12 cycles
            NFock= 12  Conv=0.43D-08     -V/T= 2.0041
 KE= 4.576118065292D+02 PE=-1.924330485864D+03 EE= 5.850729140243D+02
 Leave Link  502 at Mon Feb 22 21:21:04 2021, MaxMem=   104857600 cpu:             285.6 elap:               9.1
 (Enter /sw/arch/RedHatEnterpriseServer7/EB_production/2019/software/Gaussian/g16.c01/l601.exe)
 Copying SCF densities to generalized density rwf, IOpCl= 0 IROHF=0.

 **********************************************************************

            Population analysis using the SCF Density.

 **********************************************************************

 Orbital symmetries:
       Occupied  (A) (A) (A) (A) (A) (A) (A) (A) (A) (A) (A) (A)
                 (A) (A) (A) (A) (A) (A) (A) (A) (A) (A) (A) (A)
                 (A) (A) (A) (A) (A) (A) (A) (A) (A)
       Virtual   (A) (A) (A) (A) (A) (A) (A) (A) (A) (A) (A) (A)
                 (A) (A) (A) (A) (A) (A) (A) (A) (A) (A) (A) (A)
                 (A) (A) (A) (A) (A) (A) (A) (A) (A) (A) (A) (A)
                 (A) (A) (A) (A) (A) (A) (A) (A) (A) (A) (A) (A)
                 (A) (A) (A) (A) (A) (A) (A) (A) (A) (A) (A) (A)
                 (A) (A) (A) (A) (A) (A) (A) (A) (A) (A) (A) (A)
                 (A) (A) (A) (A) (A) (A) (A) (A) (A) (A) (A) (A)
                 (A) (A) (A) (A) (A) (A) (A) (A) (A) (A) (A) (A)
                 (A) (A) (A) (A) (A) (A) (A) (A) (A) (A) (A) (A)
                 (A) (A) (A) (A) (A) (A) (A) (A) (A) (A) (A) (A)
                 (A) (A) (A) (A) (A) (A) (A) (A) (A) (A) (A) (A)
                 (A) (A) (A) (A) (A) (A) (A) (A) (A) (A) (A) (A)
                 (A) (A) (A) (A) (A) (A) (A) (A) (A) (A) (A) (A)
                 (A) (A) (A) (A) (A) (A) (A) (A) (A) (A) (A) (A)
                 (A) (A) (A) (A) (A) (A) (A) (A) (A) (A) (A)
 The electronic state is 1-A.
 Alpha  occ. eigenvalues --  -18.78433 -18.77660 -18.77229 -18.77073  -9.95880
 Alpha  occ. eigenvalues --   -9.95619  -9.94761  -9.94451  -0.96010  -0.94812
 Alpha  occ. eigenvalues --   -0.93949  -0.93430  -0.69906  -0.65703  -0.57949
 Alpha  occ. eigenvalues --   -0.53050  -0.50095  -0.47462  -0.45260  -0.44373
 Alpha  occ. eigenvalues --   -0.43769  -0.40245  -0.39361  -0.36826  -0.36067
 Alpha  occ. eigenvalues --   -0.33073  -0.32337  -0.30739  -0.28164  -0.24349
 Alpha  occ. eigenvalues --   -0.23917  -0.23804  -0.22489
 Alpha virt. eigenvalues --   -0.00258   0.00429   0.03026   0.03848   0.06243
 Alpha virt. eigenvalues --    0.06728   0.07925   0.09125   0.10285   0.11451
 Alpha virt. eigenvalues --    0.12481   0.13516   0.13908   0.16154   0.17993
 Alpha virt. eigenvalues --    0.18385   0.18850   0.23899   0.25211   0.25787
 Alpha virt. eigenvalues --    0.27372   0.28350   0.29410   0.30390   0.31075
 Alpha virt. eigenvalues --    0.32648   0.33982   0.35274   0.35879   0.36834
 Alpha virt. eigenvalues --    0.37259   0.38870   0.39096   0.40793   0.41552
 Alpha virt. eigenvalues --    0.41979   0.42819   0.43846   0.44361   0.44785
 Alpha virt. eigenvalues --    0.47525   0.47913   0.49761   0.50586   0.51483
 Alpha virt. eigenvalues --    0.52881   0.55275   0.55880   0.58120   0.59060
 Alpha virt. eigenvalues --    0.63806   0.67716   0.70106   0.71502   0.74740
 Alpha virt. eigenvalues --    0.82874   0.83864   0.86913   0.96311   1.13026
 Alpha virt. eigenvalues --    1.13486   1.18303   1.19527   1.21639   1.22390
 Alpha virt. eigenvalues --    1.23614   1.24977   1.26602   1.27132   1.29501
 Alpha virt. eigenvalues --    1.31879   1.33166   1.35199   1.35441   1.39830
 Alpha virt. eigenvalues --    1.41013   1.42175   1.43127   1.45384   1.45674
 Alpha virt. eigenvalues --    1.50029   1.51411   1.53496   1.56283   1.57337
 Alpha virt. eigenvalues --    1.58599   1.64620   1.65360   1.67907   1.69670
 Alpha virt. eigenvalues --    1.72403   1.73305   1.75839   1.78395   1.79041
 Alpha virt. eigenvalues --    1.81635   1.85974   1.87471   1.88825   1.91248
 Alpha virt. eigenvalues --    1.92531   1.95377   1.97585   1.98347   2.00327
 Alpha virt. eigenvalues --    2.02001   2.03769   2.07146   2.10249   2.17049
 Alpha virt. eigenvalues --    2.18410   2.21167   2.22131   2.24406   2.26287
 Alpha virt. eigenvalues --    2.32264   2.38718   2.42544   2.44659   2.45562
 Alpha virt. eigenvalues --    2.50741   2.50924   2.51844   2.52948   2.54175
 Alpha virt. eigenvalues --    2.56500   2.57850   2.58789   2.59767   2.62720
 Alpha virt. eigenvalues --    2.63578   2.64575   2.65864   2.68701   2.72952
 Alpha virt. eigenvalues --    2.81058   2.82143   2.83878   2.85273   2.86988
 Alpha virt. eigenvalues --    2.88115   2.88742   2.90109   2.91648   2.93295
 Alpha virt. eigenvalues --    2.94910   2.96989   2.97651   3.02176   3.03265
 Alpha virt. eigenvalues --    3.07460   3.09271   3.11670   3.13965   3.16594
 Alpha virt. eigenvalues --    3.17334   3.22065   3.23591   3.29469   3.31454
 Alpha virt. eigenvalues --    3.37549   3.38210   3.42512   3.84101   3.86605
 Alpha virt. eigenvalues --    3.90906   3.92255   4.15364   4.16033   4.17467
 Alpha virt. eigenvalues --    4.18141  21.60690  21.65419  21.69903  21.77350
 Alpha virt. eigenvalues --   43.08261  43.12121  43.18384  43.26697
          Condensed to atoms (all electrons):
               1          2          3          4          5          6
     1  O    8.012988   0.255920  -0.086362  -0.007552  -0.002288  -0.002222
     2  C    0.255920   5.334126   0.033981  -0.004587  -0.011123  -0.006211
     3  C   -0.086362   0.033981   5.932718   0.249917  -0.224994   0.008819
     4  O   -0.007552  -0.004587   0.249917   7.974024  -0.111713   0.004866
     5  C   -0.002288  -0.011123  -0.224994  -0.111713   5.940852   0.168357
     6  O   -0.002222  -0.006211   0.008819   0.004866   0.168357   7.968340
     7  C   -0.002128   0.013805  -0.006014   0.014462   0.040397  -0.047285
     8  O    0.000002  -0.002304   0.004127  -0.005511  -0.101373   0.003329
     9  H    0.295226  -0.032703   0.014668  -0.000946  -0.000129  -0.000064
    10  H   -0.066461   0.372021  -0.016034   0.010174  -0.037287   0.009172
    11  H   -0.052976   0.396975  -0.038835  -0.012734   0.020159   0.001106
    12  H    0.004912  -0.044587   0.357673  -0.057339  -0.015664   0.003458
    13  H    0.000849  -0.001156  -0.032837   0.294369   0.011651  -0.000376
    14  H    0.021843  -0.024219  -0.091199   0.008530   0.394536  -0.050509
    15  H    0.000220   0.018486  -0.014384   0.000101  -0.034771   0.310042
    16  H    0.000035  -0.000142  -0.041271   0.001418  -0.005338   0.001912
    17  H    0.000046  -0.001380   0.022744  -0.000969  -0.050686   0.012257
    18  H   -0.000001   0.000063   0.000903   0.001103   0.013533  -0.000274
               7          8          9         10         11         12
     1  O   -0.002128   0.000002   0.295226  -0.066461  -0.052976   0.004912
     2  C    0.013805  -0.002304  -0.032703   0.372021   0.396975  -0.044587
     3  C   -0.006014   0.004127   0.014668  -0.016034  -0.038835   0.357673
     4  O    0.014462  -0.005511  -0.000946   0.010174  -0.012734  -0.057339
     5  C    0.040397  -0.101373  -0.000129  -0.037287   0.020159  -0.015664
     6  O   -0.047285   0.003329  -0.000064   0.009172   0.001106   0.003458
     7  C    5.196319   0.314747   0.000079   0.000077  -0.000487  -0.029629
     8  O    0.314747   7.970322  -0.000002   0.000048   0.000020  -0.000007
     9  H    0.000079  -0.000002   0.439334  -0.006128  -0.003804  -0.000729
    10  H    0.000077   0.000048  -0.006128   0.629953  -0.048116   0.005644
    11  H   -0.000487   0.000020  -0.003804  -0.048116   0.576681  -0.004361
    12  H   -0.029629  -0.000007  -0.000729   0.005644  -0.004361   0.613350
    13  H    0.000045   0.001601  -0.000127   0.001068   0.002487  -0.010871
    14  H   -0.062995   0.012669  -0.000743   0.002805   0.000584   0.015637
    15  H    0.010162  -0.000259  -0.000083  -0.000394   0.000074  -0.001173
    16  H    0.384856  -0.061680   0.000003   0.000133  -0.000047   0.007440
    17  H    0.396480  -0.051416  -0.000003  -0.000065   0.000024  -0.000391
    18  H   -0.034868   0.294944   0.000000  -0.000001  -0.000002  -0.000089
              13         14         15         16         17         18
     1  O    0.000849   0.021843   0.000220   0.000035   0.000046  -0.000001
     2  C   -0.001156  -0.024219   0.018486  -0.000142  -0.001380   0.000063
     3  C   -0.032837  -0.091199  -0.014384  -0.041271   0.022744   0.000903
     4  O    0.294369   0.008530   0.000101   0.001418  -0.000969   0.001103
     5  C    0.011651   0.394536  -0.034771  -0.005338  -0.050686   0.013533
     6  O   -0.000376  -0.050509   0.310042   0.001912   0.012257  -0.000274
     7  C    0.000045  -0.062995   0.010162   0.384856   0.396480  -0.034868
     8  O    0.001601   0.012669  -0.000259  -0.061680  -0.051416   0.294944
     9  H   -0.000127  -0.000743  -0.000083   0.000003  -0.000003   0.000000
    10  H    0.001068   0.002805  -0.000394   0.000133  -0.000065  -0.000001
    11  H    0.002487   0.000584   0.000074  -0.000047   0.000024  -0.000002
    12  H   -0.010871   0.015637  -0.001173   0.007440  -0.000391  -0.000089
    13  H    0.447895  -0.001374  -0.000044  -0.000387   0.000112  -0.000087
    14  H   -0.001374   0.649040  -0.011331   0.015929  -0.019653  -0.000417
    15  H   -0.000044  -0.011331   0.424095  -0.001063   0.000179   0.000028
    16  H   -0.000387   0.015929  -0.001063   0.646838  -0.070037  -0.005209
    17  H    0.000112  -0.019653   0.000179  -0.070037   0.627993  -0.005836
    18  H   -0.000087  -0.000417   0.000028  -0.005209  -0.005836   0.444748
 Mulliken charges:
               1
     1  O   -0.372050
     2  C   -0.296965
     3  C   -0.073618
     4  O   -0.357613
     5  C    0.005881
     6  O   -0.384718
     7  C   -0.188021
     8  O   -0.379254
     9  H    0.296151
    10  H    0.143391
    11  H    0.163251
    12  H    0.156727
    13  H    0.287183
    14  H    0.140866
    15  H    0.300115
    16  H    0.126611
    17  H    0.140602
    18  H    0.291464
 Sum of Mulliken charges =  -0.00000
 Mulliken charges with hydrogens summed into heavy atoms:
               1
     1  O   -0.075900
     2  C    0.009677
     3  C    0.083108
     4  O   -0.070430
     5  C    0.146746
     6  O   -0.084603
     7  C    0.079191
     8  O   -0.087791
 Electronic spatial extent (au):  <R**2>=           1123.8025
 Charge=             -0.0000 electrons
 Dipole moment (field-independent basis, Debye):
    X=             -2.6642    Y=              1.0221    Z=             -2.9356  Tot=              4.0939
 Quadrupole moment (field-independent basis, Debye-Ang):
   XX=            -28.5259   YY=            -52.9580   ZZ=            -50.2054
   XY=             -1.5384   XZ=              1.6163   YZ=              6.2231
 Traceless Quadrupole moment (field-independent basis, Debye-Ang):
   XX=             15.3705   YY=             -9.0615   ZZ=             -6.3090
   XY=             -1.5384   XZ=              1.6163   YZ=              6.2231
 Octapole moment (field-independent basis, Debye-Ang**2):
  XXX=             -2.4424  YYY=            -11.8300  ZZZ=             -2.1098  XYY=            -16.6429
  XXY=             -1.6814  XXZ=              0.2575  XZZ=             -1.7782  YZZ=             -3.1642
  YYZ=             -3.5545  XYZ=             -2.5981
 Hexadecapole moment (field-independent basis, Debye-Ang**3):
 XXXX=           -508.3265 YYYY=           -368.6130 ZZZZ=           -147.0595 XXXY=            -41.7618
 XXXZ=            -27.0085 YYYX=            -15.5031 YYYZ=             23.0159 ZZZX=             -4.3467
 ZZZY=              7.1601 XXYY=           -192.0349 XXZZ=           -165.4440 YYZZ=            -85.8733
 XXYZ=              9.9268 YYXZ=              7.8878 ZZXY=              2.0234
 N-N= 4.221403731244D+02 E-N=-1.924330485740D+03  KE= 4.576118065292D+02
 No NMR shielding tensors so no spin-rotation constants.
 Leave Link  601 at Mon Feb 22 21:21:05 2021, MaxMem=   104857600 cpu:               3.7 elap:               0.2
 (Enter /sw/arch/RedHatEnterpriseServer7/EB_production/2019/software/Gaussian/g16.c01/l701.exe)
 ... and contract with generalized density number  0.
 Compute integral first derivatives.
 R6Disp: Adding Grimme-D3 dispersion energy 1st derivatives to the gradient.
 PrsmSu:  requested number of processors reduced to:  29 ShMem   1 Linda.
 D1PCM: PCM CHGder 1st derivatives, ID1Alg=3 FixD1E=F DoIter=F DoCFld=F I1PDM=0.
 GePol: Maximum number of non-zero 1st derivatives   =     183
 CoulSu:  requested number of processors reduced to:  29 ShMem   1 Linda.
 CoulSu:  requested number of processors reduced to:  30 ShMem   1 Linda.
 Leave Link  701 at Mon Feb 22 21:21:05 2021, MaxMem=   104857600 cpu:              17.5 elap:               0.6
 (Enter /sw/arch/RedHatEnterpriseServer7/EB_production/2019/software/Gaussian/g16.c01/l702.exe)
 L702 exits ... SP integral derivatives will be done elsewhere.
 Leave Link  702 at Mon Feb 22 21:21:05 2021, MaxMem=   104857600 cpu:               0.6 elap:               0.0
 (Enter /sw/arch/RedHatEnterpriseServer7/EB_production/2019/software/Gaussian/g16.c01/l703.exe)
 Integral derivatives from FoFJK, PRISM(SPDF).
 Compute integral first derivatives, UseDBF=F ICtDFT=           0.
 Calling FoFJK, ICntrl=      2527 FMM=F ISym2X=0 I1Cent= 0 IOpClX= 0 NMat=1 NMatS=1 NMatT=0.
 FoFJK:  IHMeth= 1 ICntrl=    2527 DoSepK=F KAlg= 0 I1Cent=           0 FoldK=F
 IRaf=         0 NMat=       1 IRICut=       1 DoRegI=T DoRafI=F ISym2E= 0 IDoP0=0 IntGTp=1.
 FoFCou: FMM=F IPFlag=           0 FMFlag=      100000 FMFlg1=         800
         NFxFlg=           0 DoJE=F BraDBF=F KetDBF=F FulRan=T
         wScrn=  0.000000 ICntrl=      2527 IOpCl=  0 I1Cent=           0 NGrid=           0
         NMat0=    1 NMatS0=      1 NMatT0=    0 NMatD0=    1 NMtDS0=    0 NMtDT0=    0
 Symmetry not used in FoFCou.
 Leave Link  703 at Mon Feb 22 21:21:07 2021, MaxMem=   104857600 cpu:              41.0 elap:               1.3
 (Enter /sw/arch/RedHatEnterpriseServer7/EB_production/2019/software/Gaussian/g16.c01/l716.exe)
 Dipole        =-1.04817396D+00 4.02116003D-01-1.15493465D+00
 ***** Axes restored to original set *****
 -------------------------------------------------------------------
 Center     Atomic                   Forces (Hartrees/Bohr)
 Number     Number              X              Y              Z
 -------------------------------------------------------------------
      1        8           0.007608569    0.008307602   -0.000014525
      2        6          -0.001101025   -0.005002397    0.009740175
      3        6           0.009248111    0.007566383   -0.005753437
      4        8          -0.007663508    0.006375526   -0.002666070
      5        6          -0.013396799    0.007908024   -0.001101193
      6        8           0.003128630   -0.005625415   -0.004280050
      7        6           0.004057584   -0.000989896   -0.004922468
      8        8          -0.008726691    0.007765592    0.004945141
      9        1          -0.002072038    0.003502275    0.006623552
     10        1           0.002414612   -0.011173664   -0.000699796
     11        1          -0.008236600   -0.005464369   -0.005483706
     12        1           0.002260622   -0.011915354    0.000250261
     13        1           0.000727785    0.003438975    0.005652175
     14        1          -0.001104546    0.009744244   -0.000507815
     15        1          -0.001239271   -0.003239295    0.005157012
     16        1           0.000314970   -0.010092650   -0.004184168
     17        1           0.010653484   -0.005569372    0.002681880
     18        1           0.003126111    0.004463791   -0.005436967
 -------------------------------------------------------------------
 Cartesian Forces:  Max     0.013396799 RMS     0.006104422
 Leave Link  716 at Mon Feb 22 21:21:07 2021, MaxMem=   104857600 cpu:               0.7 elap:               0.0
 (Enter /sw/arch/RedHatEnterpriseServer7/EB_production/2019/software/Gaussian/g16.c01/l103.exe)

 GradGradGradGradGradGradGradGradGradGradGradGradGradGradGradGradGradGrad
 Berny optimization.
 FormGI is forming the generalized inverse of G from B-inverse, IUseBI=4.
 Internal  Forces:  Max     0.013628941 RMS     0.005630402
 Search for a local minimum.
 Step number   1 out of a maximum of   94
 All quantities printed in internal units (Hartrees-Bohrs-Radians)
 RMS Force = .56304D-02 SwitMx=.10000D-02 MixMth= 1
 Mixed Optimization -- RFO/linear search
 Second derivative matrix not updated -- first step.
 ITU=  0
     Eigenvalues ---    0.00230   0.00230   0.00230   0.01315   0.01318
     Eigenvalues ---    0.01358   0.01363   0.04012   0.04043   0.04686
     Eigenvalues ---    0.04716   0.04811   0.04836   0.05685   0.05695
     Eigenvalues ---    0.07497   0.07531   0.11581   0.11634   0.13896
     Eigenvalues ---    0.13921   0.16000   0.16000   0.16000   0.16000
     Eigenvalues ---    0.16916   0.17102   0.19741   0.19901   0.22033
     Eigenvalues ---    0.22059   0.26805   0.27624   0.27681   0.34433
     Eigenvalues ---    0.34440   0.34441   0.34447   0.34500   0.34528
     Eigenvalues ---    0.41207   0.41238   0.41687   0.41739   0.51178
     Eigenvalues ---    0.51231   0.51352   0.51522
 RFO step:  Lambda=-1.38124424D-02 EMin= 2.30000000D-03
 Linear search not attempted -- first point.
 Iteration  1 RMS(Cart)=  0.08455244 RMS(Int)=  0.00293553
 Iteration  2 RMS(Cart)=  0.00512265 RMS(Int)=  0.00071495
 Iteration  3 RMS(Cart)=  0.00001290 RMS(Int)=  0.00071486
 Iteration  4 RMS(Cart)=  0.00000002 RMS(Int)=  0.00071486
 ITry= 1 IFail=0 DXMaxC= 2.67D-01 DCOld= 1.00D+10 DXMaxT= 3.00D-01 DXLimC= 3.00D+00 Rises=F
 Variable       Old X    -DE/DX   Delta X   Delta X   Delta X     New X
                                 (Linear)    (Quad)   (Total)
    R1        2.69323   0.01363   0.00000   0.03164   0.03164   2.72488
    R2        1.85225  -0.00637   0.00000  -0.01208  -0.01208   1.84017
    R3        2.92968  -0.00953   0.00000  -0.03284  -0.03284   2.89684
    R4        2.06447   0.01007   0.00000   0.02804   0.02804   2.09251
    R5        2.06495   0.00856   0.00000   0.02385   0.02385   2.08879
    R6        2.69904   0.01168   0.00000   0.02741   0.02741   2.72645
    R7        2.94828  -0.00837   0.00000  -0.02971  -0.02971   2.91857
    R8        2.06582   0.00918   0.00000   0.02563   0.02563   2.09146
    R9        1.85344  -0.00580   0.00000  -0.01102  -0.01102   1.84241
   R10        2.69945   0.00793   0.00000   0.01863   0.01863   2.71808
   R11        2.92841  -0.01080   0.00000  -0.03718  -0.03718   2.89124
   R12        2.06605   0.00774   0.00000   0.02161   0.02161   2.08765
   R13        1.85060  -0.00495   0.00000  -0.00936  -0.00936   1.84124
   R14        2.69257   0.01293   0.00000   0.02998   0.02998   2.72255
   R15        2.06593   0.00898   0.00000   0.02507   0.02507   2.09101
   R16        2.06592   0.00774   0.00000   0.02161   0.02161   2.08754
   R17        1.85395  -0.00707   0.00000  -0.01345  -0.01345   1.84050
    A1        1.82812   0.00823   0.00000   0.04736   0.04736   1.87548
    A2        1.94687  -0.01123   0.00000  -0.04453  -0.04429   1.90258
    A3        1.90185   0.00648   0.00000   0.04042   0.03961   1.94146
    A4        1.88922   0.00918   0.00000   0.06426   0.06345   1.95267
    A5        1.92874  -0.00003   0.00000  -0.01580  -0.01568   1.91306
    A6        1.91346  -0.00301   0.00000  -0.03151  -0.03118   1.88228
    A7        1.88213  -0.00085   0.00000  -0.00982  -0.01156   1.87057
    A8        1.88824   0.00844   0.00000   0.04981   0.04939   1.93763
    A9        1.98709  -0.00682   0.00000  -0.04482  -0.04533   1.94176
   A10        1.88429  -0.00144   0.00000  -0.02323  -0.02557   1.85872
   A11        1.92646  -0.00348   0.00000  -0.01668  -0.01573   1.91074
   A12        1.88075   0.00220   0.00000   0.05762   0.05764   1.93839
   A13        1.89385   0.00156   0.00000  -0.01714  -0.01849   1.87536
   A14        1.83293   0.00602   0.00000   0.03464   0.03464   1.86757
   A15        1.92625  -0.00140   0.00000  -0.02055  -0.02059   1.90566
   A16        1.98419   0.00765   0.00000   0.02404   0.02323   2.00742
   A17        1.90967  -0.00276   0.00000   0.00037   0.00015   1.90982
   A18        1.86811  -0.00780   0.00000  -0.05577  -0.05564   1.81247
   A19        1.88354   0.00474   0.00000   0.04356   0.04382   1.92736
   A20        1.88900  -0.00048   0.00000   0.00978   0.00993   1.89892
   A21        1.84659   0.00643   0.00000   0.03701   0.03701   1.88360
   A22        1.95435  -0.00465   0.00000  -0.01515  -0.01483   1.93953
   A23        1.92453  -0.00309   0.00000  -0.02815  -0.02858   1.89595
   A24        1.91520  -0.00688   0.00000  -0.06094  -0.06142   1.85379
   A25        1.90156   0.00653   0.00000   0.05783   0.05744   1.95900
   A26        1.87629   0.00725   0.00000   0.05141   0.05053   1.92682
   A27        1.89022   0.00133   0.00000  -0.00214  -0.00536   1.88487
   A28        1.82802   0.00555   0.00000   0.03192   0.03192   1.85994
    D1       -3.10650   0.00035   0.00000  -0.00679  -0.00656  -3.11305
    D2        1.04255   0.00331   0.00000   0.01467   0.01609   1.05864
    D3       -0.99990  -0.00430   0.00000  -0.03128  -0.03294  -1.03284
    D4        1.10335  -0.00201   0.00000   0.00278   0.00267   1.10602
    D5       -1.04506   0.00085   0.00000   0.01779   0.01847  -1.02659
    D6        3.13421   0.00425   0.00000   0.08442   0.08396  -3.06501
    D7       -3.06124  -0.00141   0.00000   0.01301   0.01284  -3.04840
    D8        1.07354   0.00145   0.00000   0.02803   0.02864   1.10218
    D9       -1.03038   0.00484   0.00000   0.09466   0.09413  -0.93624
   D10       -0.98901  -0.00434   0.00000  -0.02833  -0.02849  -1.01750
   D11       -3.13742  -0.00148   0.00000  -0.01332  -0.01269   3.13308
   D12        1.04185   0.00192   0.00000   0.05331   0.05280   1.09465
   D13        1.04812   0.00272   0.00000   0.01073   0.01185   1.05997
   D14       -3.05031  -0.00238   0.00000  -0.02248  -0.02236  -3.07268
   D15       -0.98504  -0.00115   0.00000  -0.01831  -0.01955  -1.00459
   D16       -1.03059   0.00070   0.00000   0.04515   0.04507  -0.98551
   D17       -3.12969   0.00652   0.00000   0.11546   0.11554  -3.01415
   D18        1.03952   0.00396   0.00000   0.08636   0.08631   1.12583
   D19        3.12520  -0.00284   0.00000   0.02462   0.02438  -3.13361
   D20        1.02609   0.00299   0.00000   0.09494   0.09485   1.12094
   D21       -1.08788   0.00043   0.00000   0.06583   0.06561  -1.02227
   D22        1.06796  -0.00443   0.00000  -0.02538  -0.02523   1.04273
   D23       -1.03114   0.00139   0.00000   0.04493   0.04523  -0.98591
   D24        3.13807  -0.00117   0.00000   0.01583   0.01600  -3.12912
   D25        1.09337  -0.00074   0.00000   0.04255   0.04183   1.13520
   D26       -3.02233   0.00271   0.00000   0.02282   0.02382  -2.99851
   D27       -0.99262   0.00054   0.00000   0.02749   0.02721  -0.96541
   D28       -1.13363  -0.00272   0.00000  -0.09831  -0.09824  -1.23186
   D29        0.98676   0.00028   0.00000  -0.05457  -0.05525   0.93151
   D30        3.06745  -0.00427   0.00000  -0.11260  -0.11227   2.95518
   D31        3.01795  -0.00028   0.00000  -0.04803  -0.04784   2.97011
   D32       -1.14484   0.00272   0.00000  -0.00430  -0.00486  -1.14970
   D33        0.93585  -0.00183   0.00000  -0.06232  -0.06188   0.87397
   D34        0.99187  -0.00154   0.00000  -0.07494  -0.07470   0.91717
   D35        3.11226   0.00146   0.00000  -0.03120  -0.03172   3.08054
   D36       -1.09024  -0.00309   0.00000  -0.08923  -0.08874  -1.17897
   D37       -3.11446   0.00171   0.00000   0.02744   0.02771  -3.08675
   D38        1.03518   0.00416   0.00000   0.03293   0.03419   1.06937
   D39       -1.00960  -0.00485   0.00000  -0.02338  -0.02490  -1.03450
         Item               Value     Threshold  Converged?
 Maximum Force            0.013629     0.000450     NO 
 RMS     Force            0.005630     0.000300     NO 
 Maximum Displacement     0.266743     0.001800     NO 
 RMS     Displacement     0.086227     0.001200     NO 
 Predicted change in Energy=-8.051233D-03
 Lowest energy point so far.  Saving SCF results.
 GradGradGradGradGradGradGradGradGradGradGradGradGradGradGradGradGradGrad

 Leave Link  103 at Mon Feb 22 21:21:07 2021, MaxMem=   104857600 cpu:               1.0 elap:               0.1
 (Enter /sw/arch/RedHatEnterpriseServer7/EB_production/2019/software/Gaussian/g16.c01/l202.exe)
                          Input orientation:                          
 ---------------------------------------------------------------------
 Center     Atomic      Atomic             Coordinates (Angstroms)
 Number     Number       Type             X           Y           Z
 ---------------------------------------------------------------------
      1          8           0       -1.005353    1.460140   -0.333508
      2          6           0       -1.740166    0.236941   -0.540955
      3          6           0       -2.830056    0.121283    0.530805
      4          8           0       -3.789506    1.192106    0.410821
      5          6           0       -2.222355    0.131033    1.950633
      6          8           0       -1.259364   -0.931766    2.059942
      7          6           0       -3.213403   -0.155186    3.080557
      8          8           0       -4.125896    0.944854    3.261993
      9          1           0       -0.338182    1.523526   -1.039986
     10          1           0       -1.073091   -0.645376   -0.489355
     11          1           0       -2.233769    0.215571   -1.529733
     12          1           0       -3.312762   -0.863649    0.383153
     13          1           0       -4.195048    1.113936   -0.472343
     14          1           0       -1.741491    1.107867    2.137756
     15          1           0       -0.525527   -0.735378    1.449815
     16          1           0       -3.739075   -1.103084    2.858010
     17          1           0       -2.607197   -0.306859    3.991501
     18          1           0       -4.688729    0.716132    4.023234
 ---------------------------------------------------------------------
                    Distance matrix (angstroms):
                    1          2          3          4          5
     1  O    0.000000
     2  C    1.441943   0.000000
     3  C    2.422626   1.532941   0.000000
     4  O    2.894370   2.453164   1.442775   0.000000
     5  C    2.909454   2.540026   1.544443   2.439848   0.000000
     6  O    3.393279   2.891663   2.431922   3.692160   1.438347
     7  C    4.374998   3.929319   2.593188   3.045420   1.529976
     8  O    4.788626   4.544806   3.133186   2.881575   2.450599
     9  H    0.973778   1.967203   3.262377   3.758499   3.799071
    10  H    2.112362   1.107310   2.171502   3.400819   2.806628
    11  H    2.118705   1.105343   2.147154   2.672020   3.481411
    12  H    3.352274   2.130337   1.106751   2.110493   2.152991
    13  H    3.211431   2.607734   1.963382   0.974964   3.275428
    14  H    2.602527   2.816738   2.177294   2.680255   1.104739
    15  H    2.868933   2.526642   2.624748   3.930427   1.969952
    16  H    4.922311   4.164646   2.782315   3.355470   2.155648
    17  H    4.939018   4.646572   3.494193   4.057835   2.122498
    18  H    5.753435   5.454858   4.000696   3.752957   3.274297
                    6          7          8          9         10
     6  O    0.000000
     7  C    2.337306   0.000000
     8  O    3.630927   1.440711   0.000000
     9  H    4.060368   5.297531   5.760960   0.000000
    10  H    2.572087   4.191121   5.091273   2.355296   0.000000
    11  H    3.892507   4.727782   5.203137   2.354537   1.780671
    12  H    2.651925   2.790660   3.495652   4.070879   2.413513
    13  H    4.383561   3.898384   3.738802   3.919872   3.583586
    14  H    2.097284   2.156547   2.641186   3.498585   3.228364
    15  H    0.974341   3.196970   4.366900   3.367024   2.017005
    16  H    2.610599   1.106513   2.122942   5.801683   4.303699
    17  H    2.436818   1.104676   2.098907   5.815032   4.748279
    18  H    4.281428   1.955613   0.973952   6.724235   5.940539
                   11         12         13         14         15
    11  H    0.000000
    12  H    2.447055   0.000000
    13  H    2.402447   2.328335   0.000000
    14  H    3.806443   3.071547   3.582262   0.000000
    15  H    3.563720   2.987122   4.536523   2.312873   0.000000
    16  H    4.822561   2.522695   4.026704   3.065520   3.527763
    17  H    5.558454   3.718604   4.946295   2.487421   3.313178
    18  H    6.092031   4.199903   4.540065   3.520610   5.105058
                   16         17         18
    16  H    0.000000
    17  H    1.788833   0.000000
    18  H    2.359902   2.319546   0.000000
 Stoichiometry    C4H10O4
 Framework group  C1[X(C4H10O4)]
 Deg. of freedom    48
 Full point group                 C1      NOp   1
 RotChk:  IX=0 Diff= 4.32D-02
 Largest Abelian subgroup         C1      NOp   1
 Largest concise Abelian subgroup C1      NOp   1
                         Standard orientation:                         
 ---------------------------------------------------------------------
 Center     Atomic      Atomic             Coordinates (Angstroms)
 Number     Number       Type             X           Y           Z
 ---------------------------------------------------------------------
      1          8           0       -2.265302   -0.077814    0.969695
      2          6           0       -1.937329   -0.010607   -0.432845
      3          6           0       -0.457966   -0.367467   -0.617365
      4          8           0       -0.198577   -1.726520   -0.208352
      5          6           0        0.453068    0.592641    0.178571
      6          8           0        0.181849    1.945946   -0.226209
      7          6           0        1.951714    0.426276   -0.080675
      8          8           0        2.442695   -0.805207    0.483272
      9          1           0       -3.213275    0.126560    1.058140
     10          1           0       -2.129555    1.000333   -0.841726
     11          1           0       -2.534788   -0.723341   -1.030202
     12          1           0       -0.231997   -0.225351   -1.691441
     13          1           0       -0.743367   -2.303615   -0.774673
     14          1           0        0.262773    0.468003    1.259637
     15          1           0       -0.731866    2.159894    0.035880
     16          1           0        2.130911    0.488508   -1.170806
     17          1           0        2.445216    1.291894    0.396263
     18          1           0        3.403693   -0.819176    0.325565
 ---------------------------------------------------------------------
 Rotational constants (GHZ):           2.8337987           1.4177792           1.0972175
 Leave Link  202 at Mon Feb 22 21:21:07 2021, MaxMem=   104857600 cpu:               0.2 elap:               0.0
 (Enter /sw/arch/RedHatEnterpriseServer7/EB_production/2019/software/Gaussian/g16.c01/l301.exe)
 Standard basis: TZVP (5D, 7F)
 Ernie: Thresh=  0.10000D-02 Tol=  0.10000D-05 Strict=F.
 There are   220 symmetry adapted cartesian basis functions of A   symmetry.
 There are   212 symmetry adapted basis functions of A   symmetry.
   212 basis functions,   360 primitive gaussians,   220 cartesian basis functions
    33 alpha electrons       33 beta electrons
       nuclear repulsion energy       423.5507329387 Hartrees.
 IExCor=  404 DFT=T Ex=B Corr=P86 ExCW=0 ScaHFX=  0.000000
 ScaDFX=  1.000000  1.000000  1.000000  1.000000 ScalE2=  1.000000  1.000000
 IRadAn=      5 IRanWt=     -1 IRanGd=            0 ICorTp=0 IEmpDi=131
 NAtoms=   18 NActive=   18 NUniq=   18 SFac= 1.00D+00 NAtFMM=   60 NAOKFM=F Big=F
 Integral buffers will be    131072 words long.
 Raffenetti 2 integral format.
 Two-electron integral symmetry is turned on.
 R6Disp:  Grimme-D3 Dispersion energy=       -0.0176327424 Hartrees.
 Nuclear repulsion after empirical dispersion term =      423.5331001963 Hartrees.
 ------------------------------------------------------------------------------
 Polarizable Continuum Model (PCM)
 =================================
 Model                : PCM.
 Atomic radii         : UFF (Universal Force Field).
 Polarization charges : Total charges.
 Charge compensation  : None.
 Solution method      : On-the-fly selection.
 Cavity type          : Scaled VdW (van der Waals Surface) (Alpha=1.100).
 Cavity algorithm     : GePol (No added spheres)
                        Default sphere list used, NSphG=   18.
                        Lebedev-Laikov grids with approx.  5.0 points / Ang**2.
                        Smoothing algorithm: York/Karplus (Gamma=1.0000).
                        Polarization charges: spherical gaussians, with
                                              point-specific exponents (IZeta= 3).
                        Self-potential: point-specific (ISelfS= 7).
                        Self-field    : sphere-specific E.n sum rule (ISelfD= 2).
 1st derivatives      : Analytical E(r).r(x)/FMM algorithm (CHGder, D1EAlg=3).
                        Cavity 1st derivative terms included.
 Solvent              : Water, Eps=  78.355300 Eps(inf)=   1.777849
 ------------------------------------------------------------------------------
 Spheres list:
 ISph  on   Nord     Re0    Alpha      Xe            Ye            Ze
    1   O      1    1.7500  1.100     -2.265302     -0.077814      0.969695
    2   C      2    1.9255  1.100     -1.937329     -0.010607     -0.432845
    3   C      3    1.9255  1.100     -0.457966     -0.367467     -0.617365
    4   O      4    1.7500  1.100     -0.198577     -1.726520     -0.208352
    5   C      5    1.9255  1.100      0.453068      0.592641      0.178571
    6   O      6    1.7500  1.100      0.181849      1.945946     -0.226209
    7   C      7    1.9255  1.100      1.951714      0.426276     -0.080675
    8   O      8    1.7500  1.100      2.442695     -0.805207      0.483272
    9   H      9    1.4430  1.100     -3.213275      0.126560      1.058140
   10   H     10    1.4430  1.100     -2.129555      1.000333     -0.841726
   11   H     11    1.4430  1.100     -2.534788     -0.723341     -1.030202
   12   H     12    1.4430  1.100     -0.231997     -0.225351     -1.691441
   13   H     13    1.4430  1.100     -0.743367     -2.303615     -0.774673
   14   H     14    1.4430  1.100      0.262773      0.468003      1.259637
   15   H     15    1.4430  1.100     -0.731866      2.159894      0.035880
   16   H     16    1.4430  1.100      2.130911      0.488508     -1.170806
   17   H     17    1.4430  1.100      2.445216      1.291894      0.396263
   18   H     18    1.4430  1.100      3.403693     -0.819176      0.325565
 ------------------------------------------------------------------------------
 GePol: Number of generator spheres                  =      18
 GePol: Total number of spheres                      =      18
 GePol: Number of exposed spheres                    =      18 (100.00%)
 GePol: Number of points                             =    1405
 GePol: Average weight of points                     =       0.13
 GePol: Minimum weight of points                     =   0.11D-10
 GePol: Maximum weight of points                     =    0.20322
 GePol: Number of points with low weight             =      97
 GePol: Fraction of low-weight points (<1% of avg)   =       6.90%
 GePol: Cavity surface area                          =    185.112 Ang**2
 GePol: Cavity volume                                =    179.397 Ang**3
 Leave Link  301 at Mon Feb 22 21:21:07 2021, MaxMem=   104857600 cpu:               1.7 elap:               0.1
 (Enter /sw/arch/RedHatEnterpriseServer7/EB_production/2019/software/Gaussian/g16.c01/l302.exe)
 NPDir=0 NMtPBC=     1 NCelOv=     1 NCel=       1 NClECP=     1 NCelD=      1
         NCelK=      1 NCelE2=     1 NClLst=     1 CellRange=     0.0.
 One-electron integrals computed using PRISM.
 One-electron integral symmetry used in STVInt
 PrsmSu:  requested number of processors reduced to:  29 ShMem   1 Linda.
 NBasis=   212 RedAO= T EigKep=  1.76D-04  NBF=   212
 NBsUse=   212 1.00D-06 EigRej= -1.00D+00 NBFU=   212
 Precomputing XC quadrature grid using
 IXCGrd= 4 IRadAn=           5 IRanWt=          -1 IRanGd=           0 AccXCQ= 0.00D+00.
 Generated NRdTot=       0 NPtTot=           0 NUsed=           0 NTot=          32
 NSgBfM=   219   219   219   219   219 MxSgAt=    18 MxSgA2=    18.
 Leave Link  302 at Mon Feb 22 21:21:07 2021, MaxMem=   104857600 cpu:               5.6 elap:               0.2
 (Enter /sw/arch/RedHatEnterpriseServer7/EB_production/2019/software/Gaussian/g16.c01/l303.exe)
 DipDrv:  MaxL=1.
 Leave Link  303 at Mon Feb 22 21:21:07 2021, MaxMem=   104857600 cpu:               1.0 elap:               0.1
 (Enter /sw/arch/RedHatEnterpriseServer7/EB_production/2019/software/Gaussian/g16.c01/l401.exe)
 Initial guess from the checkpoint file:  "UNXHWFMMPAWVPI-ZXZARUISSA-N.chk"
 B after Tr=    -0.000000    0.000000    0.000000
         Rot=    0.999867    0.012482   -0.004683   -0.009432 Ang=   1.87 deg.
 Guess basis will be translated and rotated to current coordinates.
 JPrj=2 DoOrth=T DoCkMO=T.
 Generating alternative initial guess.
 ExpMin= 9.52D-02 ExpMax= 2.70D+04 ExpMxC= 9.22D+02 IAcc=3 IRadAn=         5 AccDes= 0.00D+00
 Harris functional with IExCor=  404 and IRadAn=       5 diagonalized for initial guess.
 HarFok:  IExCor=  404 AccDes= 0.00D+00 IRadAn=         5 IDoV= 1 UseB2=F ITyADJ=14
 ICtDFT=  3500011 ScaDFX=  1.000000  1.000000  1.000000  1.000000
 FoFCou: FMM=F IPFlag=           0 FMFlag=      100000 FMFlg1=           0
         NFxFlg=           0 DoJE=T BraDBF=F KetDBF=T FulRan=T
         wScrn=  0.000000 ICntrl=       500 IOpCl=  0 I1Cent=   200000004 NGrid=           0
         NMat0=    1 NMatS0=      1 NMatT0=    0 NMatD0=    1 NMtDS0=    0 NMtDT0=    0
 Petite list used in FoFCou.
 Harris En= -459.639305950992    
 Leave Link  401 at Mon Feb 22 21:21:08 2021, MaxMem=   104857600 cpu:              15.9 elap:               0.6
 (Enter /sw/arch/RedHatEnterpriseServer7/EB_production/2019/software/Gaussian/g16.c01/l502.exe)
 Integral symmetry usage will be decided dynamically.
 Closed shell SCF:
 Using DIIS extrapolation, IDIIS=  1040.
 NGot=   104857600 LenX=   104750978 LenY=   104702137
 Requested convergence on RMS density matrix=1.00D-08 within 128 cycles.
 Requested convergence on MAX density matrix=1.00D-06.
 Requested convergence on             energy=1.00D-06.
 No special actions if energy rises.
 Fock matrices will be formed incrementally for  20 cycles.

 Cycle   1  Pass 1  IDiag  1:
 FoFJK:  IHMeth= 1 ICntrl=     500 DoSepK=F KAlg= 0 I1Cent=           0 FoldK=F
 IRaf= 940000000 NMat=       1 IRICut=       1 DoRegI=T DoRafI=F ISym2E= 0 IDoP0=0 IntGTp=1.
 FoFCou: FMM=F IPFlag=           0 FMFlag=      100000 FMFlg1=           0
         NFxFlg=           0 DoJE=T BraDBF=F KetDBF=F FulRan=T
         wScrn=  0.000000 ICntrl=       500 IOpCl=  0 I1Cent=           0 NGrid=           0
         NMat0=    1 NMatS0=      1 NMatT0=    0 NMatD0=    1 NMtDS0=    0 NMtDT0=    0
 Symmetry not used in FoFCou.
 Inv3:  Mode=1 IEnd=     5922075.
 Iteration    1 A*A^-1 deviation from unit magnitude is 2.66D-15 for    213.
 Iteration    1 A*A^-1 deviation from orthogonality  is 1.89D-15 for   1179   1012.
 Iteration    1 A^-1*A deviation from unit magnitude is 3.33D-15 for    906.
 Iteration    1 A^-1*A deviation from orthogonality  is 1.33D-15 for   1286    323.
 E= -459.504000190229    
 DIIS: error= 2.29D-03 at cycle   1 NSaved=   1.
 NSaved= 1 IEnMin= 1 EnMin= -459.504000190229     IErMin= 1 ErrMin= 2.29D-03
[...]
    33 alpha electrons       33 beta electrons
       nuclear repulsion energy       425.6575426397 Hartrees.
 NAtoms=   18 NActive=   18 NUniq=   18 SFac= 1.00D+00 NAtFMM=   60 NAOKFM=F Big=F
 Integral buffers will be    131072 words long.
 Raffenetti 2 integral format.
 Two-electron integral symmetry is turned on.
 Warning! Using old PCM defaults because the COSMOthermo output has been requested.
 These settings can be overridden by following keywords.
 ------------------------------------------------------------------------------
 Polarizable Continuum Model (PCM)
 =================================
 Model                : C-PCM.
 Atomic radii         : Klamt.
 XCosmo               : -1.000 (infinite dielectric limit)
 Polarization charges : Electronic and nuclear charges.
 Charge compensation  : Type 3 (Electronic density weighted correction).
 Solution method      : On-the-fly selection.
 Cavity type          : VdW (van der Waals Surface) (Alpha=1.000).
 Cavity algorithm     : GePol (No added spheres)
                        Default sphere list used, NSphG=   18.
                        Tesserae with average area of 0.200 Ang**2.
                        Smoothing algorithm: None.
                        Polarization charges: point-like.
                        Self-potential: constant (ISelfS= 1).
                        Self-field    : global E.n sum rule (ISelfD= 3).
 Solvent              : Water, Eps=  78.355300 Eps(inf)=   1.777849
 ------------------------------------------------------------------------------
 Spheres list:
 ISph  on   Nord     Re0    Alpha      Xe            Ye            Ze
    1   O      1    1.7200  1.000     -2.411865      0.333849      0.338749
    2   C      2    2.0000  1.000     -1.697835     -0.244261     -0.784450
    3   C      3    2.0000  1.000     -0.301375     -0.659319     -0.328552
    4   O      4    1.7200  1.000     -0.343143     -1.743782      0.624321
    5   C      5    2.0000  1.000      0.494301      0.493701      0.358429
    6   O      6    1.7200  1.000     -0.111246      1.788560      0.212666
    7   C      7    2.0000  1.000      1.900651      0.647056     -0.216837
    8   O      8    1.7200  1.000      2.614525     -0.585018     -0.018936
    9   H      9    1.3000  1.000     -3.285763      0.622903      0.020648
   10   H     10    1.3000  1.000     -1.602449      0.489260     -1.604825
   11   H     11    1.3000  1.000     -2.235107     -1.129240     -1.168837
   12   H     12    1.3000  1.000      0.245722     -0.981154     -1.235466
   13   H     13    1.3000  1.000     -0.676322     -2.531995      0.157882
   14   H     14    1.3000  1.000      0.573257      0.220218      1.428266
   15   H     15    1.3000  1.000     -1.053113      1.667287      0.473253
   16   H     16    1.3000  1.000      1.815734      0.895824     -1.291835
   17   H     17    1.3000  1.000      2.400634      1.489117      0.295576
   18   H     18    1.3000  1.000      3.456781     -0.514153     -0.500596
 ------------------------------------------------------------------------------
 One-electron integrals computed using PRISM.
 PrsmSu:  requested number of processors reduced to:  29 ShMem   1 Linda.
 NBasis=   212 RedAO= T EigKep=  1.56D-04  NBF=   212
 NBsUse=   212 1.00D-06 EigRej= -1.00D+00 NBFU=   212
 Initial guess from the checkpoint file:  "UNXHWFMMPAWVPI-ZXZARUISSA-N.chk"
 B after Tr=    -0.000000    0.000000    0.000000
         Rot=    1.000000    0.000000   -0.000000    0.000000 Ang=   0.00 deg.
 Requested convergence on RMS density matrix=1.00D-08 within 128 cycles.
 Requested convergence on MAX density matrix=1.00D-06.
 Requested convergence on             energy=1.00D-06.
 No special actions if energy rises.
 Inv3:  Mode=1 IEnd=     3709632.
 Iteration    1 A*A^-1 deviation from unit magnitude is 4.00D-15 for    951.
 Iteration    1 A*A^-1 deviation from orthogonality  is 7.25D-15 for    790    549.
 Iteration    1 A^-1*A deviation from unit magnitude is 6.00D-15 for    951.
 Iteration    1 A^-1*A deviation from orthogonality  is 3.20D-15 for    790    549.
 Error on nuclear    polarization charges =  0.01161
 Error on electronic polarization charges = -0.03817
 SCF Done:  E(RB-P86) =  -459.512086927     A.U. after   10 cycles
            NFock= 10  Conv=0.76D-08     -V/T= 2.0044
 --------------------------------------------------------------------
 Variational C-PCM results
 =========================
 <psi(f)|   H    |psi(f)>                     (a.u.) =    -459.475822
 <psi(f)|H+V(f)/2|psi(f)>                     (a.u.) =    -459.512087
 Total free energy in solution:
 - with all non electrostatic terms           (a.u.) =    -459.501489
 --------------------------------------------------------------------
 (Polarized solute)-Solvent               (kcal/mol) =     -22.76
 --------------------------------------------------------------------
 Cavitation energy                        (kcal/mol) =      20.70
 Dispersion energy                        (kcal/mol) =     -15.38
 Repulsion energy                         (kcal/mol) =       1.33
 Total non electrostatic                  (kcal/mol) =       6.65
 --------------------------------------------------------------------
 Partition over spheres:
 Sphere  on Atom  Surface  Charge   GEl     GCav    GDR
    1      O1      13.06   0.117   -1.84    1.62   -1.05
    2      C2      11.33  -0.036   -0.66    1.33   -0.60
    3      C3       3.94  -0.016   -0.32    0.46   -0.03
    4      O4      15.30   0.191   -4.52    1.90   -1.14
    5      C5       4.68   0.001   -0.05    0.55   -0.10
    6      O6      15.18   0.194   -3.32    1.89   -1.40
    7      C7      11.43  -0.014   -0.31    1.34   -0.55
    8      O8      15.38   0.183   -3.61    1.91   -1.23
    9      H9       8.59  -0.134   -2.83    1.21   -1.04
   10      H10      6.58  -0.035   -0.35    0.93   -0.77
   11      H11      6.59  -0.039   -0.58    0.93   -0.80
   12      H12      6.11  -0.033   -0.29    0.86   -0.67
   13      H13      8.47  -0.125   -1.96    1.19   -0.94
   14      H14      6.24  -0.025    0.22    0.88   -0.75
   15      H15      4.34  -0.044   -0.11    0.61   -0.38
   16      H16      6.61  -0.030   -0.20    0.93   -0.78
   17      H17      6.60  -0.029   -0.01    0.93   -0.83
   18      H18      8.54  -0.128   -2.01    1.21   -0.99
 --------------------------------------------------------------------
 - cavitation energy not included in the total energy.
 - dispersion energy not included in the total energy.
 - repulsion  energy not included in the total energy.
 After PCM corrections, the energy is  -459.512086927     a.u.
 --------------------------------------------------------------------
 Writing COSMO formatted file "UNXHWFMMPAWVPI-ZXZARUISSA-N.cosmo"
 Recomputed dielectric energy= -0.036460 old= -0.036264 diff=-1.95D-04

 **********************************************************************

            Population analysis using the SCF Density.

 **********************************************************************

 Orbital symmetries:
       Occupied  (A) (A) (A) (A) (A) (A) (A) (A) (A) (A) (A) (A)
                 (A) (A) (A) (A) (A) (A) (A) (A) (A) (A) (A) (A)
                 (A) (A) (A) (A) (A) (A) (A) (A) (A)
       Virtual   (A) (A) (A) (A) (A) (A) (A) (A) (A) (A) (A) (A)
                 (A) (A) (A) (A) (A) (A) (A) (A) (A) (A) (A) (A)
                 (A) (A) (A) (A) (A) (A) (A) (A) (A) (A) (A) (A)
                 (A) (A) (A) (A) (A) (A) (A) (A) (A) (A) (A) (A)
                 (A) (A) (A) (A) (A) (A) (A) (A) (A) (A) (A) (A)
                 (A) (A) (A) (A) (A) (A) (A) (A) (A) (A) (A) (A)
                 (A) (A) (A) (A) (A) (A) (A) (A) (A) (A) (A) (A)
                 (A) (A) (A) (A) (A) (A) (A) (A) (A) (A) (A) (A)
                 (A) (A) (A) (A) (A) (A) (A) (A) (A) (A) (A) (A)
                 (A) (A) (A) (A) (A) (A) (A) (A) (A) (A) (A) (A)
                 (A) (A) (A) (A) (A) (A) (A) (A) (A) (A) (A) (A)
                 (A) (A) (A) (A) (A) (A) (A) (A) (A) (A) (A) (A)
                 (A) (A) (A) (A) (A) (A) (A) (A) (A) (A) (A) (A)
                 (A) (A) (A) (A) (A) (A) (A) (A) (A) (A) (A) (A)
                 (A) (A) (A) (A) (A) (A) (A) (A) (A) (A) (A)
 The electronic state is 1-A.
 Alpha  occ. eigenvalues --  -18.78490 -18.77494 -18.77434 -18.76865  -9.95316
 Alpha  occ. eigenvalues --   -9.95116  -9.94685  -9.94238  -0.95711  -0.94020
 Alpha  occ. eigenvalues --   -0.93359  -0.92870  -0.70215  -0.65794  -0.57875
 Alpha  occ. eigenvalues --   -0.52140  -0.49678  -0.47477  -0.45948  -0.43537
 Alpha  occ. eigenvalues --   -0.41980  -0.39902  -0.39056  -0.36000  -0.34625
 Alpha  occ. eigenvalues --   -0.33134  -0.32582  -0.30844  -0.28417  -0.24742
 Alpha  occ. eigenvalues --   -0.23989  -0.23637  -0.23348
 Alpha virt. eigenvalues --    0.00994   0.01724   0.03555   0.04519   0.06313
 Alpha virt. eigenvalues --    0.08318   0.08946   0.09477   0.09858   0.10816
 Alpha virt. eigenvalues --    0.12524   0.13004   0.15473   0.15870   0.17550
 Alpha virt. eigenvalues --    0.19070   0.20552   0.22822   0.25691   0.26514
 Alpha virt. eigenvalues --    0.27525   0.28309   0.29056   0.30821   0.31628
 Alpha virt. eigenvalues --    0.32488   0.33819   0.34758   0.35972   0.36722
 Alpha virt. eigenvalues --    0.38752   0.38988   0.40567   0.40973   0.41739
 Alpha virt. eigenvalues --    0.42377   0.43401   0.43757   0.44862   0.45661
 Alpha virt. eigenvalues --    0.48102   0.49098   0.49883   0.50617   0.52273
 Alpha virt. eigenvalues --    0.53963   0.55267   0.56888   0.58748   0.60196
 Alpha virt. eigenvalues --    0.60393   0.63863   0.72679   0.73397   0.78114
 Alpha virt. eigenvalues --    0.80831   0.84997   0.91568   0.95200   1.13227
 Alpha virt. eigenvalues --    1.17648   1.18960   1.20657   1.22628   1.23843
 Alpha virt. eigenvalues --    1.24548   1.27260   1.28032   1.28606   1.30931
 Alpha virt. eigenvalues --    1.31663   1.35294   1.37084   1.37949   1.38389
 Alpha virt. eigenvalues --    1.40356   1.41766   1.43671   1.46679   1.46818
 Alpha virt. eigenvalues --    1.50536   1.52873   1.53748   1.55538   1.58673
 Alpha virt. eigenvalues --    1.60589   1.64608   1.66264   1.68195   1.70622
 Alpha virt. eigenvalues --    1.71326   1.72171   1.74352   1.76718   1.80197
 Alpha virt. eigenvalues --    1.81499   1.83130   1.87818   1.89043   1.92573
 Alpha virt. eigenvalues --    1.93673   1.96917   1.97241   2.01287   2.02133
 Alpha virt. eigenvalues --    2.04509   2.05937   2.08669   2.10964   2.14150
 Alpha virt. eigenvalues --    2.17837   2.20769   2.22306   2.25164   2.30901
 Alpha virt. eigenvalues --    2.36330   2.37183   2.43448   2.43772   2.45734
 Alpha virt. eigenvalues --    2.47421   2.49902   2.51037   2.54676   2.56045
 Alpha virt. eigenvalues --    2.57149   2.58507   2.59173   2.61669   2.62118
 Alpha virt. eigenvalues --    2.64617   2.65827   2.68062   2.71203   2.77079
 Alpha virt. eigenvalues --    2.81636   2.83373   2.83552   2.85103   2.86298
 Alpha virt. eigenvalues --    2.87803   2.88537   2.89878   2.91734   2.94106
 Alpha virt. eigenvalues --    2.95279   2.96996   2.99222   3.01105   3.01956
 Alpha virt. eigenvalues --    3.06072   3.08688   3.09731   3.11084   3.14256
 Alpha virt. eigenvalues --    3.18463   3.19808   3.22487   3.26017   3.30844
 Alpha virt. eigenvalues --    3.33980   3.37181   3.41810   3.80873   3.84800
 Alpha virt. eigenvalues --    3.88686   3.95179   4.16435   4.16963   4.18285
 Alpha virt. eigenvalues --    4.19608  21.57697  21.63158  21.73068  21.78282
 Alpha virt. eigenvalues --   43.08023  43.11171  43.23201  43.24743
          Condensed to atoms (all electrons):
               1          2          3          4          5          6
     1  O    8.067066   0.224266  -0.072083  -0.004005   0.002699  -0.038023
     2  C    0.224266   5.128708   0.185708  -0.014205  -0.052917   0.053299
     3  C   -0.072083   0.185708   5.782066   0.213707  -0.120830  -0.099307
     4  O   -0.004005  -0.014205   0.213707   8.031607  -0.067708   0.002516
     5  C    0.002699  -0.052917  -0.120830  -0.067708   5.687120   0.296480
     6  O   -0.038023   0.053299  -0.099307   0.002516   0.296480   7.984939
     7  C    0.001843  -0.004589   0.008638  -0.005784   0.101196  -0.082883
     8  O   -0.000032   0.003806   0.004863   0.000688  -0.100420   0.004433
     9  H    0.297392  -0.021922   0.010881  -0.000741  -0.000516   0.000648
    10  H   -0.052569   0.405831  -0.050165   0.008439  -0.003473  -0.000284
    11  H   -0.042023   0.381397  -0.040594  -0.011329   0.014491   0.001680
    12  H    0.003200  -0.025317   0.374492  -0.044396  -0.070684   0.008599
    13  H    0.000602  -0.001036  -0.034676   0.303523   0.012063  -0.000331
    14  H    0.001356   0.007877  -0.132929   0.018549   0.433666  -0.047414
    15  H    0.045421  -0.008531  -0.003381  -0.000134  -0.037873   0.302109
    16  H   -0.000126  -0.000201  -0.031887   0.001205  -0.014584   0.007530
    17  H    0.000111   0.000083   0.020575  -0.001044  -0.064023   0.012511
    18  H   -0.000001  -0.000126  -0.001243   0.000322   0.013304  -0.000261
               7          8          9         10         11         12
     1  O    0.001843  -0.000032   0.297392  -0.052569  -0.042023   0.003200
     2  C   -0.004589   0.003806  -0.021922   0.405831   0.381397  -0.025317
     3  C    0.008638   0.004863   0.010881  -0.050165  -0.040594   0.374492
     4  O   -0.005784   0.000688  -0.000741   0.008439  -0.011329  -0.044396
     5  C    0.101196  -0.100420  -0.000516  -0.003473   0.014491  -0.070684
     6  O   -0.082883   0.004433   0.000648  -0.000284   0.001680   0.008599
     7  C    5.172092   0.273428  -0.000070   0.000155  -0.000759   0.007879
     8  O    0.273428   8.012237  -0.000000  -0.000179   0.000142   0.013001
     9  H   -0.000070  -0.000000   0.397091  -0.005812  -0.002237  -0.000623
    10  H    0.000155  -0.000179  -0.005812   0.581288  -0.046162   0.003092
    11  H   -0.000759   0.000142  -0.002237  -0.046162   0.571897   0.002413
    12  H    0.007879   0.013001  -0.000623   0.003092   0.002413   0.541151
    13  H   -0.001029   0.000566  -0.000026   0.000574   0.002485  -0.006129
    14  H   -0.049191   0.010129  -0.000047   0.000899   0.000037   0.008953
    15  H    0.011440  -0.000369  -0.000354  -0.005230   0.001315  -0.000530
    16  H    0.388254  -0.050001   0.000006   0.001838  -0.000178  -0.003241
    17  H    0.403439  -0.043980  -0.000006  -0.000205   0.000053   0.001930
    18  H   -0.030446   0.302039  -0.000000   0.000001  -0.000002  -0.000188
              13         14         15         16         17         18
     1  O    0.000602   0.001356   0.045421  -0.000126   0.000111  -0.000001
     2  C   -0.001036   0.007877  -0.008531  -0.000201   0.000083  -0.000126
     3  C   -0.034676  -0.132929  -0.003381  -0.031887   0.020575  -0.001243
     4  O    0.303523   0.018549  -0.000134   0.001205  -0.001044   0.000322
     5  C    0.012063   0.433666  -0.037873  -0.014584  -0.064023   0.013304
     6  O   -0.000331  -0.047414   0.302109   0.007530   0.012511  -0.000261
     7  C   -0.001029  -0.049191   0.011440   0.388254   0.403439  -0.030446
     8  O    0.000566   0.010129  -0.000369  -0.050001  -0.043980   0.302039
     9  H   -0.000026  -0.000047  -0.000354   0.000006  -0.000006  -0.000000
    10  H    0.000574   0.000899  -0.005230   0.001838  -0.000205   0.000001
    11  H    0.002485   0.000037   0.001315  -0.000178   0.000053  -0.000002
    12  H   -0.006129   0.008953  -0.000530  -0.003241   0.001930  -0.000188
    13  H    0.411837  -0.000525  -0.000172   0.000017   0.000059  -0.000029
    14  H   -0.000525   0.622098  -0.008086   0.014699  -0.017986  -0.000314
    15  H   -0.000172  -0.008086   0.400857  -0.001387   0.000175   0.000026
    16  H    0.000017   0.014699  -0.001387   0.611538  -0.061634  -0.006622
    17  H    0.000059  -0.017986   0.000175  -0.061634   0.609988  -0.001550
    18  H   -0.000029  -0.000314   0.000026  -0.006622  -0.001550   0.408139
 Mulliken charges:
               1
     1  O   -0.435091
     2  C   -0.262131
     3  C   -0.013836
     4  O   -0.431209
     5  C   -0.027990
     6  O   -0.406241
     7  C   -0.193612
     8  O   -0.430351
     9  H    0.326334
    10  H    0.161960
    11  H    0.167374
    12  H    0.186400
    13  H    0.312229
    14  H    0.138229
    15  H    0.304705
    16  H    0.144775
    17  H    0.141503
    18  H    0.316951
 Sum of Mulliken charges =   0.00000
 Mulliken charges with hydrogens summed into heavy atoms:
               1
     1  O   -0.108757
     2  C    0.067203
     3  C    0.172564
     4  O   -0.118980
     5  C    0.110239
     6  O   -0.101536
     7  C    0.092666
     8  O   -0.113399
 Electronic spatial extent (au):  <R**2>=           1098.1804
 Charge=             -0.0000 electrons
 Dipole moment (field-independent basis, Debye):
    X=             -2.0669    Y=             -0.7360    Z=             -4.8287  Tot=              5.3038
 Quadrupole moment (field-independent basis, Debye-Ang):
   XX=            -31.4114   YY=            -51.0891   ZZ=            -49.6703
   XY=              1.4545   XZ=              0.3164   YZ=              4.2482
 Traceless Quadrupole moment (field-independent basis, Debye-Ang):
   XX=             12.6455   YY=             -7.0321   ZZ=             -5.6134
   XY=              1.4545   XZ=              0.3164   YZ=              4.2482
 Octapole moment (field-independent basis, Debye-Ang**2):
  XXX=             -5.6609  YYY=            -28.8201  ZZZ=             -2.1805  XYY=            -14.6110
  XXY=             13.0774  XXZ=            -23.3653  XZZ=              1.5062  YZZ=              2.0501
  YYZ=             -5.3382  XYZ=             -0.1047
 Hexadecapole moment (field-independent basis, Debye-Ang**3):
 XXXX=           -517.6253 YYYY=           -340.7561 ZZZZ=           -136.1401 XXXY=            -43.3618
 XXXZ=            -30.1350 YYYX=              5.7508 YYYZ=              7.7698 ZZZX=             -3.7192
 ZZZY=              2.1904 XXYY=           -182.7178 XXZZ=           -158.6438 YYZZ=            -89.2546
 XXYZ=             10.4932 YYXZ=             -1.6494 ZZXY=             -3.7026
 N-N= 4.256575426397D+02 E-N=-1.931337748083D+03  KE= 4.574952151654D+02
 Unable to Open any file for archive entry.
 1\1\GINC-TCN1632\SP\RBP86\TZVP\C4H10O4\ELENAA\22-Feb-2021\0\\# BP86/TZ
 VP SCRF=COSMORS geom=CHECKPOINT guess=CHECKPOINT\\COSMO-file for #UNXH
 WFMMPAWVPI-ZXZARUISSA-N\\0,1\O,0,-0.7280358289,0.8180666264,-0.4380190
 035\C,0,-1.9129335624,-0.0177071308,-0.4939301001\C,0,-2.8808120538,0.
 4135078915,0.6049242139\O,0,-3.405623885,1.7390939718,0.3743513255\C,0
 ,-2.2336658948,0.4420879653,2.0243906672\O,0,-0.939793517,-0.179469324
 ,2.088838959\C,0,-3.0797653494,-0.2961388172,3.0594783819\O,0,-4.37052
 78039,0.3328996036,3.1304157236\H,0,-0.1096427303,0.5062026132,-1.1226
 847544\H,0,-1.6486508642,-1.0792473847,-0.3407827968\H,0,-2.4079327876
 ,0.0800683306,-1.4762831589\H,0,-3.7093595566,-0.3205855209,0.60377545
 38\H,0,-3.9656005754,1.6988682562,-0.422304973\H,0,-2.1666596224,1.508
 965825,2.3122422865\H,0,-0.4249679927,0.2113378061,1.3459054738\H,0,-3
 .1640058484,-1.3563069529,2.7534335349\H,0,-2.5583064833,-0.256624137,
 4.0332013638\H,0,-4.9346856439,-0.2229296221,3.6953874029\\Version=ES6
 4L-G16RevC.01\State=1-A\HF=-459.5120869\RMSD=7.648e-09\Dipole=-0.33740
 56,-1.4848438,-1.4267199\Quadrupole=-0.0563539,-6.5831342,6.6394881,3.
 0135261,-4.9799113,-0.4229402\PG=C01 [X(C4H10O4)]\\@
 The archive entry for this job was punched.


 YOU KNOW YOU'RE A TEACHER WHEN YOU SAY 2, WRITE 3, AND MEAN 4.
 -- RONALD ANSTROM, HIGH SCHOOL TEACHER, UNDERWOOD, N.D. 1974
 Job cpu time:       0 days  0 hours  4 minutes 28.3 seconds.
 Elapsed time:       0 days  0 hours  0 minutes  8.9 seconds.
 File lengths (MBytes):  RWF=     40 Int=      0 D2E=      0 Chk=      7 Scr=      1
 Normal termination of Gaussian 16 at Mon Feb 22 21:24:24 2021.
