 Entering Gaussian System, Link 0=g16
 Input=VCXBSHBJVUIQHJ-UHFFFAOYSA-N.gjf
 Output=VCXBSHBJVUIQHJ-UHFFFAOYSA-N.log
 Initial command:
 /sw/arch/RedHatEnterpriseServer7/EB_production/2019/software/Gaussian/g16.c01/l1.exe "/scratch-local/elenaa.9715952/Gau-7328.inp" -scrdir="/scratch-local/elenaa.9715952/"
 Entering Link 1 = /sw/arch/RedHatEnterpriseServer7/EB_production/2019/software/Gaussian/g16.c01/l1.exe PID=      7329.
  
 Copyright (c) 1988-2019, Gaussian, Inc.  All Rights Reserved.
  
 This is part of the Gaussian(R) 16 program.  It is based on
 the Gaussian(R) 09 system (copyright 2009, Gaussian, Inc.),
 the Gaussian(R) 03 system (copyright 2003, Gaussian, Inc.),
 the Gaussian(R) 98 system (copyright 1998, Gaussian, Inc.),
 the Gaussian(R) 94 system (copyright 1995, Gaussian, Inc.),
 the Gaussian 92(TM) system (copyright 1992, Gaussian, Inc.),
 the Gaussian 90(TM) system (copyright 1990, Gaussian, Inc.),
 the Gaussian 88(TM) system (copyright 1988, Gaussian, Inc.),
 the Gaussian 86(TM) system (copyright 1986, Carnegie Mellon
 University), and the Gaussian 82(TM) system (copyright 1983,
 Carnegie Mellon University). Gaussian is a federally registered
 trademark of Gaussian, Inc.
  
 This software contains proprietary and confidential information,
 including trade secrets, belonging to Gaussian, Inc.
  
 This software is provided under written license and may be
 used, copied, transmitted, or stored only in accord with that
 written license.
  
 The following legend is applicable only to US Government
 contracts under FAR:
  
                    RESTRICTED RIGHTS LEGEND
  
 Use, reproduction and disclosure by the US Government is
 subject to restrictions as set forth in subparagraphs (a)
 and (c) of the Commercial Computer Software - Restricted
 Rights clause in FAR 52.227-19.
  
 Gaussian, Inc.
 340 Quinnipiac St., Bldg. 40, Wallingford CT 06492
  
  
 ---------------------------------------------------------------
 Warning -- This program may not be used in any manner that
 competes with the business of Gaussian, Inc. or will provide
 assistance to any competitor of Gaussian, Inc.  The licensee
 of this program is prohibited from giving any competitor of
 Gaussian, Inc. access to this program.  By using this program,
 the user acknowledges that Gaussian, Inc. is engaged in the
 business of creating and licensing software in the field of
 computational chemistry and represents and warrants to the
 licensee that it is not a competitor of Gaussian, Inc. and that
 it will not use this program in any manner prohibited above.
 ---------------------------------------------------------------
  

 Cite this work as:
 Gaussian 16, Revision C.01,
 M. J. Frisch, G. W. Trucks, H. B. Schlegel, G. E. Scuseria, 
 M. A. Robb, J. R. Cheeseman, G. Scalmani, V. Barone, 
 G. A. Petersson, H. Nakatsuji, X. Li, M. Caricato, A. V. Marenich, 
 J. Bloino, B. G. Janesko, R. Gomperts, B. Mennucci, H. P. Hratchian, 
 J. V. Ortiz, A. F. Izmaylov, J. L. Sonnenberg, D. Williams-Young, 
 F. Ding, F. Lipparini, F. Egidi, J. Goings, B. Peng, A. Petrone, 
 T. Henderson, D. Ranasinghe, V. G. Zakrzewski, J. Gao, N. Rega, 
 G. Zheng, W. Liang, M. Hada, M. Ehara, K. Toyota, R. Fukuda, 
 J. Hasegawa, M. Ishida, T. Nakajima, Y. Honda, O. Kitao, H. Nakai, 
 T. Vreven, K. Throssell, J. A. Montgomery, Jr., J. E. Peralta, 
 F. Ogliaro, M. J. Bearpark, J. J. Heyd, E. N. Brothers, K. N. Kudin, 
 V. N. Staroverov, T. A. Keith, R. Kobayashi, J. Normand, 
 K. Raghavachari, A. P. Rendell, J. C. Burant, S. S. Iyengar, 
 J. Tomasi, M. Cossi, J. M. Millam, M. Klene, C. Adamo, R. Cammi, 
 J. W. Ochterski, R. L. Martin, K. Morokuma, O. Farkas, 
 J. B. Foresman, and D. J. Fox, Gaussian, Inc., Wallingford CT, 2019.
 
 ******************************************
 Gaussian 16:  ES64L-G16RevC.01  3-Jul-2019
                23-Feb-2021 
 ******************************************
 %chk=VCXBSHBJVUIQHJ-UHFFFAOYSA-N.chk
 %NProcShared=32
 Will use up to   32 processors via shared memory.
 -------------------------------------------------------------
 #P BP86/TZVP EmpiricalDispersion=GD3 SCRF=(Solvent=Water) Opt
 -------------------------------------------------------------
 1/18=20,19=15,26=3,38=1/1,3;
 2/9=110,12=2,17=6,18=5,40=1/2;
 3/5=19,7=101,11=2,25=1,30=1,70=2201,71=1,72=1,74=404,124=31/1,2,3;
 4//1;
 5/5=2,38=5,53=1/2;
 6/7=2,8=2,9=2,10=2,28=1/1;
 7//1,2,3,16;
 1/18=20,19=15,26=3/3(2);
 2/9=110/2;
 99//99;
 2/9=110/2;
 3/5=19,7=101,11=2,25=1,30=1,70=2205,71=1,72=1,74=404,124=31/1,2,3;
 4/5=5,16=3,69=1/1;
 5/5=2,38=5,53=1/2;
 7//1,2,3,16;
 1/18=20,19=15,26=3/3(-5);
 2/9=110/2;
 6/7=2,8=2,9=2,10=2,19=2,28=1/1;
 99/9=1/99;
 Leave Link    1 at Tue Feb 23 00:12:09 2021, MaxMem=           0 cpu:               2.3 elap:               0.1
 (Enter /sw/arch/RedHatEnterpriseServer7/EB_production/2019/software/Gaussian/g16.c01/l101.exe)
 -------------------------------------
 Particle #VCXBSHBJVUIQHJ-UHFFFAOYSA-N
 -------------------------------------
 Symbolic Z-matrix:
 Charge =  1 Multiplicity = 1
 C                    -0.74529  -3.28491   3.68671 
 N                    -1.66653  -2.08844   3.73292 
 C                    -2.99348  -2.52913   4.31276 
 C                    -1.06926  -1.04499   4.64771 
 C                    -1.93108  -1.5298    2.34164 
 C                    -0.73411  -0.99885   1.50761 
 O                    -1.25142  -0.53094   0.24259 
 C                    -0.28012  -0.03629  -0.58295 
 C                     0.05683   1.33276  -0.53808 
 C                     1.07748   1.83531  -1.36526 
 C                     1.75045   0.97299  -2.25201 
 C                     1.39934  -0.38736  -2.31923 
 C                     0.37814  -0.89079  -1.49177 
 H                     0.25776  -3.01052   3.35203 
 H                    -1.12539  -4.053     3.00784 
 H                    -0.6341   -3.74249   4.67446 
 H                    -2.87711  -2.94346   5.3177 
 H                    -3.69549  -1.69263   4.38211 
 H                    -3.46316  -3.29894   3.69295 
 H                    -0.06964  -0.7469    4.32319 
 H                    -1.69047  -0.14606   4.68405 
 H                    -0.97005  -1.41977   5.67098 
 H                    -2.64597  -0.70138   2.4148 
 H                    -2.41474  -2.30007   1.72891 
 H                    -0.24464  -0.18022   2.04277 
 H                    -0.01     -1.80253   1.34674 
 H                    -0.44067   1.96056   0.0982 
 H                     1.33195   2.82421  -1.3209 
 H                     2.49529   1.3376   -2.84944 
 H                     1.88666  -1.01111  -2.96638 
 H                     0.11444  -1.87722  -1.54837 
 
 ITRead=  0  0  0  0  0  0  0  0  0  0  0  0  0  0  0  0  0  0  0  0
 ITRead=  0  0  0  0  0  0  0  0  0  0  0
 MicOpt= -1 -1 -1 -1 -1 -1 -1 -1 -1 -1 -1 -1 -1 -1 -1 -1 -1 -1 -1 -1
 MicOpt= -1 -1 -1 -1 -1 -1 -1 -1 -1 -1 -1
 NAtoms=     31 NQM=       31 NQMF=       0 NMMI=      0 NMMIF=      0
                NMic=       0 NMicF=      0.
                    Isotopes and Nuclear Properties:
 (Nuclear quadrupole moments (NQMom) in fm**2, nuclear magnetic moments (NMagM)
  in nuclear magnetons)

  Atom         1           2           3           4           5           6           7           8           9          10
 IAtWgt=          12          14          12          12          12          12          16          12          12          12
 AtmWgt=  12.0000000  14.0030740  12.0000000  12.0000000  12.0000000  12.0000000  15.9949146  12.0000000  12.0000000  12.0000000
 NucSpn=           0           2           0           0           0           0           0           0           0           0
 AtZEff=  -0.0000000  -0.0000000  -0.0000000  -0.0000000  -0.0000000  -0.0000000  -0.0000000  -0.0000000  -0.0000000  -0.0000000
 NQMom=    0.0000000   2.0440000   0.0000000   0.0000000   0.0000000   0.0000000   0.0000000   0.0000000   0.0000000   0.0000000
 NMagM=    0.0000000   0.4037610   0.0000000   0.0000000   0.0000000   0.0000000   0.0000000   0.0000000   0.0000000   0.0000000
 AtZNuc=   6.0000000   7.0000000   6.0000000   6.0000000   6.0000000   6.0000000   8.0000000   6.0000000   6.0000000   6.0000000

  Atom        11          12          13          14          15          16          17          18          19          20
 IAtWgt=          12          12          12           1           1           1           1           1           1           1
 AtmWgt=  12.0000000  12.0000000  12.0000000   1.0078250   1.0078250   1.0078250   1.0078250   1.0078250   1.0078250   1.0078250
 NucSpn=           0           0           0           1           1           1           1           1           1           1
 AtZEff=  -0.0000000  -0.0000000  -0.0000000  -0.0000000  -0.0000000  -0.0000000  -0.0000000  -0.0000000  -0.0000000  -0.0000000
 NQMom=    0.0000000   0.0000000   0.0000000   0.0000000   0.0000000   0.0000000   0.0000000   0.0000000   0.0000000   0.0000000
 NMagM=    0.0000000   0.0000000   0.0000000   2.7928460   2.7928460   2.7928460   2.7928460   2.7928460   2.7928460   2.7928460
 AtZNuc=   6.0000000   6.0000000   6.0000000   1.0000000   1.0000000   1.0000000   1.0000000   1.0000000   1.0000000   1.0000000

  Atom        21          22          23          24          25          26          27          28          29          30
 IAtWgt=           1           1           1           1           1           1           1           1           1           1
 AtmWgt=   1.0078250   1.0078250   1.0078250   1.0078250   1.0078250   1.0078250   1.0078250   1.0078250   1.0078250   1.0078250
 NucSpn=           1           1           1           1           1           1           1           1           1           1
 AtZEff=  -0.0000000  -0.0000000  -0.0000000  -0.0000000  -0.0000000  -0.0000000  -0.0000000  -0.0000000  -0.0000000  -0.0000000
 NQMom=    0.0000000   0.0000000   0.0000000   0.0000000   0.0000000   0.0000000   0.0000000   0.0000000   0.0000000   0.0000000
 NMagM=    2.7928460   2.7928460   2.7928460   2.7928460   2.7928460   2.7928460   2.7928460   2.7928460   2.7928460   2.7928460
 AtZNuc=   1.0000000   1.0000000   1.0000000   1.0000000   1.0000000   1.0000000   1.0000000   1.0000000   1.0000000   1.0000000

  Atom        31
 IAtWgt=           1
 AtmWgt=   1.0078250
 NucSpn=           1
 AtZEff=  -0.0000000
 NQMom=    0.0000000
 NMagM=    2.7928460
 AtZNuc=   1.0000000
 Leave Link  101 at Tue Feb 23 00:12:09 2021, MaxMem=   104857600 cpu:               3.2 elap:               0.1
 (Enter /sw/arch/RedHatEnterpriseServer7/EB_production/2019/software/Gaussian/g16.c01/l103.exe)

 GradGradGradGradGradGradGradGradGradGradGradGradGradGradGradGradGradGrad
 Berny optimization.
 Initialization pass.
                           ----------------------------
                           !    Initial Parameters    !
                           ! (Angstroms and Degrees)  !
 --------------------------                            --------------------------
 ! Name  Definition              Value          Derivative Info.                !
 --------------------------------------------------------------------------------
 ! R1    R(1,2)                  1.5107         estimate D2E/DX2                !
 ! R2    R(1,14)                 1.0924         estimate D2E/DX2                !
 ! R3    R(1,15)                 1.0933         estimate D2E/DX2                !
 ! R4    R(1,16)                 1.0943         estimate D2E/DX2                !
 ! R5    R(2,3)                  1.5137         estimate D2E/DX2                !
 ! R6    R(2,4)                  1.5107         estimate D2E/DX2                !
 ! R7    R(2,5)                  1.5224         estimate D2E/DX2                !
 ! R8    R(3,17)                 1.0932         estimate D2E/DX2                !
 ! R9    R(3,18)                 1.0942         estimate D2E/DX2                !
 ! R10   R(3,19)                 1.0942         estimate D2E/DX2                !
 ! R11   R(4,20)                 1.0924         estimate D2E/DX2                !
 ! R12   R(4,21)                 1.0933         estimate D2E/DX2                !
 ! R13   R(4,22)                 1.0943         estimate D2E/DX2                !
 ! R14   R(5,6)                  1.5525         estimate D2E/DX2                !
 ! R15   R(5,23)                 1.0967         estimate D2E/DX2                !
 ! R16   R(5,24)                 1.0967         estimate D2E/DX2                !
 ! R17   R(6,7)                  1.4446         estimate D2E/DX2                !
 ! R18   R(6,25)                 1.0937         estimate D2E/DX2                !
 ! R19   R(6,26)                 1.0937         estimate D2E/DX2                !
 ! R20   R(7,8)                  1.3673         estimate D2E/DX2                !
 ! R21   R(8,9)                  1.4106         estimate D2E/DX2                !
 ! R22   R(8,13)                 1.4105         estimate D2E/DX2                !
 ! R23   R(9,10)                 1.4066         estimate D2E/DX2                !
 ! R24   R(9,27)                 1.023          estimate D2E/DX2                !
 ! R25   R(10,11)                1.4081         estimate D2E/DX2                !
 ! R26   R(10,28)                1.0221         estimate D2E/DX2                !
 ! R27   R(11,12)                1.4065         estimate D2E/DX2                !
 ! R28   R(11,29)                1.0221         estimate D2E/DX2                !
 ! R29   R(12,13)                1.4075         estimate D2E/DX2                !
 ! R30   R(12,30)                1.0224         estimate D2E/DX2                !
 ! R31   R(13,31)                1.0226         estimate D2E/DX2                !
 ! A1    A(2,1,14)             111.737          estimate D2E/DX2                !
 ! A2    A(2,1,15)             111.3083         estimate D2E/DX2                !
 ! A3    A(2,1,16)             111.4401         estimate D2E/DX2                !
 ! A4    A(14,1,15)            107.785          estimate D2E/DX2                !
 ! A5    A(14,1,16)            106.7548         estimate D2E/DX2                !
 ! A6    A(15,1,16)            107.5807         estimate D2E/DX2                !
 ! A7    A(1,2,3)              108.4037         estimate D2E/DX2                !
 ! A8    A(1,2,4)              108.932          estimate D2E/DX2                !
 ! A9    A(1,2,5)              111.6306         estimate D2E/DX2                !
 ! A10   A(3,2,4)              108.4035         estimate D2E/DX2                !
 ! A11   A(3,2,5)              107.7323         estimate D2E/DX2                !
 ! A12   A(4,2,5)              111.6307         estimate D2E/DX2                !
 ! A13   A(2,3,17)             111.6639         estimate D2E/DX2                !
 ! A14   A(2,3,18)             111.3537         estimate D2E/DX2                !
 ! A15   A(2,3,19)             111.3532         estimate D2E/DX2                !
 ! A16   A(17,3,18)            107.4434         estimate D2E/DX2                !
 ! A17   A(17,3,19)            107.4426         estimate D2E/DX2                !
 ! A18   A(18,3,19)            107.3573         estimate D2E/DX2                !
 ! A19   A(2,4,20)             111.737          estimate D2E/DX2                !
 ! A20   A(2,4,21)             111.3082         estimate D2E/DX2                !
 ! A21   A(2,4,22)             111.4401         estimate D2E/DX2                !
 ! A22   A(20,4,21)            107.7847         estimate D2E/DX2                !
 ! A23   A(20,4,22)            106.7554         estimate D2E/DX2                !
 ! A24   A(21,4,22)            107.5803         estimate D2E/DX2                !
 ! A25   A(2,5,6)              118.8465         estimate D2E/DX2                !
 ! A26   A(2,5,23)             109.2383         estimate D2E/DX2                !
 ! A27   A(2,5,24)             109.2385         estimate D2E/DX2                !
 ! A28   A(6,5,23)             106.2653         estimate D2E/DX2                !
 ! A29   A(6,5,24)             106.2653         estimate D2E/DX2                !
 ! A30   A(23,5,24)            106.2809         estimate D2E/DX2                !
 ! A31   A(5,6,7)              107.7654         estimate D2E/DX2                !
 ! A32   A(5,6,25)             109.7655         estimate D2E/DX2                !
 ! A33   A(5,6,26)             109.7657         estimate D2E/DX2                !
 ! A34   A(7,6,25)             110.2622         estimate D2E/DX2                !
 ! A35   A(7,6,26)             110.2618         estimate D2E/DX2                !
 ! A36   A(25,6,26)            109.008          estimate D2E/DX2                !
 ! A37   A(6,7,8)              113.0481         estimate D2E/DX2                !
 ! A38   A(7,8,9)              120.1043         estimate D2E/DX2                !
 ! A39   A(7,8,13)             120.0913         estimate D2E/DX2                !
 ! A40   A(9,8,13)             119.8011         estimate D2E/DX2                !
 ! A41   A(8,9,10)             120.0909         estimate D2E/DX2                !
 ! A42   A(8,9,27)             119.949          estimate D2E/DX2                !
 ! A43   A(10,9,27)            119.96           estimate D2E/DX2                !
 ! A44   A(9,10,11)            119.8892         estimate D2E/DX2                !
 ! A45   A(9,10,28)            120.0542         estimate D2E/DX2                !
 ! A46   A(11,10,28)           120.0564         estimate D2E/DX2                !
 ! A47   A(10,11,12)           120.2036         estimate D2E/DX2                !
 ! A48   A(10,11,29)           119.8625         estimate D2E/DX2                !
 ! A49   A(12,11,29)           119.9338         estimate D2E/DX2                !
 ! A50   A(11,12,13)           119.9312         estimate D2E/DX2                !
 ! A51   A(11,12,30)           120.0865         estimate D2E/DX2                !
 ! A52   A(13,12,30)           119.9821         estimate D2E/DX2                !
 ! A53   A(8,13,12)            120.0482         estimate D2E/DX2                !
 ! A54   A(8,13,31)            119.9798         estimate D2E/DX2                !
 ! A55   A(12,13,31)           119.9719         estimate D2E/DX2                !
 ! D1    D(14,1,2,3)          -175.3417         estimate D2E/DX2                !
 ! D2    D(14,1,2,4)           -57.5747         estimate D2E/DX2                !
 ! D3    D(14,1,2,5)            66.1527         estimate D2E/DX2                !
 ! D4    D(15,1,2,3)            64.0965         estimate D2E/DX2                !
 ! D5    D(15,1,2,4)          -178.1365         estimate D2E/DX2                !
 ! D6    D(15,1,2,5)           -54.4091         estimate D2E/DX2                !
 ! D7    D(16,1,2,3)           -56.002          estimate D2E/DX2                !
 ! D8    D(16,1,2,4)            61.765          estimate D2E/DX2                !
 ! D9    D(16,1,2,5)          -174.5077         estimate D2E/DX2                !
 ! D10   D(1,2,3,17)            59.0514         estimate D2E/DX2                !
 ! D11   D(1,2,3,18)           179.1585         estimate D2E/DX2                !
 ! D12   D(1,2,3,19)           -61.0545         estimate D2E/DX2                !
 ! D13   D(4,2,3,17)           -59.0524         estimate D2E/DX2                !
 ! D14   D(4,2,3,18)            61.0547         estimate D2E/DX2                !
 ! D15   D(4,2,3,19)          -179.1582         estimate D2E/DX2                !
 ! D16   D(5,2,3,17)           179.9995         estimate D2E/DX2                !
 ! D17   D(5,2,3,18)           -59.8934         estimate D2E/DX2                !
 ! D18   D(5,2,3,19)            59.8937         estimate D2E/DX2                !
 ! D19   D(1,2,4,20)            57.5752         estimate D2E/DX2                !
 ! D20   D(1,2,4,21)           178.1366         estimate D2E/DX2                !
 ! D21   D(1,2,4,22)           -61.7653         estimate D2E/DX2                !
 ! D22   D(3,2,4,20)           175.3423         estimate D2E/DX2                !
 ! D23   D(3,2,4,21)           -64.0962         estimate D2E/DX2                !
 ! D24   D(3,2,4,22)            56.0019         estimate D2E/DX2                !
 ! D25   D(5,2,4,20)           -66.1521         estimate D2E/DX2                !
 ! D26   D(5,2,4,21)            54.4094         estimate D2E/DX2                !
 ! D27   D(5,2,4,22)           174.5075         estimate D2E/DX2                !
 ! D28   D(1,2,5,6)            -61.0945         estimate D2E/DX2                !
 ! D29   D(1,2,5,23)           176.8391         estimate D2E/DX2                !
 ! D30   D(1,2,5,24)            60.972          estimate D2E/DX2                !
 ! D31   D(3,2,5,6)            179.9998         estimate D2E/DX2                !
 ! D32   D(3,2,5,23)            57.9335         estimate D2E/DX2                !
 ! D33   D(3,2,5,24)           -57.9336         estimate D2E/DX2                !
 ! D34   D(4,2,5,6)             61.0944         estimate D2E/DX2                !
 ! D35   D(4,2,5,23)           -60.9719         estimate D2E/DX2                !
 ! D36   D(4,2,5,24)          -176.839          estimate D2E/DX2                !
 ! D37   D(2,5,6,7)            179.9999         estimate D2E/DX2                !
 ! D38   D(2,5,6,25)           -59.897          estimate D2E/DX2                !
 ! D39   D(2,5,6,26)            59.8972         estimate D2E/DX2                !
 ! D40   D(23,5,6,7)           -56.4569         estimate D2E/DX2                !
 ! D41   D(23,5,6,25)           63.6463         estimate D2E/DX2                !
 ! D42   D(23,5,6,26)         -176.5596         estimate D2E/DX2                !
 ! D43   D(24,5,6,7)            56.4564         estimate D2E/DX2                !
 ! D44   D(24,5,6,25)          176.5596         estimate D2E/DX2                !
 ! D45   D(24,5,6,26)          -63.6463         estimate D2E/DX2                !
 ! D46   D(5,6,7,8)           -179.9993         estimate D2E/DX2                !
 ! D47   D(25,6,7,8)            60.2116         estimate D2E/DX2                !
 ! D48   D(26,6,7,8)           -60.2102         estimate D2E/DX2                !
 ! D49   D(6,7,8,9)            -90.331          estimate D2E/DX2                !
 ! D50   D(6,7,8,13)            90.3309         estimate D2E/DX2                !
 ! D51   D(7,8,9,10)           178.5208         estimate D2E/DX2                !
 ! D52   D(7,8,9,27)            -1.3662         estimate D2E/DX2                !
 ! D53   D(13,8,9,10)           -2.1391         estimate D2E/DX2                !
 ! D54   D(13,8,9,27)          177.9738         estimate D2E/DX2                !
 ! D55   D(7,8,13,12)         -178.522          estimate D2E/DX2                !
 ! D56   D(7,8,13,31)            1.3669         estimate D2E/DX2                !
 ! D57   D(9,8,13,12)            2.1378         estimate D2E/DX2                !
 ! D58   D(9,8,13,31)         -177.9733         estimate D2E/DX2                !
 ! D59   D(8,9,10,11)            0.8694         estimate D2E/DX2                !
 ! D60   D(8,9,10,28)         -178.9635         estimate D2E/DX2                !
 ! D61   D(27,9,10,11)        -179.2436         estimate D2E/DX2                !
 ! D62   D(27,9,10,28)           0.9235         estimate D2E/DX2                !
 ! D63   D(9,10,11,12)           0.4082         estimate D2E/DX2                !
 ! D64   D(9,10,11,29)        -179.6867         estimate D2E/DX2                !
 ! D65   D(28,10,11,12)       -179.759          estimate D2E/DX2                !
 ! D66   D(28,10,11,29)          0.1462         estimate D2E/DX2                !
 ! D67   D(10,11,12,13)         -0.4087         estimate D2E/DX2                !
 ! D68   D(10,11,12,30)        179.7591         estimate D2E/DX2                !
 ! D69   D(29,11,12,13)        179.6862         estimate D2E/DX2                !
 ! D70   D(29,11,12,30)         -0.146          estimate D2E/DX2                !
 ! D71   D(11,12,13,8)          -0.868          estimate D2E/DX2                !
 ! D72   D(11,12,13,31)        179.2431         estimate D2E/DX2                !
 ! D73   D(30,12,13,8)         178.9644         estimate D2E/DX2                !
 ! D74   D(30,12,13,31)         -0.9246         estimate D2E/DX2                !
 --------------------------------------------------------------------------------
 Trust Radius=3.00D-01 FncErr=1.00D-07 GrdErr=1.00D-06 EigMax=2.50D+02 EigMin=1.00D-04
 Number of steps in this run=    170 maximum allowed number of steps=    186.
 GradGradGradGradGradGradGradGradGradGradGradGradGradGradGradGradGradGrad

 Leave Link  103 at Tue Feb 23 00:12:10 2021, MaxMem=   104857600 cpu:               0.4 elap:               0.0
 (Enter /sw/arch/RedHatEnterpriseServer7/EB_production/2019/software/Gaussian/g16.c01/l202.exe)
                          Input orientation:                          
 ---------------------------------------------------------------------
 Center     Atomic      Atomic             Coordinates (Angstroms)
 Number     Number       Type             X           Y           Z
 ---------------------------------------------------------------------
      1          6           0       -0.745290   -3.284910    3.686710
      2          7           0       -1.666530   -2.088440    3.732920
      3          6           0       -2.993480   -2.529130    4.312760
      4          6           0       -1.069260   -1.044990    4.647710
      5          6           0       -1.931080   -1.529800    2.341640
      6          6           0       -0.734110   -0.998850    1.507610
      7          8           0       -1.251420   -0.530940    0.242590
      8          6           0       -0.280120   -0.036290   -0.582950
      9          6           0        0.056830    1.332760   -0.538080
     10          6           0        1.077480    1.835310   -1.365260
     11          6           0        1.750450    0.972990   -2.252010
     12          6           0        1.399340   -0.387360   -2.319230
     13          6           0        0.378140   -0.890790   -1.491770
     14          1           0        0.257760   -3.010520    3.352030
     15          1           0       -1.125390   -4.053000    3.007840
     16          1           0       -0.634100   -3.742490    4.674460
     17          1           0       -2.877110   -2.943460    5.317700
     18          1           0       -3.695490   -1.692630    4.382110
     19          1           0       -3.463160   -3.298940    3.692950
     20          1           0       -0.069640   -0.746900    4.323190
     21          1           0       -1.690470   -0.146060    4.684050
     22          1           0       -0.970050   -1.419770    5.670980
     23          1           0       -2.645970   -0.701380    2.414800
     24          1           0       -2.414740   -2.300070    1.728910
     25          1           0       -0.244640   -0.180220    2.042770
     26          1           0       -0.010000   -1.802530    1.346740
     27          1           0       -0.440670    1.960560    0.098200
     28          1           0        1.331950    2.824210   -1.320900
     29          1           0        2.495290    1.337600   -2.849440
     30          1           0        1.886660   -1.011110   -2.966380
     31          1           0        0.114440   -1.877220   -1.548370
 ---------------------------------------------------------------------
                    Distance matrix (angstroms):
                    1          2          3          4          5
     1  C    0.000000
     2  N    1.510748   0.000000
     3  C    2.453059   1.513677   0.000000
     4  C    2.458804   1.510748   2.453056   0.000000
     5  C    2.509128   1.522408   2.452074   2.509130   0.000000
     6  C    3.158270   2.647379   3.913486   3.158272   1.552498
     7  O    4.438748   3.844545   4.857347   4.438751   2.421915
     8  C    5.385157   4.975961   6.127361   5.385167   3.675523
     9  C    6.309923   5.737248   6.910082   5.814997   4.520932
    10  C    7.420347   6.994058   8.237777   7.004315   5.840934
    11  C    7.721841   7.541054   8.824167   7.721991   6.396815
    12  C    7.004752   6.994409   8.238163   7.420560   5.841282
    13  C    5.814685   5.736935   6.909743   6.309672   4.520604
    14  H    1.092433   2.167533   3.424223   2.702421   2.829212
    15  H    1.093299   2.162885   2.741306   3.426434   2.731208
    16  H    1.094254   2.165246   2.677638   2.732505   3.467016
    17  H    2.705804   2.169814   1.093213   2.705808   3.427877
    18  H    3.423831   2.166747   1.094239   2.717916   2.702439
    19  H    2.717913   2.166746   1.094245   3.423830   2.702437
    20  H    2.702426   2.167535   3.424222   1.092434   2.829210
    21  H    3.426431   2.162883   2.741298   1.093297   2.731211
    22  H    2.732506   2.165244   2.677631   1.094251   3.467015
    23  H    3.450357   2.149576   2.657759   2.754990   1.096677
    24  H    2.754987   2.149572   2.657760   3.450353   1.096668
    25  H    3.548562   2.918849   4.269233   2.865927   2.180543
    26  H    2.865931   2.918851   4.269236   3.548563   2.180540
    27  H    6.362794   5.577484   6.666084   5.488761   4.408737
    28  H    8.167768   7.659380   8.894140   7.507385   6.558885
    29  H    8.636563   8.507994   9.817093   8.636551   7.400138
    30  H    7.507392   7.659401   8.894157   8.167801   6.558906
    31  H    5.488788   5.577499   6.666108   6.362795   4.408745
                    6          7          8          9         10
     6  C    0.000000
     7  O    1.444585   0.000000
     8  C    2.345862   1.367340   0.000000
     9  C    3.201068   2.407144   1.410619   0.000000
    10  C    4.423540   3.688915   2.440896   1.406595   0.000000
    11  C    4.918936   4.182829   2.815603   2.436255   1.408123
    12  C    4.423826   3.689182   2.441005   2.816672   2.440064
    13  C    3.200790   2.406857   1.410472   2.440684   2.817215
    14  H    2.903878   4.253770   4.961797   5.834159   6.812256
    15  H    3.425146   4.479665   5.453642   6.555731   7.658253
    16  H    4.191241   5.507868   6.442172   7.307949   8.397594
    17  H    4.784427   5.849775   7.072034   7.822034   9.117970
    18  H    4.184955   4.945566   6.249803   6.887754   8.261953
    19  H    4.184954   4.945564   6.249796   7.193371   8.518417
    20  H    2.903875   4.253768   4.961802   5.288944   6.351548
    21  H    3.425149   4.479672   5.453662   5.701807   6.941291
    22  H    4.191240   5.507868   6.442178   6.869012   8.018516
    23  H    2.136982   2.586951   3.876351   4.490251   5.881133
    24  H    2.136976   2.586944   3.876338   4.944224   6.234650
    25  H    1.093678   2.092190   2.629901   3.006789   4.174330
    26  H    1.093671   2.092179   2.629881   3.658833   4.665987
    27  H    3.290995   2.624069   2.115928   1.022982   2.112388
    28  H    5.185061   4.513904   3.365383   2.112620   1.022079
    29  H    5.905244   5.204798   3.837636   3.359836   2.112035
    30  H    5.185091   4.513934   3.365405   3.839094   3.364590
    31  H    3.290985   2.624039   2.115830   3.365706   3.839773
                   11         12         13         14         15
    11  C    0.000000
    12  C    1.406538   0.000000
    13  C    2.436160   1.407473   0.000000
    14  H    7.035747   6.351957   5.288681   0.000000
    15  H    7.822855   6.941819   5.701462   1.765881   0.000000
    16  H    8.711935   8.018945   6.868713   1.754997   1.765051
    17  H    9.698113   9.118354   7.821700   3.700779   3.104039
    18  H    8.987510   8.518743   7.193044   4.292562   3.750384
    19  H    8.987417   8.262416   6.887387   3.747620   2.550128
    20  H    7.035908   6.812409   5.833950   2.484818   3.711476
    21  H    7.823115   7.658399   6.555496   3.711470   4.288727
    22  H    8.712072   8.397817   7.307696   3.068474   3.748379
    23  H    6.626548   6.234916   4.943926   3.826510   3.727897
    24  H    6.626421   5.881590   4.489881   3.206480   2.524054
    25  H    4.873952   4.666114   3.658652   3.158665   4.087237
    26  H    4.873776   4.174719   3.006503   2.356294   3.011306
    27  H    3.361516   3.839575   3.365806   5.982211   6.715486
    28  H    2.114030   3.363835   3.839294   7.552101   8.489554
    29  H    1.022081   2.111330   3.360255   7.897526   8.745034
    30  H    2.113180   1.022423   2.112956   6.824460   7.349615
    31  H    3.360853   2.113025   1.022636   5.031782   5.199062
                   16         17         18         19         20
    16  H    0.000000
    17  H    2.466435   0.000000
    18  H    3.695877   1.763420   0.000000
    19  H    3.027157   1.763415   1.763278   0.000000
    20  H    3.068479   3.700786   3.747621   4.292562   0.000000
    21  H    3.748375   3.104041   2.550128   3.750381   1.765876
    22  H    2.549695   2.466438   3.027154   3.695873   1.755001
    23  H    4.289759   3.675211   2.440159   3.008120   3.206478
    24  H    3.731959   3.675208   3.008118   2.440160   3.826502
    25  H    4.446036   5.028972   4.434891   4.775812   2.356282
    26  H    3.902136   5.028972   4.775813   4.434891   3.158665
    27  H    7.314667   7.564974   6.503194   7.051242   5.031754
    28  H    9.106659   9.749524   8.843151   9.253364   6.824444
    29  H    9.602576  10.672035   9.990163   9.990170   7.897508
    30  H    8.496888   9.749537   9.253387   8.843156   7.552135
    31  H    6.539355   7.564995   7.051258   6.503226   5.982201
                   21         22         23         24         25
    21  H    0.000000
    22  H    1.765042   0.000000
    23  H    2.524055   3.731957   0.000000
    24  H    3.727892   4.289752   1.754914   0.000000
    25  H    3.011304   3.902129   2.485236   3.049853   0.000000
    26  H    4.087237   4.446038   3.049856   2.485231   1.780843
    27  H    5.199026   6.539323   4.161239   4.970828   2.898744
    28  H    7.349623   8.496879   6.496852   7.042533   4.777710
    29  H    8.745016   9.602564   7.635589   7.635596   5.809020
    30  H    8.489597   9.106689   7.042568   6.496861   5.506760
    31  H    6.715480   7.314670   4.970833   4.161264   3.988112
                   26         27         28         29         30
    26  H    0.000000
    27  H    3.988129   0.000000
    28  H    5.506710   2.429386   0.000000
    29  H    5.809029   4.206723   2.428951   0.000000
    30  H    4.777726   4.861989   4.210105   2.429104   0.000000
    31  H    2.898746   4.212825   4.861843   4.206697   2.429334
                   31
    31  H    0.000000
 Stoichiometry    C11H18NO(1+)
 Framework group  C1[X(C11H18NO)]
 Deg. of freedom    87
 Full point group                 C1      NOp   1
 Largest Abelian subgroup         C1      NOp   1
 Largest concise Abelian subgroup C1      NOp   1
                         Standard orientation:                         
 ---------------------------------------------------------------------
 Center     Atomic      Atomic             Coordinates (Angstroms)
 Number     Number       Type             X           Y           Z
 ---------------------------------------------------------------------
      1          6           0       -3.167912   -1.229428    1.005577
      2          7           0       -3.084874   -0.000009    0.131510
      3          6           0       -4.272286    0.000010   -0.807250
      4          6           0       -3.167917    1.229377    1.005624
      5          6           0       -1.821821    0.000008   -0.718444
      6          6           0       -0.441195   -0.000003   -0.008427
      7          8           0        0.579939    0.000014   -1.030243
      8          6           0        1.848315   -0.000009   -0.519516
      9          6           0        2.507282    1.220304   -0.261747
     10          6           0        3.800011    1.220333    0.292654
     11          6           0        4.443234   -0.000474    0.573195
     12          6           0        3.800474   -1.219731    0.292800
     13          6           0        2.506934   -1.220380   -0.261939
     14          1           0       -2.379322   -1.242445    1.761464
     15          1           0       -3.078424   -2.144378    0.413834
     16          1           0       -4.120303   -1.274883    1.542493
     17          1           0       -5.218976   -0.000010   -0.260537
     18          1           0       -4.267804    0.881658   -1.455352
     19          1           0       -4.267800   -0.881620   -1.455384
     20          1           0       -2.379321    1.242373    1.761506
     21          1           0       -3.078435    2.144348    0.413917
     22          1           0       -4.120306    1.274811    1.542536
     23          1           0       -1.828931    0.877481   -1.376236
     24          1           0       -1.828927   -0.877432   -1.376265
     25          1           0       -0.348380    0.890410    0.619811
     26          1           0       -0.348373   -0.890433    0.619772
     27          1           0        2.043593    2.106454   -0.476739
     28          1           0        4.270647    2.105007    0.493901
     29          1           0        5.380656    0.000032    0.980491
     30          1           0        4.270651   -2.105099    0.493811
     31          1           0        2.043643   -2.106371   -0.476804
 ---------------------------------------------------------------------
 Rotational constants (GHZ):           2.1547819           0.2950564           0.2854833
 Leave Link  202 at Tue Feb 23 00:12:10 2021, MaxMem=   104857600 cpu:               0.8 elap:               0.1
 (Enter /sw/arch/RedHatEnterpriseServer7/EB_production/2019/software/Gaussian/g16.c01/l301.exe)
 Standard basis: TZVP (5D, 7F)
 Ernie: Thresh=  0.10000D-02 Tol=  0.10000D-05 Strict=F.
 There are   368 symmetry adapted cartesian basis functions of A   symmetry.
 There are   355 symmetry adapted basis functions of A   symmetry.
   355 basis functions,   599 primitive gaussians,   368 cartesian basis functions
    49 alpha electrons       49 beta electrons
       nuclear repulsion energy       788.8445236887 Hartrees.
 IExCor=  404 DFT=T Ex=B Corr=P86 ExCW=0 ScaHFX=  0.000000
 ScaDFX=  1.000000  1.000000  1.000000  1.000000 ScalE2=  1.000000  1.000000
 IRadAn=      5 IRanWt=     -1 IRanGd=            0 ICorTp=0 IEmpDi=131
 NAtoms=   31 NActive=   31 NUniq=   31 SFac= 1.00D+00 NAtFMM=   60 NAOKFM=F Big=F
 Integral buffers will be    131072 words long.
 Raffenetti 2 integral format.
 Two-electron integral symmetry is turned on.
 R6Disp:  Grimme-D3 Dispersion energy=       -0.0314160746 Hartrees.
 Nuclear repulsion after empirical dispersion term =      788.8131076141 Hartrees.
 ------------------------------------------------------------------------------
 Polarizable Continuum Model (PCM)
 =================================
 Model                : PCM.
 Atomic radii         : UFF (Universal Force Field).
 Polarization charges : Total charges.
 Charge compensation  : None.
 Solution method      : On-the-fly selection.
 Cavity type          : Scaled VdW (van der Waals Surface) (Alpha=1.100).
 Cavity algorithm     : GePol (No added spheres)
                        Default sphere list used, NSphG=   31.
                        Lebedev-Laikov grids with approx.  5.0 points / Ang**2.
                        Smoothing algorithm: York/Karplus (Gamma=1.0000).
                        Polarization charges: spherical gaussians, with
                                              point-specific exponents (IZeta= 3).
                        Self-potential: point-specific (ISelfS= 7).
                        Self-field    : sphere-specific E.n sum rule (ISelfD= 2).
 1st derivatives      : Analytical E(r).r(x)/FMM algorithm (CHGder, D1EAlg=3).
                        Cavity 1st derivative terms included.
 Solvent              : Water, Eps=  78.355300 Eps(inf)=   1.777849
 ------------------------------------------------------------------------------
 GePol: Number of generator spheres                  =      31
 GePol: Total number of spheres                      =      31
 GePol: Number of exposed spheres                    =      31 (100.00%)
 GePol: Number of points                             =    2146
 GePol: Average weight of points                     =       0.13
 GePol: Minimum weight of points                     =   0.27D-10
 GePol: Maximum weight of points                     =    0.20577
 GePol: Number of points with low weight             =     127
 GePol: Fraction of low-weight points (<1% of avg)   =       5.92%
 GePol: Cavity surface area                          =    285.754 Ang**2
 GePol: Cavity volume                                =    296.822 Ang**3
 Leave Link  301 at Tue Feb 23 00:12:10 2021, MaxMem=   104857600 cpu:               1.9 elap:               0.1
 (Enter /sw/arch/RedHatEnterpriseServer7/EB_production/2019/software/Gaussian/g16.c01/l302.exe)
 NPDir=0 NMtPBC=     1 NCelOv=     1 NCel=       1 NClECP=     1 NCelD=      1
         NCelK=      1 NCelE2=     1 NClLst=     1 CellRange=     0.0.
 One-electron integrals computed using PRISM.
 One-electron integral symmetry used in STVInt
 PrsmSu:  requested number of processors reduced to:  27 ShMem   1 Linda.
 NBasis=   355 RedAO= T EigKep=  1.13D-05  NBF=   355
 NBsUse=   355 1.00D-06 EigRej= -1.00D+00 NBFU=   355
 Precomputing XC quadrature grid using
 IXCGrd= 4 IRadAn=           5 IRanWt=          -1 IRanGd=           0 AccXCQ= 0.00D+00.
 Generated NRdTot=       0 NPtTot=           0 NUsed=           0 NTot=          32
 NSgBfM=   362   361   361   361   362 MxSgAt=    31 MxSgA2=    31.
 Leave Link  302 at Tue Feb 23 00:12:10 2021, MaxMem=   104857600 cpu:              10.7 elap:               0.4
 (Enter /sw/arch/RedHatEnterpriseServer7/EB_production/2019/software/Gaussian/g16.c01/l303.exe)
 DipDrv:  MaxL=1.
 Leave Link  303 at Tue Feb 23 00:12:11 2021, MaxMem=   104857600 cpu:               2.8 elap:               0.1
 (Enter /sw/arch/RedHatEnterpriseServer7/EB_production/2019/software/Gaussian/g16.c01/l401.exe)
 ExpMin= 9.52D-02 ExpMax= 2.70D+04 ExpMxC= 9.22D+02 IAcc=3 IRadAn=         5 AccDes= 0.00D+00
 Harris functional with IExCor=  404 and IRadAn=       5 diagonalized for initial guess.
 HarFok:  IExCor=  404 AccDes= 0.00D+00 IRadAn=         5 IDoV= 1 UseB2=F ITyADJ=14
 ICtDFT=  3500011 ScaDFX=  1.000000  1.000000  1.000000  1.000000
 FoFCou: FMM=F IPFlag=           0 FMFlag=      100000 FMFlg1=           0
         NFxFlg=           0 DoJE=T BraDBF=F KetDBF=T FulRan=T
         wScrn=  0.000000 ICntrl=       500 IOpCl=  0 I1Cent=   200000004 NGrid=           0
         NMat0=    1 NMatS0=      1 NMatT0=    0 NMatD0=    1 NMtDS0=    0 NMtDT0=    0
 Petite list used in FoFCou.
 Harris En= -560.191399492174    
 JPrj=0 DoOrth=F DoCkMO=F.
 Leave Link  401 at Tue Feb 23 00:12:11 2021, MaxMem=   104857600 cpu:              20.1 elap:               0.7
 (Enter /sw/arch/RedHatEnterpriseServer7/EB_production/2019/software/Gaussian/g16.c01/l502.exe)
 Integral symmetry usage will be decided dynamically.
 Closed shell SCF:
 Using DIIS extrapolation, IDIIS=  1040.
 NGot=   104857600 LenX=   104570384 LenY=   104434519
 Requested convergence on RMS density matrix=1.00D-08 within 128 cycles.
 Requested convergence on MAX density matrix=1.00D-06.
 Requested convergence on             energy=1.00D-06.
 No special actions if energy rises.
 Fock matrices will be formed incrementally for  20 cycles.

 Cycle   1  Pass 1  IDiag  1:
 FoFJK:  IHMeth= 1 ICntrl=     500 DoSepK=F KAlg= 0 I1Cent=           0 FoldK=F
 IRaf= 830000000 NMat=       1 IRICut=       1 DoRegI=T DoRafI=F ISym2E= 0 IDoP0=0 IntGTp=1.
 FoFCou: FMM=F IPFlag=           0 FMFlag=      100000 FMFlg1=           0
         NFxFlg=           0 DoJE=T BraDBF=F KetDBF=F FulRan=T
         wScrn=  0.000000 ICntrl=       500 IOpCl=  0 I1Cent=           0 NGrid=           0
         NMat0=    1 NMatS0=      1 NMatT0=    0 NMatD0=    1 NMtDS0=    0 NMtDT0=    0
 Symmetry not used in FoFCou.
 Inv3:  Mode=1 IEnd=    13815948.
 Iteration    1 A*A^-1 deviation from unit magnitude is 3.11D-15 for    109.
 Iteration    1 A*A^-1 deviation from orthogonality  is 1.78D-15 for   2027    347.
 Iteration    1 A^-1*A deviation from unit magnitude is 2.89D-15 for    100.
 Iteration    1 A^-1*A deviation from orthogonality  is 2.55D-15 for   1639    607.
 E= -559.698711954883    
 DIIS: error= 3.49D-02 at cycle   1 NSaved=   1.
 NSaved= 1 IEnMin= 1 EnMin= -559.698711954883     IErMin= 1 ErrMin= 3.49D-02
 ErrMax= 3.49D-02  0.00D+00 EMaxC= 1.00D-01 BMatC= 2.97D-01 BMatP= 2.97D-01
 IDIUse=3 WtCom= 6.51D-01 WtEn= 3.49D-01
 Coeff-Com:  0.100D+01
 Coeff-En:   0.100D+01
 Coeff:      0.100D+01
 Gap=     0.192 Goal=   None    Shift=    0.000
 GapD=    0.192 DampG=1.000 DampE=0.500 DampFc=0.5000 IDamp=-1.
 Damping current iteration by 5.00D-01
 RMSDP=4.40D-03 MaxDP=1.35D-01              OVMax= 2.37D-01

 Cycle   2  Pass 1  IDiag  1:
 RMSU=  2.18D-03    CP:  9.72D-01
 E= -559.790117543428     Delta-E=       -0.091405588546 Rises=F Damp=T
 DIIS: error= 1.40D-02 at cycle   2 NSaved=   2.
 NSaved= 2 IEnMin= 2 EnMin= -559.790117543428     IErMin= 2 ErrMin= 1.40D-02
 ErrMax= 1.40D-02  0.00D+00 EMaxC= 1.00D-01 BMatC= 3.91D-02 BMatP= 2.97D-01
 IDIUse=3 WtCom= 8.60D-01 WtEn= 1.40D-01
 Coeff-Com:  0.197D+00 0.803D+00
 Coeff-En:   0.304D+00 0.696D+00
 Coeff:      0.212D+00 0.788D+00
 Gap=     0.215 Goal=   None    Shift=    0.000
 RMSDP=1.16D-03 MaxDP=4.54D-02 DE=-9.14D-02 OVMax= 1.89D-01

 Cycle   3  Pass 1  IDiag  1:
 RMSU=  1.09D-03    CP:  9.60D-01  8.24D-01
 E= -559.962871016771     Delta-E=       -0.172753473343 Rises=F Damp=F
 DIIS: error= 9.68D-03 at cycle   3 NSaved=   3.
 NSaved= 3 IEnMin= 3 EnMin= -559.962871016771     IErMin= 3 ErrMin= 9.68D-03
 ErrMax= 9.68D-03  0.00D+00 EMaxC= 1.00D-01 BMatC= 1.94D-02 BMatP= 3.91D-02
 IDIUse=3 WtCom= 9.03D-01 WtEn= 9.68D-02
 Coeff-Com:  0.565D-01 0.407D+00 0.537D+00
 Coeff-En:   0.000D+00 0.000D+00 0.100D+01
 Coeff:      0.511D-01 0.367D+00 0.582D+00
 Gap=     0.177 Goal=   None    Shift=    0.000
 RMSDP=5.83D-04 MaxDP=1.88D-02 DE=-1.73D-01 OVMax= 6.78D-02

 Cycle   4  Pass 1  IDiag  1:
 RMSU=  4.53D-04    CP:  9.68D-01  7.23D-01  7.44D-01
 E= -559.973587092152     Delta-E=       -0.010716075381 Rises=F Damp=F
 DIIS: error= 5.42D-03 at cycle   4 NSaved=   4.
 NSaved= 4 IEnMin= 4 EnMin= -559.973587092152     IErMin= 4 ErrMin= 5.42D-03
 ErrMax= 5.42D-03  0.00D+00 EMaxC= 1.00D-01 BMatC= 6.54D-03 BMatP= 1.94D-02
 IDIUse=3 WtCom= 9.46D-01 WtEn= 5.42D-02
 Coeff-Com:  0.153D-01 0.119D+00 0.377D+00 0.489D+00
 Coeff-En:   0.000D+00 0.000D+00 0.312D+00 0.688D+00
 Coeff:      0.144D-01 0.112D+00 0.373D+00 0.500D+00
 Gap=     0.175 Goal=   None    Shift=    0.000
 RMSDP=3.43D-04 MaxDP=1.59D-02 DE=-1.07D-02 OVMax= 3.53D-02

 Cycle   5  Pass 1  IDiag  1:
 RMSU=  1.88D-04    CP:  9.61D-01  7.75D-01  8.57D-01  5.13D-01
 E= -559.979901940533     Delta-E=       -0.006314848380 Rises=F Damp=F
 DIIS: error= 2.06D-03 at cycle   5 NSaved=   5.
 NSaved= 5 IEnMin= 5 EnMin= -559.979901940533     IErMin= 5 ErrMin= 2.06D-03
 ErrMax= 2.06D-03  0.00D+00 EMaxC= 1.00D-01 BMatC= 3.21D-04 BMatP= 6.54D-03
 IDIUse=3 WtCom= 9.79D-01 WtEn= 2.06D-02
 Coeff-Com:  0.497D-02 0.378D-01 0.174D+00 0.289D+00 0.494D+00
 Coeff-En:   0.000D+00 0.000D+00 0.000D+00 0.000D+00 0.100D+01
 Coeff:      0.487D-02 0.370D-01 0.170D+00 0.283D+00 0.505D+00
 Gap=     0.175 Goal=   None    Shift=    0.000
 RMSDP=7.05D-05 MaxDP=2.20D-03 DE=-6.31D-03 OVMax= 1.23D-02

 Cycle   6  Pass 1  IDiag  1:
 RMSU=  4.32D-05    CP:  9.62D-01  7.71D-01  8.31D-01  5.80D-01  8.14D-01
 E= -559.980174605440     Delta-E=       -0.000272664907 Rises=F Damp=F
 DIIS: error= 9.26D-04 at cycle   6 NSaved=   6.
 NSaved= 6 IEnMin= 6 EnMin= -559.980174605440     IErMin= 6 ErrMin= 9.26D-04
 ErrMax= 9.26D-04  0.00D+00 EMaxC= 1.00D-01 BMatC= 8.28D-05 BMatP= 3.21D-04
 IDIUse=3 WtCom= 9.91D-01 WtEn= 9.26D-03
 Coeff-Com:  0.116D-02 0.872D-02 0.625D-01 0.125D+00 0.361D+00 0.441D+00
 Coeff-En:   0.000D+00 0.000D+00 0.000D+00 0.000D+00 0.227D+00 0.773D+00
 Coeff:      0.115D-02 0.864D-02 0.619D-01 0.124D+00 0.360D+00 0.444D+00
 Gap=     0.175 Goal=   None    Shift=    0.000
 RMSDP=2.92D-05 MaxDP=8.44D-04 DE=-2.73D-04 OVMax= 3.83D-03

 Cycle   7  Pass 1  IDiag  1:
 RMSU=  1.18D-05    CP:  9.62D-01  7.73D-01  8.41D-01  5.67D-01  7.81D-01
                    CP:  4.85D-01
 E= -559.980260412221     Delta-E=       -0.000085806781 Rises=F Damp=F
 DIIS: error= 6.88D-05 at cycle   7 NSaved=   7.
 NSaved= 7 IEnMin= 7 EnMin= -559.980260412221     IErMin= 7 ErrMin= 6.88D-05
 ErrMax= 6.88D-05  0.00D+00 EMaxC= 1.00D-01 BMatC= 1.55D-06 BMatP= 8.28D-05
 IDIUse=1 WtCom= 1.00D+00 WtEn= 0.00D+00
 Coeff-Com:  0.503D-03 0.360D-02 0.285D-01 0.589D-01 0.179D+00 0.240D+00
 Coeff-Com:  0.490D+00
 Coeff:      0.503D-03 0.360D-02 0.285D-01 0.589D-01 0.179D+00 0.240D+00
 Coeff:      0.490D+00
 Gap=     0.175 Goal=   None    Shift=    0.000
 RMSDP=6.66D-06 MaxDP=2.85D-04 DE=-8.58D-05 OVMax= 5.41D-04

 Cycle   8  Pass 1  IDiag  1:
 RMSU=  3.59D-06    CP:  9.62D-01  7.71D-01  8.39D-01  5.71D-01  7.75D-01
                    CP:  5.18D-01  7.58D-01
 E= -559.980261755564     Delta-E=       -0.000001343342 Rises=F Damp=F
 DIIS: error= 1.90D-05 at cycle   8 NSaved=   8.
 NSaved= 8 IEnMin= 8 EnMin= -559.980261755564     IErMin= 8 ErrMin= 1.90D-05
 ErrMax= 1.90D-05  0.00D+00 EMaxC= 1.00D-01 BMatC= 1.85D-07 BMatP= 1.55D-06
 IDIUse=1 WtCom= 1.00D+00 WtEn= 0.00D+00
 Coeff-Com:  0.135D-03 0.746D-03 0.703D-02 0.151D-01 0.483D-01 0.714D-01
 Coeff-Com:  0.285D+00 0.572D+00
 Coeff:      0.135D-03 0.746D-03 0.703D-02 0.151D-01 0.483D-01 0.714D-01
 Coeff:      0.285D+00 0.572D+00
 Gap=     0.175 Goal=   None    Shift=    0.000
 RMSDP=2.31D-06 MaxDP=8.84D-05 DE=-1.34D-06 OVMax= 1.89D-04

 Cycle   9  Pass 1  IDiag  1:
 RMSU=  1.18D-06    CP:  9.62D-01  7.72D-01  8.40D-01  5.70D-01  7.79D-01
                    CP:  5.17D-01  7.98D-01  7.35D-01
 E= -559.980261921475     Delta-E=       -0.000000165911 Rises=F Damp=F
 DIIS: error= 8.89D-06 at cycle   9 NSaved=   9.
 NSaved= 9 IEnMin= 9 EnMin= -559.980261921475     IErMin= 9 ErrMin= 8.89D-06
 ErrMax= 8.89D-06  0.00D+00 EMaxC= 1.00D-01 BMatC= 2.38D-08 BMatP= 1.85D-07
 IDIUse=1 WtCom= 1.00D+00 WtEn= 0.00D+00
 Coeff-Com:  0.388D-04 0.114D-03 0.168D-02 0.387D-02 0.133D-01 0.218D-01
 Coeff-Com:  0.133D+00 0.345D+00 0.481D+00
 Coeff:      0.388D-04 0.114D-03 0.168D-02 0.387D-02 0.133D-01 0.218D-01
 Coeff:      0.133D+00 0.345D+00 0.481D+00
 Gap=     0.175 Goal=   None    Shift=    0.000
 RMSDP=5.49D-07 MaxDP=1.92D-05 DE=-1.66D-07 OVMax= 5.34D-05

 Cycle  10  Pass 1  IDiag  1:
 RMSU=  4.02D-07    CP:  9.62D-01  7.72D-01  8.39D-01  5.70D-01  7.79D-01
                    CP:  5.19D-01  7.93D-01  7.83D-01  8.03D-01
 E= -559.980261934292     Delta-E=       -0.000000012817 Rises=F Damp=F
 DIIS: error= 2.42D-06 at cycle  10 NSaved=  10.
 NSaved=10 IEnMin=10 EnMin= -559.980261934292     IErMin=10 ErrMin= 2.42D-06
 ErrMax= 2.42D-06  0.00D+00 EMaxC= 1.00D-01 BMatC= 1.78D-09 BMatP= 2.38D-08
 IDIUse=1 WtCom= 1.00D+00 WtEn= 0.00D+00
 Coeff-Com:  0.601D-05-0.514D-05 0.131D-03 0.348D-03 0.136D-02 0.295D-02
 Coeff-Com:  0.333D-01 0.101D+00 0.257D+00 0.604D+00
 Coeff:      0.601D-05-0.514D-05 0.131D-03 0.348D-03 0.136D-02 0.295D-02
 Coeff:      0.333D-01 0.101D+00 0.257D+00 0.604D+00
 Gap=     0.175 Goal=   None    Shift=    0.000
 RMSDP=2.10D-07 MaxDP=1.06D-05 DE=-1.28D-08 OVMax= 1.17D-05

 Cycle  11  Pass 1  IDiag  1:
 RMSU=  9.94D-08    CP:  9.62D-01  7.72D-01  8.39D-01  5.70D-01  7.79D-01
                    CP:  5.18D-01  8.02D-01  7.85D-01  8.19D-01  7.00D-01
 E= -559.980261935607     Delta-E=       -0.000000001316 Rises=F Damp=F
 DIIS: error= 8.72D-07 at cycle  11 NSaved=  11.
 NSaved=11 IEnMin=11 EnMin= -559.980261935607     IErMin=11 ErrMin= 8.72D-07
 ErrMax= 8.72D-07  0.00D+00 EMaxC= 1.00D-01 BMatC= 2.83D-10 BMatP= 1.78D-09
 IDIUse=1 WtCom= 1.00D+00 WtEn= 0.00D+00
 Coeff-Com:  0.150D-05-0.122D-04-0.303D-04-0.395D-04-0.963D-05 0.487D-03
 Coeff-Com:  0.133D-01 0.433D-01 0.134D+00 0.381D+00 0.428D+00
 Coeff:      0.150D-05-0.122D-04-0.303D-04-0.395D-04-0.963D-05 0.487D-03
 Coeff:      0.133D-01 0.433D-01 0.134D+00 0.381D+00 0.428D+00
 Gap=     0.175 Goal=   None    Shift=    0.000
 RMSDP=5.01D-08 MaxDP=1.55D-06 DE=-1.32D-09 OVMax= 3.21D-06

 Cycle  12  Pass 1  IDiag  1:
 RMSU=  3.02D-08    CP:  9.62D-01  7.72D-01  8.39D-01  5.70D-01  7.79D-01
                    CP:  5.19D-01  8.02D-01  7.87D-01  8.18D-01  7.27D-01
                    CP:  7.93D-01
 E= -559.980261935816     Delta-E=       -0.000000000209 Rises=F Damp=F
 DIIS: error= 1.27D-07 at cycle  12 NSaved=  12.
 NSaved=12 IEnMin=12 EnMin= -559.980261935816     IErMin=12 ErrMin= 1.27D-07
 ErrMax= 1.27D-07  0.00D+00 EMaxC= 1.00D-01 BMatC= 6.66D-12 BMatP= 2.83D-10
 IDIUse=1 WtCom= 1.00D+00 WtEn= 0.00D+00
 Coeff-Com:  0.149D-06-0.366D-05-0.176D-04-0.388D-04-0.116D-03-0.720D-04
 Coeff-Com:  0.183D-02 0.679D-02 0.271D-01 0.961D-01 0.176D+00 0.693D+00
 Coeff:      0.149D-06-0.366D-05-0.176D-04-0.388D-04-0.116D-03-0.720D-04
 Coeff:      0.183D-02 0.679D-02 0.271D-01 0.961D-01 0.176D+00 0.693D+00
 Gap=     0.175 Goal=   None    Shift=    0.000
 RMSDP=1.87D-08 MaxDP=6.80D-07 DE=-2.09D-10 OVMax= 3.89D-07

 Cycle  13  Pass 1  IDiag  1:
 RMSU=  7.49D-09    CP:  9.62D-01  7.72D-01  8.39D-01  5.70D-01  7.79D-01
                    CP:  5.19D-01  8.02D-01  7.87D-01  8.27D-01  7.32D-01
                    CP:  7.90D-01  8.08D-01
 E= -559.980261935823     Delta-E=       -0.000000000006 Rises=F Damp=F
 DIIS: error= 3.83D-08 at cycle  13 NSaved=  13.
 NSaved=13 IEnMin=13 EnMin= -559.980261935823     IErMin=13 ErrMin= 3.83D-08
 ErrMax= 3.83D-08  0.00D+00 EMaxC= 1.00D-01 BMatC= 6.52D-13 BMatP= 6.66D-12
 IDIUse=1 WtCom= 1.00D+00 WtEn= 0.00D+00
 Coeff-Com:  0.101D-07-0.184D-05-0.918D-05-0.209D-04-0.655D-04-0.582D-04
 Coeff-Com:  0.480D-03 0.215D-02 0.940D-02 0.375D-01 0.764D-01 0.368D+00
 Coeff-Com:  0.506D+00
 Coeff:      0.101D-07-0.184D-05-0.918D-05-0.209D-04-0.655D-04-0.582D-04
 Coeff:      0.480D-03 0.215D-02 0.940D-02 0.375D-01 0.764D-01 0.368D+00
 Coeff:      0.506D+00
 Gap=     0.175 Goal=   None    Shift=    0.000
 RMSDP=4.34D-09 MaxDP=1.44D-07 DE=-6.48D-12 OVMax= 2.32D-07

 Error on total polarization charges =  0.01351
 SCF Done:  E(RB-P86) =  -559.980261936     A.U. after   13 cycles
            NFock= 13  Conv=0.43D-08     -V/T= 2.0045
 KE= 5.574889472796D+02 PE=-2.864268492421D+03 EE= 9.579861755919D+02
 Leave Link  502 at Tue Feb 23 00:12:39 2021, MaxMem=   104857600 cpu:             866.7 elap:              27.7
 (Enter /sw/arch/RedHatEnterpriseServer7/EB_production/2019/software/Gaussian/g16.c01/l601.exe)
 Copying SCF densities to generalized density rwf, IOpCl= 0 IROHF=0.

 **********************************************************************

            Population analysis using the SCF Density.

 **********************************************************************

 Orbital symmetries:
       Occupied  (A) (A) (A) (A) (A) (A) (A) (A) (A) (A) (A) (A)
                 (A) (A) (A) (A) (A) (A) (A) (A) (A) (A) (A) (A)
                 (A) (A) (A) (A) (A) (A) (A) (A) (A) (A) (A) (A)
                 (A) (A) (A) (A) (A) (A) (A) (A) (A) (A) (A) (A)
                 (A)
       Virtual   (A) (A) (A) (A) (A) (A) (A) (A) (A) (A) (A) (A)
                 (A) (A) (A) (A) (A) (A) (A) (A) (A) (A) (A) (A)
                 (A) (A) (A) (A) (A) (A) (A) (A) (A) (A) (A) (A)
                 (A) (A) (A) (A) (A) (A) (A) (A) (A) (A) (A) (A)
                 (A) (A) (A) (A) (A) (A) (A) (A) (A) (A) (A) (A)
                 (A) (A) (A) (A) (A) (A) (A) (A) (A) (A) (A) (A)
                 (A) (A) (A) (A) (A) (A) (A) (A) (A) (A) (A) (A)
                 (A) (A) (A) (A) (A) (A) (A) (A) (A) (A) (A) (A)
                 (A) (A) (A) (A) (A) (A) (A) (A) (A) (A) (A) (A)
                 (A) (A) (A) (A) (A) (A) (A) (A) (A) (A) (A) (A)
                 (A) (A) (A) (A) (A) (A) (A) (A) (A) (A) (A) (A)
                 (A) (A) (A) (A) (A) (A) (A) (A) (A) (A) (A) (A)
                 (A) (A) (A) (A) (A) (A) (A) (A) (A) (A) (A) (A)
                 (A) (A) (A) (A) (A) (A) (A) (A) (A) (A) (A) (A)
                 (A) (A) (A) (A) (A) (A) (A) (A) (A) (A) (A) (A)
                 (A) (A) (A) (A) (A) (A) (A) (A) (A) (A) (A) (A)
                 (A) (A) (A) (A) (A) (A) (A) (A) (A) (A) (A) (A)
                 (A) (A) (A) (A) (A) (A) (A) (A) (A) (A) (A) (A)
                 (A) (A) (A) (A) (A) (A) (A) (A) (A) (A) (A) (A)
                 (A) (A) (A) (A) (A) (A) (A) (A) (A) (A) (A) (A)
                 (A) (A) (A) (A) (A) (A) (A) (A) (A) (A) (A) (A)
                 (A) (A) (A) (A) (A) (A) (A) (A) (A) (A) (A) (A)
                 (A) (A) (A) (A) (A) (A) (A) (A) (A) (A) (A) (A)
                 (A) (A) (A) (A) (A) (A) (A) (A) (A) (A) (A) (A)
                 (A) (A) (A) (A) (A) (A) (A) (A) (A) (A) (A) (A)
                 (A) (A) (A) (A) (A) (A)
 The electronic state is 1-A.
 Alpha  occ. eigenvalues --  -18.81180 -14.16986  -9.98027  -9.97898  -9.96760
 Alpha  occ. eigenvalues --   -9.96573  -9.96573  -9.96533  -9.90671  -9.90667
 Alpha  occ. eigenvalues --   -9.90573  -9.90572  -9.90251  -0.99469  -0.96231
 Alpha  occ. eigenvalues --   -0.78663  -0.73894  -0.70274  -0.70243  -0.69330
 Alpha  occ. eigenvalues --   -0.68219  -0.63659  -0.58276  -0.57116  -0.55412
 Alpha  occ. eigenvalues --   -0.51542  -0.50303  -0.49298  -0.48912  -0.45944
 Alpha  occ. eigenvalues --   -0.45766  -0.42397  -0.42259  -0.41400  -0.39939
 Alpha  occ. eigenvalues --   -0.39915  -0.39347  -0.38397  -0.37809  -0.37710
 Alpha  occ. eigenvalues --   -0.37504  -0.35957  -0.34552  -0.33635  -0.32745
 Alpha  occ. eigenvalues --   -0.31990  -0.25287  -0.24197  -0.23198
 Alpha virt. eigenvalues --   -0.05711  -0.05527  -0.02096   0.00841   0.02725
 Alpha virt. eigenvalues --    0.03426   0.03578   0.03899   0.04352   0.04474
 Alpha virt. eigenvalues --    0.05284   0.06773   0.07150   0.07835   0.08314
 Alpha virt. eigenvalues --    0.08728   0.09119   0.09412   0.09704   0.10783
 Alpha virt. eigenvalues --    0.10785   0.11631   0.11793   0.12457   0.13138
 Alpha virt. eigenvalues --    0.13615   0.14463   0.15088   0.16120   0.16336
 Alpha virt. eigenvalues --    0.17830   0.19009   0.19205   0.19578   0.20831
 Alpha virt. eigenvalues --    0.21002   0.21274   0.21768   0.22948   0.23090
 Alpha virt. eigenvalues --    0.23834   0.25304   0.25367   0.25811   0.26924
 Alpha virt. eigenvalues --    0.27357   0.28840   0.29593   0.30533   0.30917
 Alpha virt. eigenvalues --    0.31668   0.31772   0.32720   0.34055   0.34778
 Alpha virt. eigenvalues --    0.35510   0.36141   0.36704   0.38171   0.38325
 Alpha virt. eigenvalues --    0.38612   0.39448   0.39542   0.39715   0.40416
 Alpha virt. eigenvalues --    0.41067   0.41103   0.41473   0.41567   0.41659
 Alpha virt. eigenvalues --    0.41987   0.42433   0.42676   0.42786   0.43706
 Alpha virt. eigenvalues --    0.43797   0.43981   0.44160   0.46148   0.46756
 Alpha virt. eigenvalues --    0.47403   0.47537   0.49003   0.49686   0.52957
 Alpha virt. eigenvalues --    0.53223   0.53789   0.57043   0.57494   0.61085
 Alpha virt. eigenvalues --    0.61895   0.63595   0.63783   0.65730   0.66334
 Alpha virt. eigenvalues --    0.68617   0.69296   0.70132   0.72521   0.76279
 Alpha virt. eigenvalues --    0.78209   0.81658   0.85384   0.86366   0.99509
 Alpha virt. eigenvalues --    1.01333   1.07068   1.10414   1.14072   1.14353
 Alpha virt. eigenvalues --    1.14532   1.15336   1.15567   1.16266   1.16625
 Alpha virt. eigenvalues --    1.16723   1.17733   1.18458   1.18893   1.19951
 Alpha virt. eigenvalues --    1.21699   1.22196   1.22583   1.23011   1.23693
 Alpha virt. eigenvalues --    1.24065   1.24295   1.24648   1.25763   1.27918
 Alpha virt. eigenvalues --    1.30181   1.31306   1.31341   1.31824   1.34272
 Alpha virt. eigenvalues --    1.35124   1.36504   1.37474   1.37970   1.38281
 Alpha virt. eigenvalues --    1.38618   1.38766   1.41700   1.43169   1.43237
 Alpha virt. eigenvalues --    1.43905   1.44138   1.44412   1.45244   1.46461
 Alpha virt. eigenvalues --    1.46858   1.47657   1.48049   1.48689   1.51758
 Alpha virt. eigenvalues --    1.51924   1.53095   1.53956   1.56287   1.57051
 Alpha virt. eigenvalues --    1.59449   1.60631   1.62031   1.64071   1.64227
 Alpha virt. eigenvalues --    1.65614   1.66694   1.67553   1.68680   1.68701
 Alpha virt. eigenvalues --    1.69319   1.70427   1.71279   1.71392   1.71683
 Alpha virt. eigenvalues --    1.72814   1.72952   1.74202   1.74656   1.74725
 Alpha virt. eigenvalues --    1.75814   1.76486   1.78942   1.80711   1.81348
 Alpha virt. eigenvalues --    1.81830   1.82188   1.84038   1.84106   1.85305
 Alpha virt. eigenvalues --    1.85729   1.86880   1.87263   1.89487   1.93479
 Alpha virt. eigenvalues --    1.95064   1.95422   1.96007   1.96523   1.97580
 Alpha virt. eigenvalues --    1.98524   2.00239   2.08529   2.09470   2.13262
 Alpha virt. eigenvalues --    2.14016   2.14840   2.15935   2.18155   2.19251
 Alpha virt. eigenvalues --    2.19989   2.20082   2.21296   2.22297   2.22957
 Alpha virt. eigenvalues --    2.24730   2.27260   2.27588   2.27945   2.31507
 Alpha virt. eigenvalues --    2.32264   2.32842   2.34527   2.35009   2.37596
 Alpha virt. eigenvalues --    2.38183   2.40895   2.41939   2.42184   2.44203
 Alpha virt. eigenvalues --    2.46570   2.48341   2.50050   2.50333   2.51871
 Alpha virt. eigenvalues --    2.51972   2.52328   2.54588   2.56692   2.57440
 Alpha virt. eigenvalues --    2.59178   2.59347   2.59808   2.60132   2.62265
 Alpha virt. eigenvalues --    2.63270   2.66374   2.66725   2.67582   2.72174
 Alpha virt. eigenvalues --    2.72187   2.73182   2.76612   2.79692   2.81805
 Alpha virt. eigenvalues --    2.83837   2.86305   2.88348   2.91335   2.92035
 Alpha virt. eigenvalues --    2.94479   2.97914   2.98529   3.02337   3.03145
 Alpha virt. eigenvalues --    3.04199   3.04516   3.06182   3.06262   3.07147
 Alpha virt. eigenvalues --    3.08709   3.09973   3.13605   3.16245   3.19258
 Alpha virt. eigenvalues --    3.20665   3.22283   3.23240   3.23747   3.26740
 Alpha virt. eigenvalues --    3.27304   3.32075   3.32188   3.33484   3.33752
 Alpha virt. eigenvalues --    3.36689   3.40521   3.53025   3.53493   3.54830
 Alpha virt. eigenvalues --    3.65117   3.87815   4.09111  21.10315  21.63786
 Alpha virt. eigenvalues --   21.66177  21.67727  21.78949  21.79174  21.81904
 Alpha virt. eigenvalues --   21.83142  21.85303  21.85374  21.98827  31.60414
 Alpha virt. eigenvalues --   43.28939
          Condensed to atoms (all electrons):
               1          2          3          4          5          6
     1  C    5.179256   0.239132  -0.080424  -0.114482  -0.082033   0.007349
     2  N    0.239132   6.442752   0.278404   0.239133   0.162576  -0.008440
     3  C   -0.080424   0.278404   5.101226  -0.080422  -0.116979   0.019306
     4  C   -0.114482   0.239133  -0.080422   5.179252  -0.082034   0.007349
     5  C   -0.082033   0.162576  -0.116979  -0.082034   5.554845   0.110890
     6  C    0.007349  -0.008440   0.019306   0.007349   0.110890   5.219820
     7  O   -0.000669   0.005325   0.000055  -0.000669  -0.057813   0.259093
     8  C   -0.000164   0.000376   0.000040  -0.000164   0.000908  -0.165145
     9  C    0.000069   0.000079  -0.000006  -0.000138   0.000435  -0.000440
    10  C    0.000008  -0.000001   0.000001  -0.000018   0.000009  -0.005802
    11  C   -0.000000   0.000000  -0.000000  -0.000000  -0.000057   0.003732
    12  C   -0.000018  -0.000001   0.000001   0.000008   0.000009  -0.005805
    13  C   -0.000138   0.000079  -0.000006   0.000069   0.000434  -0.000491
    14  H    0.392189  -0.016161   0.008658  -0.005079  -0.014225   0.004291
    15  H    0.377860  -0.013457  -0.005739   0.011028  -0.001398  -0.003612
    16  H    0.387830  -0.012282  -0.006589  -0.007294   0.008944  -0.000027
    17  H   -0.008843  -0.013010   0.390164  -0.008844   0.009997  -0.000765
    18  H    0.009320  -0.014608   0.387337  -0.005497  -0.008039   0.000407
    19  H   -0.005497  -0.014608   0.387336   0.009320  -0.008040   0.000407
    20  H   -0.005079  -0.016161   0.008658   0.392190  -0.014225   0.004291
    21  H    0.011028  -0.013457  -0.005740   0.377860  -0.001398  -0.003612
    22  H   -0.007294  -0.012282  -0.006589   0.387831   0.008944  -0.000027
    23  H    0.013214  -0.012336  -0.003706  -0.018147   0.385560  -0.030829
    24  H   -0.018147  -0.012338  -0.003704   0.013214   0.385567  -0.030840
    25  H   -0.007257  -0.001680  -0.000411   0.016828  -0.038600   0.387870
    26  H    0.016828  -0.001679  -0.000411  -0.007257  -0.038607   0.387866
    27  H    0.000003   0.000019  -0.000003  -0.000035  -0.000176  -0.002053
    28  H   -0.000000   0.000000   0.000000   0.000000   0.000003  -0.000209
    29  H   -0.000000  -0.000000  -0.000000  -0.000000  -0.000000   0.000017
    30  H    0.000000   0.000000   0.000000  -0.000000   0.000003  -0.000209
    31  H   -0.000035   0.000019  -0.000003   0.000003  -0.000176  -0.002051
               7          8          9         10         11         12
     1  C   -0.000669  -0.000164   0.000069   0.000008  -0.000000  -0.000018
     2  N    0.005325   0.000376   0.000079  -0.000001   0.000000  -0.000001
     3  C    0.000055   0.000040  -0.000006   0.000001  -0.000000   0.000001
     4  C   -0.000669  -0.000164  -0.000138  -0.000018  -0.000000   0.000008
     5  C   -0.057813   0.000908   0.000435   0.000009  -0.000057   0.000009
     6  C    0.259093  -0.165145  -0.000440  -0.005802   0.003732  -0.005805
     7  O    7.923427   0.262261  -0.061416   0.014750   0.000446   0.014747
     8  C    0.262261   5.290125   0.306848   0.050611  -0.137022   0.050831
     9  C   -0.061416   0.306848   5.333924   0.272005   0.035092  -0.117301
    10  C    0.014750   0.050611   0.272005   5.154049   0.370760   0.005684
    11  C    0.000446  -0.137022   0.035092   0.370760   5.163569   0.371378
    12  C    0.014747   0.050831  -0.117301   0.005684   0.371378   5.154082
    13  C   -0.061435   0.307577   0.033157  -0.117070   0.034828   0.271613
    14  H    0.000019   0.000027  -0.000024  -0.000001  -0.000001   0.000004
    15  H    0.000138  -0.000018  -0.000001  -0.000000   0.000000   0.000003
    16  H   -0.000001   0.000005   0.000000  -0.000000   0.000000  -0.000000
    17  H    0.000007   0.000001   0.000000  -0.000000   0.000000  -0.000000
    18  H   -0.000035  -0.000006  -0.000001  -0.000000  -0.000000   0.000000
    19  H   -0.000035  -0.000006  -0.000000   0.000000  -0.000000  -0.000000
    20  H    0.000019   0.000027   0.000041   0.000004  -0.000001  -0.000001
    21  H    0.000138  -0.000018   0.000025   0.000003   0.000000  -0.000000
    22  H   -0.000001   0.000005   0.000000  -0.000000   0.000000  -0.000000
    23  H    0.012594  -0.000499   0.000952   0.000098   0.000003  -0.000057
    24  H    0.012597  -0.000498  -0.000186  -0.000058   0.000003   0.000098
    25  H   -0.049025   0.013968   0.006009  -0.004715   0.000056   0.000973
    26  H   -0.049035   0.013966   0.002866   0.000974   0.000054  -0.004707
    27  H    0.000848  -0.063891   0.435955  -0.046149   0.013572  -0.003679
    28  H   -0.000254   0.015778  -0.053708   0.439018  -0.063298   0.015152
    29  H    0.000010  -0.002696   0.014343  -0.055469   0.435285  -0.055415
    30  H   -0.000255   0.015746  -0.003782   0.015156  -0.063290   0.439029
    31  H    0.000834  -0.063842   0.015446  -0.003683   0.013568  -0.046198
              13         14         15         16         17         18
     1  C   -0.000138   0.392189   0.377860   0.387830  -0.008843   0.009320
     2  N    0.000079  -0.016161  -0.013457  -0.012282  -0.013010  -0.014608
     3  C   -0.000006   0.008658  -0.005739  -0.006589   0.390164   0.387337
     4  C    0.000069  -0.005079   0.011028  -0.007294  -0.008844  -0.005497
     5  C    0.000434  -0.014225  -0.001398   0.008944   0.009997  -0.008039
     6  C   -0.000491   0.004291  -0.003612  -0.000027  -0.000765   0.000407
     7  O   -0.061435   0.000019   0.000138  -0.000001   0.000007  -0.000035
     8  C    0.307577   0.000027  -0.000018   0.000005   0.000001  -0.000006
     9  C    0.033157  -0.000024  -0.000001   0.000000   0.000000  -0.000001
    10  C   -0.117070  -0.000001  -0.000000  -0.000000  -0.000000  -0.000000
    11  C    0.034828  -0.000001   0.000000   0.000000   0.000000  -0.000000
    12  C    0.271613   0.000004   0.000003  -0.000000  -0.000000   0.000000
    13  C    5.333418   0.000041   0.000025   0.000000   0.000000  -0.000000
    14  H    0.000041   0.464395  -0.018699  -0.019911   0.000074  -0.000325
    15  H    0.000025  -0.018699   0.468112  -0.018069   0.000207  -0.000009
    16  H    0.000000  -0.019911  -0.018069   0.461303   0.002509   0.000052
    17  H    0.000000   0.000074   0.000207   0.002509   0.465016  -0.019568
    18  H   -0.000000  -0.000325  -0.000009   0.000052  -0.019568   0.469811
    19  H   -0.000001  -0.000011   0.001901  -0.000053  -0.019569  -0.019787
    20  H   -0.000024   0.001630  -0.000000  -0.000064   0.000074  -0.000011
    21  H   -0.000001  -0.000000  -0.000380   0.000006   0.000207   0.001901
    22  H    0.000000  -0.000064   0.000006   0.002111   0.002509  -0.000053
    23  H   -0.000186  -0.000077  -0.000215  -0.000206   0.000029   0.003207
    24  H    0.000952   0.000708   0.002822  -0.000099   0.000029  -0.000525
    25  H    0.002869   0.000396   0.000391  -0.000026   0.000015   0.000089
    26  H    0.006018  -0.002147  -0.001889   0.000267   0.000015  -0.000042
    27  H    0.015415  -0.000001  -0.000000   0.000000   0.000000  -0.000001
    28  H   -0.003782   0.000000   0.000000  -0.000000  -0.000000   0.000000
    29  H    0.014348  -0.000000  -0.000000   0.000000   0.000000  -0.000000
    30  H   -0.053754  -0.000000  -0.000000   0.000000  -0.000000  -0.000000
    31  H    0.436012  -0.000005   0.000011   0.000000   0.000000  -0.000000
              19         20         21         22         23         24
     1  C   -0.005497  -0.005079   0.011028  -0.007294   0.013214  -0.018147
     2  N   -0.014608  -0.016161  -0.013457  -0.012282  -0.012336  -0.012338
     3  C    0.387336   0.008658  -0.005740  -0.006589  -0.003706  -0.003704
     4  C    0.009320   0.392190   0.377860   0.387831  -0.018147   0.013214
     5  C   -0.008040  -0.014225  -0.001398   0.008944   0.385560   0.385567
     6  C    0.000407   0.004291  -0.003612  -0.000027  -0.030829  -0.030840
     7  O   -0.000035   0.000019   0.000138  -0.000001   0.012594   0.012597
     8  C   -0.000006   0.000027  -0.000018   0.000005  -0.000499  -0.000498
     9  C   -0.000000   0.000041   0.000025   0.000000   0.000952  -0.000186
    10  C    0.000000   0.000004   0.000003  -0.000000   0.000098  -0.000058
    11  C   -0.000000  -0.000001   0.000000   0.000000   0.000003   0.000003
    12  C   -0.000000  -0.000001  -0.000000  -0.000000  -0.000057   0.000098
    13  C   -0.000001  -0.000024  -0.000001   0.000000  -0.000186   0.000952
    14  H   -0.000011   0.001630  -0.000000  -0.000064  -0.000077   0.000708
    15  H    0.001901  -0.000000  -0.000380   0.000006  -0.000215   0.002822
    16  H   -0.000053  -0.000064   0.000006   0.002111  -0.000206  -0.000099
    17  H   -0.019569   0.000074   0.000207   0.002509   0.000029   0.000029
    18  H   -0.019787  -0.000011   0.001901  -0.000053   0.003207  -0.000525
    19  H    0.469814  -0.000325  -0.000009   0.000052  -0.000525   0.003207
    20  H   -0.000325   0.464395  -0.018700  -0.019910   0.000708  -0.000077
    21  H   -0.000009  -0.018700   0.468112  -0.018069   0.002823  -0.000215
    22  H    0.000052  -0.019910  -0.018069   0.461301  -0.000099  -0.000206
    23  H   -0.000525   0.000708   0.002823  -0.000099   0.467369  -0.019937
    24  H    0.003207  -0.000077  -0.000215  -0.000206  -0.019937   0.467368
    25  H   -0.000042  -0.002147  -0.001889   0.000267  -0.008976   0.006792
    26  H    0.000089   0.000396   0.000391  -0.000026   0.006792  -0.008975
    27  H   -0.000000  -0.000005   0.000011   0.000000   0.000246  -0.000002
    28  H   -0.000000  -0.000000  -0.000000   0.000000  -0.000001   0.000000
    29  H   -0.000000  -0.000000  -0.000000   0.000000  -0.000000  -0.000000
    30  H    0.000000   0.000000   0.000000  -0.000000   0.000000  -0.000001
    31  H   -0.000001  -0.000001  -0.000000   0.000000  -0.000002   0.000246
              25         26         27         28         29         30
     1  C   -0.007257   0.016828   0.000003  -0.000000  -0.000000   0.000000
     2  N   -0.001680  -0.001679   0.000019   0.000000  -0.000000   0.000000
     3  C   -0.000411  -0.000411  -0.000003   0.000000  -0.000000   0.000000
     4  C    0.016828  -0.007257  -0.000035   0.000000  -0.000000  -0.000000
     5  C   -0.038600  -0.038607  -0.000176   0.000003  -0.000000   0.000003
     6  C    0.387870   0.387866  -0.002053  -0.000209   0.000017  -0.000209
     7  O   -0.049025  -0.049035   0.000848  -0.000254   0.000010  -0.000255
     8  C    0.013968   0.013966  -0.063891   0.015778  -0.002696   0.015746
     9  C    0.006009   0.002866   0.435955  -0.053708   0.014343  -0.003782
    10  C   -0.004715   0.000974  -0.046149   0.439018  -0.055469   0.015156
    11  C    0.000056   0.000054   0.013572  -0.063298   0.435285  -0.063290
    12  C    0.000973  -0.004707  -0.003679   0.015152  -0.055415   0.439029
    13  C    0.002869   0.006018   0.015415  -0.003782   0.014348  -0.053754
    14  H    0.000396  -0.002147  -0.000001   0.000000  -0.000000  -0.000000
    15  H    0.000391  -0.001889  -0.000000   0.000000  -0.000000  -0.000000
    16  H   -0.000026   0.000267   0.000000  -0.000000   0.000000   0.000000
    17  H    0.000015   0.000015   0.000000  -0.000000   0.000000  -0.000000
    18  H    0.000089  -0.000042  -0.000001   0.000000  -0.000000  -0.000000
    19  H   -0.000042   0.000089  -0.000000  -0.000000  -0.000000   0.000000
    20  H   -0.002147   0.000396  -0.000005  -0.000000  -0.000000   0.000000
    21  H   -0.001889   0.000391   0.000011  -0.000000  -0.000000   0.000000
    22  H    0.000267  -0.000026   0.000000   0.000000   0.000000  -0.000000
    23  H   -0.008976   0.006792   0.000246  -0.000001  -0.000000   0.000000
    24  H    0.006792  -0.008975  -0.000002   0.000000  -0.000000  -0.000001
    25  H    0.551435  -0.045926   0.000221   0.000058   0.000001  -0.000010
    26  H   -0.045926   0.551446   0.000588  -0.000010   0.000001   0.000058
    27  H    0.000221   0.000588   0.499092  -0.006105  -0.000172   0.000012
    28  H    0.000058  -0.000010  -0.006105   0.512771  -0.005903  -0.000175
    29  H    0.000001   0.000001  -0.000172  -0.005903   0.507377  -0.005964
    30  H   -0.000010   0.000058   0.000012  -0.000175  -0.005964   0.512946
    31  H    0.000587   0.000224  -0.000027   0.000011  -0.000170  -0.006074
              31
     1  C   -0.000035
     2  N    0.000019
     3  C   -0.000003
     4  C    0.000003
     5  C   -0.000176
     6  C   -0.002051
     7  O    0.000834
     8  C   -0.063842
     9  C    0.015446
    10  C   -0.003683
    11  C    0.013568
    12  C   -0.046198
    13  C    0.436012
    14  H   -0.000005
    15  H    0.000011
    16  H    0.000000
    17  H    0.000000
    18  H   -0.000000
    19  H   -0.000001
    20  H   -0.000001
    21  H   -0.000000
    22  H    0.000000
    23  H   -0.000002
    24  H    0.000246
    25  H    0.000587
    26  H    0.000224
    27  H   -0.000027
    28  H    0.000011
    29  H   -0.000170
    30  H   -0.006074
    31  H    0.498907
 Mulliken charges:
               1
     1  C   -0.304002
     2  N   -0.205394
     3  C   -0.270452
     4  C   -0.304004
     5  C   -0.165322
     6  C   -0.152328
     7  O   -0.226663
     8  C    0.104872
     9  C   -0.220243
    10  C   -0.090164
    11  C   -0.178676
    12  C   -0.090428
    13  C   -0.219968
    14  H    0.204299
    15  H    0.200983
    16  H    0.201595
    17  H    0.199745
    18  H    0.196385
    19  H    0.196383
    20  H    0.204298
    21  H    0.200983
    22  H    0.201595
    23  H    0.202204
    24  H    0.202205
    25  H    0.171880
    26  H    0.171871
    27  H    0.156317
    28  H    0.150656
    29  H    0.154407
    30  H    0.150565
    31  H    0.156399
 Sum of Mulliken charges =   1.00000
 Mulliken charges with hydrogens summed into heavy atoms:
               1
     1  C    0.302874
     2  N   -0.205394
     3  C    0.322060
     4  C    0.302873
     5  C    0.239088
     6  C    0.191424
     7  O   -0.226663
     8  C    0.104872
     9  C   -0.063926
    10  C    0.060492
    11  C   -0.024268
    12  C    0.060137
    13  C   -0.063569
 Electronic spatial extent (au):  <R**2>=           3915.9882
 Charge=              1.0000 electrons
 Dipole moment (field-independent basis, Debye):
    X=            -14.6731    Y=              0.0004    Z=              2.4562  Tot=             14.8773
 Quadrupole moment (field-independent basis, Debye-Ang):
   XX=            -16.3730   YY=            -65.5645   ZZ=            -75.9908
   XY=              0.0042   XZ=              1.3029   YZ=              0.0014
 Traceless Quadrupole moment (field-independent basis, Debye-Ang):
   XX=             36.2698   YY=            -12.9217   ZZ=            -23.3480
   XY=              0.0042   XZ=              1.3029   YZ=              0.0014
 Octapole moment (field-independent basis, Debye-Ang**2):
  XXX=           -206.6526  YYY=             -0.0036  ZZZ=              3.4887  XYY=            -15.8264
  XXY=              0.0243  XXZ=             24.5955  XZZ=            -42.5251  YZZ=              0.0011
  YYZ=              3.0032  XYZ=              0.0060
 Hexadecapole moment (field-independent basis, Debye-Ang**3):
 XXXX=          -3320.7422 YYYY=           -447.5379 ZZZZ=           -326.5425 XXXY=              0.1451
 XXXZ=             92.5453 YYYX=              0.0047 YYYZ=              0.0074 ZZZX=            -13.8550
 ZZZY=              0.0027 XXYY=           -698.1141 XXZZ=           -740.4560 YYZZ=           -130.8853
 XXYZ=              0.0288 YYXZ=             -5.1329 ZZXY=              0.0067
 N-N= 7.888131076141D+02 E-N=-2.864268495961D+03  KE= 5.574889472796D+02
 No NMR shielding tensors so no spin-rotation constants.
 Leave Link  601 at Tue Feb 23 00:12:39 2021, MaxMem=   104857600 cpu:               8.6 elap:               0.3
 (Enter /sw/arch/RedHatEnterpriseServer7/EB_production/2019/software/Gaussian/g16.c01/l701.exe)
 ... and contract with generalized density number  0.
 Compute integral first derivatives.
 R6Disp: Adding Grimme-D3 dispersion energy 1st derivatives to the gradient.
 PrsmSu:  requested number of processors reduced to:  27 ShMem   1 Linda.
 D1PCM: PCM CHGder 1st derivatives, ID1Alg=3 FixD1E=F DoIter=F DoCFld=F I1PDM=0.
 GePol: Maximum number of non-zero 1st derivatives   =     195
 CoulSu:  requested number of processors reduced to:  28 ShMem   1 Linda.
 CoulSu:  requested number of processors reduced to:  29 ShMem   1 Linda.
 Leave Link  701 at Tue Feb 23 00:12:41 2021, MaxMem=   104857600 cpu:              32.3 elap:               1.1
 (Enter /sw/arch/RedHatEnterpriseServer7/EB_production/2019/software/Gaussian/g16.c01/l702.exe)
 L702 exits ... SP integral derivatives will be done elsewhere.
 Leave Link  702 at Tue Feb 23 00:12:41 2021, MaxMem=   104857600 cpu:               0.9 elap:               0.1
 (Enter /sw/arch/RedHatEnterpriseServer7/EB_production/2019/software/Gaussian/g16.c01/l703.exe)
 Integral derivatives from FoFJK, PRISM(SPDF).
 Compute integral first derivatives, UseDBF=F ICtDFT=           0.
 Calling FoFJK, ICntrl=      2527 FMM=F ISym2X=0 I1Cent= 0 IOpClX= 0 NMat=1 NMatS=1 NMatT=0.
 FoFJK:  IHMeth= 1 ICntrl=    2527 DoSepK=F KAlg= 0 I1Cent=           0 FoldK=F
 IRaf=         0 NMat=       1 IRICut=       1 DoRegI=T DoRafI=F ISym2E= 0 IDoP0=0 IntGTp=1.
[...]
 Alpha virt. eigenvalues --    2.00365   2.00528   2.10213   2.11835   2.12768
 Alpha virt. eigenvalues --    2.13057   2.14799   2.18706   2.18952   2.20279
 Alpha virt. eigenvalues --    2.20672   2.20767   2.20897   2.22907   2.23652
 Alpha virt. eigenvalues --    2.25335   2.27959   2.28196   2.29867   2.30127
 Alpha virt. eigenvalues --    2.32037   2.33450   2.37047   2.37483   2.39306
 Alpha virt. eigenvalues --    2.39627   2.39946   2.41197   2.41914   2.44416
 Alpha virt. eigenvalues --    2.45896   2.47936   2.50240   2.51458   2.53239
 Alpha virt. eigenvalues --    2.53689   2.54076   2.54705   2.56721   2.58695
 Alpha virt. eigenvalues --    2.59647   2.61576   2.62369   2.63855   2.64247
 Alpha virt. eigenvalues --    2.66018   2.66174   2.69687   2.69997   2.70209
 Alpha virt. eigenvalues --    2.70874   2.73005   2.76651   2.83283   2.85495
 Alpha virt. eigenvalues --    2.86401   2.89469   2.90772   2.91999   2.93607
 Alpha virt. eigenvalues --    2.94756   2.94882   2.95744   2.97941   2.98774
 Alpha virt. eigenvalues --    3.02182   3.05069   3.05501   3.06502   3.07939
 Alpha virt. eigenvalues --    3.08187   3.11137   3.12205   3.14063   3.18554
 Alpha virt. eigenvalues --    3.21567   3.21796   3.22973   3.23076   3.24460
 Alpha virt. eigenvalues --    3.27005   3.27225   3.30549   3.31442   3.34095
 Alpha virt. eigenvalues --    3.37716   3.41778   3.56922   3.56999   3.58292
 Alpha virt. eigenvalues --    3.58370   3.89645   4.05988  21.04241  21.56671
 Alpha virt. eigenvalues --   21.59960  21.68939  21.80046  21.80809  21.81653
 Alpha virt. eigenvalues --   21.82063  21.82987  21.85396  21.96552  31.66136
 Alpha virt. eigenvalues --   43.30397
          Condensed to atoms (all electrons):
               1          2          3          4          5          6
     1  C    5.204282   0.219097  -0.083829  -0.110045  -0.073274   0.001936
     2  N    0.219097   6.528291   0.263458   0.232838   0.146306  -0.015720
     3  C   -0.083829   0.263458   5.120476  -0.079824  -0.120989   0.020556
     4  C   -0.110045   0.232838  -0.079824   5.175772  -0.081543   0.002532
     5  C   -0.073274   0.146306  -0.120989  -0.081543   5.544671   0.136835
     6  C    0.001936  -0.015720   0.020556   0.002532   0.136835   5.210209
     7  O   -0.000959   0.007186   0.000108  -0.000853  -0.074965   0.254346
     8  C   -0.000411   0.000346   0.000039  -0.000159   0.002718  -0.145299
     9  C    0.000116   0.000056  -0.000008  -0.000206   0.000311  -0.009099
    10  C    0.000011  -0.000004   0.000001  -0.000014   0.000114  -0.001961
    11  C   -0.000000   0.000000  -0.000000  -0.000001  -0.000050   0.001735
    12  C   -0.000022  -0.000000   0.000001   0.000007   0.000059  -0.002388
    13  C   -0.000219   0.000091  -0.000003   0.000085   0.000142  -0.008632
    14  H    0.393862  -0.017220   0.009047  -0.005336  -0.014074   0.002810
    15  H    0.377590  -0.015251  -0.006274   0.011418  -0.001825  -0.003962
    16  H    0.389413  -0.016460  -0.007003  -0.007659   0.009404   0.000143
    17  H   -0.009718  -0.017118   0.393095  -0.009146   0.010651  -0.000953
    18  H    0.009724  -0.017037   0.387811  -0.005851  -0.007999   0.000695
    19  H   -0.004979  -0.016724   0.388527   0.009656  -0.010069   0.000449
    20  H   -0.007303  -0.018049   0.009221   0.394281  -0.012330   0.002367
    21  H    0.011428  -0.016164  -0.006151   0.380945  -0.002782  -0.003360
    22  H   -0.006804  -0.016412  -0.007712   0.389914   0.009408   0.000173
    23  H    0.013836  -0.015977  -0.004531  -0.018129   0.390819  -0.031441
    24  H   -0.019861  -0.012826  -0.002742   0.013143   0.384438  -0.027242
    25  H   -0.009475   0.001475  -0.000216   0.016322  -0.039961   0.389416
    26  H    0.019417  -0.003353  -0.000534  -0.006427  -0.031879   0.384583
    27  H    0.000005   0.000025  -0.000003  -0.000054  -0.000205  -0.003181
    28  H   -0.000000   0.000000   0.000000   0.000000   0.000001  -0.000134
    29  H   -0.000000  -0.000000  -0.000000  -0.000000  -0.000000   0.000001
    30  H    0.000000   0.000000   0.000000  -0.000000   0.000002  -0.000125
    31  H   -0.000059   0.000026  -0.000003   0.000003  -0.000210  -0.003110
               7          8          9         10         11         12
     1  C   -0.000959  -0.000411   0.000116   0.000011  -0.000000  -0.000022
     2  N    0.007186   0.000346   0.000056  -0.000004   0.000000  -0.000000
     3  C    0.000108   0.000039  -0.000008   0.000001  -0.000000   0.000001
     4  C   -0.000853  -0.000159  -0.000206  -0.000014  -0.000001   0.000007
     5  C   -0.074965   0.002718   0.000311   0.000114  -0.000050   0.000059
     6  C    0.254346  -0.145299  -0.009099  -0.001961   0.001735  -0.002388
     7  O    7.986476   0.236303  -0.055991   0.016257  -0.000056   0.016017
     8  C    0.236303   5.296253   0.311019   0.043766  -0.130069   0.042226
     9  C   -0.055991   0.311019   5.337900   0.262254   0.024803  -0.116012
    10  C    0.016257   0.043766   0.262254   5.213672   0.357552   0.004363
    11  C   -0.000056  -0.130069   0.024803   0.357552   5.192763   0.357697
    12  C    0.016017   0.042226  -0.116012   0.004363   0.357697   5.210852
    13  C   -0.056195   0.314397   0.029641  -0.116251   0.024687   0.266843
    14  H    0.000077   0.000019  -0.000036  -0.000001  -0.000001   0.000009
    15  H    0.000223  -0.000009  -0.000003  -0.000001   0.000000   0.000004
    16  H   -0.000004   0.000005  -0.000000   0.000000   0.000000  -0.000000
    17  H    0.000010   0.000001   0.000000  -0.000000   0.000000  -0.000000
    18  H   -0.000061  -0.000007  -0.000001  -0.000000  -0.000000   0.000000
    19  H   -0.000059  -0.000008  -0.000000   0.000000  -0.000000  -0.000000
    20  H    0.000042  -0.000010   0.000041   0.000006  -0.000001  -0.000001
    21  H    0.000161  -0.000021   0.000032   0.000003   0.000000  -0.000000
    22  H   -0.000002   0.000004   0.000000  -0.000000   0.000000   0.000000
    23  H    0.013846  -0.000827   0.001263   0.000077   0.000006  -0.000057
    24  H    0.013103  -0.000943  -0.000264  -0.000054   0.000005   0.000071
    25  H   -0.049564   0.014173   0.003648  -0.004701   0.000125   0.000751
    26  H   -0.049668   0.013603   0.004554   0.000704   0.000141  -0.004412
    27  H   -0.000051  -0.063340   0.431442  -0.046488   0.013446  -0.003706
    28  H   -0.000251   0.015816  -0.053242   0.430648  -0.062533   0.015070
    29  H    0.000009  -0.003516   0.015410  -0.057974   0.432311  -0.058018
    30  H   -0.000253   0.016084  -0.003462   0.015222  -0.063018   0.431245
    31  H    0.000626  -0.065063   0.015188  -0.003919   0.013726  -0.046588
              13         14         15         16         17         18
     1  C   -0.000219   0.393862   0.377590   0.389413  -0.009718   0.009724
     2  N    0.000091  -0.017220  -0.015251  -0.016460  -0.017118  -0.017037
     3  C   -0.000003   0.009047  -0.006274  -0.007003   0.393095   0.387811
     4  C    0.000085  -0.005336   0.011418  -0.007659  -0.009146  -0.005851
     5  C    0.000142  -0.014074  -0.001825   0.009404   0.010651  -0.007999
     6  C   -0.008632   0.002810  -0.003962   0.000143  -0.000953   0.000695
     7  O   -0.056195   0.000077   0.000223  -0.000004   0.000010  -0.000061
     8  C    0.314397   0.000019  -0.000009   0.000005   0.000001  -0.000007
     9  C    0.029641  -0.000036  -0.000003  -0.000000   0.000000  -0.000001
    10  C   -0.116251  -0.000001  -0.000001   0.000000  -0.000000  -0.000000
    11  C    0.024687  -0.000001   0.000000   0.000000   0.000000  -0.000000
    12  C    0.266843   0.000009   0.000004  -0.000000  -0.000000   0.000000
    13  C    5.329462   0.000046   0.000037  -0.000000   0.000000  -0.000000
    14  H    0.000046   0.454616  -0.018464  -0.019475   0.000060  -0.000378
    15  H    0.000037  -0.018464   0.470374  -0.018275   0.000265   0.000007
    16  H   -0.000000  -0.019475  -0.018275   0.465041   0.002882   0.000065
    17  H    0.000000   0.000060   0.000265   0.002882   0.465851  -0.019465
    18  H   -0.000000  -0.000378   0.000007   0.000065  -0.019465   0.471390
    19  H   -0.000001   0.000006   0.002191  -0.000092  -0.019206  -0.019723
    20  H   -0.000034   0.001837   0.000060  -0.000012   0.000079   0.000004
    21  H   -0.000001   0.000006  -0.000463   0.000012   0.000230   0.002159
    22  H   -0.000000  -0.000048  -0.000017   0.002220   0.002921   0.000027
    23  H   -0.000253  -0.000095  -0.000259  -0.000263   0.000026   0.003957
    24  H    0.001206   0.000773   0.003042  -0.000084   0.000054  -0.000921
    25  H    0.004337   0.000785   0.000593  -0.000075   0.000016   0.000088
    26  H    0.004231  -0.003335  -0.002422   0.000384   0.000022  -0.000049
    27  H    0.014749  -0.000002  -0.000000   0.000000   0.000000  -0.000001
    28  H   -0.003340   0.000000   0.000000  -0.000000   0.000000   0.000000
    29  H    0.015363  -0.000000  -0.000000   0.000000   0.000000   0.000000
    30  H   -0.053784  -0.000000  -0.000000   0.000000   0.000000  -0.000000
    31  H    0.432293  -0.000005   0.000020   0.000000   0.000000  -0.000000
              19         20         21         22         23         24
     1  C   -0.004979  -0.007303   0.011428  -0.006804   0.013836  -0.019861
     2  N   -0.016724  -0.018049  -0.016164  -0.016412  -0.015977  -0.012826
     3  C    0.388527   0.009221  -0.006151  -0.007712  -0.004531  -0.002742
     4  C    0.009656   0.394281   0.380945   0.389914  -0.018129   0.013143
     5  C   -0.010069  -0.012330  -0.002782   0.009408   0.390819   0.384438
     6  C    0.000449   0.002367  -0.003360   0.000173  -0.031441  -0.027242
     7  O   -0.000059   0.000042   0.000161  -0.000002   0.013846   0.013103
     8  C   -0.000008  -0.000010  -0.000021   0.000004  -0.000827  -0.000943
     9  C   -0.000000   0.000041   0.000032   0.000000   0.001263  -0.000264
    10  C    0.000000   0.000006   0.000003  -0.000000   0.000077  -0.000054
    11  C   -0.000000  -0.000001   0.000000   0.000000   0.000006   0.000005
    12  C   -0.000000  -0.000001  -0.000000   0.000000  -0.000057   0.000071
    13  C   -0.000001  -0.000034  -0.000001  -0.000000  -0.000253   0.001206
    14  H    0.000006   0.001837   0.000006  -0.000048  -0.000095   0.000773
    15  H    0.002191   0.000060  -0.000463  -0.000017  -0.000259   0.003042
    16  H   -0.000092  -0.000012   0.000012   0.002220  -0.000263  -0.000084
    17  H   -0.019206   0.000079   0.000230   0.002921   0.000026   0.000054
    18  H   -0.019723   0.000004   0.002159   0.000027   0.003957  -0.000921
    19  H    0.470610  -0.000396  -0.000004   0.000066  -0.000539   0.004135
    20  H   -0.000396   0.464782  -0.018740  -0.019840   0.000571  -0.000051
    21  H   -0.000004  -0.018740   0.470001  -0.018368   0.002937  -0.000150
    22  H    0.000066  -0.019840  -0.018368   0.464934  -0.000054  -0.000278
    23  H   -0.000539   0.000571   0.002937  -0.000054   0.460560  -0.018341
    24  H    0.004135  -0.000051  -0.000150  -0.000278  -0.018341   0.460772
    25  H   -0.000052  -0.001295  -0.001780   0.000276  -0.007788   0.005854
    26  H    0.000103   0.000483   0.000340  -0.000045   0.005899  -0.007864
    27  H   -0.000000  -0.000009   0.000018   0.000000   0.000300  -0.000002
    28  H   -0.000000  -0.000000  -0.000000   0.000000  -0.000001   0.000000
    29  H    0.000000  -0.000000   0.000000   0.000000  -0.000000   0.000000
    30  H    0.000000   0.000000   0.000000  -0.000000   0.000000  -0.000001
    31  H   -0.000001  -0.000001  -0.000000   0.000000  -0.000000   0.000270
              25         26         27         28         29         30
     1  C   -0.009475   0.019417   0.000005  -0.000000  -0.000000   0.000000
     2  N    0.001475  -0.003353   0.000025   0.000000  -0.000000   0.000000
     3  C   -0.000216  -0.000534  -0.000003   0.000000  -0.000000   0.000000
     4  C    0.016322  -0.006427  -0.000054   0.000000  -0.000000  -0.000000
     5  C   -0.039961  -0.031879  -0.000205   0.000001  -0.000000   0.000002
     6  C    0.389416   0.384583  -0.003181  -0.000134   0.000001  -0.000125
     7  O   -0.049564  -0.049668  -0.000051  -0.000251   0.000009  -0.000253
     8  C    0.014173   0.013603  -0.063340   0.015816  -0.003516   0.016084
     9  C    0.003648   0.004554   0.431442  -0.053242   0.015410  -0.003462
    10  C   -0.004701   0.000704  -0.046488   0.430648  -0.057974   0.015222
    11  C    0.000125   0.000141   0.013446  -0.062533   0.432311  -0.063018
    12  C    0.000751  -0.004412  -0.003706   0.015070  -0.058018   0.431245
    13  C    0.004337   0.004231   0.014749  -0.003340   0.015363  -0.053784
    14  H    0.000785  -0.003335  -0.000002   0.000000  -0.000000  -0.000000
    15  H    0.000593  -0.002422  -0.000000   0.000000  -0.000000  -0.000000
    16  H   -0.000075   0.000384   0.000000  -0.000000   0.000000   0.000000
    17  H    0.000016   0.000022   0.000000   0.000000   0.000000   0.000000
    18  H    0.000088  -0.000049  -0.000001   0.000000   0.000000  -0.000000
    19  H   -0.000052   0.000103  -0.000000  -0.000000   0.000000   0.000000
    20  H   -0.001295   0.000483  -0.000009  -0.000000  -0.000000   0.000000
    21  H   -0.001780   0.000340   0.000018  -0.000000   0.000000   0.000000
    22  H    0.000276  -0.000045   0.000000   0.000000   0.000000  -0.000000
    23  H   -0.007788   0.005899   0.000300  -0.000001  -0.000000   0.000000
    24  H    0.005854  -0.007864  -0.000002   0.000000   0.000000  -0.000001
    25  H    0.544260  -0.044075   0.000300   0.000060   0.000001  -0.000009
    26  H   -0.044075   0.541199   0.000613  -0.000009   0.000001   0.000053
    27  H    0.000300   0.000613   0.504723  -0.006487  -0.000141   0.000024
    28  H    0.000060  -0.000009  -0.006487   0.519141  -0.006673  -0.000194
    29  H    0.000001   0.000001  -0.000141  -0.006673   0.515122  -0.006694
    30  H   -0.000009   0.000053   0.000024  -0.000194  -0.006694   0.519507
    31  H    0.000565   0.000401  -0.000059   0.000024  -0.000140  -0.006600
              31
     1  C   -0.000059
     2  N    0.000026
     3  C   -0.000003
     4  C    0.000003
     5  C   -0.000210
     6  C   -0.003110
     7  O    0.000626
     8  C   -0.065063
     9  C    0.015188
    10  C   -0.003919
    11  C    0.013726
    12  C   -0.046588
    13  C    0.432293
    14  H   -0.000005
    15  H    0.000020
    16  H    0.000000
    17  H    0.000000
    18  H   -0.000000
    19  H   -0.000001
    20  H   -0.000001
    21  H   -0.000000
    22  H    0.000000
    23  H   -0.000000
    24  H    0.000270
    25  H    0.000565
    26  H    0.000401
    27  H   -0.000059
    28  H    0.000024
    29  H   -0.000140
    30  H   -0.006600
    31  H    0.506282
 Mulliken charges:
               1
     1  C   -0.313756
     2  N   -0.200880
     3  C   -0.272514
     4  C   -0.301669
     5  C   -0.163724
     6  C   -0.152179
     7  O   -0.255858
     8  C    0.102909
     9  C   -0.199354
    10  C   -0.113279
    11  C   -0.163270
    12  C   -0.114011
    13  C   -0.198896
    14  H    0.214519
    15  H    0.201399
    16  H    0.199831
    17  H    0.199442
    18  H    0.195567
    19  H    0.196110
    20  H    0.204297
    21  H    0.199714
    22  H    0.199637
    23  H    0.204459
    24  H    0.204756
    25  H    0.175947
    26  H    0.177341
    27  H    0.158085
    28  H    0.152104
    29  H    0.154937
    30  H    0.152002
    31  H    0.156333
 Sum of Mulliken charges =   1.00000
 Mulliken charges with hydrogens summed into heavy atoms:
               1
     1  C    0.301994
     2  N   -0.200880
     3  C    0.318604
     4  C    0.301979
     5  C    0.245491
     6  C    0.201109
     7  O   -0.255858
     8  C    0.102909
     9  C   -0.041269
    10  C    0.038825
    11  C   -0.008333
    12  C    0.037992
    13  C   -0.042563
 Electronic spatial extent (au):  <R**2>=           3868.9561
 Charge=              1.0000 electrons
 Dipole moment (field-independent basis, Debye):
    X=            -14.4928    Y=              0.1011    Z=              2.4788  Tot=             14.7036
 Quadrupole moment (field-independent basis, Debye-Ang):
   XX=            -18.0656   YY=            -65.8109   ZZ=            -77.1617
   XY=             -0.0607   XZ=              1.4356   YZ=             -0.2255
 Traceless Quadrupole moment (field-independent basis, Debye-Ang):
   XX=             35.6138   YY=            -12.1315   ZZ=            -23.4823
   XY=             -0.0607   XZ=              1.4356   YZ=             -0.2255
 Octapole moment (field-independent basis, Debye-Ang**2):
  XXX=           -190.9178  YYY=              0.2616  ZZZ=              2.8374  XYY=            -13.4775
  XXY=              0.4333  XXZ=             22.5447  XZZ=            -42.3574  YZZ=             -0.0287
  YYZ=              1.1718  XYZ=             -0.3279
 Hexadecapole moment (field-independent basis, Debye-Ang**3):
 XXXX=          -3321.8130 YYYY=           -453.0717 ZZZZ=           -314.6800 XXXY=             -0.7804
 XXXZ=             76.7471 YYYX=             -1.0158 YYYZ=              0.2590 ZZZX=            -12.6957
 ZZZY=             -1.4876 XXYY=           -699.4942 XXZZ=           -752.5447 YYZZ=           -133.2193
 XXYZ=              0.4147 YYXZ=              1.0333 ZZXY=              0.0960
 N-N= 7.916860393433D+02 E-N=-2.869648633166D+03  KE= 5.570910318552D+02
 Unable to Open any file for archive entry.
 1\1\GINC-TCN1657\SP\RBP86\TZVP\C11H18N1O1(1+)\ELENAA\23-Feb-2021\0\\# 
 BP86/TZVP SCRF=COSMORS geom=CHECKPOINT guess=CHECKPOINT\\COSMO-file fo
 r #VCXBSHBJVUIQHJ-UHFFFAOYSA-N\\1,1\C,0,-0.7218374461,-3.2436229497,3.
 676818597\N,0,-1.6747519865,-2.0708869118,3.7193495958\C,0,-3.00148447
 72,-2.5403241706,4.2769504356\C,0,-1.1175398263,-0.997391398,4.6267015
 301\C,0,-1.9314279672,-1.5269307064,2.321421144\C,0,-0.6912318224,-1.0
 473588699,1.5709572429\O,0,-1.2105097321,-0.5616556691,0.3184817829\C,
 0,-0.2175958011,-0.0576196454,-0.5290747956\C,0,0.1315354645,1.2949771
 725,-0.4518833474\C,0,1.0902230188,1.8052501969,-1.335428136\C,0,1.692
 9172928,0.9674706641,-2.2831843173\C,0,1.3351901485,-0.3855680479,-2.3
 489030809\C,0,0.3778304156,-0.9052676109,-1.4691371568\H,0,0.268575383
 5,-2.8957517982,3.3680450104\H,0,-1.1074507473,-3.9822220791,2.9655186
 668\H,0,-0.6642078943,-3.6762550535,4.6812532198\H,0,-2.8368121063,-2.
 9207829828,5.2905942822\H,0,-3.6938324655,-1.6918036774,4.2981342643\H
 ,0,-3.3915024354,-3.3352736404,3.6321497309\H,0,-0.1250173412,-0.70230
 12025,4.2738166158\H,0,-1.7986149056,-0.1395133033,4.6149721016\H,0,-1
 .0409542343,-1.4095882486,5.6385059353\H,0,-2.6394888889,-0.6956021031
 ,2.4300610811\H,0,-2.415814896,-2.3314271517,1.7537381646\H,0,-0.17259
 42538,-0.2346073829,2.1068112387\H,0,0.0232532394,-1.8678894549,1.3904
 744533\H,0,-0.3538328613,1.9321635248,0.2899850493\H,0,1.3629292568,2.
 8614013045,-1.2850142727\H,0,2.4380212514,1.3695845689,-2.9722775789\H
 ,0,1.7996554268,-1.0401152001,-3.0893136639\H,0,0.0819911907,-1.955458
 1731,-1.5062437928\\Version=ES64L-G16RevC.01\State=1-A\HF=-559.9869156
 \RMSD=6.549e-10\Dipole=-1.4184041,-2.374044,5.0810018\Quadrupole=-9.41
 7072,-3.3467492,12.7638213,6.7774751,-15.5263347,-11.2421985\PG=C01 [X
 (C11H18N1O1)]\\@
 The archive entry for this job was punched.


 I DO NOT KNOW WHAT I MAY APPEAR TO THE WORLD; BUT TO MYSELF
 I SEEM TO HAVE BEEN ONLY LIKE A BOY PLAYING ON THE SEASHORE,
 AND DIVERTING MYSELF IN NOW AND THEN FINDING A SMOOTHER PEBBLE
 OR A PRETTIER SHELL THAN ORDINARY, WHILST THE GREAT OCEAN OF
 TRUTH LAY ALL UNDISCOVERED BEFORE ME.
                                          -- NEWTON (1642-1726)
 Job cpu time:       0 days  0 hours 13 minutes 18.8 seconds.
 Elapsed time:       0 days  0 hours  0 minutes 25.8 seconds.
 File lengths (MBytes):  RWF=    103 Int=      0 D2E=      0 Chk=     13 Scr=      1
 Normal termination of Gaussian 16 at Tue Feb 23 00:20:14 2021.
