 Entering Gaussian System, Link 0=g16
 Input=WBYWAXJHAXSJNI-VOTSOKGWSA-N.gjf
 Output=WBYWAXJHAXSJNI-VOTSOKGWSA-N.log
 Initial command:
 /sw/arch/RedHatEnterpriseServer7/EB_production/2019/software/Gaussian/g16.c01/l1.exe "/scratch-local/elenaa.9715283/Gau-6292.inp" -scrdir="/scratch-local/elenaa.9715283/"
 Entering Link 1 = /sw/arch/RedHatEnterpriseServer7/EB_production/2019/software/Gaussian/g16.c01/l1.exe PID=      6293.
  
 Copyright (c) 1988-2019, Gaussian, Inc.  All Rights Reserved.
  
 This is part of the Gaussian(R) 16 program.  It is based on
 the Gaussian(R) 09 system (copyright 2009, Gaussian, Inc.),
 the Gaussian(R) 03 system (copyright 2003, Gaussian, Inc.),
 the Gaussian(R) 98 system (copyright 1998, Gaussian, Inc.),
 the Gaussian(R) 94 system (copyright 1995, Gaussian, Inc.),
 the Gaussian 92(TM) system (copyright 1992, Gaussian, Inc.),
 the Gaussian 90(TM) system (copyright 1990, Gaussian, Inc.),
 the Gaussian 88(TM) system (copyright 1988, Gaussian, Inc.),
 the Gaussian 86(TM) system (copyright 1986, Carnegie Mellon
 University), and the Gaussian 82(TM) system (copyright 1983,
 Carnegie Mellon University). Gaussian is a federally registered
 trademark of Gaussian, Inc.
  
 This software contains proprietary and confidential information,
 including trade secrets, belonging to Gaussian, Inc.
  
 This software is provided under written license and may be
 used, copied, transmitted, or stored only in accord with that
 written license.
  
 The following legend is applicable only to US Government
 contracts under FAR:
  
                    RESTRICTED RIGHTS LEGEND
  
 Use, reproduction and disclosure by the US Government is
 subject to restrictions as set forth in subparagraphs (a)
 and (c) of the Commercial Computer Software - Restricted
 Rights clause in FAR 52.227-19.
  
 Gaussian, Inc.
 340 Quinnipiac St., Bldg. 40, Wallingford CT 06492
  
  
 ---------------------------------------------------------------
 Warning -- This program may not be used in any manner that
 competes with the business of Gaussian, Inc. or will provide
 assistance to any competitor of Gaussian, Inc.  The licensee
 of this program is prohibited from giving any competitor of
 Gaussian, Inc. access to this program.  By using this program,
 the user acknowledges that Gaussian, Inc. is engaged in the
 business of creating and licensing software in the field of
 computational chemistry and represents and warrants to the
 licensee that it is not a competitor of Gaussian, Inc. and that
 it will not use this program in any manner prohibited above.
 ---------------------------------------------------------------
  

 Cite this work as:
 Gaussian 16, Revision C.01,
 M. J. Frisch, G. W. Trucks, H. B. Schlegel, G. E. Scuseria, 
 M. A. Robb, J. R. Cheeseman, G. Scalmani, V. Barone, 
 G. A. Petersson, H. Nakatsuji, X. Li, M. Caricato, A. V. Marenich, 
 J. Bloino, B. G. Janesko, R. Gomperts, B. Mennucci, H. P. Hratchian, 
 J. V. Ortiz, A. F. Izmaylov, J. L. Sonnenberg, D. Williams-Young, 
 F. Ding, F. Lipparini, F. Egidi, J. Goings, B. Peng, A. Petrone, 
 T. Henderson, D. Ranasinghe, V. G. Zakrzewski, J. Gao, N. Rega, 
 G. Zheng, W. Liang, M. Hada, M. Ehara, K. Toyota, R. Fukuda, 
 J. Hasegawa, M. Ishida, T. Nakajima, Y. Honda, O. Kitao, H. Nakai, 
 T. Vreven, K. Throssell, J. A. Montgomery, Jr., J. E. Peralta, 
 F. Ogliaro, M. J. Bearpark, J. J. Heyd, E. N. Brothers, K. N. Kudin, 
 V. N. Staroverov, T. A. Keith, R. Kobayashi, J. Normand, 
 K. Raghavachari, A. P. Rendell, J. C. Burant, S. S. Iyengar, 
 J. Tomasi, M. Cossi, J. M. Millam, M. Klene, C. Adamo, R. Cammi, 
 J. W. Ochterski, R. L. Martin, K. Morokuma, O. Farkas, 
 J. B. Foresman, and D. J. Fox, Gaussian, Inc., Wallingford CT, 2019.
 
 ******************************************
 Gaussian 16:  ES64L-G16RevC.01  3-Jul-2019
                22-Feb-2021 
 ******************************************
 %chk=WBYWAXJHAXSJNI-VOTSOKGWSA-N.chk
 %NProcShared=32
 Will use up to   32 processors via shared memory.
 -------------------------------------------------------------
 #P BP86/TZVP EmpiricalDispersion=GD3 SCRF=(Solvent=Water) Opt
 -------------------------------------------------------------
 1/18=20,19=15,26=3,38=1/1,3;
 2/9=110,12=2,17=6,18=5,40=1/2;
 3/5=19,7=101,11=2,25=1,30=1,70=2201,71=1,72=1,74=404,124=31/1,2,3;
 4//1;
 5/5=2,38=5,53=1/2;
 6/7=2,8=2,9=2,10=2,28=1/1;
 7//1,2,3,16;
 1/18=20,19=15,26=3/3(2);
 2/9=110/2;
 99//99;
 2/9=110/2;
 3/5=19,7=101,11=2,25=1,30=1,70=2205,71=1,72=1,74=404,124=31/1,2,3;
 4/5=5,16=3,69=1/1;
 5/5=2,38=5,53=1/2;
 7//1,2,3,16;
 1/18=20,19=15,26=3/3(-5);
 2/9=110/2;
 6/7=2,8=2,9=2,10=2,19=2,28=1/1;
 99/9=1/99;
 Leave Link    1 at Mon Feb 22 21:21:36 2021, MaxMem=           0 cpu:               1.5 elap:               0.1
 (Enter /sw/arch/RedHatEnterpriseServer7/EB_production/2019/software/Gaussian/g16.c01/l101.exe)
 -------------------------------------
 Particle #WBYWAXJHAXSJNI-VOTSOKGWSA-N
 -------------------------------------
 Symbolic Z-matrix:
 Charge =  0 Multiplicity = 1
 O                     2.16127  -3.23289   0.35149 
 C                     1.39759  -2.32004  -0.04215 
 O                     1.96075  -1.27982  -0.70178 
 C                     0.02749  -2.33668   0.16328 
 C                    -0.6476   -3.35184   0.73812 
 C                    -2.03292  -3.42891   0.94502 
 C                    -2.5365   -4.39891   1.85327 
 C                    -3.91779  -4.53809   2.08594 
 C                    -4.8306   -3.71062   1.41122 
 C                    -4.36098  -2.74755   0.50417 
 C                    -2.97991  -2.60833   0.27382 
 H                     2.9285   -1.2554   -0.8539 
 H                    -0.46423  -1.53191  -0.14096 
 H                    -0.10791  -4.12766   1.05138 
 H                    -1.90062  -5.02112   2.36052 
 H                    -4.25729  -5.243     2.74385 
 H                    -5.83406  -3.80946   1.57791 
 H                    -5.02376  -2.14932   0.00614 
 H                    -2.68745  -1.90418  -0.4064 
 
 ITRead=  0  0  0  0  0  0  0  0  0  0  0  0  0  0  0  0  0  0  0
 MicOpt= -1 -1 -1 -1 -1 -1 -1 -1 -1 -1 -1 -1 -1 -1 -1 -1 -1 -1 -1
 NAtoms=     19 NQM=       19 NQMF=       0 NMMI=      0 NMMIF=      0
                NMic=       0 NMicF=      0.
                    Isotopes and Nuclear Properties:
 (Nuclear quadrupole moments (NQMom) in fm**2, nuclear magnetic moments (NMagM)
  in nuclear magnetons)

  Atom         1           2           3           4           5           6           7           8           9          10
 IAtWgt=          16          12          16          12          12          12          12          12          12          12
 AtmWgt=  15.9949146  12.0000000  15.9949146  12.0000000  12.0000000  12.0000000  12.0000000  12.0000000  12.0000000  12.0000000
 NucSpn=           0           0           0           0           0           0           0           0           0           0
 AtZEff=  -0.0000000  -0.0000000  -0.0000000  -0.0000000  -0.0000000  -0.0000000  -0.0000000  -0.0000000  -0.0000000  -0.0000000
 NQMom=    0.0000000   0.0000000   0.0000000   0.0000000   0.0000000   0.0000000   0.0000000   0.0000000   0.0000000   0.0000000
 NMagM=    0.0000000   0.0000000   0.0000000   0.0000000   0.0000000   0.0000000   0.0000000   0.0000000   0.0000000   0.0000000
 AtZNuc=   8.0000000   6.0000000   8.0000000   6.0000000   6.0000000   6.0000000   6.0000000   6.0000000   6.0000000   6.0000000

  Atom        11          12          13          14          15          16          17          18          19
 IAtWgt=          12           1           1           1           1           1           1           1           1
 AtmWgt=  12.0000000   1.0078250   1.0078250   1.0078250   1.0078250   1.0078250   1.0078250   1.0078250   1.0078250
 NucSpn=           0           1           1           1           1           1           1           1           1
 AtZEff=  -0.0000000  -0.0000000  -0.0000000  -0.0000000  -0.0000000  -0.0000000  -0.0000000  -0.0000000  -0.0000000
 NQMom=    0.0000000   0.0000000   0.0000000   0.0000000   0.0000000   0.0000000   0.0000000   0.0000000   0.0000000
 NMagM=    0.0000000   2.7928460   2.7928460   2.7928460   2.7928460   2.7928460   2.7928460   2.7928460   2.7928460
 AtZNuc=   6.0000000   1.0000000   1.0000000   1.0000000   1.0000000   1.0000000   1.0000000   1.0000000   1.0000000
 Leave Link  101 at Mon Feb 22 21:21:36 2021, MaxMem=   104857600 cpu:               2.9 elap:               0.1
 (Enter /sw/arch/RedHatEnterpriseServer7/EB_production/2019/software/Gaussian/g16.c01/l103.exe)

 GradGradGradGradGradGradGradGradGradGradGradGradGradGradGradGradGradGrad
 Berny optimization.
 Initialization pass.
                           ----------------------------
                           !    Initial Parameters    !
                           ! (Angstroms and Degrees)  !
 --------------------------                            --------------------------
 ! Name  Definition              Value          Derivative Info.                !
 --------------------------------------------------------------------------------
 ! R1    R(1,2)                  1.2536         estimate D2E/DX2                !
 ! R2    R(2,3)                  1.3544         estimate D2E/DX2                !
 ! R3    R(2,4)                  1.3855         estimate D2E/DX2                !
 ! R4    R(3,12)                 0.9799         estimate D2E/DX2                !
 ! R5    R(4,5)                  1.3479         estimate D2E/DX2                !
 ! R6    R(4,13)                 0.991          estimate D2E/DX2                !
 ! R7    R(5,6)                  1.4028         estimate D2E/DX2                !
 ! R8    R(5,14)                 0.9956         estimate D2E/DX2                !
 ! R9    R(6,7)                  1.4211         estimate D2E/DX2                !
 ! R10   R(6,11)                 1.4215         estimate D2E/DX2                !
 ! R11   R(7,8)                  1.4076         estimate D2E/DX2                !
 ! R12   R(7,15)                 1.0241         estimate D2E/DX2                !
 ! R13   R(8,9)                  1.4047         estimate D2E/DX2                !
 ! R14   R(8,16)                 1.0223         estimate D2E/DX2                !
 ! R15   R(9,10)                 1.4038         estimate D2E/DX2                !
 ! R16   R(9,17)                 1.022          estimate D2E/DX2                !
 ! R17   R(10,11)                1.4071         estimate D2E/DX2                !
 ! R18   R(10,18)                1.0223         estimate D2E/DX2                !
 ! R19   R(11,19)                1.0218         estimate D2E/DX2                !
 ! A1    A(1,2,3)              117.3171         estimate D2E/DX2                !
 ! A2    A(1,2,4)              123.1696         estimate D2E/DX2                !
 ! A3    A(3,2,4)              119.513          estimate D2E/DX2                !
 ! A4    A(2,3,12)             120.3568         estimate D2E/DX2                !
 ! A5    A(2,4,5)              124.5807         estimate D2E/DX2                !
 ! A6    A(2,4,13)             115.8114         estimate D2E/DX2                !
 ! A7    A(5,4,13)             119.6077         estimate D2E/DX2                !
 ! A8    A(4,5,6)              126.791          estimate D2E/DX2                !
 ! A9    A(4,5,14)             116.7161         estimate D2E/DX2                !
 ! A10   A(6,5,14)             116.4927         estimate D2E/DX2                !
 ! A11   A(5,6,7)              118.7978         estimate D2E/DX2                !
 ! A12   A(5,6,11)             123.8163         estimate D2E/DX2                !
 ! A13   A(7,6,11)             117.3705         estimate D2E/DX2                !
 ! A14   A(6,7,8)              121.3905         estimate D2E/DX2                !
 ! A15   A(6,7,15)             120.7475         estimate D2E/DX2                !
 ! A16   A(8,7,15)             117.8621         estimate D2E/DX2                !
 ! A17   A(7,8,9)              120.0014         estimate D2E/DX2                !
 ! A18   A(7,8,16)             120.0297         estimate D2E/DX2                !
 ! A19   A(9,8,16)             119.9686         estimate D2E/DX2                !
 ! A20   A(8,9,10)             119.8073         estimate D2E/DX2                !
 ! A21   A(8,9,17)             120.1804         estimate D2E/DX2                !
 ! A22   A(10,9,17)            120.0122         estimate D2E/DX2                !
 ! A23   A(9,10,11)            120.1325         estimate D2E/DX2                !
 ! A24   A(9,10,18)            119.9545         estimate D2E/DX2                !
 ! A25   A(11,10,18)           119.9123         estimate D2E/DX2                !
 ! A26   A(6,11,10)            121.2969         estimate D2E/DX2                !
 ! A27   A(6,11,19)            121.4308         estimate D2E/DX2                !
 ! A28   A(10,11,19)           117.265          estimate D2E/DX2                !
 ! D1    D(1,2,3,12)            -0.2303         estimate D2E/DX2                !
 ! D2    D(4,2,3,12)           179.9981         estimate D2E/DX2                !
 ! D3    D(1,2,4,5)             -3.6491         estimate D2E/DX2                !
 ! D4    D(1,2,4,13)           176.1573         estimate D2E/DX2                !
 ! D5    D(3,2,4,5)            176.1085         estimate D2E/DX2                !
 ! D6    D(3,2,4,13)            -4.0852         estimate D2E/DX2                !
 ! D7    D(2,4,5,6)           -178.666          estimate D2E/DX2                !
 ! D8    D(2,4,5,14)             1.5144         estimate D2E/DX2                !
 ! D9    D(13,4,5,6)             1.5346         estimate D2E/DX2                !
 ! D10   D(13,4,5,14)         -178.2851         estimate D2E/DX2                !
 ! D11   D(4,5,6,7)           -164.3202         estimate D2E/DX2                !
 ! D12   D(4,5,6,11)            17.1429         estimate D2E/DX2                !
 ! D13   D(14,5,6,7)            15.4998         estimate D2E/DX2                !
 ! D14   D(14,5,6,11)         -163.0372         estimate D2E/DX2                !
 ! D15   D(5,6,7,8)           -178.9758         estimate D2E/DX2                !
 ! D16   D(5,6,7,15)             1.006          estimate D2E/DX2                !
 ! D17   D(11,6,7,8)            -0.3446         estimate D2E/DX2                !
 ! D18   D(11,6,7,15)          179.6372         estimate D2E/DX2                !
 ! D19   D(5,6,11,10)          178.8178         estimate D2E/DX2                !
 ! D20   D(5,6,11,19)           -0.1718         estimate D2E/DX2                !
 ! D21   D(7,6,11,10)            0.2616         estimate D2E/DX2                !
 ! D22   D(7,6,11,19)         -178.7281         estimate D2E/DX2                !
 ! D23   D(6,7,8,9)              0.1711         estimate D2E/DX2                !
 ! D24   D(6,7,8,16)           179.9973         estimate D2E/DX2                !
 ! D25   D(15,7,8,9)          -179.8112         estimate D2E/DX2                !
 ! D26   D(15,7,8,16)            0.0149         estimate D2E/DX2                !
 ! D27   D(7,8,9,10)             0.0976         estimate D2E/DX2                !
 ! D28   D(7,8,9,17)           179.986          estimate D2E/DX2                !
 ! D29   D(16,8,9,10)         -179.7287         estimate D2E/DX2                !
 ! D30   D(16,8,9,17)            0.1597         estimate D2E/DX2                !
 ! D31   D(8,9,10,11)           -0.1793         estimate D2E/DX2                !
 ! D32   D(8,9,10,18)          179.4988         estimate D2E/DX2                !
 ! D33   D(17,9,10,11)         179.9321         estimate D2E/DX2                !
 ! D34   D(17,9,10,18)          -0.3898         estimate D2E/DX2                !
 ! D35   D(9,10,11,6)           -0.0051         estimate D2E/DX2                !
 ! D36   D(9,10,11,19)         179.0251         estimate D2E/DX2                !
 ! D37   D(18,10,11,6)        -179.6833         estimate D2E/DX2                !
 ! D38   D(18,10,11,19)         -0.6532         estimate D2E/DX2                !
 --------------------------------------------------------------------------------
 Trust Radius=3.00D-01 FncErr=1.00D-07 GrdErr=1.00D-06 EigMax=2.50D+02 EigMin=1.00D-04
 Number of steps in this run=     95 maximum allowed number of steps=    114.
 GradGradGradGradGradGradGradGradGradGradGradGradGradGradGradGradGradGrad

 Leave Link  103 at Mon Feb 22 21:21:36 2021, MaxMem=   104857600 cpu:               0.7 elap:               0.1
 (Enter /sw/arch/RedHatEnterpriseServer7/EB_production/2019/software/Gaussian/g16.c01/l202.exe)
                          Input orientation:                          
 ---------------------------------------------------------------------
 Center     Atomic      Atomic             Coordinates (Angstroms)
 Number     Number       Type             X           Y           Z
 ---------------------------------------------------------------------
      1          8           0        2.161270   -3.232890    0.351490
      2          6           0        1.397590   -2.320040   -0.042150
      3          8           0        1.960750   -1.279820   -0.701780
      4          6           0        0.027490   -2.336680    0.163280
      5          6           0       -0.647600   -3.351840    0.738120
      6          6           0       -2.032920   -3.428910    0.945020
      7          6           0       -2.536500   -4.398910    1.853270
      8          6           0       -3.917790   -4.538090    2.085940
      9          6           0       -4.830600   -3.710620    1.411220
     10          6           0       -4.360980   -2.747550    0.504170
     11          6           0       -2.979910   -2.608330    0.273820
     12          1           0        2.928500   -1.255400   -0.853900
     13          1           0       -0.464230   -1.531910   -0.140960
     14          1           0       -0.107910   -4.127660    1.051380
     15          1           0       -1.900620   -5.021120    2.360520
     16          1           0       -4.257290   -5.243000    2.743850
     17          1           0       -5.834060   -3.809460    1.577910
     18          1           0       -5.023760   -2.149320    0.006140
     19          1           0       -2.687450   -1.904180   -0.406400
 ---------------------------------------------------------------------
                    Distance matrix (angstroms):
                    1          2          3          4          5
     1  O    0.000000
     2  C    1.253577   0.000000
     3  O    2.228019   1.354370   0.000000
     4  C    2.321989   1.385515   2.367018   0.000000
     5  C    2.837848   2.419966   3.629059   1.347864   0.000000
     6  C    4.240511   3.737980   4.824929   2.459547   1.402804
     7  C    5.067937   4.836464   6.040055   3.699041   2.430609
     8  C    6.454985   6.140177   7.276327   4.909996   3.730677
     9  C    7.087842   6.544948   7.516382   5.200587   4.251973
    10  C    6.542065   5.800203   6.600971   4.420824   3.769495
    11  C    5.179560   4.398347   5.208345   3.021666   2.491596
    12  H    2.439687   2.033736   0.979937   3.258785   4.440504
    13  H    3.166874   2.024175   2.501719   0.990962   2.029421
    14  H    2.537644   2.594191   3.932317   2.003663   0.995637
    15  H    4.871644   4.893551   6.187502   3.968840   2.643622
    16  H    7.138756   6.948608   8.138992   5.784927   4.541949
    17  H    8.109367   7.559082   8.506182   6.207095   5.273901
    18  H    7.274479   6.423801   7.073935   5.057166   4.597024
    19  H    5.084285   4.122277   4.699238   2.807577   2.750751
                    6          7          8          9         10
     6  C    0.000000
     7  C    1.421060   0.000000
     8  C    2.466721   1.407646   0.000000
     9  C    2.850213   2.435579   1.404698   0.000000
    10  C    2.465454   2.806383   2.429907   1.403847   0.000000
    11  C    1.421496   2.428467   2.808446   2.435934   1.407053
    12  H    5.707534   6.861243   8.141892   8.447633   7.563556
    13  H    2.690492   4.060904   5.091491   5.120667   4.132630
    14  H    2.050665   2.571897   3.969125   4.754704   4.504747
    15  H    2.134544   1.024105   2.092292   3.347143   3.829951
    16  H    3.387408   2.113466   1.022254   2.110160   3.354726
    17  H    3.872213   3.361127   2.112129   1.022001   2.109629
    18  H    3.385849   3.828708   3.354841   2.109317   1.022346
    19  H    2.139988   3.369358   3.829227   3.340668   2.083534
                   11         12         13         14         15
    11  C    0.000000
    12  H    6.165345   0.000000
    13  H    2.767556   3.477838   0.000000
    14  H    3.340860   4.593447   2.878638   0.000000
    15  H    3.367601   6.916180   4.527163   2.392891   0.000000
    16  H    3.830696   8.971083   6.040002   4.617986   2.397930
    17  H    3.359991   9.445601   6.080857   5.759104   4.189576
    18  H    2.111792   8.048428   4.603493   5.401105   4.852251
    19  H    1.021792   5.670985   2.269747   3.704458   4.241493
                   16         17         18         19
    16  H    0.000000
    17  H    2.429127   0.000000
    18  H    4.201594   2.425513   0.000000
    19  H    4.851411   4.179561   2.385084   0.000000
 Stoichiometry    C9H8O2
 Framework group  C1[X(C9H8O2)]
 Deg. of freedom    51
 Full point group                 C1      NOp   1
 Largest Abelian subgroup         C1      NOp   1
 Largest concise Abelian subgroup C1      NOp   1
                         Standard orientation:                         
 ---------------------------------------------------------------------
 Center     Atomic      Atomic             Coordinates (Angstroms)
 Number     Number       Type             X           Y           Z
 ---------------------------------------------------------------------
      1          8           0        3.300853    1.174729    0.180070
      2          6           0        2.907096    0.001342   -0.018857
      3          8           0        3.853877   -0.958396   -0.148578
      4          6           0        1.568224   -0.344706   -0.104442
      5          6           0        0.543518    0.510566    0.083246
      6          6           0       -0.824912    0.205931    0.033674
      7          6           0       -1.759510    1.270376   -0.079875
      8          6           0       -3.145830    1.028498   -0.112727
      9          6           0       -3.631494   -0.286906   -0.028954
     10          6           0       -2.730737   -1.357136    0.089503
     11          6           0       -1.345182   -1.114081    0.120494
     12          1           0        4.804422   -0.727459   -0.090174
     13          1           0        1.380764   -1.292935   -0.322901
     14          1           0        0.780884    1.458352    0.274691
     15          1           0       -1.441634    2.242023   -0.140282
     16          1           0       -3.799691    1.809986   -0.194865
     17          1           0       -4.637474   -0.465636   -0.052327
     18          1           0       -3.082016   -2.314764    0.158358
     19          1           0       -0.730130   -1.923540    0.223190
 ---------------------------------------------------------------------
 Rotational constants (GHZ):           3.7197534           0.4787096           0.4255100
 Leave Link  202 at Mon Feb 22 21:21:37 2021, MaxMem=   104857600 cpu:               0.7 elap:               0.1
 (Enter /sw/arch/RedHatEnterpriseServer7/EB_production/2019/software/Gaussian/g16.c01/l301.exe)
 Standard basis: TZVP (5D, 7F)
 Ernie: Thresh=  0.10000D-02 Tol=  0.10000D-05 Strict=F.
 There are   268 symmetry adapted cartesian basis functions of A   symmetry.
 There are   257 symmetry adapted basis functions of A   symmetry.
   257 basis functions,   449 primitive gaussians,   268 cartesian basis functions
    39 alpha electrons       39 beta electrons
       nuclear repulsion energy       531.7984306214 Hartrees.
 IExCor=  404 DFT=T Ex=B Corr=P86 ExCW=0 ScaHFX=  0.000000
 ScaDFX=  1.000000  1.000000  1.000000  1.000000 ScalE2=  1.000000  1.000000
 IRadAn=      5 IRanWt=     -1 IRanGd=            0 ICorTp=0 IEmpDi=131
 NAtoms=   19 NActive=   19 NUniq=   19 SFac= 1.00D+00 NAtFMM=   60 NAOKFM=F Big=F
 Integral buffers will be    131072 words long.
 Raffenetti 2 integral format.
 Two-electron integral symmetry is turned on.
 R6Disp:  Grimme-D3 Dispersion energy=       -0.0144685809 Hartrees.
 Nuclear repulsion after empirical dispersion term =      531.7839620406 Hartrees.
 ------------------------------------------------------------------------------
 Polarizable Continuum Model (PCM)
 =================================
 Model                : PCM.
 Atomic radii         : UFF (Universal Force Field).
 Polarization charges : Total charges.
 Charge compensation  : None.
 Solution method      : On-the-fly selection.
 Cavity type          : Scaled VdW (van der Waals Surface) (Alpha=1.100).
 Cavity algorithm     : GePol (No added spheres)
                        Default sphere list used, NSphG=   19.
                        Lebedev-Laikov grids with approx.  5.0 points / Ang**2.
                        Smoothing algorithm: York/Karplus (Gamma=1.0000).
                        Polarization charges: spherical gaussians, with
                                              point-specific exponents (IZeta= 3).
                        Self-potential: point-specific (ISelfS= 7).
                        Self-field    : sphere-specific E.n sum rule (ISelfD= 2).
 1st derivatives      : Analytical E(r).r(x)/FMM algorithm (CHGder, D1EAlg=3).
                        Cavity 1st derivative terms included.
 Solvent              : Water, Eps=  78.355300 Eps(inf)=   1.777849
 ------------------------------------------------------------------------------
 Spheres list:
 ISph  on   Nord     Re0    Alpha      Xe            Ye            Ze
    1   O      1    1.7500  1.100      3.300853      1.174729      0.180070
    2   C      2    1.9255  1.100      2.907096      0.001342     -0.018857
    3   O      3    1.7500  1.100      3.853877     -0.958396     -0.148578
    4   C      4    1.9255  1.100      1.568224     -0.344706     -0.104442
    5   C      5    1.9255  1.100      0.543518      0.510566      0.083246
    6   C      6    1.9255  1.100     -0.824912      0.205931      0.033674
    7   C      7    1.9255  1.100     -1.759510      1.270376     -0.079875
    8   C      8    1.9255  1.100     -3.145830      1.028498     -0.112727
    9   C      9    1.9255  1.100     -3.631494     -0.286906     -0.028954
   10   C     10    1.9255  1.100     -2.730737     -1.357136      0.089503
   11   C     11    1.9255  1.100     -1.345182     -1.114081      0.120494
   12   H     12    1.4430  1.100      4.804422     -0.727459     -0.090174
   13   H     13    1.4430  1.100      1.380764     -1.292935     -0.322901
   14   H     14    1.4430  1.100      0.780884      1.458352      0.274691
   15   H     15    1.4430  1.100     -1.441634      2.242023     -0.140282
   16   H     16    1.4430  1.100     -3.799691      1.809986     -0.194865
   17   H     17    1.4430  1.100     -4.637474     -0.465636     -0.052327
   18   H     18    1.4430  1.100     -3.082016     -2.314764      0.158358
   19   H     19    1.4430  1.100     -0.730130     -1.923540      0.223190
 ------------------------------------------------------------------------------
 GePol: Number of generator spheres                  =      19
 GePol: Total number of spheres                      =      19
 GePol: Number of exposed spheres                    =      19 (100.00%)
 GePol: Number of points                             =    1666
 GePol: Average weight of points                     =       0.13
 GePol: Minimum weight of points                     =   0.12D-09
 GePol: Maximum weight of points                     =    0.20577
 GePol: Number of points with low weight             =     103
 GePol: Fraction of low-weight points (<1% of avg)   =       6.18%
 GePol: Cavity surface area                          =    215.148 Ang**2
 GePol: Cavity volume                                =    214.281 Ang**3
 Leave Link  301 at Mon Feb 22 21:21:38 2021, MaxMem=   104857600 cpu:               2.7 elap:               0.1
 (Enter /sw/arch/RedHatEnterpriseServer7/EB_production/2019/software/Gaussian/g16.c01/l302.exe)
 NPDir=0 NMtPBC=     1 NCelOv=     1 NCel=       1 NClECP=     1 NCelD=      1
         NCelK=      1 NCelE2=     1 NClLst=     1 CellRange=     0.0.
 One-electron integrals computed using PRISM.
 One-electron integral symmetry used in STVInt
 PrsmSu:  requested number of processors reduced to:  28 ShMem   1 Linda.
 NBasis=   257 RedAO= T EigKep=  9.68D-06  NBF=   257
 NBsUse=   257 1.00D-06 EigRej= -1.00D+00 NBFU=   257
 Precomputing XC quadrature grid using
 IXCGrd= 4 IRadAn=           5 IRanWt=          -1 IRanGd=           0 AccXCQ= 0.00D+00.
 Generated NRdTot=       0 NPtTot=           0 NUsed=           0 NTot=          32
 NSgBfM=   263   263   263   263   263 MxSgAt=    19 MxSgA2=    19.
 Leave Link  302 at Mon Feb 22 21:21:38 2021, MaxMem=   104857600 cpu:               6.8 elap:               0.2
 (Enter /sw/arch/RedHatEnterpriseServer7/EB_production/2019/software/Gaussian/g16.c01/l303.exe)
 DipDrv:  MaxL=1.
 Leave Link  303 at Mon Feb 22 21:21:38 2021, MaxMem=   104857600 cpu:               2.9 elap:               0.2
 (Enter /sw/arch/RedHatEnterpriseServer7/EB_production/2019/software/Gaussian/g16.c01/l401.exe)
 ExpMin= 9.52D-02 ExpMax= 2.70D+04 ExpMxC= 9.22D+02 IAcc=3 IRadAn=         5 AccDes= 0.00D+00
 Harris functional with IExCor=  404 and IRadAn=       5 diagonalized for initial guess.
 HarFok:  IExCor=  404 AccDes= 0.00D+00 IRadAn=         5 IDoV= 1 UseB2=F ITyADJ=14
 ICtDFT=  3500011 ScaDFX=  1.000000  1.000000  1.000000  1.000000
 FoFCou: FMM=F IPFlag=           0 FMFlag=      100000 FMFlg1=           0
         NFxFlg=           0 DoJE=T BraDBF=F KetDBF=T FulRan=T
         wScrn=  0.000000 ICntrl=       500 IOpCl=  0 I1Cent=   200000004 NGrid=           0
         NMat0=    1 NMatS0=      1 NMatT0=    0 NMatD0=    1 NMtDS0=    0 NMtDT0=    0
 Petite list used in FoFCou.
 Harris En= -498.576020092481    
 JPrj=0 DoOrth=F DoCkMO=F.
 Leave Link  401 at Mon Feb 22 21:21:39 2021, MaxMem=   104857600 cpu:              15.0 elap:               0.6
 (Enter /sw/arch/RedHatEnterpriseServer7/EB_production/2019/software/Gaussian/g16.c01/l502.exe)
 Integral symmetry usage will be decided dynamically.
 Closed shell SCF:
 Using DIIS extrapolation, IDIIS=  1040.
 NGot=   104857600 LenX=   104702226 LenY=   104629961
 Requested convergence on RMS density matrix=1.00D-08 within 128 cycles.
 Requested convergence on MAX density matrix=1.00D-06.
 Requested convergence on             energy=1.00D-06.
 No special actions if energy rises.
 Fock matrices will be formed incrementally for  20 cycles.

 Cycle   1  Pass 1  IDiag  1:
 FoFJK:  IHMeth= 1 ICntrl=     500 DoSepK=F KAlg= 0 I1Cent=           0 FoldK=F
 IRaf= 870000000 NMat=       1 IRICut=       1 DoRegI=T DoRafI=F ISym2E= 0 IDoP0=0 IntGTp=1.
 FoFCou: FMM=F IPFlag=           0 FMFlag=      100000 FMFlg1=           0
         NFxFlg=           0 DoJE=T BraDBF=F KetDBF=F FulRan=T
         wScrn=  0.000000 ICntrl=       500 IOpCl=  0 I1Cent=           0 NGrid=           0
         NMat0=    1 NMatS0=      1 NMatT0=    0 NMatD0=    1 NMtDS0=    0 NMtDT0=    0
 Symmetry not used in FoFCou.
 Inv3:  Mode=1 IEnd=     8326668.
 Iteration    1 A*A^-1 deviation from unit magnitude is 3.33D-15 for    957.
 Iteration    1 A*A^-1 deviation from orthogonality  is 2.02D-15 for   1028    549.
 Iteration    1 A^-1*A deviation from unit magnitude is 3.33D-15 for   1153.
 Iteration    1 A^-1*A deviation from orthogonality  is 2.44D-15 for   1462    959.
 E= -498.119798925102    
 DIIS: error= 4.23D-02 at cycle   1 NSaved=   1.
 NSaved= 1 IEnMin= 1 EnMin= -498.119798925102     IErMin= 1 ErrMin= 4.23D-02
 ErrMax= 4.23D-02  0.00D+00 EMaxC= 1.00D-01 BMatC= 2.82D-01 BMatP= 2.82D-01
 IDIUse=3 WtCom= 5.77D-01 WtEn= 4.23D-01
 Coeff-Com:  0.100D+01
 Coeff-En:   0.100D+01
 Coeff:      0.100D+01
 Gap=     0.094 Goal=   None    Shift=    0.000
 GapD=    0.094 DampG=0.500 DampE=0.500 DampFc=0.2500 IDamp=-1.
 Damping current iteration by 2.50D-01
 RMSDP=1.43D-02 MaxDP=1.65D+00              OVMax= 2.63D-01

 Cycle   2  Pass 1  IDiag  1:
 RMSU=  3.58D-03    CP:  1.01D+00
 E= -498.206035461201     Delta-E=       -0.086236536099 Rises=F Damp=T
 DIIS: error= 1.82D-02 at cycle   2 NSaved=   2.
 NSaved= 2 IEnMin= 2 EnMin= -498.206035461201     IErMin= 2 ErrMin= 1.82D-02
 ErrMax= 1.82D-02  0.00D+00 EMaxC= 1.00D-01 BMatC= 5.25D-02 BMatP= 2.82D-01
 IDIUse=3 WtCom= 8.18D-01 WtEn= 1.82D-01
 Coeff-Com: -0.417D+00 0.142D+01
 Coeff-En:   0.000D+00 0.100D+01
 Coeff:     -0.341D+00 0.134D+01
 Gap=     0.134 Goal=   None    Shift=    0.000
 RMSDP=2.85D-03 MaxDP=1.84D-01 DE=-8.62D-02 OVMax= 2.99D-01

 Cycle   3  Pass 1  IDiag  1:
 RMSU=  2.49D-03    CP:  9.62D-01  6.69D-01
 E= -498.295853035925     Delta-E=       -0.089817574724 Rises=F Damp=F
 DIIS: error= 2.77D-02 at cycle   3 NSaved=   3.
 NSaved= 3 IEnMin= 3 EnMin= -498.295853035925     IErMin= 2 ErrMin= 1.82D-02
 ErrMax= 2.77D-02  0.00D+00 EMaxC= 1.00D-01 BMatC= 9.21D-02 BMatP= 5.25D-02
 IDIUse=2 WtCom= 0.00D+00 WtEn= 1.00D+00
 Coeff-En:   0.000D+00 0.983D-01 0.902D+00
 Coeff:      0.000D+00 0.983D-01 0.902D+00
 Gap=     0.110 Goal=   None    Shift=    0.000
 RMSDP=9.15D-03 MaxDP=8.08D-01 DE=-8.98D-02 OVMax= 5.45D-01

 Cycle   4  Pass 1  IDiag  1:
 RMSU=  4.03D-03    CP:  1.04D+00  2.65D+00 -5.96D-01
 E= -497.674776150555     Delta-E=        0.621076885370 Rises=F Damp=F
 DIIS: error= 7.21D-02 at cycle   4 NSaved=   4.
 NSaved= 4 IEnMin= 3 EnMin= -498.295853035925     IErMin= 2 ErrMin= 1.82D-02
 ErrMax= 7.21D-02  0.00D+00 EMaxC= 1.00D-01 BMatC= 7.87D-01 BMatP= 5.25D-02
 IDIUse=2 WtCom= 0.00D+00 WtEn= 1.00D+00
 Coeff-En:   0.000D+00 0.000D+00 0.835D+00 0.165D+00
 Coeff:      0.000D+00 0.000D+00 0.835D+00 0.165D+00
 Gap=     0.064 Goal=   None    Shift=    0.000
 RMSDP=6.52D-03 MaxDP=6.68D-01 DE= 6.21D-01 OVMax= 2.60D-01

 Cycle   5  Pass 1  IDiag  1:
 RMSU=  1.03D-03    CP:  9.96D-01  1.11D+00  2.73D-01  3.88D-01
 E= -498.310322366202     Delta-E=       -0.635546215647 Rises=F Damp=F
 DIIS: error= 2.48D-02 at cycle   5 NSaved=   5.
 NSaved= 5 IEnMin= 5 EnMin= -498.310322366202     IErMin= 2 ErrMin= 1.82D-02
 ErrMax= 2.48D-02  0.00D+00 EMaxC= 1.00D-01 BMatC= 7.86D-02 BMatP= 5.25D-02
 IDIUse=2 WtCom= 0.00D+00 WtEn= 1.00D+00
 Coeff-En:   0.000D+00 0.000D+00 0.464D+00 0.000D+00 0.536D+00
 Coeff:      0.000D+00 0.000D+00 0.464D+00 0.000D+00 0.536D+00
 Gap=     0.113 Goal=   None    Shift=    0.000
 RMSDP=1.77D-03 MaxDP=1.07D-01 DE=-6.36D-01 OVMax= 1.31D-01

 Cycle   6  Pass 1  IDiag  1:
 RMSU=  2.60D-04    CP:  9.80D-01  8.14D-01  6.32D-01  1.52D-01  6.14D-01
 E= -498.371721320202     Delta-E=       -0.061398954000 Rises=F Damp=F
 DIIS: error= 4.29D-03 at cycle   6 NSaved=   6.
 NSaved= 6 IEnMin= 6 EnMin= -498.371721320202     IErMin= 6 ErrMin= 4.29D-03
 ErrMax= 4.29D-03  0.00D+00 EMaxC= 1.00D-01 BMatC= 2.34D-03 BMatP= 5.25D-02
 IDIUse=3 WtCom= 9.57D-01 WtEn= 4.29D-02
 Coeff-Com: -0.364D-01 0.610D-01 0.233D+00-0.357D-01 0.387D+00 0.392D+00
 Coeff-En:   0.000D+00 0.000D+00 0.000D+00 0.000D+00 0.000D+00 0.100D+01
 Coeff:     -0.348D-01 0.584D-01 0.223D+00-0.342D-01 0.370D+00 0.418D+00
 Gap=     0.106 Goal=   None    Shift=    0.000
 RMSDP=3.50D-04 MaxDP=1.82D-02 DE=-6.14D-02 OVMax= 2.37D-02

 Cycle   7  Pass 1  IDiag  1:
 RMSU=  1.56D-04    CP:  9.79D-01  8.81D-01  6.03D-01  1.87D-01  7.14D-01
                    CP:  7.22D-01
 E= -498.373240988965     Delta-E=       -0.001519668763 Rises=F Damp=F
 DIIS: error= 1.81D-03 at cycle   7 NSaved=   7.
 NSaved= 7 IEnMin= 7 EnMin= -498.373240988965     IErMin= 7 ErrMin= 1.81D-03
 ErrMax= 1.81D-03  0.00D+00 EMaxC= 1.00D-01 BMatC= 3.79D-04 BMatP= 2.34D-03
 IDIUse=3 WtCom= 9.82D-01 WtEn= 1.81D-02
 Coeff-Com: -0.965D-02 0.138D-01 0.564D-01-0.120D-01 0.992D-01 0.283D+00
 Coeff-Com:  0.569D+00
 Coeff-En:   0.000D+00 0.000D+00 0.000D+00 0.000D+00 0.000D+00 0.194D+00
 Coeff-En:   0.806D+00
 Coeff:     -0.947D-02 0.135D-01 0.553D-01-0.118D-01 0.975D-01 0.282D+00
 Coeff:      0.573D+00
 Gap=     0.106 Goal=   None    Shift=    0.000
 RMSDP=1.04D-04 MaxDP=4.85D-03 DE=-1.52D-03 OVMax= 6.89D-03

 Cycle   8  Pass 1  IDiag  1:
 RMSU=  4.26D-05    CP:  9.80D-01  8.63D-01  6.08D-01  1.80D-01  6.95D-01
                    CP:  7.23D-01  6.07D-01
 E= -498.373481859287     Delta-E=       -0.000240870322 Rises=F Damp=F
 DIIS: error= 4.25D-04 at cycle   8 NSaved=   8.
 NSaved= 8 IEnMin= 8 EnMin= -498.373481859287     IErMin= 8 ErrMin= 4.25D-04
 ErrMax= 4.25D-04  0.00D+00 EMaxC= 1.00D-01 BMatC= 4.10D-05 BMatP= 3.79D-04
 IDIUse=3 WtCom= 9.96D-01 WtEn= 4.25D-03
 Coeff-Com:  0.323D-02-0.834D-02 0.858D-02-0.132D-02 0.134D-01 0.164D+00
 Coeff-Com:  0.383D+00 0.437D+00
 Coeff-En:   0.000D+00 0.000D+00 0.000D+00 0.000D+00 0.000D+00 0.000D+00
 Coeff-En:   0.000D+00 0.100D+01
 Coeff:      0.322D-02-0.830D-02 0.855D-02-0.131D-02 0.133D-01 0.163D+00
 Coeff:      0.382D+00 0.439D+00
 Gap=     0.106 Goal=   None    Shift=    0.000
 RMSDP=2.91D-05 MaxDP=9.84D-04 DE=-2.41D-04 OVMax= 4.63D-03

 Cycle   9  Pass 1  IDiag  1:
 RMSU=  1.31D-05    CP:  9.80D-01  8.62D-01  6.12D-01  1.79D-01  6.91D-01
                    CP:  7.49D-01  6.55D-01  5.13D-01
 E= -498.373523886986     Delta-E=       -0.000042027699 Rises=F Damp=F
 DIIS: error= 8.60D-05 at cycle   9 NSaved=   9.
 NSaved= 9 IEnMin= 9 EnMin= -498.373523886986     IErMin= 9 ErrMin= 8.60D-05
 ErrMax= 8.60D-05  0.00D+00 EMaxC= 1.00D-01 BMatC= 1.59D-06 BMatP= 4.10D-05
 IDIUse=1 WtCom= 1.00D+00 WtEn= 0.00D+00
 Coeff-Com:  0.177D-02-0.291D-02 0.122D-02-0.360D-04-0.151D-02 0.481D-01
 Coeff-Com:  0.125D+00 0.213D+00 0.615D+00
 Coeff:      0.177D-02-0.291D-02 0.122D-02-0.360D-04-0.151D-02 0.481D-01
 Coeff:      0.125D+00 0.213D+00 0.615D+00
 Gap=     0.106 Goal=   None    Shift=    0.000
 RMSDP=8.60D-06 MaxDP=6.29D-04 DE=-4.20D-05 OVMax= 7.95D-04

 Cycle  10  Pass 1  IDiag  1:
 RMSU=  2.81D-06    CP:  9.79D-01  8.60D-01  6.12D-01  1.78D-01  6.90D-01
                    CP:  7.55D-01  6.61D-01  5.39D-01  6.86D-01
 E= -498.373525329911     Delta-E=       -0.000001442925 Rises=F Damp=F
 DIIS: error= 1.59D-05 at cycle  10 NSaved=  10.
 NSaved=10 IEnMin=10 EnMin= -498.373525329911     IErMin=10 ErrMin= 1.59D-05
 ErrMax= 1.59D-05  0.00D+00 EMaxC= 1.00D-01 BMatC= 7.02D-08 BMatP= 1.59D-06
 IDIUse=1 WtCom= 1.00D+00 WtEn= 0.00D+00
 Coeff-Com:  0.971D-03-0.147D-02 0.653D-03-0.419D-04-0.964D-03 0.232D-01
 Coeff-Com:  0.609D-01 0.110D+00 0.352D+00 0.455D+00
 Coeff:      0.971D-03-0.147D-02 0.653D-03-0.419D-04-0.964D-03 0.232D-01
 Coeff:      0.609D-01 0.110D+00 0.352D+00 0.455D+00
 Gap=     0.106 Goal=   None    Shift=    0.000
 RMSDP=1.26D-06 MaxDP=3.46D-05 DE=-1.44D-06 OVMax= 1.28D-04

 Cycle  11  Pass 1  IDiag  1:
 RMSU=  9.72D-07    CP:  9.79D-01  8.60D-01  6.12D-01  1.78D-01  6.90D-01
                    CP:  7.56D-01  6.63D-01  5.38D-01  6.93D-01  7.59D-01
 E= -498.373525409592     Delta-E=       -0.000000079681 Rises=F Damp=F
 DIIS: error= 7.33D-06 at cycle  11 NSaved=  11.
 NSaved=11 IEnMin=11 EnMin= -498.373525409592     IErMin=11 ErrMin= 7.33D-06
 ErrMax= 7.33D-06  0.00D+00 EMaxC= 1.00D-01 BMatC= 1.34D-08 BMatP= 7.02D-08
 IDIUse=1 WtCom= 1.00D+00 WtEn= 0.00D+00
 Coeff-Com:  0.390D-03-0.570D-03 0.169D-03 0.391D-05-0.422D-03 0.611D-02
 Coeff-Com:  0.158D-01 0.301D-01 0.111D+00 0.309D+00 0.529D+00
 Coeff:      0.390D-03-0.570D-03 0.169D-03 0.391D-05-0.422D-03 0.611D-02
 Coeff:      0.158D-01 0.301D-01 0.111D+00 0.309D+00 0.529D+00
 Gap=     0.106 Goal=   None    Shift=    0.000
 RMSDP=5.25D-07 MaxDP=1.39D-05 DE=-7.97D-08 OVMax= 4.62D-05

 Cycle  12  Pass 1  IDiag  1:
 RMSU=  2.70D-07    CP:  9.79D-01  8.60D-01  6.12D-01  1.78D-01  6.90D-01
                    CP:  7.55D-01  6.62D-01  5.39D-01  6.99D-01  7.78D-01
                    CP:  6.13D-01
 E= -498.373525416035     Delta-E=       -0.000000006443 Rises=F Damp=F
 DIIS: error= 3.62D-06 at cycle  12 NSaved=  12.
 NSaved=12 IEnMin=12 EnMin= -498.373525416035     IErMin=12 ErrMin= 3.62D-06
 ErrMax= 3.62D-06  0.00D+00 EMaxC= 1.00D-01 BMatC= 1.17D-09 BMatP= 1.34D-08
 IDIUse=1 WtCom= 1.00D+00 WtEn= 0.00D+00
 Coeff-Com:  0.161D-03-0.211D-03 0.652D-04 0.243D-05-0.188D-03 0.176D-02
 Coeff-Com:  0.469D-02 0.959D-02 0.408D-01 0.160D+00 0.334D+00 0.449D+00
 Coeff:      0.161D-03-0.211D-03 0.652D-04 0.243D-05-0.188D-03 0.176D-02
 Coeff:      0.469D-02 0.959D-02 0.408D-01 0.160D+00 0.334D+00 0.449D+00
 Gap=     0.106 Goal=   None    Shift=    0.000
 RMSDP=2.01D-07 MaxDP=1.36D-05 DE=-6.44D-09 OVMax= 1.74D-05

 Cycle  13  Pass 1  IDiag  1:
 RMSU=  1.06D-07    CP:  9.79D-01  8.60D-01  6.12D-01  1.78D-01  6.90D-01
                    CP:  7.55D-01  6.62D-01  5.40D-01  6.99D-01  7.73D-01
                    CP:  6.61D-01  6.96D-01
 E= -498.373525407950     Delta-E=        0.000000008085 Rises=F Damp=F
 DIIS: error= 8.97D-07 at cycle  13 NSaved=  13.
 NSaved=13 IEnMin=12 EnMin= -498.373525416035     IErMin=13 ErrMin= 8.97D-07
 ErrMax= 8.97D-07  0.00D+00 EMaxC= 1.00D-01 BMatC= 5.67D-11 BMatP= 1.17D-09
 IDIUse=1 WtCom= 1.00D+00 WtEn= 0.00D+00
 Coeff-Com:  0.432D-04-0.514D-04 0.149D-04 0.106D-05-0.475D-04 0.245D-03
 Coeff-Com:  0.692D-03 0.153D-02 0.916D-02 0.487D-01 0.111D+00 0.229D+00
 Coeff-Com:  0.599D+00
 Coeff:      0.432D-04-0.514D-04 0.149D-04 0.106D-05-0.475D-04 0.245D-03
 Coeff:      0.692D-03 0.153D-02 0.916D-02 0.487D-01 0.111D+00 0.229D+00
 Coeff:      0.599D+00
 Gap=     0.106 Goal=   None    Shift=    0.000
 RMSDP=5.09D-08 MaxDP=3.12D-06 DE= 8.08D-09 OVMax= 5.28D-06

 Cycle  14  Pass 1  IDiag  1:
 RMSU=  3.68D-08    CP:  9.79D-01  8.60D-01  6.12D-01  1.78D-01  6.90D-01
                    CP:  7.55D-01  6.62D-01  5.40D-01  6.99D-01  7.77D-01
                    CP:  6.54D-01  7.39D-01  8.50D-01
 E= -498.373525408000     Delta-E=       -0.000000000050 Rises=F Damp=F
 DIIS: error= 4.01D-07 at cycle  14 NSaved=  14.
 NSaved=14 IEnMin=12 EnMin= -498.373525416035     IErMin=14 ErrMin= 4.01D-07
 ErrMax= 4.01D-07  0.00D+00 EMaxC= 1.00D-01 BMatC= 1.34D-11 BMatP= 5.67D-11
 IDIUse=1 WtCom= 1.00D+00 WtEn= 0.00D+00
 Coeff-Com:  0.113D-04-0.128D-04 0.407D-05-0.247D-06-0.533D-05 0.438D-05
 Coeff-Com:  0.189D-04 0.314D-04 0.179D-02 0.138D-01 0.336D-01 0.943D-01
 Coeff-Com:  0.382D+00 0.474D+00
 Coeff:      0.113D-04-0.128D-04 0.407D-05-0.247D-06-0.533D-05 0.438D-05
 Coeff:      0.189D-04 0.314D-04 0.179D-02 0.138D-01 0.336D-01 0.943D-01
 Coeff:      0.382D+00 0.474D+00
 Gap=     0.106 Goal=   None    Shift=    0.000
 RMSDP=3.33D-08 MaxDP=3.17D-06 DE=-4.97D-11 OVMax= 1.96D-06

 Cycle  15  Pass 1  IDiag  1:
 RMSU=  1.73D-08    CP:  9.79D-01  8.60D-01  6.12D-01  1.78D-01  6.90D-01
                    CP:  7.55D-01  6.62D-01  5.39D-01  6.99D-01  7.76D-01
                    CP:  6.54D-01  7.51D-01  8.57D-01  9.09D-01
 E= -498.373525408010     Delta-E=       -0.000000000010 Rises=F Damp=F
 DIIS: error= 4.74D-08 at cycle  15 NSaved=  15.
 NSaved=15 IEnMin=12 EnMin= -498.373525416035     IErMin=15 ErrMin= 4.74D-08
 ErrMax= 4.74D-08  0.00D+00 EMaxC= 1.00D-01 BMatC= 4.58D-13 BMatP= 1.34D-11
 IDIUse=1 WtCom= 1.00D+00 WtEn= 0.00D+00
 Coeff-Com:  0.263D-05-0.287D-05 0.669D-06-0.915D-07 0.177D-06-0.100D-04
 Coeff-Com: -0.293D-04-0.727D-04 0.265D-03 0.308D-02 0.751D-02 0.262D-01
 Coeff-Com:  0.134D+00 0.229D+00 0.600D+00
 Coeff:      0.263D-05-0.287D-05 0.669D-06-0.915D-07 0.177D-06-0.100D-04
 Coeff:     -0.293D-04-0.727D-04 0.265D-03 0.308D-02 0.751D-02 0.262D-01
 Coeff:      0.134D+00 0.229D+00 0.600D+00
 Gap=     0.106 Goal=   None    Shift=    0.000
 RMSDP=6.47D-09 MaxDP=4.27D-07 DE=-1.05D-11 OVMax= 4.73D-07

 Error on total polarization charges =  0.01340
 SCF Done:  E(RB-P86) =  -498.373525408     A.U. after   15 cycles
            NFock= 15  Conv=0.65D-08     -V/T= 2.0025
 KE= 4.971270534955D+02 PE=-2.226942651187D+03 EE= 6.996581102425D+02
 Leave Link  502 at Mon Feb 22 21:21:54 2021, MaxMem=   104857600 cpu:             463.8 elap:              14.8
 (Enter /sw/arch/RedHatEnterpriseServer7/EB_production/2019/software/Gaussian/g16.c01/l601.exe)
 Copying SCF densities to generalized density rwf, IOpCl= 0 IROHF=0.

 **********************************************************************

            Population analysis using the SCF Density.

 **********************************************************************

 Orbital symmetries:
       Occupied  (A) (A) (A) (A) (A) (A) (A) (A) (A) (A) (A) (A)
                 (A) (A) (A) (A) (A) (A) (A) (A) (A) (A) (A) (A)
                 (A) (A) (A) (A) (A) (A) (A) (A) (A) (A) (A) (A)
                 (A) (A) (A)
       Virtual   (A) (A) (A) (A) (A) (A) (A) (A) (A) (A) (A) (A)
                 (A) (A) (A) (A) (A) (A) (A) (A) (A) (A) (A) (A)
                 (A) (A) (A) (A) (A) (A) (A) (A) (A) (A) (A) (A)
                 (A) (A) (A) (A) (A) (A) (A) (A) (A) (A) (A) (A)
                 (A) (A) (A) (A) (A) (A) (A) (A) (A) (A) (A) (A)
                 (A) (A) (A) (A) (A) (A) (A) (A) (A) (A) (A) (A)
                 (A) (A) (A) (A) (A) (A) (A) (A) (A) (A) (A) (A)
                 (A) (A) (A) (A) (A) (A) (A) (A) (A) (A) (A) (A)
                 (A) (A) (A) (A) (A) (A) (A) (A) (A) (A) (A) (A)
                 (A) (A) (A) (A) (A) (A) (A) (A) (A) (A) (A) (A)
                 (A) (A) (A) (A) (A) (A) (A) (A) (A) (A) (A) (A)
                 (A) (A) (A) (A) (A) (A) (A) (A) (A) (A) (A) (A)
                 (A) (A) (A) (A) (A) (A) (A) (A) (A) (A) (A) (A)
                 (A) (A) (A) (A) (A) (A) (A) (A) (A) (A) (A) (A)
                 (A) (A) (A) (A) (A) (A) (A) (A) (A) (A) (A) (A)
                 (A) (A) (A) (A) (A) (A) (A) (A) (A) (A) (A) (A)
                 (A) (A) (A) (A) (A) (A) (A) (A) (A) (A) (A) (A)
                 (A) (A) (A) (A) (A) (A) (A) (A) (A) (A) (A) (A)
                 (A) (A)
 The electronic state is 1-A.
 Alpha  occ. eigenvalues --  -18.81449 -18.74824 -10.02395  -9.92711  -9.92132
 Alpha  occ. eigenvalues --   -9.91387  -9.91355  -9.91074  -9.90928  -9.90883
 Alpha  occ. eigenvalues --   -9.90403  -1.01242  -0.91566  -0.80356  -0.75786
 Alpha  occ. eigenvalues --   -0.70258  -0.69501  -0.63455  -0.57918  -0.56781
 Alpha  occ. eigenvalues --   -0.52985  -0.49778  -0.47688  -0.44115  -0.43331
 Alpha  occ. eigenvalues --   -0.41344  -0.40591  -0.39780  -0.39373  -0.37007
 Alpha  occ. eigenvalues --   -0.35349  -0.33678  -0.32738  -0.31922  -0.29801
 Alpha  occ. eigenvalues --   -0.27667  -0.24601  -0.23223  -0.22669
 Alpha virt. eigenvalues --   -0.12078  -0.06047  -0.03466   0.02274   0.03614
 Alpha virt. eigenvalues --    0.05257   0.06479   0.07855   0.08739   0.09419
 Alpha virt. eigenvalues --    0.09692   0.11200   0.11879   0.13410   0.14911
 Alpha virt. eigenvalues --    0.16127   0.16863   0.17126   0.18372   0.19212
 Alpha virt. eigenvalues --    0.19717   0.20720   0.20787   0.21419   0.21728
 Alpha virt. eigenvalues --    0.22733   0.24021   0.24283   0.26072   0.26838
 Alpha virt. eigenvalues --    0.27205   0.29215   0.29849   0.30666   0.31554
 Alpha virt. eigenvalues --    0.32758   0.33127   0.33985   0.34699   0.35665
 Alpha virt. eigenvalues --    0.36281   0.39262   0.39861   0.40773   0.40965
 Alpha virt. eigenvalues --    0.42020   0.42499   0.43252   0.44088   0.44678
 Alpha virt. eigenvalues --    0.45477   0.45750   0.47107   0.47343   0.47507
 Alpha virt. eigenvalues --    0.50831   0.51086   0.52009   0.55015   0.55094
 Alpha virt. eigenvalues --    0.57736   0.57954   0.59816   0.62044   0.62577
 Alpha virt. eigenvalues --    0.63717   0.65624   0.68372   0.69083   0.71151
 Alpha virt. eigenvalues --    0.73284   0.74760   0.76929   0.78318   0.87767
 Alpha virt. eigenvalues --    0.89473   1.09772   1.12440   1.15570   1.16454
 Alpha virt. eigenvalues --    1.16935   1.18461   1.19156   1.19874   1.20400
 Alpha virt. eigenvalues --    1.21296   1.21711   1.23023   1.23183   1.23449
 Alpha virt. eigenvalues --    1.24518   1.28057   1.29586   1.31621   1.32645
 Alpha virt. eigenvalues --    1.32900   1.35205   1.35412   1.36903   1.37595
 Alpha virt. eigenvalues --    1.37786   1.38813   1.39615   1.40007   1.41526
 Alpha virt. eigenvalues --    1.42173   1.42907   1.43758   1.45398   1.46032
 Alpha virt. eigenvalues --    1.46283   1.47766   1.49861   1.52530   1.54890
 Alpha virt. eigenvalues --    1.56015   1.60319   1.61184   1.67253   1.71594
 Alpha virt. eigenvalues --    1.72577   1.72984   1.74241   1.75089   1.76898
 Alpha virt. eigenvalues --    1.80146   1.81049   1.82550   1.82709   1.83216
 Alpha virt. eigenvalues --    1.84164   1.85713   1.87759   1.90066   1.92363
 Alpha virt. eigenvalues --    1.93296   1.93913   1.96570   1.98530   1.99741
 Alpha virt. eigenvalues --    2.03848   2.05245   2.08004   2.16265   2.17149
 Alpha virt. eigenvalues --    2.18165   2.19257   2.19720   2.21780   2.22243
 Alpha virt. eigenvalues --    2.23460   2.24102   2.27128   2.30633   2.36988
 Alpha virt. eigenvalues --    2.40475   2.42126   2.42981   2.44251   2.46899
 Alpha virt. eigenvalues --    2.48683   2.49712   2.51735   2.53590   2.54141
 Alpha virt. eigenvalues --    2.55976   2.56422   2.57383   2.58798   2.60257
 Alpha virt. eigenvalues --    2.60938   2.62428   2.65186   2.66526   2.67110
 Alpha virt. eigenvalues --    2.70821   2.72349   2.74025   2.76986   2.77790
 Alpha virt. eigenvalues --    2.86748   2.88963   2.89488   2.90619   2.99802
 Alpha virt. eigenvalues --    3.01550   3.02411   3.04439   3.05904   3.07080
 Alpha virt. eigenvalues --    3.07327   3.08313   3.08853   3.09897   3.17109
 Alpha virt. eigenvalues --    3.19107   3.27160   3.32269   3.32578   3.34343
 Alpha virt. eigenvalues --    3.41102   3.47733   3.57713   3.77213   3.88611
 Alpha virt. eigenvalues --    4.01570   4.20950  21.03688  21.44487  21.58081
 Alpha virt. eigenvalues --   21.63525  21.77529  21.83115  21.87400  21.97442
 Alpha virt. eigenvalues --   22.04068  43.06854  43.14644
          Condensed to atoms (all electrons):
               1          2          3          4          5          6
     1  O    8.019590   0.691914  -0.130211  -0.272700   0.037478   0.007216
     2  C    0.691914   4.972116   0.401926  -0.306095   0.070688   0.025314
     3  O   -0.130211   0.401926   7.894564  -0.181417   0.016197   0.000415
     4  C   -0.272700  -0.306095  -0.181417   6.491645   0.134752  -0.035909
     5  C    0.037478   0.070688   0.016197   0.134752   5.540766   0.172454
     6  C    0.007216   0.025314   0.000415  -0.035909   0.172454   5.281297
     7  C   -0.000285  -0.004782  -0.000004   0.043508  -0.104412   0.366687
     8  C    0.000008   0.000482  -0.000000  -0.006084   0.020257   0.022961
     9  C   -0.000001   0.000013   0.000000  -0.000130   0.002032  -0.084909
    10  C   -0.000001  -0.000708  -0.000004   0.003862   0.027015   0.004449
    11  C    0.000058   0.003125  -0.000067  -0.045469  -0.090935   0.343945
    12  H    0.003258  -0.026294   0.291466   0.023379  -0.001753   0.000034
    13  H    0.005785   0.013092   0.006191   0.368026  -0.048326  -0.015994
    14  H    0.027218  -0.004243   0.001966  -0.076069   0.393224  -0.007022
    15  H   -0.000067  -0.000369  -0.000001   0.002963  -0.014636  -0.071713
    16  H    0.000000  -0.000001   0.000000   0.000036  -0.001250   0.012885
    17  H    0.000000  -0.000000   0.000000   0.000003  -0.000074  -0.002806
    18  H   -0.000000  -0.000011  -0.000000   0.000247  -0.001665   0.013553
    19  H    0.000024   0.000953   0.000008   0.004768  -0.027193  -0.046415
               7          8          9         10         11         12
     1  O   -0.000285   0.000008  -0.000001  -0.000001   0.000058   0.003258
     2  C   -0.004782   0.000482   0.000013  -0.000708   0.003125  -0.026294
     3  O   -0.000004  -0.000000   0.000000  -0.000004  -0.000067   0.291466
     4  C    0.043508  -0.006084  -0.000130   0.003862  -0.045469   0.023379
     5  C   -0.104412   0.020257   0.002032   0.027015  -0.090935  -0.001753
     6  C    0.366687   0.022961  -0.084909   0.004449   0.343945   0.000034
     7  C    5.310184   0.335346  -0.016578  -0.087620  -0.078366  -0.000003
     8  C    0.335346   5.084497   0.411482  -0.012746  -0.086667   0.000000
     9  C   -0.016578   0.411482   5.078033   0.416129  -0.010066  -0.000000
    10  C   -0.087620  -0.012746   0.416129   5.052210   0.364790   0.000000
    11  C   -0.078366  -0.086667  -0.010066   0.364790   5.307352   0.000007
    12  H   -0.000003   0.000000  -0.000000   0.000000   0.000007   0.378724
    13  H    0.001854  -0.000138  -0.000012   0.000587   0.002045  -0.000534
    14  H   -0.017079   0.002622  -0.000047  -0.000652   0.016980  -0.000024
    15  H    0.444423  -0.049189   0.013271  -0.003059   0.016214   0.000000
    16  H   -0.053826   0.436713  -0.056739   0.012203  -0.000909  -0.000000
    17  H    0.015365  -0.057434   0.434450  -0.056341   0.016396  -0.000000
    18  H    0.000567   0.011108  -0.056362   0.432009  -0.049989  -0.000000
    19  H    0.011542  -0.001053   0.010400  -0.035698   0.422204  -0.000001
              13         14         15         16         17         18
     1  O    0.005785   0.027218  -0.000067   0.000000   0.000000  -0.000000
     2  C    0.013092  -0.004243  -0.000369  -0.000001  -0.000000  -0.000011
     3  O    0.006191   0.001966  -0.000001   0.000000   0.000000  -0.000000
     4  C    0.368026  -0.076069   0.002963   0.000036   0.000003   0.000247
     5  C   -0.048326   0.393224  -0.014636  -0.001250  -0.000074  -0.001665
     6  C   -0.015994  -0.007022  -0.071713   0.012885  -0.002806   0.013553
     7  C    0.001854  -0.017079   0.444423  -0.053826   0.015365   0.000567
     8  C   -0.000138   0.002622  -0.049189   0.436713  -0.057434   0.011108
     9  C   -0.000012  -0.000047   0.013271  -0.056739   0.434450  -0.056362
    10  C    0.000587  -0.000652  -0.003059   0.012203  -0.056341   0.432009
    11  C    0.002045   0.016980   0.016214  -0.000909   0.016396  -0.049989
    12  H   -0.000534  -0.000024   0.000000  -0.000000  -0.000000  -0.000000
    13  H    0.478493   0.002542   0.000009   0.000001  -0.000000   0.000013
    14  H    0.002542   0.491514   0.001869   0.000030  -0.000000  -0.000000
    15  H    0.000009   0.001869   0.511026  -0.005243  -0.000178   0.000032
    16  H    0.000001   0.000030  -0.005243   0.510003  -0.005622  -0.000188
    17  H   -0.000000  -0.000000  -0.000178  -0.005622   0.507218  -0.005497
    18  H    0.000013  -0.000000   0.000032  -0.000188  -0.005497   0.509764
    19  H    0.002306   0.000319  -0.000002   0.000031  -0.000252  -0.004360
              19
     1  O    0.000024
     2  C    0.000953
     3  O    0.000008
     4  C    0.004768
     5  C   -0.027193
     6  C   -0.046415
     7  C    0.011542
     8  C   -0.001053
     9  C    0.010400
    10  C   -0.035698
    11  C    0.422204
    12  H   -0.000001
    13  H    0.002306
    14  H    0.000319
    15  H   -0.000002
    16  H    0.000031
    17  H   -0.000252
    18  H   -0.004360
    19  H    0.502620
 Mulliken charges:
               1
     1  O   -0.389283
     2  C    0.162882
     3  O   -0.301029
     4  C   -0.149316
     5  C   -0.124619
     6  C    0.013558
     7  C   -0.166520
     8  C   -0.112163
     9  C   -0.140964
    10  C   -0.116425
    11  C   -0.130648
    12  H    0.331740
    13  H    0.184061
    14  H    0.166849
    15  H    0.154649
    16  H    0.151877
    17  H    0.154773
    18  H    0.150781
    19  H    0.159797
 Sum of Mulliken charges =  -0.00000
 Mulliken charges with hydrogens summed into heavy atoms:
               1
     1  O   -0.389283
     2  C    0.162882
     3  O    0.030711
     4  C    0.034746
     5  C    0.042231
     6  C    0.013558
     7  C   -0.011871
     8  C    0.039713
     9  C    0.013809
    10  C    0.034356
    11  C    0.029149
 Electronic spatial extent (au):  <R**2>=           2429.9311
 Charge=             -0.0000 electrons
 Dipole moment (field-independent basis, Debye):
    X=             -3.6511    Y=             -2.1369    Z=             -0.2986  Tot=              4.2410
 Quadrupole moment (field-independent basis, Debye-Ang):
   XX=            -52.8295   YY=            -61.5541   ZZ=            -67.3710
   XY=             -8.3165   XZ=             -0.9010   YZ=             -1.1638
 Traceless Quadrupole moment (field-independent basis, Debye-Ang):
   XX=              7.7554   YY=             -0.9692   ZZ=             -6.7862
   XY=             -8.3165   XZ=             -0.9010   YZ=             -1.1638
 Octapole moment (field-independent basis, Debye-Ang**2):
  XXX=             28.0950  YYY=             -4.0370  ZZZ=              0.0635  XYY=            -22.1412
  XXY=            -35.6131  XXZ=             -6.0986  XZZ=             16.1804  YZZ=              0.0031
  YYZ=             -0.2850  XYZ=             -0.9456
 Hexadecapole moment (field-independent basis, Debye-Ang**3):
 XXXX=          -2024.9071 YYYY=           -396.8057 ZZZZ=            -78.9224 XXXY=           -154.6073
 XXXZ=            -12.7288 YYYX=            -12.9022 YYYZ=             -3.7816 ZZZX=             -0.6304
 ZZZY=              1.4605 XXYY=           -537.7829 XXZZ=           -486.4464 YYZZ=            -89.7906
 XXYZ=            -14.9662 YYXZ=             -1.4393 ZZXY=             -1.9028
 N-N= 5.317839620406D+02 E-N=-2.226942653504D+03  KE= 4.971270534955D+02
 No NMR shielding tensors so no spin-rotation constants.
 Leave Link  601 at Mon Feb 22 21:21:54 2021, MaxMem=   104857600 cpu:               7.0 elap:               0.3
 (Enter /sw/arch/RedHatEnterpriseServer7/EB_production/2019/software/Gaussian/g16.c01/l701.exe)
 ... and contract with generalized density number  0.
 Compute integral first derivatives.
 R6Disp: Adding Grimme-D3 dispersion energy 1st derivatives to the gradient.
 PrsmSu:  requested number of processors reduced to:  29 ShMem   1 Linda.
 D1PCM: PCM CHGder 1st derivatives, ID1Alg=3 FixD1E=F DoIter=F DoCFld=F I1PDM=0.
 GePol: Maximum number of non-zero 1st derivatives   =     211
 CoulSu:  requested number of processors reduced to:  29 ShMem   1 Linda.
 CoulSu:  requested number of processors reduced to:  30 ShMem   1 Linda.
 Leave Link  701 at Mon Feb 22 21:21:55 2021, MaxMem=   104857600 cpu:              24.3 elap:               0.8
 (Enter /sw/arch/RedHatEnterpriseServer7/EB_production/2019/software/Gaussian/g16.c01/l702.exe)
 L702 exits ... SP integral derivatives will be done elsewhere.
 Leave Link  702 at Mon Feb 22 21:21:55 2021, MaxMem=   104857600 cpu:               0.5 elap:               0.0
 (Enter /sw/arch/RedHatEnterpriseServer7/EB_production/2019/software/Gaussian/g16.c01/l703.exe)
 Integral derivatives from FoFJK, PRISM(SPDF).
 Compute integral first derivatives, UseDBF=F ICtDFT=           0.
 Calling FoFJK, ICntrl=      2527 FMM=F ISym2X=0 I1Cent= 0 IOpClX= 0 NMat=1 NMatS=1 NMatT=0.
 FoFJK:  IHMeth= 1 ICntrl=    2527 DoSepK=F KAlg= 0 I1Cent=           0 FoldK=F
 IRaf=         0 NMat=       1 IRICut=       1 DoRegI=T DoRafI=F ISym2E= 0 IDoP0=0 IntGTp=1.
 FoFCou: FMM=F IPFlag=           0 FMFlag=      100000 FMFlg1=         800
         NFxFlg=           0 DoJE=F BraDBF=F KetDBF=F FulRan=T
         wScrn=  0.000000 ICntrl=      2527 IOpCl=  0 I1Cent=           0 NGrid=           0
         NMat0=    1 NMatS0=      1 NMatT0=    0 NMatD0=    1 NMtDS0=    0 NMtDT0=    0
 Symmetry not used in FoFCou.
 Leave Link  703 at Mon Feb 22 21:21:57 2021, MaxMem=   104857600 cpu:              57.2 elap:               1.9
 (Enter /sw/arch/RedHatEnterpriseServer7/EB_production/2019/software/Gaussian/g16.c01/l716.exe)
 Dipole        =-1.43645782D+00-8.40737977D-01-1.17466789D-01
 ***** Axes restored to original set *****
 -------------------------------------------------------------------
 Center     Atomic                   Forces (Hartrees/Bohr)
 Number     Number              X              Y              Z
 -------------------------------------------------------------------
      1        8          -0.008256525    0.002623186   -0.000397882
      2        6           0.096593275   -0.040307627    0.007389742
      3        8          -0.029393490    0.033078945   -0.013547457
      4        6          -0.008625181   -0.036120897    0.015955571
      5        6          -0.008505363    0.054044548   -0.025019322
      6        6          -0.044410476   -0.002870689    0.005856264
      7        6          -0.042821066    0.029563462   -0.025511523
      8        6           0.023662241    0.042401783   -0.038987715
      9        6           0.056230350    0.004221408   -0.007644496
     10        6           0.045582611   -0.033424571    0.027795447
     11        6          -0.025695687   -0.036440546    0.037957389
     12        1          -0.003833290   -0.016904533    0.010099350
     13        1          -0.045650768    0.071998762   -0.027774455
     14        1           0.046189677   -0.066156212    0.028304198
     15        1           0.036357333   -0.031413582    0.025004170
     16        1          -0.017443638   -0.038025039    0.035637117
     17        1          -0.054506007   -0.005779448    0.008956550
     18        1          -0.034900066    0.032419723   -0.027250720
     19        1           0.019426071    0.037091326   -0.036822227
 -------------------------------------------------------------------
 Cartesian Forces:  Max     0.096593275 RMS     0.034862465
 Leave Link  716 at Mon Feb 22 21:21:57 2021, MaxMem=   104857600 cpu:               0.8 elap:               0.1
 (Enter /sw/arch/RedHatEnterpriseServer7/EB_production/2019/software/Gaussian/g16.c01/l103.exe)

 GradGradGradGradGradGradGradGradGradGradGradGradGradGradGradGradGradGrad
 Berny optimization.
 FormGI is forming the generalized inverse of G from B-inverse, IUseBI=4.
 Internal  Forces:  Max     0.089651174 RMS     0.021395598
 Search for a local minimum.
 Step number   1 out of a maximum of   95
 All quantities printed in internal units (Hartrees-Bohrs-Radians)
 RMS Force = .21396D-01 SwitMx=.10000D-02 MixMth= 1
 Mixed Optimization -- RFO/linear search
 Second derivative matrix not updated -- first step.
 ITU=  0
     Eigenvalues ---    0.01828   0.01889   0.01896   0.01913   0.01963
     Eigenvalues ---    0.02006   0.02015   0.02022   0.02032   0.02052
     Eigenvalues ---    0.02280   0.02285   0.02295   0.02416   0.02538
     Eigenvalues ---    0.02778   0.15998   0.16000   0.16000   0.16000
     Eigenvalues ---    0.16000   0.16000   0.16000   0.16000   0.22000
     Eigenvalues ---    0.22000   0.22000   0.22000   0.23458   0.24991
     Eigenvalues ---    0.25000   0.25000   0.39735   0.39957   0.42885
     Eigenvalues ---    0.43690   0.43954   0.43966   0.43980   0.44020
     Eigenvalues ---    0.44053   0.44424   0.44837   0.45159   0.48108
     Eigenvalues ---    0.48464   0.49313   0.51397   0.54102   0.55478
     Eigenvalues ---    0.81929
 RFO step:  Lambda=-7.76344754D-02 EMin= 1.82755005D-02
 Linear search not attempted -- first point.
 Maximum step size (   0.300) exceeded in Quadratic search.
    -- Step size scaled by   0.739
 Iteration  1 RMS(Cart)=  0.03366274 RMS(Int)=  0.00059370
 Iteration  2 RMS(Cart)=  0.00097756 RMS(Int)=  0.00000502
 Iteration  3 RMS(Cart)=  0.00000014 RMS(Int)=  0.00000501
 ITry= 1 IFail=0 DXMaxC= 1.12D-01 DCOld= 1.00D+10 DXMaxT= 3.00D-01 DXLimC= 3.00D+00 Rises=F
 Variable       Old X    -DE/DX   Delta X   Delta X   Delta X     New X
                                 (Linear)    (Quad)   (Total)
    R1        2.36892  -0.00707   0.00000  -0.00582  -0.00582   2.36309
    R2        2.55939   0.00029   0.00000   0.00035   0.00035   2.55973
    R3        2.61824   0.05371   0.00000   0.07105   0.07105   2.68929
    R4        1.85181  -0.00578   0.00000  -0.00722  -0.00722   1.84460
    R5        2.54709   0.01477   0.00000   0.01727   0.01727   2.56436
    R6        1.87265   0.08965   0.00000   0.11609   0.11609   1.98873
    R7        2.65092   0.03890   0.00000   0.05432   0.05432   2.70523
    R8        1.88148   0.08549   0.00000   0.11237   0.11237   1.99386
    R9        2.68541  -0.00318   0.00000  -0.00477  -0.00477   2.68065
   R10        2.68624  -0.00390   0.00000  -0.00582  -0.00582   2.68042
   R11        2.66007  -0.00882   0.00000  -0.01250  -0.01250   2.64757
   R12        1.93528   0.05405   0.00000   0.07763   0.07763   2.01291
   R13        2.65449  -0.00271   0.00000  -0.00374  -0.00374   2.65075
   R14        1.93178   0.05495   0.00000   0.07849   0.07849   2.01027
   R15        2.65289   0.00037   0.00000   0.00058   0.00058   2.65347
   R16        1.93130   0.05554   0.00000   0.07926   0.07926   2.01057
   R17        2.65894  -0.00989   0.00000  -0.01399  -0.01399   2.64495
   R18        1.93195   0.05487   0.00000   0.07839   0.07839   2.01035
   R19        1.93091   0.05563   0.00000   0.07935   0.07935   2.01026
    A1        2.04757   0.02377   0.00000   0.05363   0.05363   2.10120
    A2        2.14971   0.01186   0.00000   0.02677   0.02676   2.17648
    A3        2.08589  -0.03564   0.00000  -0.08038  -0.08039   2.00551
    A4        2.10062  -0.03557   0.00000  -0.11063  -0.11063   1.98999
    A5        2.17434  -0.01124   0.00000  -0.02790  -0.02790   2.14644
    A6        2.02129   0.00679   0.00000   0.01759   0.01759   2.03888
    A7        2.08755   0.00445   0.00000   0.01031   0.01031   2.09786
    A8        2.21292  -0.00206   0.00000  -0.00510  -0.00510   2.20782
    A9        2.03708   0.00138   0.00000   0.00363   0.00363   2.04071
   A10        2.03318   0.00068   0.00000   0.00146   0.00146   2.03464
   A11        2.07341  -0.00091   0.00000  -0.00197  -0.00198   2.07144
   A12        2.16100  -0.00218   0.00000  -0.00486  -0.00486   2.15614
   A13        2.04850   0.00310   0.00000   0.00689   0.00689   2.05539
   A14        2.11866  -0.00117   0.00000  -0.00292  -0.00292   2.11574
   A15        2.10744  -0.00290   0.00000  -0.00936  -0.00937   2.09807
   A16        2.05708   0.00407   0.00000   0.01229   0.01229   2.06937
   A17        2.09442  -0.00026   0.00000  -0.00042  -0.00043   2.09399
   A18        2.09491  -0.00069   0.00000  -0.00234  -0.00234   2.09258
   A19        2.09385   0.00095   0.00000   0.00276   0.00276   2.09661
   A20        2.09103  -0.00020   0.00000  -0.00015  -0.00016   2.09088
   A21        2.09754  -0.00013   0.00000  -0.00065  -0.00065   2.09690
   A22        2.09461   0.00033   0.00000   0.00080   0.00080   2.09541
   A23        2.09671   0.00066   0.00000   0.00189   0.00189   2.09860
   A24        2.09360   0.00053   0.00000   0.00174   0.00174   2.09534
   A25        2.09286  -0.00120   0.00000  -0.00363  -0.00363   2.08923
   A26        2.11703  -0.00213   0.00000  -0.00529  -0.00529   2.11174
   A27        2.11937  -0.00250   0.00000  -0.00846  -0.00846   2.11091
   A28        2.04666   0.00464   0.00000   0.01374   0.01374   2.06040
    D1       -0.00402   0.00011   0.00000   0.00086   0.00087  -0.00315
    D2        3.14156  -0.00031   0.00000  -0.00228  -0.00229   3.13927
    D3       -0.06369   0.00025   0.00000   0.00183   0.00183  -0.06186
    D4        3.07452   0.00017   0.00000   0.00130   0.00131   3.07583
    D5        3.07367   0.00071   0.00000   0.00520   0.00520   3.07887
    D6       -0.07130   0.00064   0.00000   0.00468   0.00467  -0.06663
    D7       -3.11831  -0.00043   0.00000  -0.00303  -0.00303  -3.12134
    D8        0.02643  -0.00010   0.00000  -0.00063  -0.00063   0.02580
    D9        0.02678  -0.00035   0.00000  -0.00250  -0.00251   0.02428
   D10       -3.11166  -0.00002   0.00000  -0.00010  -0.00010  -3.11176
   D11       -2.86793  -0.00074   0.00000  -0.00569  -0.00570  -2.87363
   D12        0.29920  -0.00115   0.00000  -0.00859  -0.00859   0.29061
   D13        0.27052  -0.00107   0.00000  -0.00809  -0.00810   0.26243
   D14       -2.84554  -0.00148   0.00000  -0.01099  -0.01098  -2.85652
   D15       -3.12372  -0.00068   0.00000  -0.00531  -0.00531  -3.12903
   D16        0.01756  -0.00037   0.00000  -0.00290  -0.00291   0.01464
   D17       -0.00601  -0.00037   0.00000  -0.00276  -0.00276  -0.00877
   D18        3.13526  -0.00005   0.00000  -0.00035  -0.00036   3.13490
   D19        3.12096   0.00054   0.00000   0.00418   0.00417   3.12513
   D20       -0.00300   0.00056   0.00000   0.00447   0.00446   0.00147
   D21        0.00457   0.00019   0.00000   0.00144   0.00143   0.00600
   D22       -3.11939   0.00021   0.00000   0.00173   0.00172  -3.11767
   D23        0.00299   0.00031   0.00000   0.00238   0.00238   0.00536
   D24        3.14154   0.00021   0.00000   0.00162   0.00162  -3.14002
   D25       -3.13830   0.00001   0.00000   0.00004   0.00002  -3.13828
   D26        0.00026  -0.00010   0.00000  -0.00072  -0.00074  -0.00048
   D27        0.00170  -0.00009   0.00000  -0.00064  -0.00064   0.00106
   D28        3.14135  -0.00028   0.00000  -0.00206  -0.00206   3.13929
   D29       -3.13686   0.00002   0.00000   0.00014   0.00013  -3.13673
   D30        0.00279  -0.00017   0.00000  -0.00128  -0.00129   0.00150
   D31       -0.00313  -0.00009   0.00000  -0.00067  -0.00067  -0.00379
   D32        3.13284  -0.00016   0.00000  -0.00114  -0.00114   3.13171
   D33        3.14041   0.00010   0.00000   0.00075   0.00075   3.14116
   D34       -0.00680   0.00003   0.00000   0.00028   0.00028  -0.00652
   D35       -0.00009   0.00004   0.00000   0.00025   0.00025   0.00016
   D36        3.12458  -0.00005   0.00000  -0.00024  -0.00024   3.12434
   D37       -3.13606   0.00010   0.00000   0.00070   0.00070  -3.13536
   D38       -0.01140   0.00001   0.00000   0.00022   0.00021  -0.01119
         Item               Value     Threshold  Converged?
 Maximum Force            0.089651     0.000450     NO 
 RMS     Force            0.021396     0.000300     NO 
 Maximum Displacement     0.111924     0.001800     NO 
 RMS     Displacement     0.033801     0.001200     NO 
 Predicted change in Energy=-3.968605D-02
 Lowest energy point so far.  Saving SCF results.
 GradGradGradGradGradGradGradGradGradGradGradGradGradGradGradGradGradGrad

 Leave Link  103 at Mon Feb 22 21:21:58 2021, MaxMem=   104857600 cpu:               3.4 elap:               0.2
 (Enter /sw/arch/RedHatEnterpriseServer7/EB_production/2019/software/Gaussian/g16.c01/l202.exe)
                          Input orientation:                          
 ---------------------------------------------------------------------
 Center     Atomic      Atomic             Coordinates (Angstroms)
 Number     Number       Type             X           Y           Z
 ---------------------------------------------------------------------
      1          8           0        2.213397   -3.237576    0.354816
      2          6           0        1.445684   -2.333601   -0.041648
      3          8           0        1.936218   -1.261823   -0.709093
      4          6           0        0.035740   -2.325589    0.151333
      5          6           0       -0.635768   -3.350025    0.735336
      6          6           0       -2.049450   -3.431417    0.945590
      7          6           0       -2.548284   -4.402209    1.851668
      8          6           0       -3.922833   -4.538227    2.086194
      9          6           0       -4.833814   -3.709725    1.414394
     10          6           0       -4.363441   -2.746747    0.507160
     11          6           0       -2.990126   -2.608362    0.275058
     12          1           0        2.904358   -1.279570   -0.832374
     13          1           0       -0.484038   -1.472682   -0.180194
     14          1           0       -0.060435   -4.167349    1.073294
     15          1           0       -1.876787   -5.045103    2.371669
     16          1           0       -4.273716   -5.272508    2.771290
     17          1           0       -5.878339   -3.812154    1.588914
     18          1           0       -5.051244   -2.122362   -0.011303
     19          1           0       -2.673142   -1.878702   -0.431165
 ---------------------------------------------------------------------
                    Distance matrix (angstroms):
                    1          2          3          4          5
     1  O    0.000000
     2  C    1.250495   0.000000
     3  O    2.261047   1.354553   0.000000
     4  C    2.369667   1.423113   2.341740   0.000000
     5  C    2.876661   2.443208   3.614148   1.357000   0.000000
     6  C    4.307953   3.794180   4.830182   2.490325   1.431548
     7  C    5.125480   4.880119   6.044028   3.725677   2.451735
     8  C    6.507126   6.181349   7.271652   4.930492   3.747191
     9  C    7.142046   6.591349   7.505648   5.217635   4.267798
    10  C    6.596887   5.849600   6.585588   4.433596   3.783062
    11  C    5.242034   4.455582   5.201017   3.041567   2.510960
    12  H    2.391785   1.965695   0.976119   3.207929   4.390556
    13  H    3.267606   2.117594   2.486330   1.052392   2.094190
    14  H    2.559493   2.621855   3.950393   2.061878   1.055103
    15  H    4.905554   4.920890   6.192197   3.997926   2.662894
    16  H    7.215465   7.018642   8.170798   5.841226   4.590830
    17  H    8.205445   7.647625   8.535357   6.265209   5.331671
    18  H    7.358856   6.500432   7.074748   5.093639   4.643389
    19  H    5.132502   4.162137   4.658753   2.806609   2.770633
                    6          7          8          9         10
     6  C    0.000000
     7  C    1.418538   0.000000
     8  C    2.456740   1.401032   0.000000
     9  C    2.837237   2.427837   1.402718   0.000000
    10  C    2.452661   2.800545   2.428350   1.404155   0.000000
    11  C    1.418416   2.428747   2.806161   2.431106   1.399649
    12  H    5.686107   6.832734   8.108479   8.416230   7.534445
    13  H    2.748553   4.119672   5.134139   5.144669   4.140707
    14  H    2.124638   2.617330   4.010192   4.807382   4.566670
    15  H    2.160439   1.065186   2.127139   3.382842   3.865525
    16  H    3.416161   2.140150   1.063788   2.144101   3.393200
    17  H    3.901181   3.392119   2.144405   1.063946   2.144808
    18  H    3.411750   3.864347   3.392523   2.144670   1.063830
    19  H    2.166880   3.405144   3.869354   3.380420   2.119213
                   11         12         13         14         15
    11  C    0.000000
    12  H    6.143047   0.000000
    13  H    2.788816   3.455989   0.000000
    14  H    3.413314   4.556406   3.001983   0.000000
    15  H    3.401912   6.877825   4.605859   2.399034   0.000000
    16  H    3.869942   8.969654   6.124671   4.675073   2.440631
    17  H    3.393686   9.455812   6.140142   5.851498   4.259728
    18  H    2.136915   8.042142   4.616273   5.501500   4.929315
    19  H    1.063783   5.623916   2.240538   3.785174   4.303040
                   16         17         18         19
    16  H    0.000000
    17  H    2.470923   0.000000
    18  H    4.274435   2.469854   0.000000
    19  H    4.933100   4.253498   2.427143   0.000000
 Stoichiometry    C9H8O2
 Framework group  C1[X(C9H8O2)]
 Deg. of freedom    51
 Full point group                 C1      NOp   1
 RotChk:  IX=0 Diff= 4.00D-03
 Largest Abelian subgroup         C1      NOp   1
 Largest concise Abelian subgroup C1      NOp   1
                         Standard orientation:                         
 ---------------------------------------------------------------------
 Center     Atomic      Atomic             Coordinates (Angstroms)
 Number     Number       Type             X           Y           Z
 ---------------------------------------------------------------------
      1          8           0        3.346149    1.192015    0.174510
      2          6           0        2.944869    0.022765   -0.014083
      3          8           0        3.831343   -0.992230   -0.151054
      4          6           0        1.577049   -0.360207   -0.101553
      5          6           0        0.552839    0.510723    0.082636
      6          6           0       -0.844660    0.203980    0.035338
      7          6           0       -1.772484    1.270976   -0.078289
      8          6           0       -3.152619    1.032574   -0.114075
      9          6           0       -3.639490   -0.280280   -0.030484
     10          6           0       -2.739998   -1.351729    0.090200
     11          6           0       -1.361032   -1.114213    0.122692
     12          1           0        4.765295   -0.714859   -0.090990
     13          1           0        1.379927   -1.369811   -0.323750
     14          1           0        0.809236    1.515862    0.275503
     15          1           0       -1.427575    2.276864   -0.140330
     16          1           0       -3.829558    1.848548   -0.201165
     17          1           0       -4.687126   -0.464191   -0.055291
     18          1           0       -3.105123   -2.348284    0.162968
     19          1           0       -0.711860   -1.949947    0.231121
 ---------------------------------------------------------------------
 Rotational constants (GHZ):           3.6485229           0.4747279           0.4214201
 Leave Link  202 at Mon Feb 22 21:21:58 2021, MaxMem=   104857600 cpu:               0.3 elap:               0.0
 (Enter /sw/arch/RedHatEnterpriseServer7/EB_production/2019/software/Gaussian/g16.c01/l301.exe)
 Standard basis: TZVP (5D, 7F)
 Ernie: Thresh=  0.10000D-02 Tol=  0.10000D-05 Strict=F.
 There are   268 symmetry adapted cartesian basis functions of A   symmetry.
 There are   257 symmetry adapted basis functions of A   symmetry.
   257 basis functions,   449 primitive gaussians,   268 cartesian basis functions
    39 alpha electrons       39 beta electrons
       nuclear repulsion energy       528.3334875767 Hartrees.
 IExCor=  404 DFT=T Ex=B Corr=P86 ExCW=0 ScaHFX=  0.000000
 ScaDFX=  1.000000  1.000000  1.000000  1.000000 ScalE2=  1.000000  1.000000
 IRadAn=      5 IRanWt=     -1 IRanGd=            0 ICorTp=0 IEmpDi=131
 NAtoms=   19 NActive=   19 NUniq=   19 SFac= 1.00D+00 NAtFMM=   60 NAOKFM=F Big=F
 Integral buffers will be    131072 words long.
 Raffenetti 2 integral format.
 Two-electron integral symmetry is turned on.
 R6Disp:  Grimme-D3 Dispersion energy=       -0.0144346591 Hartrees.
 Nuclear repulsion after empirical dispersion term =      528.3190529175 Hartrees.
 ------------------------------------------------------------------------------
 Polarizable Continuum Model (PCM)
 =================================
 Model                : PCM.
 Atomic radii         : UFF (Universal Force Field).
 Polarization charges : Total charges.
 Charge compensation  : None.
 Solution method      : On-the-fly selection.
 Cavity type          : Scaled VdW (van der Waals Surface) (Alpha=1.100).
 Cavity algorithm     : GePol (No added spheres)
                        Default sphere list used, NSphG=   19.
                        Lebedev-Laikov grids with approx.  5.0 points / Ang**2.
                        Smoothing algorithm: York/Karplus (Gamma=1.0000).
                        Polarization charges: spherical gaussians, with
                                              point-specific exponents (IZeta= 3).
                        Self-potential: point-specific (ISelfS= 7).
                        Self-field    : sphere-specific E.n sum rule (ISelfD= 2).
 1st derivatives      : Analytical E(r).r(x)/FMM algorithm (CHGder, D1EAlg=3).
                        Cavity 1st derivative terms included.
 Solvent              : Water, Eps=  78.355300 Eps(inf)=   1.777849
 ------------------------------------------------------------------------------
 Spheres list:
 ISph  on   Nord     Re0    Alpha      Xe            Ye            Ze
    1   O      1    1.7500  1.100      3.346149      1.192015      0.174510
    2   C      2    1.9255  1.100      2.944869      0.022765     -0.014083
[...]
    8   C      8    2.0000  1.000     -3.154511      1.053451      0.000041
    9   C      9    2.0000  1.000     -3.656596     -0.253272      0.000022
   10   C     10    2.0000  1.000     -2.769657     -1.341471     -0.000027
   11   C     11    2.0000  1.000     -1.392448     -1.127494     -0.000052
   12   H     12    1.3000  1.000      4.759548     -0.630190      0.000007
   13   H     13    1.3000  1.000      1.429447     -1.491922      0.000172
   14   H     14    1.3000  1.000      0.832979      1.538021     -0.000120
   15   H     15    1.3000  1.000     -1.384432      2.291046      0.000025
   16   H     16    1.3000  1.000     -3.838602      1.904276      0.000079
   17   H     17    1.3000  1.000     -4.734535     -0.426870      0.000039
   18   H     18    1.3000  1.000     -3.158942     -2.361557     -0.000053
   19   H     19    1.3000  1.000     -0.719436     -1.986814     -0.000097
 ------------------------------------------------------------------------------
 One-electron integrals computed using PRISM.
 PrsmSu:  requested number of processors reduced to:  28 ShMem   1 Linda.
 NBasis=   257 RedAO= T EigKep=  9.80D-06  NBF=   257
 NBsUse=   257 1.00D-06 EigRej= -1.00D+00 NBFU=   257
 Initial guess from the checkpoint file:  "WBYWAXJHAXSJNI-VOTSOKGWSA-N.chk"
 B after Tr=    -0.000000    0.000000    0.000000
         Rot=    1.000000   -0.000000    0.000000    0.000000 Ang=   0.00 deg.
 Requested convergence on RMS density matrix=1.00D-08 within 128 cycles.
 Requested convergence on MAX density matrix=1.00D-06.
 Requested convergence on             energy=1.00D-06.
 No special actions if energy rises.
 Inv3:  Mode=1 IEnd=     5938947.
 Iteration    1 A*A^-1 deviation from unit magnitude is 3.33D-15 for    109.
 Iteration    1 A*A^-1 deviation from orthogonality  is 2.05D-15 for    927    757.
 Iteration    1 A^-1*A deviation from unit magnitude is 3.11D-15 for    366.
 Iteration    1 A^-1*A deviation from orthogonality  is 1.57D-15 for   1311    428.
 Error on nuclear    polarization charges =  0.02284
 Error on electronic polarization charges = -0.05284
 SCF Done:  E(RB-P86) =  -498.414198898     A.U. after   11 cycles
            NFock= 11  Conv=0.56D-08     -V/T= 2.0045
 --------------------------------------------------------------------
 Variational C-PCM results
 =========================
 <psi(f)|   H    |psi(f)>                     (a.u.) =    -498.395576
 <psi(f)|H+V(f)/2|psi(f)>                     (a.u.) =    -498.414199
 Total free energy in solution:
 - with all non electrostatic terms           (a.u.) =    -498.401410
 --------------------------------------------------------------------
 (Polarized solute)-Solvent               (kcal/mol) =     -11.69
 --------------------------------------------------------------------
 Cavitation energy                        (kcal/mol) =      24.26
 Dispersion energy                        (kcal/mol) =     -17.65
 Repulsion energy                         (kcal/mol) =       1.42
 Total non electrostatic                  (kcal/mol) =       8.03
 --------------------------------------------------------------------
 Partition over spheres:
 Sphere  on Atom  Surface  Charge   GEl     GCav    GDR
    1      O1      19.61   0.250   -4.43    2.44   -1.64
    2      C2      10.66  -0.021   -0.03    1.25   -0.75
    3      O3      15.94   0.097   -0.99    1.98   -1.43
    4      C4      11.98   0.010   -0.11    1.41   -0.85
    5      C5      11.35   0.006   -0.08    1.33   -0.82
    6      C6       5.73   0.016   -0.06    0.67   -0.35
    7      C7      12.88   0.018   -0.15    1.51   -0.96
    8      C8      14.01   0.024   -0.14    1.65   -1.02
    9      C9      14.05   0.021   -0.13    1.65   -1.02
   10      C10     13.97   0.023   -0.13    1.64   -1.03
   11      C11     12.57   0.018   -0.13    1.48   -0.93
   12      H12      8.43  -0.148   -2.26    1.19   -0.87
   13      H13      5.73  -0.048   -0.47    0.81   -0.48
   14      H14      5.89  -0.042   -0.15    0.83   -0.44
   15      H15      6.40  -0.045   -0.44    0.90   -0.71
   16      H16      6.43  -0.044   -0.46    0.91   -0.80
   17      H17      6.44  -0.045   -0.49    0.91   -0.79
   18      H18      6.44  -0.044   -0.48    0.91   -0.80
   19      H19      5.61  -0.045   -0.56    0.79   -0.55
 --------------------------------------------------------------------
 - cavitation energy not included in the total energy.
 - dispersion energy not included in the total energy.
 - repulsion  energy not included in the total energy.
 After PCM corrections, the energy is  -498.414198898     a.u.
 --------------------------------------------------------------------
 Writing COSMO formatted file "WBYWAXJHAXSJNI-VOTSOKGWSA-N.cosmo"
 Recomputed dielectric energy= -0.018671 old= -0.018623 diff=-4.82D-05

 **********************************************************************

            Population analysis using the SCF Density.

 **********************************************************************

 Orbital symmetries:
       Occupied  (A) (A) (A) (A) (A) (A) (A) (A) (A) (A) (A) (A)
                 (A) (A) (A) (A) (A) (A) (A) (A) (A) (A) (A) (A)
                 (A) (A) (A) (A) (A) (A) (A) (A) (A) (A) (A) (A)
                 (A) (A) (A)
       Virtual   (A) (A) (A) (A) (A) (A) (A) (A) (A) (A) (A) (A)
                 (A) (A) (A) (A) (A) (A) (A) (A) (A) (A) (A) (A)
                 (A) (A) (A) (A) (A) (A) (A) (A) (A) (A) (A) (A)
                 (A) (A) (A) (A) (A) (A) (A) (A) (A) (A) (A) (A)
                 (A) (A) (A) (A) (A) (A) (A) (A) (A) (A) (A) (A)
                 (A) (A) (A) (A) (A) (A) (A) (A) (A) (A) (A) (A)
                 (A) (A) (A) (A) (A) (A) (A) (A) (A) (A) (A) (A)
                 (A) (A) (A) (A) (A) (A) (A) (A) (A) (A) (A) (A)
                 (A) (A) (A) (A) (A) (A) (A) (A) (A) (A) (A) (A)
                 (A) (A) (A) (A) (A) (A) (A) (A) (A) (A) (A) (A)
                 (A) (A) (A) (A) (A) (A) (A) (A) (A) (A) (A) (A)
                 (A) (A) (A) (A) (A) (A) (A) (A) (A) (A) (A) (A)
                 (A) (A) (A) (A) (A) (A) (A) (A) (A) (A) (A) (A)
                 (A) (A) (A) (A) (A) (A) (A) (A) (A) (A) (A) (A)
                 (A) (A) (A) (A) (A) (A) (A) (A) (A) (A) (A) (A)
                 (A) (A) (A) (A) (A) (A) (A) (A) (A) (A) (A) (A)
                 (A) (A) (A) (A) (A) (A) (A) (A) (A) (A) (A) (A)
                 (A) (A) (A) (A) (A) (A) (A) (A) (A) (A) (A) (A)
                 (A) (A)
 The electronic state is 1-A.
 Alpha  occ. eigenvalues --  -18.81864 -18.76580 -10.03175  -9.92998  -9.92633
 Alpha  occ. eigenvalues --   -9.91696  -9.91434  -9.91403  -9.91322  -9.91130
 Alpha  occ. eigenvalues --   -9.91067  -1.01804  -0.93541  -0.79734  -0.74260
 Alpha  occ. eigenvalues --   -0.68980  -0.68614  -0.61513  -0.56265  -0.55186
 Alpha  occ. eigenvalues --   -0.50573  -0.47691  -0.45673  -0.44077  -0.41560
 Alpha  occ. eigenvalues --   -0.41252  -0.40786  -0.38713  -0.38261  -0.36383
 Alpha  occ. eigenvalues --   -0.35328  -0.34431  -0.31749  -0.30710  -0.29497
 Alpha  occ. eigenvalues --   -0.28540  -0.25059  -0.24439  -0.22497
 Alpha virt. eigenvalues --   -0.11175  -0.05433  -0.03256   0.02895   0.03374
 Alpha virt. eigenvalues --    0.04230   0.05301   0.07470   0.08753   0.09377
 Alpha virt. eigenvalues --    0.09479   0.10938   0.11482   0.12962   0.14183
 Alpha virt. eigenvalues --    0.16242   0.16886   0.16979   0.17523   0.19379
 Alpha virt. eigenvalues --    0.19496   0.20210   0.20740   0.21577   0.22055
 Alpha virt. eigenvalues --    0.22923   0.23351   0.23923   0.25793   0.26604
 Alpha virt. eigenvalues --    0.26637   0.28731   0.29433   0.29443   0.30901
 Alpha virt. eigenvalues --    0.32351   0.33442   0.33878   0.34634   0.34988
 Alpha virt. eigenvalues --    0.36501   0.37858   0.38564   0.39318   0.39662
 Alpha virt. eigenvalues --    0.40669   0.40681   0.42593   0.42964   0.43783
 Alpha virt. eigenvalues --    0.44806   0.46009   0.46235   0.46832   0.47358
 Alpha virt. eigenvalues --    0.49847   0.50994   0.53628   0.54703   0.54895
 Alpha virt. eigenvalues --    0.55939   0.57430   0.60086   0.61610   0.62703
 Alpha virt. eigenvalues --    0.64990   0.65929   0.66276   0.70751   0.73226
 Alpha virt. eigenvalues --    0.74167   0.77372   0.78816   0.82121   0.86732
 Alpha virt. eigenvalues --    0.90882   1.08338   1.10303   1.15453   1.17285
 Alpha virt. eigenvalues --    1.17803   1.18341   1.18965   1.18980   1.20849
 Alpha virt. eigenvalues --    1.21152   1.22140   1.23794   1.23831   1.23833
 Alpha virt. eigenvalues --    1.24551   1.26685   1.29221   1.31204   1.32480
 Alpha virt. eigenvalues --    1.33702   1.33774   1.35163   1.36354   1.36990
 Alpha virt. eigenvalues --    1.37357   1.37434   1.39327   1.39607   1.40548
 Alpha virt. eigenvalues --    1.41492   1.41677   1.42910   1.44886   1.45840
 Alpha virt. eigenvalues --    1.46515   1.48407   1.49621   1.51896   1.52991
 Alpha virt. eigenvalues --    1.54901   1.60589   1.64457   1.67240   1.69214
 Alpha virt. eigenvalues --    1.69945   1.71288   1.71535   1.74673   1.75179
 Alpha virt. eigenvalues --    1.78545   1.79259   1.79913   1.80742   1.81172
 Alpha virt. eigenvalues --    1.82188   1.83465   1.84655   1.87407   1.88325
 Alpha virt. eigenvalues --    1.90562   1.91611   1.92142   1.92976   1.96627
 Alpha virt. eigenvalues --    1.99872   2.02493   2.06709   2.12183   2.14913
 Alpha virt. eigenvalues --    2.15504   2.18540   2.19478   2.19691   2.21015
 Alpha virt. eigenvalues --    2.21950   2.25027   2.25391   2.27292   2.31147
 Alpha virt. eigenvalues --    2.38578   2.38905   2.39279   2.42208   2.42649
 Alpha virt. eigenvalues --    2.45281   2.47039   2.48085   2.50929   2.52387
 Alpha virt. eigenvalues --    2.53562   2.55331   2.55475   2.55838   2.57681
 Alpha virt. eigenvalues --    2.57974   2.60003   2.60965   2.61939   2.64368
 Alpha virt. eigenvalues --    2.67424   2.69831   2.71227   2.75419   2.80041
 Alpha virt. eigenvalues --    2.84273   2.84538   2.89017   2.92398   2.93317
 Alpha virt. eigenvalues --    2.95247   2.98076   2.98694   3.01470   3.02675
 Alpha virt. eigenvalues --    3.05387   3.07192   3.08423   3.10344   3.11165
 Alpha virt. eigenvalues --    3.15574   3.16981   3.22399   3.25793   3.31315
 Alpha virt. eigenvalues --    3.36540   3.41793   3.49983   3.68808   3.81340
 Alpha virt. eigenvalues --    4.08419   4.18649  20.97763  21.36334  21.54917
 Alpha virt. eigenvalues --   21.56667  21.72281  21.78025  21.80887  21.88972
 Alpha virt. eigenvalues --   21.95191  43.06455  43.14835
          Condensed to atoms (all electrons):
               1          2          3          4          5          6
     1  O    7.978757   0.642382  -0.103078  -0.210482   0.035994   0.004823
     2  C    0.642382   4.819508   0.353767  -0.015026   0.045417   0.016931
     3  O   -0.103078   0.353767   7.904693  -0.179352   0.022274  -0.000574
     4  C   -0.210482  -0.015026  -0.179352   6.039070   0.140158   0.007675
     5  C    0.035994   0.045417   0.022274   0.140158   5.676714   0.134475
     6  C    0.004823   0.016931  -0.000574   0.007675   0.134475   5.308976
     7  C   -0.000320  -0.003103  -0.000003   0.042327  -0.136165   0.366789
     8  C    0.000003   0.000245  -0.000000  -0.005760   0.033168   0.028362
     9  C   -0.000000   0.000046   0.000000   0.000105   0.000585  -0.096643
    10  C   -0.000006  -0.000629  -0.000003   0.001931   0.035698   0.014134
    11  C    0.000039   0.001750   0.000121  -0.026165  -0.103064   0.345312
    12  H    0.002879  -0.018615   0.284867   0.020270  -0.002278   0.000056
    13  H    0.003669  -0.018901   0.005477   0.375141  -0.023259  -0.021881
    14  H    0.023908  -0.011708   0.001629  -0.073810   0.398631  -0.021198
    15  H   -0.000058  -0.000311  -0.000000   0.003804  -0.017773  -0.073577
    16  H    0.000000  -0.000001   0.000000   0.000057  -0.001244   0.013318
    17  H    0.000000   0.000000   0.000000   0.000003  -0.000086  -0.004203
    18  H    0.000000  -0.000005  -0.000000   0.000218  -0.001667   0.014051
    19  H    0.000003   0.000556  -0.000060   0.013235  -0.041765  -0.033901
               7          8          9         10         11         12
     1  O   -0.000320   0.000003  -0.000000  -0.000006   0.000039   0.002879
     2  C   -0.003103   0.000245   0.000046  -0.000629   0.001750  -0.018615
     3  O   -0.000003  -0.000000   0.000000  -0.000003   0.000121   0.284867
     4  C    0.042327  -0.005760   0.000105   0.001931  -0.026165   0.020270
     5  C   -0.136165   0.033168   0.000585   0.035698  -0.103064  -0.002278
     6  C    0.366789   0.028362  -0.096643   0.014134   0.345312   0.000056
     7  C    5.332294   0.306677  -0.007368  -0.112462  -0.047403  -0.000003
     8  C    0.306677   5.161213   0.374181   0.014092  -0.110160   0.000000
     9  C   -0.007368   0.374181   5.142446   0.377834  -0.002408   0.000000
    10  C   -0.112462   0.014092   0.377834   5.138536   0.330723   0.000000
    11  C   -0.047403  -0.110160  -0.002408   0.330723   5.298643   0.000005
    12  H   -0.000003   0.000000   0.000000   0.000000   0.000005   0.384181
    13  H    0.001456  -0.000049  -0.000014   0.000822   0.004814  -0.000318
    14  H   -0.011351   0.002167   0.000007  -0.000602   0.014629  -0.000044
    15  H    0.444983  -0.053560   0.013867  -0.003801   0.016071  -0.000000
    16  H   -0.052897   0.429403  -0.058455   0.013573  -0.001905  -0.000000
    17  H    0.017418  -0.061630   0.433064  -0.060078   0.018383  -0.000000
    18  H   -0.000142   0.012010  -0.058003   0.423790  -0.047953  -0.000000
    19  H    0.012824  -0.001977   0.010917  -0.042070   0.413842   0.000002
              13         14         15         16         17         18
     1  O    0.003669   0.023908  -0.000058   0.000000   0.000000   0.000000
     2  C   -0.018901  -0.011708  -0.000311  -0.000001   0.000000  -0.000005
     3  O    0.005477   0.001629  -0.000000   0.000000   0.000000  -0.000000
     4  C    0.375141  -0.073810   0.003804   0.000057   0.000003   0.000218
     5  C   -0.023259   0.398631  -0.017773  -0.001244  -0.000086  -0.001667
     6  C   -0.021881  -0.021198  -0.073577   0.013318  -0.004203   0.014051
     7  C    0.001456  -0.011351   0.444983  -0.052897   0.017418  -0.000142
     8  C   -0.000049   0.002167  -0.053560   0.429403  -0.061630   0.012010
     9  C   -0.000014   0.000007   0.013867  -0.058455   0.433064  -0.058003
    10  C    0.000822  -0.000602  -0.003801   0.013573  -0.060078   0.423790
    11  C    0.004814   0.014629   0.016071  -0.001905   0.018383  -0.047953
    12  H   -0.000318  -0.000044  -0.000000  -0.000000  -0.000000  -0.000000
    13  H    0.473796   0.003381   0.000005   0.000001  -0.000000   0.000010
    14  H    0.003381   0.506638   0.002847   0.000009  -0.000000   0.000003
    15  H    0.000005   0.002847   0.517799  -0.005832  -0.000139   0.000040
    16  H    0.000001   0.000009  -0.005832   0.517945  -0.006475  -0.000155
    17  H   -0.000000  -0.000000  -0.000139  -0.006475   0.515340  -0.006239
    18  H    0.000010   0.000003   0.000040  -0.000155  -0.006239   0.517587
    19  H    0.004341   0.000320  -0.000017   0.000033  -0.000179  -0.004952
              19
     1  O    0.000003
     2  C    0.000556
     3  O   -0.000060
     4  C    0.013235
     5  C   -0.041765
     6  C   -0.033901
     7  C    0.012824
     8  C   -0.001977
     9  C    0.010917
    10  C   -0.042070
    11  C    0.413842
    12  H    0.000002
    13  H    0.004341
    14  H    0.000320
    15  H   -0.000017
    16  H    0.000033
    17  H   -0.000179
    18  H   -0.004952
    19  H    0.506839
 Mulliken charges:
               1
     1  O   -0.378513
     2  C    0.187697
     3  O   -0.289758
     4  C   -0.133399
     5  C   -0.195814
     6  C   -0.002925
     7  C   -0.153551
     8  C   -0.128384
     9  C   -0.130161
    10  C   -0.131482
    11  C   -0.105274
    12  H    0.328999
    13  H    0.191511
    14  H    0.164545
    15  H    0.155651
    16  H    0.152624
    17  H    0.154819
    18  H    0.151406
    19  H    0.162009
 Sum of Mulliken charges =  -0.00000
 Mulliken charges with hydrogens summed into heavy atoms:
               1
     1  O   -0.378513
     2  C    0.187697
     3  O    0.039241
     4  C    0.058112
     5  C   -0.031269
     6  C   -0.002925
     7  C    0.002100
     8  C    0.024240
     9  C    0.024658
    10  C    0.019924
    11  C    0.056736
 Electronic spatial extent (au):  <R**2>=           2481.4293
 Charge=             -0.0000 electrons
 Dipole moment (field-independent basis, Debye):
    X=             -3.0208    Y=             -1.8937    Z=              0.0012  Tot=              3.5653
 Quadrupole moment (field-independent basis, Debye-Ang):
   XX=            -52.9224   YY=            -61.4714   ZZ=            -68.3376
   XY=             -7.1513   XZ=             -0.0011   YZ=              0.0003
 Traceless Quadrupole moment (field-independent basis, Debye-Ang):
   XX=              7.9881   YY=             -0.5609   ZZ=             -7.4271
   XY=             -7.1513   XZ=             -0.0011   YZ=              0.0003
 Octapole moment (field-independent basis, Debye-Ang**2):
  XXX=             27.7608  YYY=             -4.3804  ZZZ=              0.0024  XYY=            -23.1830
  XXY=            -29.4586  XXZ=              0.0101  XZZ=             17.9980  YZZ=              0.3206
  YYZ=              0.0012  XYZ=             -0.0002
 Hexadecapole moment (field-independent basis, Debye-Ang**3):
 XXXX=          -2115.2756 YYYY=           -409.7867 ZZZZ=            -75.3142 XXXY=           -126.4112
 XXXZ=             -0.0121 YYYX=            -13.1532 YYYZ=              0.0012 ZZZX=             -0.0030
 ZZZY=             -0.0003 XXYY=           -559.2908 XXZZ=           -498.9485 YYZZ=            -94.0808
 XXYZ=              0.0047 YYXZ=             -0.0011 ZZXY=             -0.6793
 N-N= 5.257002165633D+02 E-N=-2.214126682209D+03  KE= 4.961626376156D+02
 Unable to Open any file for archive entry.
 1\1\GINC-TCN1745\SP\RBP86\TZVP\C9H8O2\ELENAA\22-Feb-2021\0\\# BP86/TZV
 P SCRF=COSMORS geom=CHECKPOINT guess=CHECKPOINT\\COSMO-file for #WBYWA
 XJHAXSJNI-VOTSOKGWSA-N\\0,1\O,0,2.2523075493,-3.1347102964,0.539057680
 6\C,0,1.4928104821,-2.3542431644,-0.0290923678\O,0,1.95119522,-1.34843
 85248,-0.8392279801\C,0,0.0235553556,-2.3460963652,0.0442422168\C,0,-0
 .633579855,-3.2610891676,0.794365638\C,0,-2.0757121622,-3.3937456406,0
 .9761992823\C,0,-2.5573205287,-4.4283153668,1.8099843911\C,0,-3.927082
 5722,-4.6030751163,2.0207344447\C,0,-4.8442911522,-3.7459142695,1.4013
 646658\C,0,-4.3825898514,-2.7131360448,0.5700769101\C,0,-3.0163267832,
 -2.5369983221,0.3584347692\H,0,2.9303597238,-1.4064679412,-0.847045288
 1\H,0,-0.4907306143,-1.5742317038,-0.5305759744\H,0,-0.0173187875,-3.9
 91839363,1.3315154599\H,0,-1.8427373729,-5.0984957392,2.294384223\H,0,
 -4.2792656395,-5.4082769641,2.6684231284\H,0,-5.9157487336,-3.87918614
 75,1.5635500894\H,0,-5.0960997826,-2.0433399737,0.0859335902\H,0,-2.67
 74444953,-1.7281298889,-0.2913848791\\Version=ES64L-G16RevC.01\State=1
 -A\HF=-498.4141989\RMSD=5.626e-09\Dipole=-1.3701921,0.2679492,-0.13539
 52\Quadrupole=1.7724674,-0.0179104,-1.7545569,4.6255686,-4.0062303,-4.
 5475579\PG=C01 [X(C9H8O2)]\\@
 The archive entry for this job was punched.


 CHILDREN YOU ARE VERY LITTLE,
 AND YOUR BONES ARE VERY BRITTLE;
 IF YOU WOULD GROW GREAT AND STATELY
 YOU MUST TRY TO WALK SEDATELY.
 YOU MUST STILL BE BRIGHT AND QUIET,
 AND CONTENT WITH SIMPLE DIET;
 AND REMAIN, THROUGH ALL BEWILD'RING
 INNOCENT AND HONEST CHILDREN.
     -- A CHILD'S GARDEN OF VERSE,
        ROBERT LOUIS STEVENSON
 Job cpu time:       0 days  0 hours  5 minutes 55.1 seconds.
 Elapsed time:       0 days  0 hours  0 minutes 11.6 seconds.
 File lengths (MBytes):  RWF=     57 Int=      0 D2E=      0 Chk=      9 Scr=      1
 Normal termination of Gaussian 16 at Mon Feb 22 21:25:00 2021.
