 Entering Gaussian System, Link 0=g16
 Input=WEEGYLXZBRQIMU-UHFFFAOYSA-N.gjf
 Output=WEEGYLXZBRQIMU-UHFFFAOYSA-N.log
 Initial command:
 /sw/arch/RedHatEnterpriseServer7/EB_production/2019/software/Gaussian/g16.c01/l1.exe "/scratch-local/elenaa.9715284/Gau-22945.inp" -scrdir="/scratch-local/elenaa.9715284/"
 Entering Link 1 = /sw/arch/RedHatEnterpriseServer7/EB_production/2019/software/Gaussian/g16.c01/l1.exe PID=     22946.
  
 Copyright (c) 1988-2019, Gaussian, Inc.  All Rights Reserved.
  
 This is part of the Gaussian(R) 16 program.  It is based on
 the Gaussian(R) 09 system (copyright 2009, Gaussian, Inc.),
 the Gaussian(R) 03 system (copyright 2003, Gaussian, Inc.),
 the Gaussian(R) 98 system (copyright 1998, Gaussian, Inc.),
 the Gaussian(R) 94 system (copyright 1995, Gaussian, Inc.),
 the Gaussian 92(TM) system (copyright 1992, Gaussian, Inc.),
 the Gaussian 90(TM) system (copyright 1990, Gaussian, Inc.),
 the Gaussian 88(TM) system (copyright 1988, Gaussian, Inc.),
 the Gaussian 86(TM) system (copyright 1986, Carnegie Mellon
 University), and the Gaussian 82(TM) system (copyright 1983,
 Carnegie Mellon University). Gaussian is a federally registered
 trademark of Gaussian, Inc.
  
 This software contains proprietary and confidential information,
 including trade secrets, belonging to Gaussian, Inc.
  
 This software is provided under written license and may be
 used, copied, transmitted, or stored only in accord with that
 written license.
  
 The following legend is applicable only to US Government
 contracts under FAR:
  
                    RESTRICTED RIGHTS LEGEND
  
 Use, reproduction and disclosure by the US Government is
 subject to restrictions as set forth in subparagraphs (a)
 and (c) of the Commercial Computer Software - Restricted
 Rights clause in FAR 52.227-19.
  
 Gaussian, Inc.
 340 Quinnipiac St., Bldg. 40, Wallingford CT 06492
  
  
 ---------------------------------------------------------------
 Warning -- This program may not be used in any manner that
 competes with the business of Gaussian, Inc. or will provide
 assistance to any competitor of Gaussian, Inc.  The licensee
 of this program is prohibited from giving any competitor of
 Gaussian, Inc. access to this program.  By using this program,
 the user acknowledges that Gaussian, Inc. is engaged in the
 business of creating and licensing software in the field of
 computational chemistry and represents and warrants to the
 licensee that it is not a competitor of Gaussian, Inc. and that
 it will not use this program in any manner prohibited above.
 ---------------------------------------------------------------
  

 Cite this work as:
 Gaussian 16, Revision C.01,
 M. J. Frisch, G. W. Trucks, H. B. Schlegel, G. E. Scuseria, 
 M. A. Robb, J. R. Cheeseman, G. Scalmani, V. Barone, 
 G. A. Petersson, H. Nakatsuji, X. Li, M. Caricato, A. V. Marenich, 
 J. Bloino, B. G. Janesko, R. Gomperts, B. Mennucci, H. P. Hratchian, 
 J. V. Ortiz, A. F. Izmaylov, J. L. Sonnenberg, D. Williams-Young, 
 F. Ding, F. Lipparini, F. Egidi, J. Goings, B. Peng, A. Petrone, 
 T. Henderson, D. Ranasinghe, V. G. Zakrzewski, J. Gao, N. Rega, 
 G. Zheng, W. Liang, M. Hada, M. Ehara, K. Toyota, R. Fukuda, 
 J. Hasegawa, M. Ishida, T. Nakajima, Y. Honda, O. Kitao, H. Nakai, 
 T. Vreven, K. Throssell, J. A. Montgomery, Jr., J. E. Peralta, 
 F. Ogliaro, M. J. Bearpark, J. J. Heyd, E. N. Brothers, K. N. Kudin, 
 V. N. Staroverov, T. A. Keith, R. Kobayashi, J. Normand, 
 K. Raghavachari, A. P. Rendell, J. C. Burant, S. S. Iyengar, 
 J. Tomasi, M. Cossi, J. M. Millam, M. Klene, C. Adamo, R. Cammi, 
 J. W. Ochterski, R. L. Martin, K. Morokuma, O. Farkas, 
 J. B. Foresman, and D. J. Fox, Gaussian, Inc., Wallingford CT, 2019.
 
 ******************************************
 Gaussian 16:  ES64L-G16RevC.01  3-Jul-2019
                22-Feb-2021 
 ******************************************
 %chk=WEEGYLXZBRQIMU-UHFFFAOYSA-N.chk
 %NProcShared=32
 Will use up to   32 processors via shared memory.
 -------------------------------------------------------------
 #P BP86/TZVP EmpiricalDispersion=GD3 SCRF=(Solvent=Water) Opt
 -------------------------------------------------------------
 1/18=20,19=15,26=3,38=1/1,3;
 2/9=110,12=2,17=6,18=5,40=1/2;
 3/5=19,7=101,11=2,25=1,30=1,70=2201,71=1,72=1,74=404,124=31/1,2,3;
 4//1;
 5/5=2,38=5,53=1/2;
 6/7=2,8=2,9=2,10=2,28=1/1;
 7//1,2,3,16;
 1/18=20,19=15,26=3/3(2);
 2/9=110/2;
 99//99;
 2/9=110/2;
 3/5=19,7=101,11=2,25=1,30=1,70=2205,71=1,72=1,74=404,124=31/1,2,3;
 4/5=5,16=3,69=1/1;
 5/5=2,38=5,53=1/2;
 7//1,2,3,16;
 1/18=20,19=15,26=3/3(-5);
 2/9=110/2;
 6/7=2,8=2,9=2,10=2,19=2,28=1/1;
 99/9=1/99;
 Leave Link    1 at Mon Feb 22 21:21:38 2021, MaxMem=           0 cpu:               1.5 elap:               0.1
 (Enter /sw/arch/RedHatEnterpriseServer7/EB_production/2019/software/Gaussian/g16.c01/l101.exe)
 -------------------------------------
 Particle #WEEGYLXZBRQIMU-UHFFFAOYSA-N
 -------------------------------------
 Symbolic Z-matrix:
 Charge =  0 Multiplicity = 1
 C                    -1.11739  -0.38821   3.17275 
 C                     0.11453  -0.67087   2.27498 
 C                     1.46749  -0.42462   3.03317 
 C                     2.68396  -0.70873   2.08771 
 C                     2.16916  -1.02912   0.6417 
 C                     1.36084  -2.36615   0.78676 
 C                     0.11095  -2.13411   1.70323 
 C                     1.17985   0.124     0.17858 
 C                     1.87896   1.51974   0.10194 
 C                     0.54662  -0.16129  -1.21997 
 O                     0.08085   0.24201   1.13717 
 H                    -1.13774  -1.07126   4.02443 
 H                    -2.03946  -0.51426   2.60176 
 H                    -1.08514   0.63604   3.54876 
 H                     1.50859   0.61491   3.37264 
 H                     1.52541  -1.06602   3.91738 
 H                     3.36702   0.14243   2.07284 
 H                     3.26493  -1.55108   2.47529 
 H                     3.00604  -1.15416  -0.05157 
 H                     1.05643  -2.7414   -0.19214 
 H                     1.99724  -3.14542   1.2179 
 H                    -0.80145  -2.29606   1.1214 
 H                     0.11345  -2.85808   2.52351 
 H                     2.75857   1.47352  -0.54465 
 H                     2.18936   1.86565   1.08789 
 H                     1.19787   2.27702  -0.29416 
 H                    -0.10749  -1.03219  -1.19179 
 H                    -0.06769   0.6785   -1.55045 
 H                     1.32573  -0.33476  -1.96538 
 
 ITRead=  0  0  0  0  0  0  0  0  0  0  0  0  0  0  0  0  0  0  0  0
 ITRead=  0  0  0  0  0  0  0  0  0
 MicOpt= -1 -1 -1 -1 -1 -1 -1 -1 -1 -1 -1 -1 -1 -1 -1 -1 -1 -1 -1 -1
 MicOpt= -1 -1 -1 -1 -1 -1 -1 -1 -1
 NAtoms=     29 NQM=       29 NQMF=       0 NMMI=      0 NMMIF=      0
                NMic=       0 NMicF=      0.
                    Isotopes and Nuclear Properties:
 (Nuclear quadrupole moments (NQMom) in fm**2, nuclear magnetic moments (NMagM)
  in nuclear magnetons)

  Atom         1           2           3           4           5           6           7           8           9          10
 IAtWgt=          12          12          12          12          12          12          12          12          12          12
 AtmWgt=  12.0000000  12.0000000  12.0000000  12.0000000  12.0000000  12.0000000  12.0000000  12.0000000  12.0000000  12.0000000
 NucSpn=           0           0           0           0           0           0           0           0           0           0
 AtZEff=  -0.0000000  -0.0000000  -0.0000000  -0.0000000  -0.0000000  -0.0000000  -0.0000000  -0.0000000  -0.0000000  -0.0000000
 NQMom=    0.0000000   0.0000000   0.0000000   0.0000000   0.0000000   0.0000000   0.0000000   0.0000000   0.0000000   0.0000000
 NMagM=    0.0000000   0.0000000   0.0000000   0.0000000   0.0000000   0.0000000   0.0000000   0.0000000   0.0000000   0.0000000
 AtZNuc=   6.0000000   6.0000000   6.0000000   6.0000000   6.0000000   6.0000000   6.0000000   6.0000000   6.0000000   6.0000000

  Atom        11          12          13          14          15          16          17          18          19          20
 IAtWgt=          16           1           1           1           1           1           1           1           1           1
 AtmWgt=  15.9949146   1.0078250   1.0078250   1.0078250   1.0078250   1.0078250   1.0078250   1.0078250   1.0078250   1.0078250
 NucSpn=           0           1           1           1           1           1           1           1           1           1
 AtZEff=  -0.0000000  -0.0000000  -0.0000000  -0.0000000  -0.0000000  -0.0000000  -0.0000000  -0.0000000  -0.0000000  -0.0000000
 NQMom=    0.0000000   0.0000000   0.0000000   0.0000000   0.0000000   0.0000000   0.0000000   0.0000000   0.0000000   0.0000000
 NMagM=    0.0000000   2.7928460   2.7928460   2.7928460   2.7928460   2.7928460   2.7928460   2.7928460   2.7928460   2.7928460
 AtZNuc=   8.0000000   1.0000000   1.0000000   1.0000000   1.0000000   1.0000000   1.0000000   1.0000000   1.0000000   1.0000000

  Atom        21          22          23          24          25          26          27          28          29
 IAtWgt=           1           1           1           1           1           1           1           1           1
 AtmWgt=   1.0078250   1.0078250   1.0078250   1.0078250   1.0078250   1.0078250   1.0078250   1.0078250   1.0078250
 NucSpn=           1           1           1           1           1           1           1           1           1
 AtZEff=  -0.0000000  -0.0000000  -0.0000000  -0.0000000  -0.0000000  -0.0000000  -0.0000000  -0.0000000  -0.0000000
 NQMom=    0.0000000   0.0000000   0.0000000   0.0000000   0.0000000   0.0000000   0.0000000   0.0000000   0.0000000
 NMagM=    2.7928460   2.7928460   2.7928460   2.7928460   2.7928460   2.7928460   2.7928460   2.7928460   2.7928460
 AtZNuc=   1.0000000   1.0000000   1.0000000   1.0000000   1.0000000   1.0000000   1.0000000   1.0000000   1.0000000
 Leave Link  101 at Mon Feb 22 21:21:38 2021, MaxMem=   104857600 cpu:               5.1 elap:               0.2
 (Enter /sw/arch/RedHatEnterpriseServer7/EB_production/2019/software/Gaussian/g16.c01/l103.exe)

 GradGradGradGradGradGradGradGradGradGradGradGradGradGradGradGradGradGrad
 Berny optimization.
 Initialization pass.
                           ----------------------------
                           !    Initial Parameters    !
                           ! (Angstroms and Degrees)  !
 --------------------------                            --------------------------
 ! Name  Definition              Value          Derivative Info.                !
 --------------------------------------------------------------------------------
 ! R1    R(1,2)                  1.5503         estimate D2E/DX2                !
 ! R2    R(1,12)                 1.0919         estimate D2E/DX2                !
 ! R3    R(1,13)                 1.0918         estimate D2E/DX2                !
 ! R4    R(1,14)                 1.0916         estimate D2E/DX2                !
 ! R5    R(2,3)                  1.5703         estimate D2E/DX2                !
 ! R6    R(2,7)                  1.571          estimate D2E/DX2                !
 ! R7    R(2,11)                 1.4591         estimate D2E/DX2                !
 ! R8    R(3,4)                  1.5667         estimate D2E/DX2                !
 ! R9    R(3,15)                 1.0943         estimate D2E/DX2                !
 ! R10   R(3,16)                 1.0939         estimate D2E/DX2                !
 ! R11   R(4,5)                  1.568          estimate D2E/DX2                !
 ! R12   R(4,17)                 1.0915         estimate D2E/DX2                !
 ! R13   R(4,18)                 1.0942         estimate D2E/DX2                !
 ! R14   R(5,6)                  1.5691         estimate D2E/DX2                !
 ! R15   R(5,8)                  1.5884         estimate D2E/DX2                !
 ! R16   R(5,19)                 1.0939         estimate D2E/DX2                !
 ! R17   R(6,7)                  1.5672         estimate D2E/DX2                !
 ! R18   R(6,20)                 1.0917         estimate D2E/DX2                !
 ! R19   R(6,21)                 1.0946         estimate D2E/DX2                !
 ! R20   R(7,22)                 1.0942         estimate D2E/DX2                !
 ! R21   R(7,23)                 1.0941         estimate D2E/DX2                !
 ! R22   R(8,9)                  1.5629         estimate D2E/DX2                !
 ! R23   R(8,10)                 1.5615         estimate D2E/DX2                !
 ! R24   R(8,11)                 1.4631         estimate D2E/DX2                !
 ! R25   R(9,24)                 1.0927         estimate D2E/DX2                !
 ! R26   R(9,25)                 1.09           estimate D2E/DX2                !
 ! R27   R(9,26)                 1.0928         estimate D2E/DX2                !
 ! R28   R(10,27)                1.0896         estimate D2E/DX2                !
 ! R29   R(10,28)                1.0917         estimate D2E/DX2                !
 ! R30   R(10,29)                1.0921         estimate D2E/DX2                !
 ! A1    A(2,1,12)             110.6359         estimate D2E/DX2                !
 ! A2    A(2,1,13)             110.3146         estimate D2E/DX2                !
 ! A3    A(2,1,14)             110.3088         estimate D2E/DX2                !
 ! A4    A(12,1,13)            108.6591         estimate D2E/DX2                !
 ! A5    A(12,1,14)            108.5927         estimate D2E/DX2                !
 ! A6    A(13,1,14)            108.2655         estimate D2E/DX2                !
 ! A7    A(1,2,3)              112.1131         estimate D2E/DX2                !
 ! A8    A(1,2,7)              112.257          estimate D2E/DX2                !
 ! A9    A(1,2,11)             108.6116         estimate D2E/DX2                !
 ! A10   A(3,2,7)              108.8892         estimate D2E/DX2                !
 ! A11   A(3,2,11)             107.3538         estimate D2E/DX2                !
 ! A12   A(7,2,11)             107.3898         estimate D2E/DX2                !
 ! A13   A(2,3,4)              110.4368         estimate D2E/DX2                !
 ! A14   A(2,3,15)             109.3351         estimate D2E/DX2                !
 ! A15   A(2,3,16)             110.1173         estimate D2E/DX2                !
 ! A16   A(4,3,15)             109.2877         estimate D2E/DX2                !
 ! A17   A(4,3,16)             109.8992         estimate D2E/DX2                !
 ! A18   A(15,3,16)            107.7133         estimate D2E/DX2                !
 ! A19   A(3,4,5)              109.7955         estimate D2E/DX2                !
 ! A20   A(3,4,17)             110.6549         estimate D2E/DX2                !
 ! A21   A(3,4,18)             109.762          estimate D2E/DX2                !
 ! A22   A(5,4,17)             110.6251         estimate D2E/DX2                !
 ! A23   A(5,4,18)             110.1008         estimate D2E/DX2                !
 ! A24   A(17,4,18)            105.836          estimate D2E/DX2                !
 ! A25   A(4,5,6)              104.9506         estimate D2E/DX2                !
 ! A26   A(4,5,8)              108.9679         estimate D2E/DX2                !
 ! A27   A(4,5,19)             110.8936         estimate D2E/DX2                !
 ! A28   A(6,5,8)              108.9476         estimate D2E/DX2                !
 ! A29   A(6,5,19)             110.8117         estimate D2E/DX2                !
 ! A30   A(8,5,19)             112.0059         estimate D2E/DX2                !
 ! A31   A(5,6,7)              109.8011         estimate D2E/DX2                !
 ! A32   A(5,6,20)             110.711          estimate D2E/DX2                !
 ! A33   A(5,6,21)             110.0924         estimate D2E/DX2                !
 ! A34   A(7,6,20)             110.6642         estimate D2E/DX2                !
 ! A35   A(7,6,21)             109.8018         estimate D2E/DX2                !
 ! A36   A(20,6,21)            105.7            estimate D2E/DX2                !
 ! A37   A(2,7,6)              110.4216         estimate D2E/DX2                !
 ! A38   A(2,7,22)             109.4684         estimate D2E/DX2                !
 ! A39   A(2,7,23)             110.0881         estimate D2E/DX2                !
 ! A40   A(6,7,22)             109.4006         estimate D2E/DX2                !
 ! A41   A(6,7,23)             109.7947         estimate D2E/DX2                !
 ! A42   A(22,7,23)            107.6164         estimate D2E/DX2                !
 ! A43   A(5,8,9)              112.5826         estimate D2E/DX2                !
 ! A44   A(5,8,10)             112.4009         estimate D2E/DX2                !
 ! A45   A(5,8,11)             109.5955         estimate D2E/DX2                !
 ! A46   A(9,8,10)             107.4957         estimate D2E/DX2                !
 ! A47   A(9,8,11)             107.2232         estimate D2E/DX2                !
 ! A48   A(10,8,11)            107.2736         estimate D2E/DX2                !
 ! A49   A(8,9,24)             110.5687         estimate D2E/DX2                !
 ! A50   A(8,9,25)             111.4955         estimate D2E/DX2                !
 ! A51   A(8,9,26)             110.9669         estimate D2E/DX2                !
 ! A52   A(24,9,25)            108.6294         estimate D2E/DX2                !
 ! A53   A(24,9,26)            108.454          estimate D2E/DX2                !
 ! A54   A(25,9,26)            106.5845         estimate D2E/DX2                !
 ! A55   A(8,10,27)            111.4893         estimate D2E/DX2                !
 ! A56   A(8,10,28)            111.0249         estimate D2E/DX2                !
 ! A57   A(8,10,29)            110.55           estimate D2E/DX2                !
 ! A58   A(27,10,28)           106.5517         estimate D2E/DX2                !
 ! A59   A(27,10,29)           108.6008         estimate D2E/DX2                !
 ! A60   A(28,10,29)           108.4813         estimate D2E/DX2                !
 ! A61   A(2,11,8)             116.3018         estimate D2E/DX2                !
 ! D1    D(12,1,2,3)           -62.8894         estimate D2E/DX2                !
 ! D2    D(12,1,2,7)            60.0577         estimate D2E/DX2                !
 ! D3    D(12,1,2,11)          178.65           estimate D2E/DX2                !
 ! D4    D(13,1,2,3)           176.8482         estimate D2E/DX2                !
 ! D5    D(13,1,2,7)           -60.2046         estimate D2E/DX2                !
 ! D6    D(13,1,2,11)           58.3877         estimate D2E/DX2                !
 ! D7    D(14,1,2,3)            57.2861         estimate D2E/DX2                !
 ! D8    D(14,1,2,7)          -179.7667         estimate D2E/DX2                !
 ! D9    D(14,1,2,11)          -61.1744         estimate D2E/DX2                !
 ! D10   D(1,2,3,4)           -179.4862         estimate D2E/DX2                !
 ! D11   D(1,2,3,15)           -59.2001         estimate D2E/DX2                !
 ! D12   D(1,2,3,16)            58.9586         estimate D2E/DX2                !
 ! D13   D(7,2,3,4)             55.6843         estimate D2E/DX2                !
 ! D14   D(7,2,3,15)           175.9704         estimate D2E/DX2                !
 ! D15   D(7,2,3,16)           -65.8709         estimate D2E/DX2                !
 ! D16   D(11,2,3,4)           -60.2839         estimate D2E/DX2                !
 ! D17   D(11,2,3,15)           60.0022         estimate D2E/DX2                !
 ! D18   D(11,2,3,16)          178.1609         estimate D2E/DX2                !
 ! D19   D(1,2,7,6)            179.1546         estimate D2E/DX2                !
 ! D20   D(1,2,7,22)            58.6532         estimate D2E/DX2                !
 ! D21   D(1,2,7,23)           -59.4504         estimate D2E/DX2                !
 ! D22   D(3,2,7,6)            -56.1004         estimate D2E/DX2                !
 ! D23   D(3,2,7,22)          -176.6018         estimate D2E/DX2                !
 ! D24   D(3,2,7,23)            65.2946         estimate D2E/DX2                !
 ! D25   D(11,2,7,6)            59.8447         estimate D2E/DX2                !
 ! D26   D(11,2,7,22)          -60.6567         estimate D2E/DX2                !
 ! D27   D(11,2,7,23)         -178.7603         estimate D2E/DX2                !
 ! D28   D(1,2,11,8)           179.6686         estimate D2E/DX2                !
 ! D29   D(3,2,11,8)            58.2432         estimate D2E/DX2                !
 ! D30   D(7,2,11,8)           -58.712          estimate D2E/DX2                !
 ! D31   D(2,3,4,5)              4.9356         estimate D2E/DX2                !
 ! D32   D(2,3,4,17)           127.3321         estimate D2E/DX2                !
 ! D33   D(2,3,4,18)          -116.2244         estimate D2E/DX2                !
 ! D34   D(15,3,4,5)          -115.3789         estimate D2E/DX2                !
 ! D35   D(15,3,4,17)            7.0176         estimate D2E/DX2                !
 ! D36   D(15,3,4,18)          123.4611         estimate D2E/DX2                !
 ! D37   D(16,3,4,5)           126.6198         estimate D2E/DX2                !
 ! D38   D(16,3,4,17)         -110.9837         estimate D2E/DX2                !
 ! D39   D(16,3,4,18)            5.4598         estimate D2E/DX2                !
 ! D40   D(3,4,5,6)            -64.69           estimate D2E/DX2                !
 ! D41   D(3,4,5,8)             51.8712         estimate D2E/DX2                !
 ! D42   D(3,4,5,19)           175.6031         estimate D2E/DX2                !
 ! D43   D(17,4,5,6)           172.8958         estimate D2E/DX2                !
 ! D44   D(17,4,5,8)           -70.543          estimate D2E/DX2                !
 ! D45   D(17,4,5,19)           53.1889         estimate D2E/DX2                !
 ! D46   D(18,4,5,6)            56.2659         estimate D2E/DX2                !
 ! D47   D(18,4,5,8)           172.8271         estimate D2E/DX2                !
 ! D48   D(18,4,5,19)          -63.441          estimate D2E/DX2                !
 ! D49   D(4,5,6,7)             64.2375         estimate D2E/DX2                !
 ! D50   D(4,5,6,20)          -173.2756         estimate D2E/DX2                !
 ! D51   D(4,5,6,21)           -56.7661         estimate D2E/DX2                !
 ! D52   D(8,5,6,7)            -52.3377         estimate D2E/DX2                !
 ! D53   D(8,5,6,20)            70.1492         estimate D2E/DX2                !
 ! D54   D(8,5,6,21)          -173.3413         estimate D2E/DX2                !
 ! D55   D(19,5,6,7)          -176.001          estimate D2E/DX2                !
 ! D56   D(19,5,6,20)          -53.5141         estimate D2E/DX2                !
 ! D57   D(19,5,6,21)           62.9954         estimate D2E/DX2                !
 ! D58   D(4,5,8,9)             62.0747         estimate D2E/DX2                !
 ! D59   D(4,5,8,10)          -176.3509         estimate D2E/DX2                !
 ! D60   D(4,5,8,11)           -57.1645         estimate D2E/DX2                !
 ! D61   D(6,5,8,9)            176.055          estimate D2E/DX2                !
 ! D62   D(6,5,8,10)           -62.3706         estimate D2E/DX2                !
 ! D63   D(6,5,8,11)            56.8157         estimate D2E/DX2                !
 ! D64   D(19,5,8,9)           -60.9943         estimate D2E/DX2                !
 ! D65   D(19,5,8,10)           60.5801         estimate D2E/DX2                !
 ! D66   D(19,5,8,11)          179.7664         estimate D2E/DX2                !
 ! D67   D(5,6,7,2)             -4.1845         estimate D2E/DX2                !
 ! D68   D(5,6,7,22)           116.3575         estimate D2E/DX2                !
 ! D69   D(5,6,7,23)          -125.7534         estimate D2E/DX2                !
 ! D70   D(20,6,7,2)          -126.6992         estimate D2E/DX2                !
 ! D71   D(20,6,7,22)           -6.1572         estimate D2E/DX2                !
 ! D72   D(20,6,7,23)          111.732          estimate D2E/DX2                !
 ! D73   D(21,6,7,2)           116.994          estimate D2E/DX2                !
 ! D74   D(21,6,7,22)         -122.464          estimate D2E/DX2                !
 ! D75   D(21,6,7,23)           -4.5749         estimate D2E/DX2                !
 ! D76   D(5,8,9,24)            55.1092         estimate D2E/DX2                !
 ! D77   D(5,8,9,25)           -65.8537         estimate D2E/DX2                !
 ! D78   D(5,8,9,26)           175.4981         estimate D2E/DX2                !
 ! D79   D(10,8,9,24)          -69.2132         estimate D2E/DX2                !
 ! D80   D(10,8,9,25)          169.8238         estimate D2E/DX2                !
 ! D81   D(10,8,9,26)           51.1757         estimate D2E/DX2                !
 ! D82   D(11,8,9,24)          175.7203         estimate D2E/DX2                !
 ! D83   D(11,8,9,25)           54.7574         estimate D2E/DX2                !
 ! D84   D(11,8,9,26)          -63.8908         estimate D2E/DX2                !
 ! D85   D(5,8,10,27)           65.737          estimate D2E/DX2                !
 ! D86   D(5,8,10,28)         -175.6219         estimate D2E/DX2                !
 ! D87   D(5,8,10,29)          -55.1727         estimate D2E/DX2                !
 ! D88   D(9,8,10,27)         -169.8306         estimate D2E/DX2                !
 ! D89   D(9,8,10,28)          -51.1895         estimate D2E/DX2                !
 ! D90   D(9,8,10,29)           69.2597         estimate D2E/DX2                !
 ! D91   D(11,8,10,27)         -54.7976         estimate D2E/DX2                !
 ! D92   D(11,8,10,28)          63.8436         estimate D2E/DX2                !
 ! D93   D(11,8,10,29)        -175.7073         estimate D2E/DX2                !
 ! D94   D(5,8,11,2)             0.3562         estimate D2E/DX2                !
 ! D95   D(9,8,11,2)          -122.1314         estimate D2E/DX2                !
 ! D96   D(10,8,11,2)          122.6539         estimate D2E/DX2                !
 --------------------------------------------------------------------------------
 Trust Radius=3.00D-01 FncErr=1.00D-07 GrdErr=1.00D-06 EigMax=2.50D+02 EigMin=1.00D-04
 Number of steps in this run=    174 maximum allowed number of steps=    174.
 GradGradGradGradGradGradGradGradGradGradGradGradGradGradGradGradGradGrad

 Leave Link  103 at Mon Feb 22 21:21:39 2021, MaxMem=   104857600 cpu:               1.0 elap:               0.1
 (Enter /sw/arch/RedHatEnterpriseServer7/EB_production/2019/software/Gaussian/g16.c01/l202.exe)
                          Input orientation:                          
 ---------------------------------------------------------------------
 Center     Atomic      Atomic             Coordinates (Angstroms)
 Number     Number       Type             X           Y           Z
 ---------------------------------------------------------------------
      1          6           0       -1.117390   -0.388210    3.172750
      2          6           0        0.114530   -0.670870    2.274980
      3          6           0        1.467490   -0.424620    3.033170
      4          6           0        2.683960   -0.708730    2.087710
      5          6           0        2.169160   -1.029120    0.641700
      6          6           0        1.360840   -2.366150    0.786760
      7          6           0        0.110950   -2.134110    1.703230
      8          6           0        1.179850    0.124000    0.178580
      9          6           0        1.878960    1.519740    0.101940
     10          6           0        0.546620   -0.161290   -1.219970
     11          8           0        0.080850    0.242010    1.137170
     12          1           0       -1.137740   -1.071260    4.024430
     13          1           0       -2.039460   -0.514260    2.601760
     14          1           0       -1.085140    0.636040    3.548760
     15          1           0        1.508590    0.614910    3.372640
     16          1           0        1.525410   -1.066020    3.917380
     17          1           0        3.367020    0.142430    2.072840
     18          1           0        3.264930   -1.551080    2.475290
     19          1           0        3.006040   -1.154160   -0.051570
     20          1           0        1.056430   -2.741400   -0.192140
     21          1           0        1.997240   -3.145420    1.217900
     22          1           0       -0.801450   -2.296060    1.121400
     23          1           0        0.113450   -2.858080    2.523510
     24          1           0        2.758570    1.473520   -0.544650
     25          1           0        2.189360    1.865650    1.087890
     26          1           0        1.197870    2.277020   -0.294160
     27          1           0       -0.107490   -1.032190   -1.191790
     28          1           0       -0.067690    0.678500   -1.550450
     29          1           0        1.325730   -0.334760   -1.965380
 ---------------------------------------------------------------------
                    Distance matrix (angstroms):
                    1          2          3          4          5
     1  C    0.000000
     2  C    1.550327   0.000000
     3  C    2.588902   1.570348   0.000000
     4  C    3.966145   2.576524   1.566656   0.000000
     5  C    4.197427   2.649047   2.564545   1.567997   0.000000
     6  C    3.968226   2.577220   2.971072   2.488003   1.569099
     7  C    2.591616   1.570981   2.555640   2.966465   2.565946
     8  C    3.808507   2.482261   2.921028   2.569156   1.588364
     9  C    4.695558   3.554446   3.541462   3.091502   2.621497
    10  C    4.702809   3.558237   4.359650   3.976011   2.617552
    11  O    2.444697   1.459142   2.441717   2.929781   2.494454
    12  H    1.091939   2.188394   2.861462   4.299733   4.730774
    13  H    1.091848   2.184258   3.534522   4.755288   4.671124
    14  H    1.091564   2.183973   2.811895   4.260186   4.670570
    15  H    2.818151   2.191230   1.094327   2.187364   3.255337
    16  H    2.828125   2.200955   1.093881   2.194900   3.338541
    17  H    4.647721   3.358721   2.202724   1.091451   2.203533
    18  H    4.587314   3.277181   2.193384   1.094211   2.198910
    19  H    5.290141   3.742624   3.523491   2.208769   1.093904
    20  H    4.646018   3.355734   3.992376   3.460971   2.205756
    21  H    4.596147   3.284115   3.313396   2.676866   2.200066
    22  H    2.819175   2.193401   3.507883   3.949868   3.264931
    23  H    2.834914   2.201285   2.831061   3.378927   3.333504
    24  H    5.684027   4.420370   4.250955   3.420102   2.831614
    25  H    4.512330   3.485403   3.090396   2.805655   2.929025
    26  H    4.948065   4.057605   4.294494   4.098350   3.570686
    27  H    4.525905   3.492612   4.549724   4.318789   2.923154
    28  H    4.954630   4.060532   4.958147   4.767829   3.567210
    29  H    5.689646   4.422740   5.001367   4.290942   2.826725
                    6          7          8          9         10
     6  C    0.000000
     7  C    1.567158   0.000000
     8  C    2.569725   2.926801   0.000000
     9  C    3.979644   4.363555   1.562920   0.000000
    10  C    3.090522   3.553439   1.561510   2.519611   0.000000
    11  O    2.926373   2.442801   1.463087   2.436697   2.436330
    12  H    4.289773   2.841979   4.646551   5.585668   5.582907
    13  H    4.276185   2.838227   4.079600   5.073487   4.627960
    14  H    4.756533   3.536996   4.092735   4.631132   5.102858
    15  H    3.949092   3.506770   3.248243   3.413703   4.756042
    16  H    3.393848   2.836190   3.938805   4.622633   5.307441
    17  H    3.460019   3.990143   2.893488   2.827676   4.346205
    18  H    2.672271   3.299029   3.525383   4.121121   4.793294
    19  H    2.208710   3.524368   2.240900   2.905790   2.898223
    20  H    1.091661   2.203443   2.891917   4.349753   2.823705
    21  H    1.094600   2.194626   3.526673   4.798237   4.117346
    22  H    2.189154   1.094179   3.266673   4.773283   3.443334
    23  H    2.194146   1.094074   3.940648   5.305312   4.634000
    24  H    4.297600   5.007779   2.199232   1.092670   2.832205
    25  H    4.322645   4.549342   2.208914   1.090000   3.483288
    26  H    4.770113   4.962764   2.204383   1.092818   2.688235
    27  H    2.801803   3.105332   2.207246   3.483112   1.089551
    28  H    4.095503   4.304547   2.203037   2.688405   1.091715
    29  H    3.420826   4.262869   2.197341   2.831792   1.092127
                   11         12         13         14         15
    11  O    0.000000
    12  H    3.397927   0.000000
    13  H    2.685644   1.774074   0.000000
    14  H    2.707500   1.773105   1.769386   0.000000
    15  H    2.678586   3.204850   3.802360   2.599788   0.000000
    16  H    3.395182   2.665306   3.839739   3.138130   1.767074
    17  H    3.418232   5.057135   5.471839   4.716325   2.316566
    18  H    3.891542   4.691862   5.406250   4.985874   2.929416
    19  H    3.452409   5.813051   5.736436   5.736283   4.134874
    20  H    3.408747   5.038175   4.727638   5.476108   4.917003
    21  H    3.892782   4.691146   5.013284   5.406793   4.361395
    22  H    2.687099   3.168724   2.626584   3.817036   4.344895
    23  H    3.396109   2.647822   3.183494   3.833618   3.837851
    24  H    3.393423   6.521781   6.072253   5.677278   4.200574
    25  H    2.661663   5.321494   5.083177   4.276701   2.692189
    26  H    2.727216   5.942750   5.163129   4.761616   4.037893
    27  H    2.661412   5.317132   4.288564   5.119727   5.114555
    28  H    2.726883   5.940198   4.748832   5.199899   5.169673
    29  H    3.392375   6.518354   5.675869   6.095940   5.424921
                   16         17         18         19         20
    16  H    0.000000
    17  H    2.873014   0.000000
    18  H    2.311025   1.743664   0.000000
    19  H    4.237051   2.514870   2.570912   0.000000
    20  H    4.462622   4.334217   3.661901   2.517950   0.000000
    21  H    3.440017   3.662947   2.393739   2.567946   1.742575
    22  H    3.839893   4.922155   4.350110   4.144487   2.318498
    23  H    2.673571   4.448807   3.412096   4.231011   2.877078
    24  H    5.280119   2.998877   4.304026   2.684971   4.559287
    25  H    4.128139   2.307920   3.841324   3.329352   4.913951
    26  H    5.387046   3.855435   5.157222   3.886042   5.021449
    27  H    5.363872   4.910169   5.008986   3.317988   2.296826
    28  H    5.956382   5.021238   5.681898   3.879832   3.847644
    29  H    5.931398   4.549923   4.995946   2.675355   3.001469
                   21         22         23         24         25
    21  H    0.000000
    22  H    2.926327   0.000000
    23  H    2.309945   1.766018   0.000000
    24  H    5.002081   5.446026   5.930685   0.000000
    25  H    5.016437   5.125027   5.355748   1.772838   0.000000
    26  H    5.685787   5.187885   5.956885   1.773173   1.749954
    27  H    3.834349   2.725765   4.145617   3.861564   4.343954
    28  H    5.152675   4.065119   5.397903   3.103455   3.669392
    29  H    4.299303   4.230816   5.290265   2.709498   3.861362
                   26         27         28         29
    26  H    0.000000
    27  H    3.668866   0.000000
    28  H    2.394822   1.748337   0.000000
    29  H    3.103340   1.771714   1.772141   0.000000
 Stoichiometry    C10H18O
 Framework group  C1[X(C10H18O)]
 Deg. of freedom    81
 Full point group                 C1      NOp   1
 Largest Abelian subgroup         C1      NOp   1
 Largest concise Abelian subgroup C1      NOp   1
                         Standard orientation:                         
 ---------------------------------------------------------------------
 Center     Atomic      Atomic             Coordinates (Angstroms)
 Number     Number       Type             X           Y           Z
 ---------------------------------------------------------------------
      1          6           0        2.419812   -1.445825   -0.029823
      2          6           0        1.251503   -0.426912   -0.010182
      3          6           0        1.258396    0.455393    1.288850
      4          6           0        0.056460    1.460154    1.274080
      5          6           0       -0.850612    1.184708    0.025096
      6          6           0        0.055211    1.513013   -1.213361
      7          6           0        1.263852    0.516822   -1.266046
      8          6           0       -1.229782   -0.357389   -0.007592
      9          6           0       -2.052898   -0.799749    1.245212
     10          6           0       -2.060154   -0.739302   -1.273663
     11          8           0       -0.008427   -1.162631   -0.029915
     12          1           0        3.381415   -0.928573   -0.039831
     13          1           0        2.354964   -2.079853   -0.916352
     14          1           0        2.378502   -2.086660    0.852864
     15          1           0        1.177323   -0.192295    2.167189
     16          1           0        2.201511    1.004183    1.365920
     17          1           0       -0.523306    1.380456    2.195375
     18          1           0        0.433075    2.487130    1.246181
     19          1           0       -1.737650    1.824718    0.038394
     20          1           0       -0.523219    1.466162   -2.137994
     21          1           0        0.424755    2.541202   -1.146933
     22          1           0        1.198025   -0.086668   -2.176373
     23          1           0        2.203366    1.075982   -1.306686
     24          1           0       -2.944507   -0.178227    1.357781
     25          1           0       -1.461001   -0.728052    2.157690
     26          1           0       -2.367044   -1.842830    1.158342
     27          1           0       -1.474240   -0.623996   -2.184997
     28          1           0       -2.373886   -1.784279   -1.235754
     29          1           0       -2.951402   -0.112844   -1.350919
 ---------------------------------------------------------------------
 Rotational constants (GHZ):           1.4977094           1.0403368           0.9946421
 Leave Link  202 at Mon Feb 22 21:21:39 2021, MaxMem=   104857600 cpu:               1.6 elap:               0.1
 (Enter /sw/arch/RedHatEnterpriseServer7/EB_production/2019/software/Gaussian/g16.c01/l301.exe)
 Standard basis: TZVP (5D, 7F)
 Ernie: Thresh=  0.10000D-02 Tol=  0.10000D-05 Strict=F.
 There are   328 symmetry adapted cartesian basis functions of A   symmetry.
 There are   317 symmetry adapted basis functions of A   symmetry.
   317 basis functions,   529 primitive gaussians,   328 cartesian basis functions
    43 alpha electrons       43 beta electrons
       nuclear repulsion energy       706.7124338969 Hartrees.
 IExCor=  404 DFT=T Ex=B Corr=P86 ExCW=0 ScaHFX=  0.000000
 ScaDFX=  1.000000  1.000000  1.000000  1.000000 ScalE2=  1.000000  1.000000
 IRadAn=      5 IRanWt=     -1 IRanGd=            0 ICorTp=0 IEmpDi=131
 NAtoms=   29 NActive=   29 NUniq=   29 SFac= 1.00D+00 NAtFMM=   60 NAOKFM=F Big=F
 Integral buffers will be    131072 words long.
 Raffenetti 2 integral format.
 Two-electron integral symmetry is turned on.
 R6Disp:  Grimme-D3 Dispersion energy=       -0.0353750950 Hartrees.
 Nuclear repulsion after empirical dispersion term =      706.6770588018 Hartrees.
 ------------------------------------------------------------------------------
 Polarizable Continuum Model (PCM)
 =================================
 Model                : PCM.
 Atomic radii         : UFF (Universal Force Field).
 Polarization charges : Total charges.
 Charge compensation  : None.
 Solution method      : On-the-fly selection.
 Cavity type          : Scaled VdW (van der Waals Surface) (Alpha=1.100).
 Cavity algorithm     : GePol (No added spheres)
                        Default sphere list used, NSphG=   29.
                        Lebedev-Laikov grids with approx.  5.0 points / Ang**2.
                        Smoothing algorithm: York/Karplus (Gamma=1.0000).
                        Polarization charges: spherical gaussians, with
                                              point-specific exponents (IZeta= 3).
                        Self-potential: point-specific (ISelfS= 7).
                        Self-field    : sphere-specific E.n sum rule (ISelfD= 2).
 1st derivatives      : Analytical E(r).r(x)/FMM algorithm (CHGder, D1EAlg=3).
                        Cavity 1st derivative terms included.
 Solvent              : Water, Eps=  78.355300 Eps(inf)=   1.777849
 ------------------------------------------------------------------------------
 GePol: Number of generator spheres                  =      29
 GePol: Total number of spheres                      =      29
 GePol: Number of exposed spheres                    =      29 (100.00%)
 GePol: Number of points                             =    1800
 GePol: Average weight of points                     =       0.13
 GePol: Minimum weight of points                     =   0.14D-08
 GePol: Maximum weight of points                     =    0.20577
 GePol: Number of points with low weight             =     134
 GePol: Fraction of low-weight points (<1% of avg)   =       7.44%
 GePol: Cavity surface area                          =    238.165 Ang**2
 GePol: Cavity volume                                =    255.559 Ang**3
 Leave Link  301 at Mon Feb 22 21:21:39 2021, MaxMem=   104857600 cpu:               1.7 elap:               0.1
 (Enter /sw/arch/RedHatEnterpriseServer7/EB_production/2019/software/Gaussian/g16.c01/l302.exe)
 NPDir=0 NMtPBC=     1 NCelOv=     1 NCel=       1 NClECP=     1 NCelD=      1
         NCelK=      1 NCelE2=     1 NClLst=     1 CellRange=     0.0.
 One-electron integrals computed using PRISM.
 One-electron integral symmetry used in STVInt
 PrsmSu:  requested number of processors reduced to:  27 ShMem   1 Linda.
 NBasis=   317 RedAO= T EigKep=  3.32D-05  NBF=   317
 NBsUse=   317 1.00D-06 EigRej= -1.00D+00 NBFU=   317
 Precomputing XC quadrature grid using
 IXCGrd= 4 IRadAn=           5 IRanWt=          -1 IRanGd=           0 AccXCQ= 0.00D+00.
 Generated NRdTot=       0 NPtTot=           0 NUsed=           0 NTot=          32
 NSgBfM=   326   326   326   326   326 MxSgAt=    29 MxSgA2=    29.
 Leave Link  302 at Mon Feb 22 21:21:40 2021, MaxMem=   104857600 cpu:              11.6 elap:               0.5
 (Enter /sw/arch/RedHatEnterpriseServer7/EB_production/2019/software/Gaussian/g16.c01/l303.exe)
 DipDrv:  MaxL=1.
 Leave Link  303 at Mon Feb 22 21:21:40 2021, MaxMem=   104857600 cpu:               2.8 elap:               0.1
 (Enter /sw/arch/RedHatEnterpriseServer7/EB_production/2019/software/Gaussian/g16.c01/l401.exe)
 ExpMin= 9.52D-02 ExpMax= 2.70D+04 ExpMxC= 9.22D+02 IAcc=3 IRadAn=         5 AccDes= 0.00D+00
 Harris functional with IExCor=  404 and IRadAn=       5 diagonalized for initial guess.
 HarFok:  IExCor=  404 AccDes= 0.00D+00 IRadAn=         5 IDoV= 1 UseB2=F ITyADJ=14
 ICtDFT=  3500011 ScaDFX=  1.000000  1.000000  1.000000  1.000000
 FoFCou: FMM=F IPFlag=           0 FMFlag=      100000 FMFlg1=           0
         NFxFlg=           0 DoJE=T BraDBF=F KetDBF=T FulRan=T
         wScrn=  0.000000 ICntrl=       500 IOpCl=  0 I1Cent=   200000004 NGrid=           0
         NMat0=    1 NMatS0=      1 NMatT0=    0 NMatD0=    1 NMtDS0=    0 NMtDT0=    0
 Petite list used in FoFCou.
 Harris En= -467.594228996254    
 JPrj=0 DoOrth=F DoCkMO=F.
 Leave Link  401 at Mon Feb 22 21:21:41 2021, MaxMem=   104857600 cpu:              20.7 elap:               0.8
 (Enter /sw/arch/RedHatEnterpriseServer7/EB_production/2019/software/Gaussian/g16.c01/l502.exe)
 Integral symmetry usage will be decided dynamically.
 Closed shell SCF:
 Using DIIS extrapolation, IDIIS=  1040.
 NGot=   104857600 LenX=   104627748 LenY=   104519723
 Requested convergence on RMS density matrix=1.00D-08 within 128 cycles.
 Requested convergence on MAX density matrix=1.00D-06.
 Requested convergence on             energy=1.00D-06.
 No special actions if energy rises.
 Fock matrices will be formed incrementally for  20 cycles.

 Cycle   1  Pass 1  IDiag  1:
 FoFJK:  IHMeth= 1 ICntrl=     500 DoSepK=F KAlg= 0 I1Cent=           0 FoldK=F
 IRaf= 950000000 NMat=       1 IRICut=       1 DoRegI=T DoRafI=F ISym2E= 0 IDoP0=0 IntGTp=1.
 FoFCou: FMM=F IPFlag=           0 FMFlag=      100000 FMFlg1=           0
         NFxFlg=           0 DoJE=T BraDBF=F KetDBF=F FulRan=T
         wScrn=  0.000000 ICntrl=       500 IOpCl=  0 I1Cent=           0 NGrid=           0
         NMat0=    1 NMatS0=      1 NMatT0=    0 NMatD0=    1 NMtDS0=    0 NMtDT0=    0
 Symmetry not used in FoFCou.
 Inv3:  Mode=1 IEnd=     9720000.
 Iteration    1 A*A^-1 deviation from unit magnitude is 3.89D-15 for    915.
 Iteration    1 A*A^-1 deviation from orthogonality  is 2.44D-15 for   1709    744.
 Iteration    1 A^-1*A deviation from unit magnitude is 4.11D-15 for    915.
 Iteration    1 A^-1*A deviation from orthogonality  is 1.72D-15 for   1373     54.
 E= -466.951914379060    
 DIIS: error= 3.57D-02 at cycle   1 NSaved=   1.
 NSaved= 1 IEnMin= 1 EnMin= -466.951914379060     IErMin= 1 ErrMin= 3.57D-02
 ErrMax= 3.57D-02  0.00D+00 EMaxC= 1.00D-01 BMatC= 3.47D-01 BMatP= 3.47D-01
 IDIUse=3 WtCom= 6.43D-01 WtEn= 3.57D-01
 Coeff-Com:  0.100D+01
 Coeff-En:   0.100D+01
 Coeff:      0.100D+01
 Gap=     0.140 Goal=   None    Shift=    0.000
 GapD=    0.140 DampG=1.000 DampE=0.500 DampFc=0.5000 IDamp=-1.
 Damping current iteration by 5.00D-01
 RMSDP=7.07D-03 MaxDP=3.00D-01              OVMax= 1.94D-01

 Cycle   2  Pass 1  IDiag  1:
 RMSU=  3.53D-03    CP:  9.79D-01
 E= -467.059652702106     Delta-E=       -0.107738323046 Rises=F Damp=T
 DIIS: error= 8.13D-03 at cycle   2 NSaved=   2.
 NSaved= 2 IEnMin= 2 EnMin= -467.059652702106     IErMin= 2 ErrMin= 8.13D-03
 ErrMax= 8.13D-03  0.00D+00 EMaxC= 1.00D-01 BMatC= 3.53D-02 BMatP= 3.47D-01
 IDIUse=3 WtCom= 9.19D-01 WtEn= 8.13D-02
 Coeff-Com:  0.199D+00 0.801D+00
 Coeff-En:   0.331D+00 0.669D+00
 Coeff:      0.210D+00 0.790D+00
 Gap=     0.223 Goal=   None    Shift=    0.000
 RMSDP=2.46D-03 MaxDP=1.10D-01 DE=-1.08D-01 OVMax= 1.32D-01

 Cycle   3  Pass 1  IDiag  1:
 RMSU=  1.50D-03    CP:  9.96D-01  4.48D-01
 E= -467.295977283083     Delta-E=       -0.236324580977 Rises=F Damp=F
 DIIS: error= 6.94D-03 at cycle   3 NSaved=   3.
 NSaved= 3 IEnMin= 3 EnMin= -467.295977283083     IErMin= 3 ErrMin= 6.94D-03
 ErrMax= 6.94D-03  0.00D+00 EMaxC= 1.00D-01 BMatC= 1.18D-02 BMatP= 3.53D-02
 IDIUse=3 WtCom= 9.31D-01 WtEn= 6.94D-02
 Coeff-Com:  0.759D-01 0.384D+00 0.540D+00
 Coeff-En:   0.000D+00 0.000D+00 0.100D+01
 Coeff:      0.706D-01 0.357D+00 0.572D+00
 Gap=     0.202 Goal=   None    Shift=    0.000
 RMSDP=1.18D-03 MaxDP=4.50D-02 DE=-2.36D-01 OVMax= 3.22D-02

 Cycle   4  Pass 1  IDiag  1:
 RMSU=  6.92D-04    CP:  9.89D-01  6.39D-01  5.45D-01
 E= -467.301942941457     Delta-E=       -0.005965658373 Rises=F Damp=F
 DIIS: error= 4.59D-03 at cycle   4 NSaved=   4.
 NSaved= 4 IEnMin= 4 EnMin= -467.301942941457     IErMin= 4 ErrMin= 4.59D-03
 ErrMax= 4.59D-03  0.00D+00 EMaxC= 1.00D-01 BMatC= 5.20D-03 BMatP= 1.18D-02
 IDIUse=3 WtCom= 9.54D-01 WtEn= 4.59D-02
 Coeff-Com:  0.186D-01 0.120D+00 0.393D+00 0.469D+00
 Coeff-En:   0.000D+00 0.000D+00 0.320D+00 0.680D+00
 Coeff:      0.178D-01 0.115D+00 0.389D+00 0.478D+00
 Gap=     0.213 Goal=   None    Shift=    0.000
 RMSDP=4.64D-04 MaxDP=2.06D-02 DE=-5.97D-03 OVMax= 1.74D-02

 Cycle   5  Pass 1  IDiag  1:
 RMSU=  2.33D-04    CP:  9.86D-01  5.46D-01  5.97D-01  6.90D-01
 E= -467.305898695693     Delta-E=       -0.003955754237 Rises=F Damp=F
 DIIS: error= 1.01D-03 at cycle   5 NSaved=   5.
 NSaved= 5 IEnMin= 5 EnMin= -467.305898695693     IErMin= 5 ErrMin= 1.01D-03
 ErrMax= 1.01D-03  0.00D+00 EMaxC= 1.00D-01 BMatC= 2.53D-04 BMatP= 5.20D-03
 IDIUse=3 WtCom= 9.90D-01 WtEn= 1.01D-02
 Coeff-Com:  0.394D-02 0.314D-01 0.165D+00 0.264D+00 0.536D+00
 Coeff-En:   0.000D+00 0.000D+00 0.000D+00 0.000D+00 0.100D+01
 Coeff:      0.390D-02 0.310D-01 0.164D+00 0.261D+00 0.541D+00
 Gap=     0.210 Goal=   None    Shift=    0.000
 RMSDP=1.32D-04 MaxDP=9.24D-03 DE=-3.96D-03 OVMax= 3.61D-03

 Cycle   6  Pass 1  IDiag  1:
 RMSU=  4.79D-05    CP:  9.89D-01  5.56D-01  6.42D-01  7.02D-01  5.96D-01
 E= -467.306044859180     Delta-E=       -0.000146163487 Rises=F Damp=F
 DIIS: error= 3.99D-04 at cycle   6 NSaved=   6.
 NSaved= 6 IEnMin= 6 EnMin= -467.306044859180     IErMin= 6 ErrMin= 3.99D-04
 ErrMax= 3.99D-04  0.00D+00 EMaxC= 1.00D-01 BMatC= 4.96D-05 BMatP= 2.53D-04
 IDIUse=3 WtCom= 9.96D-01 WtEn= 3.99D-03
 Coeff-Com:  0.107D-02 0.835D-02 0.684D-01 0.125D+00 0.364D+00 0.434D+00
 Coeff-En:   0.000D+00 0.000D+00 0.000D+00 0.000D+00 0.176D+00 0.824D+00
 Coeff:      0.106D-02 0.831D-02 0.681D-01 0.124D+00 0.363D+00 0.435D+00
 Gap=     0.211 Goal=   None    Shift=    0.000
 RMSDP=2.71D-05 MaxDP=1.22D-03 DE=-1.46D-04 OVMax= 1.02D-03

 Cycle   7  Pass 1  IDiag  1:
 RMSU=  1.40D-05    CP:  9.88D-01  5.56D-01  6.37D-01  7.00D-01  6.60D-01
                    CP:  6.80D-01
 E= -467.306086896856     Delta-E=       -0.000042037675 Rises=F Damp=F
 DIIS: error= 3.29D-05 at cycle   7 NSaved=   7.
 NSaved= 7 IEnMin= 7 EnMin= -467.306086896856     IErMin= 7 ErrMin= 3.29D-05
 ErrMax= 3.29D-05  0.00D+00 EMaxC= 1.00D-01 BMatC= 3.49D-07 BMatP= 4.96D-05
 IDIUse=1 WtCom= 1.00D+00 WtEn= 0.00D+00
 Coeff-Com:  0.346D-03 0.168D-02 0.172D-01 0.320D-01 0.104D+00 0.155D+00
 Coeff-Com:  0.689D+00
 Coeff:      0.346D-03 0.168D-02 0.172D-01 0.320D-01 0.104D+00 0.155D+00
 Coeff:      0.689D+00
 Gap=     0.211 Goal=   None    Shift=    0.000
 RMSDP=4.56D-06 MaxDP=1.33D-04 DE=-4.20D-05 OVMax= 1.30D-04

 Cycle   8  Pass 1  IDiag  1:
 RMSU=  3.64D-06    CP:  9.88D-01  5.56D-01  6.37D-01  7.01D-01  6.58D-01
                    CP:  6.77D-01  8.49D-01
 E= -467.306087177028     Delta-E=       -0.000000280172 Rises=F Damp=F
 DIIS: error= 1.51D-05 at cycle   8 NSaved=   8.
 NSaved= 8 IEnMin= 8 EnMin= -467.306087177028     IErMin= 8 ErrMin= 1.51D-05
 ErrMax= 1.51D-05  0.00D+00 EMaxC= 1.00D-01 BMatC= 7.07D-08 BMatP= 3.49D-07
 IDIUse=1 WtCom= 1.00D+00 WtEn= 0.00D+00
 Coeff-Com:  0.132D-03 0.290D-03 0.432D-02 0.823D-02 0.298D-01 0.516D-01
 Coeff-Com:  0.365D+00 0.541D+00
 Coeff:      0.132D-03 0.290D-03 0.432D-02 0.823D-02 0.298D-01 0.516D-01
 Coeff:      0.365D+00 0.541D+00
 Gap=     0.211 Goal=   None    Shift=    0.000
 RMSDP=1.36D-06 MaxDP=2.58D-05 DE=-2.80D-07 OVMax= 5.01D-05

 Cycle   9  Pass 1  IDiag  1:
 RMSU=  8.57D-07    CP:  9.88D-01  5.56D-01  6.37D-01  7.02D-01  6.58D-01
                    CP:  6.86D-01  8.75D-01  8.45D-01
 E= -467.306087235929     Delta-E=       -0.000000058901 Rises=F Damp=F
 DIIS: error= 4.30D-06 at cycle   9 NSaved=   9.
 NSaved= 9 IEnMin= 9 EnMin= -467.306087235929     IErMin= 9 ErrMin= 4.30D-06
 ErrMax= 4.30D-06  0.00D+00 EMaxC= 1.00D-01 BMatC= 7.61D-09 BMatP= 7.07D-08
 IDIUse=1 WtCom= 1.00D+00 WtEn= 0.00D+00
 Coeff-Com:  0.241D-04-0.757D-04-0.119D-03-0.130D-03 0.961D-03 0.501D-02
 Coeff-Com:  0.954D-01 0.287D+00 0.612D+00
 Coeff:      0.241D-04-0.757D-04-0.119D-03-0.130D-03 0.961D-03 0.501D-02
 Coeff:      0.954D-01 0.287D+00 0.612D+00
 Gap=     0.211 Goal=   None    Shift=    0.000
 RMSDP=4.35D-07 MaxDP=1.28D-05 DE=-5.89D-08 OVMax= 1.39D-05

 Cycle  10  Pass 1  IDiag  1:
 RMSU=  1.99D-07    CP:  9.88D-01  5.56D-01  6.37D-01  7.02D-01  6.58D-01
                    CP:  6.88D-01  8.82D-01  8.52D-01  7.33D-01
 E= -467.306087222913     Delta-E=        0.000000013016 Rises=F Damp=F
 DIIS: error= 5.35D-07 at cycle  10 NSaved=  10.
 NSaved=10 IEnMin= 9 EnMin= -467.306087235929     IErMin=10 ErrMin= 5.35D-07
 ErrMax= 5.35D-07  0.00D+00 EMaxC= 1.00D-01 BMatC= 1.18D-10 BMatP= 7.61D-09
 IDIUse=1 WtCom= 1.00D+00 WtEn= 0.00D+00
 Coeff-Com:  0.520D-05-0.274D-04-0.101D-03-0.156D-03-0.129D-03 0.889D-03
 Coeff-Com:  0.270D-01 0.914D-01 0.228D+00 0.653D+00
 Coeff:      0.520D-05-0.274D-04-0.101D-03-0.156D-03-0.129D-03 0.889D-03
 Coeff:      0.270D-01 0.914D-01 0.228D+00 0.653D+00
 Gap=     0.211 Goal=   None    Shift=    0.000
 RMSDP=7.19D-08 MaxDP=2.69D-06 DE= 1.30D-08 OVMax= 2.23D-06

 Cycle  11  Pass 1  IDiag  1:
 RMSU=  4.98D-08    CP:  9.88D-01  5.56D-01  6.37D-01  7.02D-01  6.58D-01
                    CP:  6.88D-01  8.83D-01  8.53D-01  7.55D-01  8.88D-01
 E= -467.306087243389     Delta-E=       -0.000000020476 Rises=F Damp=F
 DIIS: error= 3.48D-07 at cycle  11 NSaved=  11.
 NSaved=11 IEnMin=11 EnMin= -467.306087243389     IErMin=11 ErrMin= 3.48D-07
 ErrMax= 3.48D-07  0.00D+00 EMaxC= 1.00D-01 BMatC= 3.74D-11 BMatP= 1.18D-10
 IDIUse=1 WtCom= 1.00D+00 WtEn= 0.00D+00
 Coeff-Com:  0.598D-06-0.869D-05-0.454D-04-0.749D-04-0.139D-03 0.873D-04
 Coeff-Com:  0.734D-02 0.272D-01 0.778D-01 0.392D+00 0.495D+00
 Coeff:      0.598D-06-0.869D-05-0.454D-04-0.749D-04-0.139D-03 0.873D-04
 Coeff:      0.734D-02 0.272D-01 0.778D-01 0.392D+00 0.495D+00
 Gap=     0.211 Goal=   None    Shift=    0.000
 RMSDP=2.27D-08 MaxDP=5.67D-07 DE=-2.05D-08 OVMax= 9.15D-07

 Cycle  12  Pass 1  IDiag  1:
 RMSU=  1.49D-08    CP:  9.88D-01  5.56D-01  6.37D-01  7.02D-01  6.58D-01
                    CP:  6.88D-01  8.83D-01  8.55D-01  7.54D-01  8.82D-01
                    CP:  7.19D-01
 E= -467.306087243419     Delta-E=       -0.000000000030 Rises=F Damp=F
 DIIS: error= 5.07D-08 at cycle  12 NSaved=  12.
 NSaved=12 IEnMin=12 EnMin= -467.306087243419     IErMin=12 ErrMin= 5.07D-08
 ErrMax= 5.07D-08  0.00D+00 EMaxC= 1.00D-01 BMatC= 7.75D-13 BMatP= 3.74D-11
 IDIUse=1 WtCom= 1.00D+00 WtEn= 0.00D+00
 Coeff-Com: -0.123D-06-0.206D-05-0.126D-04-0.231D-04-0.433D-04-0.193D-04
 Coeff-Com:  0.156D-02 0.607D-02 0.191D-01 0.121D+00 0.199D+00 0.654D+00
 Coeff:     -0.123D-06-0.206D-05-0.126D-04-0.231D-04-0.433D-04-0.193D-04
 Coeff:      0.156D-02 0.607D-02 0.191D-01 0.121D+00 0.199D+00 0.654D+00
 Gap=     0.211 Goal=   None    Shift=    0.000
 RMSDP=6.06D-09 MaxDP=1.73D-07 DE=-2.99D-11 OVMax= 1.76D-07

 Error on total polarization charges =  0.01579
 SCF Done:  E(RB-P86) =  -467.306087243     A.U. after   12 cycles
            NFock= 12  Conv=0.61D-08     -V/T= 2.0058
 KE= 4.646042538368D+02 PE=-2.499142894677D+03 EE= 8.605554947954D+02
 Leave Link  502 at Mon Feb 22 21:22:05 2021, MaxMem=   104857600 cpu:             749.2 elap:              23.8
 (Enter /sw/arch/RedHatEnterpriseServer7/EB_production/2019/software/Gaussian/g16.c01/l601.exe)
 Copying SCF densities to generalized density rwf, IOpCl= 0 IROHF=0.

 **********************************************************************

            Population analysis using the SCF Density.

 **********************************************************************

 Orbital symmetries:
       Occupied  (A) (A) (A) (A) (A) (A) (A) (A) (A) (A) (A) (A)
                 (A) (A) (A) (A) (A) (A) (A) (A) (A) (A) (A) (A)
                 (A) (A) (A) (A) (A) (A) (A) (A) (A) (A) (A) (A)
                 (A) (A) (A) (A) (A) (A) (A)
       Virtual   (A) (A) (A) (A) (A) (A) (A) (A) (A) (A) (A) (A)
                 (A) (A) (A) (A) (A) (A) (A) (A) (A) (A) (A) (A)
                 (A) (A) (A) (A) (A) (A) (A) (A) (A) (A) (A) (A)
                 (A) (A) (A) (A) (A) (A) (A) (A) (A) (A) (A) (A)
                 (A) (A) (A) (A) (A) (A) (A) (A) (A) (A) (A) (A)
                 (A) (A) (A) (A) (A) (A) (A) (A) (A) (A) (A) (A)
                 (A) (A) (A) (A) (A) (A) (A) (A) (A) (A) (A) (A)
                 (A) (A) (A) (A) (A) (A) (A) (A) (A) (A) (A) (A)
                 (A) (A) (A) (A) (A) (A) (A) (A) (A) (A) (A) (A)
                 (A) (A) (A) (A) (A) (A) (A) (A) (A) (A) (A) (A)
                 (A) (A) (A) (A) (A) (A) (A) (A) (A) (A) (A) (A)
                 (A) (A) (A) (A) (A) (A) (A) (A) (A) (A) (A) (A)
                 (A) (A) (A) (A) (A) (A) (A) (A) (A) (A) (A) (A)
                 (A) (A) (A) (A) (A) (A) (A) (A) (A) (A) (A) (A)
                 (A) (A) (A) (A) (A) (A) (A) (A) (A) (A) (A) (A)
                 (A) (A) (A) (A) (A) (A) (A) (A) (A) (A) (A) (A)
                 (A) (A) (A) (A) (A) (A) (A) (A) (A) (A) (A) (A)
                 (A) (A) (A) (A) (A) (A) (A) (A) (A) (A) (A) (A)
                 (A) (A) (A) (A) (A) (A) (A) (A) (A) (A) (A) (A)
                 (A) (A) (A) (A) (A) (A) (A) (A) (A) (A) (A) (A)
                 (A) (A) (A) (A) (A) (A) (A) (A) (A) (A) (A) (A)
                 (A) (A) (A) (A) (A) (A) (A) (A) (A) (A) (A) (A)
                 (A) (A) (A) (A) (A) (A) (A) (A) (A) (A)
 The electronic state is 1-A.
 Alpha  occ. eigenvalues --  -18.76323  -9.95980  -9.95761  -9.90697  -9.89198
 Alpha  occ. eigenvalues --   -9.89181  -9.89107  -9.89099  -9.88724  -9.88200
 Alpha  occ. eigenvalues --   -9.88169  -0.93451  -0.74274  -0.72853  -0.66960
 Alpha  occ. eigenvalues --   -0.66229  -0.61792  -0.61169  -0.54880  -0.54198
 Alpha  occ. eigenvalues --   -0.53264  -0.44803  -0.43828  -0.42295  -0.41785
 Alpha  occ. eigenvalues --   -0.39813  -0.37944  -0.37010  -0.35898  -0.35761
 Alpha  occ. eigenvalues --   -0.34634  -0.33748  -0.33316  -0.32767  -0.32432
 Alpha  occ. eigenvalues --   -0.31273  -0.31222  -0.30805  -0.29594  -0.27347
 Alpha  occ. eigenvalues --   -0.26367  -0.24165  -0.20078
 Alpha virt. eigenvalues --    0.01003   0.03401   0.04025   0.04924   0.05105
 Alpha virt. eigenvalues --    0.06629   0.07585   0.07713   0.08373   0.08884
 Alpha virt. eigenvalues --    0.09652   0.09772   0.10187   0.10874   0.11485
 Alpha virt. eigenvalues --    0.11762   0.12340   0.12719   0.13791   0.13993
 Alpha virt. eigenvalues --    0.14623   0.15037   0.15368   0.15783   0.16213
 Alpha virt. eigenvalues --    0.17282   0.18632   0.19059   0.19137   0.20554
 Alpha virt. eigenvalues --    0.21418   0.21461   0.21876   0.24970   0.25377
 Alpha virt. eigenvalues --    0.25688   0.27593   0.28868   0.29234   0.29424
 Alpha virt. eigenvalues --    0.31556   0.32132   0.32193   0.32282   0.33886
 Alpha virt. eigenvalues --    0.35953   0.36815   0.37051   0.37558   0.38274
 Alpha virt. eigenvalues --    0.38472   0.39121   0.39819   0.40321   0.40419
 Alpha virt. eigenvalues --    0.41583   0.41693   0.42368   0.42879   0.43195
 Alpha virt. eigenvalues --    0.43772   0.43976   0.44870   0.45073   0.45207
 Alpha virt. eigenvalues --    0.46536   0.46673   0.47239   0.47294   0.47644
 Alpha virt. eigenvalues --    0.48514   0.48712   0.49323   0.50640   0.50853
 Alpha virt. eigenvalues --    0.52616   0.55210   0.55925   0.59026   0.61472
 Alpha virt. eigenvalues --    0.62200   0.63503   0.63607   0.68112   0.70125
 Alpha virt. eigenvalues --    0.73084   0.74039   0.76322   0.80220   0.81015
 Alpha virt. eigenvalues --    0.83745   0.97444   1.08437   1.08897   1.15946
 Alpha virt. eigenvalues --    1.17550   1.18861   1.21126   1.21369   1.22146
 Alpha virt. eigenvalues --    1.23856   1.24988   1.25048   1.26334   1.27422
 Alpha virt. eigenvalues --    1.27424   1.28012   1.28427   1.29117   1.29748
 Alpha virt. eigenvalues --    1.30261   1.30664   1.32230   1.33338   1.34119
 Alpha virt. eigenvalues --    1.34293   1.35761   1.36096   1.38367   1.38664
 Alpha virt. eigenvalues --    1.40370   1.40942   1.41270   1.42301   1.43005
 Alpha virt. eigenvalues --    1.44509   1.44832   1.45863   1.46627   1.48363
 Alpha virt. eigenvalues --    1.48770   1.52335   1.52701   1.54917   1.56098
 Alpha virt. eigenvalues --    1.57244   1.57850   1.58857   1.60322   1.61579
 Alpha virt. eigenvalues --    1.63012   1.63370   1.64603   1.65804   1.66345
 Alpha virt. eigenvalues --    1.66707   1.67992   1.69255   1.70377   1.70473
 Alpha virt. eigenvalues --    1.71318   1.73913   1.74020   1.74435   1.74933
 Alpha virt. eigenvalues --    1.76127   1.76494   1.77292   1.79071   1.79721
 Alpha virt. eigenvalues --    1.81854   1.81994   1.84979   1.87232   1.87717
 Alpha virt. eigenvalues --    1.89928   1.90585   1.92438   1.92586   1.94109
 Alpha virt. eigenvalues --    1.94399   1.96926   1.98812   1.99771   2.01600
 Alpha virt. eigenvalues --    2.04628   2.05783   2.08011   2.10273   2.11237
 Alpha virt. eigenvalues --    2.13482   2.15796   2.16204   2.16788   2.19472
 Alpha virt. eigenvalues --    2.20664   2.24334   2.26163   2.28644   2.29881
 Alpha virt. eigenvalues --    2.32051   2.32316   2.32507   2.33475   2.35094
 Alpha virt. eigenvalues --    2.35455   2.36339   2.38650   2.41244   2.42554
 Alpha virt. eigenvalues --    2.43730   2.45493   2.47640   2.48287   2.49695
 Alpha virt. eigenvalues --    2.49855   2.52679   2.52810   2.53558   2.56058
 Alpha virt. eigenvalues --    2.57764   2.58897   2.59371   2.60497   2.60652
 Alpha virt. eigenvalues --    2.61022   2.62638   2.63076   2.64544   2.66335
 Alpha virt. eigenvalues --    2.69295   2.71061   2.71912   2.72262   2.75985
 Alpha virt. eigenvalues --    2.77480   2.77619   2.80774   2.83862   2.85632
 Alpha virt. eigenvalues --    2.92233   2.94402   2.94649   2.98802   3.01467
 Alpha virt. eigenvalues --    3.06204   3.08163   3.08427   3.10329   3.11377
 Alpha virt. eigenvalues --    3.11768   3.15912   3.20980   3.23348   3.25847
 Alpha virt. eigenvalues --    3.28014   3.28215   3.28848   3.30010   3.31354
 Alpha virt. eigenvalues --    3.34687   3.36589   3.36905   3.37836   3.38782
 Alpha virt. eigenvalues --    3.39794   3.41911   3.47654   3.49464   3.54181
 Alpha virt. eigenvalues --    3.58242   3.95782   4.03098  21.78149  21.82951
 Alpha virt. eigenvalues --   21.84585  21.87048  21.89006  21.89765  21.95454
 Alpha virt. eigenvalues --   21.97910  22.01386  22.16388  43.55924
          Condensed to atoms (all electrons):
               1          2          3          4          5          6
     1  C    5.204737   0.195909  -0.080835   0.010992   0.010785   0.011035
     2  C    0.195909   5.558139   0.230792  -0.019666  -0.036595  -0.018296
     3  C   -0.080835   0.230792   5.460136   0.180305  -0.039774   0.009753
     4  C    0.010992  -0.019666   0.180305   5.437904   0.140622  -0.080133
     5  C    0.010785  -0.036595  -0.039774   0.140622   5.688565   0.142973
     6  C    0.011035  -0.018296   0.009753  -0.080133   0.142973   5.436470
     7  C   -0.080380   0.231907  -0.141001   0.010866  -0.040779   0.180393
     8  C   -0.007125  -0.116503  -0.013945  -0.050084   0.188832  -0.051233
     9  C   -0.001801  -0.006584  -0.003745   0.007546  -0.100414   0.024288
    10  C   -0.001585  -0.005679   0.000579   0.024400  -0.101473   0.007578
    11  O   -0.051336   0.243694  -0.059065  -0.028685  -0.049722  -0.028733
    12  H    0.394832  -0.008567  -0.014459   0.001594  -0.002094   0.001610
    13  H    0.398023  -0.041782   0.017852  -0.001259   0.000271   0.000301
    14  H    0.398330  -0.041616  -0.013430   0.000253   0.000384  -0.001279
    15  H   -0.012756  -0.042361   0.398111  -0.027342   0.002631  -0.002927
    16  H   -0.004912  -0.021068   0.370417  -0.030240   0.002711   0.001639
    17  H   -0.000642   0.004067  -0.034673   0.417525  -0.048275   0.014258
    18  H   -0.001009  -0.006204  -0.027085   0.395985  -0.031286  -0.010335
    19  H    0.000297  -0.004382   0.012390  -0.039601   0.413904  -0.039716
    20  H   -0.000680   0.003634  -0.003037   0.014217  -0.048151   0.416969
    21  H   -0.000960  -0.005793   0.005046  -0.010223  -0.031607   0.396746
    22  H   -0.012177  -0.041405   0.017112  -0.002813   0.002553  -0.026706
    23  H   -0.005519  -0.022099   0.003627   0.001461   0.003050  -0.031080
    24  H    0.000092   0.002076  -0.000475  -0.002628  -0.005293   0.000531
    25  H   -0.000646  -0.003497  -0.000679   0.008117  -0.009435  -0.001526
    26  H   -0.000006  -0.000282   0.000244  -0.001115   0.016133  -0.001003
    27  H   -0.000679  -0.003460   0.000754  -0.001555  -0.009294   0.008206
    28  H   -0.000016  -0.000301  -0.000013  -0.000995   0.016213  -0.001121
    29  H    0.000082   0.002026  -0.000140   0.000563  -0.005361  -0.002715
               7          8          9         10         11         12
     1  C   -0.080380  -0.007125  -0.001801  -0.001585  -0.051336   0.394832
     2  C    0.231907  -0.116503  -0.006584  -0.005679   0.243694  -0.008567
     3  C   -0.141001  -0.013945  -0.003745   0.000579  -0.059065  -0.014459
     4  C    0.010866  -0.050084   0.007546   0.024400  -0.028685   0.001594
     5  C   -0.040779   0.188832  -0.100414  -0.101473  -0.049722  -0.002094
     6  C    0.180393  -0.051233   0.024288   0.007578  -0.028733   0.001610
     7  C    5.454944  -0.013550   0.000683  -0.004476  -0.057667  -0.014171
     8  C   -0.013550   5.513115   0.243964   0.242776   0.281613   0.000587
     9  C    0.000683   0.243964   5.295898  -0.150566  -0.072505   0.000062
    10  C   -0.004476   0.242776  -0.150566   5.298855  -0.072882   0.000069
    11  O   -0.057667   0.281613  -0.072505  -0.072882   8.070055   0.004875
    12  H   -0.014171   0.000587   0.000062   0.000069   0.004875   0.534559
    13  H   -0.013824  -0.001057   0.000192   0.000076   0.003898  -0.023307
    14  H    0.017775  -0.001139   0.000108   0.000163   0.003321  -0.023995
    15  H    0.017393  -0.000772   0.001838  -0.000347  -0.001444   0.001398
    16  H    0.003090   0.002045  -0.000763   0.000337   0.008088   0.001266
    17  H   -0.003073  -0.004398   0.001728  -0.000275   0.002513  -0.000002
    18  H    0.005252   0.011783   0.001152  -0.001197  -0.000866   0.000019
    19  H    0.012293  -0.038851  -0.002205  -0.002821   0.005236  -0.000023
    20  H   -0.034552  -0.004147  -0.000299   0.001681   0.002541  -0.000005
    21  H   -0.027292   0.011813  -0.001162   0.001161  -0.000873   0.000018
    22  H    0.397141  -0.000922  -0.000315   0.001919  -0.001310   0.001435
    23  H    0.372482   0.001993   0.000324  -0.000753   0.008030   0.001288
    24  H   -0.000138  -0.025266   0.372586   0.005490   0.007346  -0.000001
    25  H    0.000723  -0.041026   0.398590   0.013521   0.001419   0.000012
    26  H    0.000002  -0.035892   0.395320  -0.012219   0.001126   0.000002
    27  H   -0.000816  -0.041401   0.013573   0.398691   0.001584   0.000012
    28  H    0.000288  -0.036044  -0.012308   0.395640   0.001124   0.000002
    29  H   -0.000386  -0.025040   0.005427   0.372336   0.007346  -0.000001
              13         14         15         16         17         18
     1  C    0.398023   0.398330  -0.012756  -0.004912  -0.000642  -0.001009
     2  C   -0.041782  -0.041616  -0.042361  -0.021068   0.004067  -0.006204
     3  C    0.017852  -0.013430   0.398111   0.370417  -0.034673  -0.027085
     4  C   -0.001259   0.000253  -0.027342  -0.030240   0.417525   0.395985
     5  C    0.000271   0.000384   0.002631   0.002711  -0.048275  -0.031286
     6  C    0.000301  -0.001279  -0.002927   0.001639   0.014258  -0.010335
     7  C   -0.013824   0.017775   0.017393   0.003090  -0.003073   0.005252
     8  C   -0.001057  -0.001139  -0.000772   0.002045  -0.004398   0.011783
     9  C    0.000192   0.000108   0.001838  -0.000763   0.001728   0.001152
    10  C    0.000076   0.000163  -0.000347   0.000337  -0.000275  -0.001197
    11  O    0.003898   0.003321  -0.001444   0.008088   0.002513  -0.000866
    12  H   -0.023307  -0.023995   0.001398   0.001266  -0.000002   0.000019
    13  H    0.540057  -0.025265  -0.000314  -0.000708   0.000019   0.000037
    14  H   -0.025265   0.540288   0.004740   0.001504   0.000006  -0.000000
    15  H   -0.000314   0.004740   0.529076  -0.015256  -0.007989   0.004645
    16  H   -0.000708   0.001504  -0.015256   0.539455   0.003511  -0.011435
    17  H    0.000019   0.000006  -0.007989   0.003511   0.503011  -0.014963
    18  H    0.000037  -0.000000   0.004645  -0.011435  -0.014963   0.520578
    19  H   -0.000014  -0.000013  -0.000435  -0.000248  -0.003804  -0.001288
    20  H    0.000014   0.000020   0.000079  -0.000074  -0.000330   0.000207
    21  H   -0.000003   0.000035  -0.000004  -0.000038   0.000191   0.004007
    22  H    0.004569  -0.000332  -0.000415  -0.000546   0.000079  -0.000012
    23  H    0.001537  -0.000659  -0.000550  -0.001895  -0.000081  -0.000023
    24  H   -0.000007   0.000015   0.000185   0.000046   0.000629  -0.000254
    25  H   -0.000021   0.000083   0.000792   0.000301  -0.002130   0.000130
    26  H    0.000011   0.000036   0.000033  -0.000008   0.000101   0.000027
    27  H    0.000087  -0.000018  -0.000023  -0.000023   0.000008   0.000010
    28  H    0.000041   0.000010   0.000031  -0.000007  -0.000003   0.000027
    29  H    0.000017  -0.000007   0.000002  -0.000025  -0.000058   0.000056
              19         20         21         22         23         24
     1  C    0.000297  -0.000680  -0.000960  -0.012177  -0.005519   0.000092
     2  C   -0.004382   0.003634  -0.005793  -0.041405  -0.022099   0.002076
     3  C    0.012390  -0.003037   0.005046   0.017112   0.003627  -0.000475
     4  C   -0.039601   0.014217  -0.010223  -0.002813   0.001461  -0.002628
     5  C    0.413904  -0.048151  -0.031607   0.002553   0.003050  -0.005293
     6  C   -0.039716   0.416969   0.396746  -0.026706  -0.031080   0.000531
     7  C    0.012293  -0.034552  -0.027292   0.397141   0.372482  -0.000138
     8  C   -0.038851  -0.004147   0.011813  -0.000922   0.001993  -0.025266
     9  C   -0.002205  -0.000299  -0.001162  -0.000315   0.000324   0.372586
    10  C   -0.002821   0.001681   0.001161   0.001919  -0.000753   0.005490
    11  O    0.005236   0.002541  -0.000873  -0.001310   0.008030   0.007346
    12  H   -0.000023  -0.000005   0.000018   0.001435   0.001288  -0.000001
    13  H   -0.000014   0.000014  -0.000003   0.004569   0.001537  -0.000007
    14  H   -0.000013   0.000020   0.000035  -0.000332  -0.000659   0.000015
    15  H   -0.000435   0.000079  -0.000004  -0.000415  -0.000550   0.000185
    16  H   -0.000248  -0.000074  -0.000038  -0.000546  -0.001895   0.000046
    17  H   -0.003804  -0.000330   0.000191   0.000079  -0.000081   0.000629
    18  H   -0.001288   0.000207   0.004007  -0.000012  -0.000023  -0.000254
    19  H    0.504122  -0.003654  -0.001394  -0.000431  -0.000229  -0.000399
    20  H   -0.003654   0.503258  -0.014941  -0.007951   0.003561  -0.000056
    21  H   -0.001394  -0.014941   0.519957   0.004555  -0.011330   0.000054
    22  H   -0.000431  -0.007951   0.004555   0.529430  -0.015548   0.000001
    23  H   -0.000229   0.003561  -0.011330  -0.015548   0.539638  -0.000025
    24  H   -0.000399  -0.000056   0.000054   0.000001  -0.000025   0.553991
    25  H    0.000447   0.000010   0.000009  -0.000022  -0.000021  -0.021535
    26  H   -0.000268  -0.000003   0.000027   0.000028  -0.000007  -0.024248
    27  H    0.000499  -0.002072   0.000140   0.000753   0.000283  -0.000476
    28  H   -0.000263   0.000105   0.000026   0.000023  -0.000008   0.000319
    29  H   -0.000296   0.000609  -0.000254   0.000169   0.000044  -0.001633
              25         26         27         28         29
     1  C   -0.000646  -0.000006  -0.000679  -0.000016   0.000082
     2  C   -0.003497  -0.000282  -0.003460  -0.000301   0.002026
     3  C   -0.000679   0.000244   0.000754  -0.000013  -0.000140
     4  C    0.008117  -0.001115  -0.001555  -0.000995   0.000563
     5  C   -0.009435   0.016133  -0.009294   0.016213  -0.005361
     6  C   -0.001526  -0.001003   0.008206  -0.001121  -0.002715
     7  C    0.000723   0.000002  -0.000816   0.000288  -0.000386
     8  C   -0.041026  -0.035892  -0.041401  -0.036044  -0.025040
     9  C    0.398590   0.395320   0.013573  -0.012308   0.005427
    10  C    0.013521  -0.012219   0.398691   0.395640   0.372336
    11  O    0.001419   0.001126   0.001584   0.001124   0.007346
    12  H    0.000012   0.000002   0.000012   0.000002  -0.000001
    13  H   -0.000021   0.000011   0.000087   0.000041   0.000017
    14  H    0.000083   0.000036  -0.000018   0.000010  -0.000007
    15  H    0.000792   0.000033  -0.000023   0.000031   0.000002
    16  H    0.000301  -0.000008  -0.000023  -0.000007  -0.000025
    17  H   -0.002130   0.000101   0.000008  -0.000003  -0.000058
    18  H    0.000130   0.000027   0.000010   0.000027   0.000056
    19  H    0.000447  -0.000268   0.000499  -0.000263  -0.000296
    20  H    0.000010  -0.000003  -0.002072   0.000105   0.000609
    21  H    0.000009   0.000027   0.000140   0.000026  -0.000254
    22  H   -0.000022   0.000028   0.000753   0.000023   0.000169
    23  H   -0.000021  -0.000007   0.000283  -0.000008   0.000044
    24  H   -0.021535  -0.024248  -0.000476   0.000319  -0.001633
    25  H    0.531724  -0.024126  -0.000497   0.000111  -0.000469
    26  H   -0.024126   0.536825   0.000109   0.005562   0.000312
    27  H   -0.000497   0.000109   0.531618  -0.024159  -0.021493
    28  H    0.000111   0.005562  -0.024159   0.536468  -0.024235
    29  H   -0.000469   0.000312  -0.021493  -0.024235   0.553767
 Mulliken charges:
               1
     1  C   -0.362051
     2  C   -0.026104
     3  C   -0.274760
     4  C   -0.356008
     5  C   -0.070075
     6  C   -0.355947
     7  C   -0.273126
     8  C    0.009873
     9  C   -0.410615
    10  C   -0.410999
    11  O   -0.228721
    12  H    0.142985
    13  H    0.140558
    14  H    0.140684
    15  H    0.151982
    16  H    0.152837
    17  H    0.173049
    18  H    0.162042
    19  H    0.191147
    20  H    0.173045
    21  H    0.162089
    22  H    0.151137
    23  H    0.152508
    24  H    0.139073
    25  H    0.149639
    26  H    0.143278
    27  H    0.149638
    28  H    0.143483
    29  H    0.139358
 Sum of Mulliken charges =  -0.00000
 Mulliken charges with hydrogens summed into heavy atoms:
               1
     1  C    0.062176
     2  C   -0.026104
     3  C    0.030059
     4  C   -0.020918
     5  C    0.121073
     6  C   -0.020813
     7  C    0.030520
     8  C    0.009873
     9  C    0.021375
    10  C    0.021481
    11  O   -0.228721
 Electronic spatial extent (au):  <R**2>=           1617.1860
 Charge=             -0.0000 electrons
 Dipole moment (field-independent basis, Debye):
    X=              0.1866    Y=              2.1649    Z=              0.0548  Tot=              2.1736
 Quadrupole moment (field-independent basis, Debye-Ang):
   XX=            -66.4279   YY=            -72.6095   ZZ=            -70.1315
   XY=             -0.0966   XZ=             -0.0044   YZ=             -0.0735
 Traceless Quadrupole moment (field-independent basis, Debye-Ang):
   XX=              3.2951   YY=             -2.8866   ZZ=             -0.4085
   XY=             -0.0966   XZ=             -0.0044   YZ=             -0.0735
 Octapole moment (field-independent basis, Debye-Ang**2):
  XXX=              2.4516  YYY=              3.4833  ZZZ=             -0.1657  XYY=              0.4994
  XXY=              0.1419  XXZ=             -0.0177  XZZ=              0.2548  YZZ=             -2.1163
  YYZ=              0.1336  XYZ=             -0.0059
 Hexadecapole moment (field-independent basis, Debye-Ang**3):
 XXXX=          -1050.8408 YYYY=           -610.9859 ZZZZ=           -570.9147 XXXY=             -2.4383
 XXXZ=             -0.1460 YYYX=              6.5650 YYYZ=              0.3652 ZZZX=             -0.1751
 ZZZY=             -0.1924 XXYY=           -272.3576 XXZZ=           -281.8054 YYZZ=           -200.4560
 XXYZ=              0.4077 YYXZ=              0.3069 ZZXY=             -3.8484
 N-N= 7.066770588018D+02 E-N=-2.499142895770D+03  KE= 4.646042538368D+02
 No NMR shielding tensors so no spin-rotation constants.
 Leave Link  601 at Mon Feb 22 21:22:05 2021, MaxMem=   104857600 cpu:               8.2 elap:               0.3
 (Enter /sw/arch/RedHatEnterpriseServer7/EB_production/2019/software/Gaussian/g16.c01/l701.exe)
 ... and contract with generalized density number  0.
 Compute integral first derivatives.
 R6Disp: Adding Grimme-D3 dispersion energy 1st derivatives to the gradient.
 PrsmSu:  requested number of processors reduced to:  28 ShMem   1 Linda.
 D1PCM: PCM CHGder 1st derivatives, ID1Alg=3 FixD1E=F DoIter=F DoCFld=F I1PDM=0.
 GePol: Maximum number of non-zero 1st derivatives   =     211
 CoulSu:  requested number of processors reduced to:  28 ShMem   1 Linda.
 CoulSu:  requested number of processors reduced to:  29 ShMem   1 Linda.
 Leave Link  701 at Mon Feb 22 21:22:06 2021, MaxMem=   104857600 cpu:              30.1 elap:               1.0
 (Enter /sw/arch/RedHatEnterpriseServer7/EB_production/2019/software/Gaussian/g16.c01/l702.exe)
 L702 exits ... SP integral derivatives will be done elsewhere.
 Leave Link  702 at Mon Feb 22 21:22:07 2021, MaxMem=   104857600 cpu:               0.8 elap:               0.1
 (Enter /sw/arch/RedHatEnterpriseServer7/EB_production/2019/software/Gaussian/g16.c01/l703.exe)
 Integral derivatives from FoFJK, PRISM(SPDF).
 Compute integral first derivatives, UseDBF=F ICtDFT=           0.
 Calling FoFJK, ICntrl=      2527 FMM=F ISym2X=0 I1Cent= 0 IOpClX= 0 NMat=1 NMatS=1 NMatT=0.
 FoFJK:  IHMeth= 1 ICntrl=    2527 DoSepK=F KAlg= 0 I1Cent=           0 FoldK=F
 IRaf=         0 NMat=       1 IRICut=       1 DoRegI=T DoRafI=F ISym2E= 0 IDoP0=0 IntGTp=1.
 FoFCou: FMM=F IPFlag=           0 FMFlag=      100000 FMFlg1=         800
         NFxFlg=           0 DoJE=F BraDBF=F KetDBF=F FulRan=T
         wScrn=  0.000000 ICntrl=      2527 IOpCl=  0 I1Cent=           0 NGrid=           0
         NMat0=    1 NMatS0=      1 NMatT0=    0 NMatD0=    1 NMtDS0=    0 NMtDT0=    0
 Symmetry not used in FoFCou.
 Leave Link  703 at Mon Feb 22 21:22:11 2021, MaxMem=   104857600 cpu:             137.9 elap:               4.3
 (Enter /sw/arch/RedHatEnterpriseServer7/EB_production/2019/software/Gaussian/g16.c01/l716.exe)
 Dipole        = 7.33978006D-02 8.51746567D-01 2.15723493D-02
 ***** Axes restored to original set *****
 -------------------------------------------------------------------
 Center     Atomic                   Forces (Hartrees/Bohr)
 Number     Number              X              Y              Z
 -------------------------------------------------------------------
      1        6           0.013270695    0.000351240   -0.014266684
      2        6           0.013166717   -0.011544196    0.001400859
      3        6          -0.003047331   -0.004328432   -0.011665692
      4        6          -0.008927180    0.002343423   -0.007783176
      5        6          -0.020105159   -0.001516452    0.021851512
      6        6          -0.001093010    0.012082808   -0.000277704
      7        6           0.008256944    0.009786944   -0.000409648
      8        6           0.008652876    0.001440926   -0.010144129
      9        6          -0.003738740   -0.013098840    0.004119006
     10        6           0.005168293   -0.001872700    0.013101530
     11        8          -0.007767142    0.002677039    0.004198228
     12        1           0.001642089   -0.003532062    0.002625930
     13        1          -0.004208621   -0.001265348   -0.003284806
     14        1           0.000868840    0.005295957    0.001815449
     15        1          -0.003754552    0.003727511    0.001443991
     16        1          -0.002058425   -0.002280989    0.003708286
     17        1           0.002358422    0.005187392   -0.000301742
     18        1           0.001656293   -0.004790462   -0.001756134
     19        1           0.000649834    0.002618092   -0.003905014
     20        1          -0.002478445   -0.000594529   -0.005001609
     21        1           0.004941599   -0.000247215    0.001662271
     22        1          -0.005065874    0.002148636   -0.000042319
     23        1          -0.001300055   -0.001209441    0.004465597
     24        1           0.003894715   -0.000545819   -0.003449341
     25        1           0.002736013   -0.000667957    0.006057741
     26        1          -0.004628673    0.000849786   -0.002771429
     27        1          -0.001894095   -0.006485747    0.001682372
     28        1          -0.001459091    0.005874861    0.000483115
     29        1           0.004263063   -0.000404427   -0.003556460
 -------------------------------------------------------------------
[...]
 Alpha virt. eigenvalues --    0.36906   0.37166   0.38006   0.38144   0.39048
 Alpha virt. eigenvalues --    0.39238   0.40059   0.40540   0.40675   0.40983
 Alpha virt. eigenvalues --    0.42455   0.42490   0.43064   0.43384   0.43469
 Alpha virt. eigenvalues --    0.43894   0.44202   0.44943   0.45244   0.45318
 Alpha virt. eigenvalues --    0.46682   0.47126   0.47641   0.48095   0.48253
 Alpha virt. eigenvalues --    0.49068   0.49169   0.49406   0.51102   0.51576
 Alpha virt. eigenvalues --    0.54334   0.55089   0.57036   0.59803   0.62566
 Alpha virt. eigenvalues --    0.62613   0.64311   0.64906   0.68774   0.71569
 Alpha virt. eigenvalues --    0.72842   0.74597   0.75706   0.82328   0.82367
 Alpha virt. eigenvalues --    0.83525   0.98245   1.08314   1.09150   1.16170
 Alpha virt. eigenvalues --    1.17988   1.19335   1.21133   1.21412   1.22385
 Alpha virt. eigenvalues --    1.24137   1.24773   1.25025   1.26306   1.27311
 Alpha virt. eigenvalues --    1.27660   1.28376   1.28458   1.29366   1.30022
 Alpha virt. eigenvalues --    1.30229   1.31796   1.33571   1.34129   1.34544
 Alpha virt. eigenvalues --    1.35582   1.35701   1.37532   1.38822   1.39706
 Alpha virt. eigenvalues --    1.41016   1.42110   1.42209   1.42946   1.43522
 Alpha virt. eigenvalues --    1.44391   1.45369   1.45986   1.47703   1.48433
 Alpha virt. eigenvalues --    1.50690   1.52775   1.52857   1.56049   1.56432
 Alpha virt. eigenvalues --    1.57912   1.58198   1.60285   1.60538   1.62877
 Alpha virt. eigenvalues --    1.64440   1.65377   1.66015   1.66902   1.67263
 Alpha virt. eigenvalues --    1.68212   1.68269   1.69385   1.71263   1.71466
 Alpha virt. eigenvalues --    1.72627   1.73898   1.74115   1.74503   1.75145
 Alpha virt. eigenvalues --    1.76498   1.77398   1.77883   1.79935   1.81539
 Alpha virt. eigenvalues --    1.82422   1.83094   1.85687   1.89716   1.90774
 Alpha virt. eigenvalues --    1.91513   1.92732   1.94861   1.95256   1.95883
 Alpha virt. eigenvalues --    1.97240   1.97954   1.99423   2.03590   2.05042
 Alpha virt. eigenvalues --    2.06405   2.06844   2.09804   2.12374   2.13847
 Alpha virt. eigenvalues --    2.15071   2.16341   2.16768   2.18712   2.21429
 Alpha virt. eigenvalues --    2.21622   2.24704   2.26145   2.29318   2.30046
 Alpha virt. eigenvalues --    2.31803   2.32357   2.33725   2.34462   2.35081
 Alpha virt. eigenvalues --    2.36473   2.36821   2.40137   2.42078   2.42337
 Alpha virt. eigenvalues --    2.44863   2.46974   2.47867   2.49099   2.51000
 Alpha virt. eigenvalues --    2.52576   2.53467   2.54186   2.55424   2.57888
 Alpha virt. eigenvalues --    2.58957   2.59312   2.60546   2.61676   2.62178
 Alpha virt. eigenvalues --    2.62677   2.65225   2.65907   2.67643   2.68148
 Alpha virt. eigenvalues --    2.70318   2.72059   2.72148   2.73734   2.77478
 Alpha virt. eigenvalues --    2.80373   2.80404   2.82213   2.85779   2.86121
 Alpha virt. eigenvalues --    2.93834   2.96063   2.96636   2.99740   3.04549
 Alpha virt. eigenvalues --    3.05853   3.08337   3.10141   3.11860   3.12556
 Alpha virt. eigenvalues --    3.13962   3.16717   3.21162   3.23175   3.25409
 Alpha virt. eigenvalues --    3.26707   3.28420   3.29049   3.29699   3.32130
 Alpha virt. eigenvalues --    3.36963   3.37699   3.38398   3.39450   3.41354
 Alpha virt. eigenvalues --    3.42894   3.44454   3.50603   3.51471   3.56453
 Alpha virt. eigenvalues --    3.63156   3.96480   4.04416  21.78458  21.82327
 Alpha virt. eigenvalues --   21.86270  21.86473  21.89874  21.91855  21.95365
 Alpha virt. eigenvalues --   22.00854  22.02090  22.17294  43.57256
          Condensed to atoms (all electrons):
               1          2          3          4          5          6
     1  C    5.253145   0.192227  -0.089886   0.012651   0.008358   0.012769
     2  C    0.192227   5.712138   0.190817  -0.027867  -0.054121  -0.027593
     3  C   -0.089886   0.190817   5.521942   0.172855  -0.045025   0.015043
     4  C    0.012651  -0.027867   0.172855   5.435761   0.126175  -0.068075
     5  C    0.008358  -0.054121  -0.045025   0.126175   5.832708   0.128480
     6  C    0.012769  -0.027593   0.015043  -0.068075   0.128480   5.432637
     7  C   -0.090098   0.193640  -0.143917   0.016019  -0.046056   0.174041
     8  C   -0.008503  -0.130968  -0.011259  -0.050609   0.148597  -0.051531
     9  C   -0.002248  -0.008527  -0.005578   0.004402  -0.106442   0.025440
    10  C   -0.002257  -0.007898   0.001603   0.025335  -0.106196   0.004190
    11  O   -0.057969   0.248153  -0.064322  -0.024683  -0.077282  -0.024401
    12  H    0.396857  -0.011382  -0.016975   0.001884  -0.002480   0.001870
    13  H    0.399238  -0.042170   0.020289  -0.001570   0.000597   0.000575
    14  H    0.399107  -0.042099  -0.018032   0.000562   0.000624  -0.001579
    15  H   -0.014816  -0.045280   0.396390  -0.025838   0.004693  -0.003723
    16  H   -0.005602  -0.016440   0.363873  -0.022860   0.001075   0.002366
    17  H   -0.000746   0.004879  -0.038177   0.424538  -0.050831   0.013582
    18  H   -0.001076  -0.006917  -0.022995   0.391044  -0.030959  -0.010915
    19  H    0.000305  -0.005122   0.013397  -0.035004   0.409589  -0.034758
    20  H   -0.000759   0.004629  -0.003239   0.013647  -0.051204   0.424458
    21  H   -0.001071  -0.006737   0.005126  -0.010863  -0.030985   0.391345
    22  H   -0.014806  -0.044905   0.019407  -0.003652   0.004703  -0.025427
    23  H   -0.005566  -0.016800   0.001348   0.002308   0.000981  -0.022961
    24  H    0.000117   0.002093  -0.000268  -0.003896  -0.004418   0.000530
    25  H   -0.000837  -0.003865  -0.001843   0.010225  -0.012211  -0.001822
    26  H    0.000034  -0.000044   0.000235  -0.001111   0.018009  -0.001079
    27  H   -0.000841  -0.003836   0.000910  -0.001833  -0.011867   0.010198
    28  H    0.000033  -0.000069  -0.000104  -0.001064   0.017994  -0.001133
    29  H    0.000117   0.002043  -0.000085   0.000562  -0.004670  -0.003872
               7          8          9         10         11         12
     1  C   -0.090098  -0.008503  -0.002248  -0.002257  -0.057969   0.396857
     2  C    0.193640  -0.130968  -0.008527  -0.007898   0.248153  -0.011382
     3  C   -0.143917  -0.011259  -0.005578   0.001603  -0.064322  -0.016975
     4  C    0.016019  -0.050609   0.004402   0.025335  -0.024683   0.001884
     5  C   -0.046056   0.148597  -0.106442  -0.106196  -0.077282  -0.002480
     6  C    0.174041  -0.051531   0.025440   0.004190  -0.024401   0.001870
     7  C    5.517876  -0.011786   0.001622  -0.005861  -0.063745  -0.016779
     8  C   -0.011786   5.644004   0.220559   0.220813   0.279896   0.000635
     9  C    0.001622   0.220559   5.333192  -0.148914  -0.070340   0.000087
    10  C   -0.005861   0.220813  -0.148914   5.333195  -0.071038   0.000088
    11  O   -0.063745   0.279896  -0.070340  -0.071038   8.123718   0.005827
    12  H   -0.016779   0.000635   0.000087   0.000088   0.005827   0.532688
    13  H   -0.018167  -0.001502   0.000136   0.000262   0.003830  -0.022790
    14  H    0.020293  -0.001526   0.000269   0.000130   0.003785  -0.022814
    15  H    0.019504  -0.001455   0.002718  -0.000424  -0.001427   0.001540
    16  H    0.001170   0.001948  -0.000623   0.000284   0.008127   0.001614
    17  H   -0.003224  -0.003959   0.000614  -0.000409   0.002545  -0.000003
    18  H    0.005248   0.012615   0.001613  -0.001357  -0.001071   0.000021
    19  H    0.013252  -0.040202  -0.002228  -0.002553   0.005354  -0.000026
    20  H   -0.038159  -0.003610  -0.000426   0.000527   0.002581  -0.000003
    21  H   -0.023116   0.012670  -0.001348   0.001623  -0.001089   0.000020
    22  H    0.396031  -0.001554  -0.000407   0.002807  -0.001434   0.001530
    23  H    0.364154   0.001986   0.000280  -0.000630   0.008159   0.001614
    24  H   -0.000079  -0.026782   0.374962   0.003728   0.007583  -0.000002
    25  H    0.000887  -0.038847   0.400519   0.013637   0.000156   0.000014
    26  H   -0.000088  -0.042121   0.398571  -0.013174   0.001057   0.000003
    27  H   -0.001915  -0.039274   0.013684   0.400374   0.000343   0.000013
    28  H    0.000285  -0.042275  -0.013268   0.398875   0.001082   0.000003
    29  H   -0.000205  -0.026544   0.003796   0.374778   0.007579  -0.000002
              13         14         15         16         17         18
     1  C    0.399238   0.399107  -0.014816  -0.005602  -0.000746  -0.001076
     2  C   -0.042170  -0.042099  -0.045280  -0.016440   0.004879  -0.006917
     3  C    0.020289  -0.018032   0.396390   0.363873  -0.038177  -0.022995
     4  C   -0.001570   0.000562  -0.025838  -0.022860   0.424538   0.391044
     5  C    0.000597   0.000624   0.004693   0.001075  -0.050831  -0.030959
     6  C    0.000575  -0.001579  -0.003723   0.002366   0.013582  -0.010915
     7  C   -0.018167   0.020293   0.019504   0.001170  -0.003224   0.005248
     8  C   -0.001502  -0.001526  -0.001455   0.001948  -0.003959   0.012615
     9  C    0.000136   0.000269   0.002718  -0.000623   0.000614   0.001613
    10  C    0.000262   0.000130  -0.000424   0.000284  -0.000409  -0.001357
    11  O    0.003830   0.003785  -0.001427   0.008127   0.002545  -0.001071
    12  H   -0.022790  -0.022814   0.001540   0.001614  -0.000003   0.000021
    13  H    0.536376  -0.025330  -0.000392  -0.000715   0.000024   0.000041
    14  H   -0.025330   0.536456   0.005803   0.001601   0.000000   0.000001
    15  H   -0.000392   0.005803   0.528012  -0.015355  -0.007384   0.004286
    16  H   -0.000715   0.001601  -0.015355   0.533568   0.003140  -0.011209
    17  H    0.000024   0.000000  -0.007384   0.003140   0.494976  -0.014155
    18  H    0.000041   0.000001   0.004286  -0.011209  -0.014155   0.519534
    19  H   -0.000017  -0.000017  -0.000431  -0.000264  -0.003846  -0.001909
    20  H    0.000001   0.000024   0.000083  -0.000065  -0.000322   0.000230
    21  H    0.000000   0.000041   0.000016  -0.000063   0.000224   0.004185
    22  H    0.005821  -0.000388  -0.000490  -0.000563   0.000083   0.000010
    23  H    0.001601  -0.000716  -0.000562  -0.001758  -0.000071  -0.000053
    24  H   -0.000009   0.000019   0.000163   0.000045   0.000647  -0.000290
    25  H   -0.000016   0.000069   0.000781   0.000252  -0.002675   0.000282
    26  H    0.000014   0.000049   0.000024  -0.000010   0.000194   0.000028
    27  H    0.000071  -0.000016  -0.000021  -0.000018   0.000015  -0.000000
    28  H    0.000049   0.000015   0.000039  -0.000009  -0.000007   0.000034
    29  H    0.000019  -0.000008  -0.000002  -0.000025  -0.000053   0.000061
              19         20         21         22         23         24
     1  C    0.000305  -0.000759  -0.001071  -0.014806  -0.005566   0.000117
     2  C   -0.005122   0.004629  -0.006737  -0.044905  -0.016800   0.002093
     3  C    0.013397  -0.003239   0.005126   0.019407   0.001348  -0.000268
     4  C   -0.035004   0.013647  -0.010863  -0.003652   0.002308  -0.003896
     5  C    0.409589  -0.051204  -0.030985   0.004703   0.000981  -0.004418
     6  C   -0.034758   0.424458   0.391345  -0.025427  -0.022961   0.000530
     7  C    0.013252  -0.038159  -0.023116   0.396031   0.364154  -0.000079
     8  C   -0.040202  -0.003610   0.012670  -0.001554   0.001986  -0.026782
     9  C   -0.002228  -0.000426  -0.001348  -0.000407   0.000280   0.374962
    10  C   -0.002553   0.000527   0.001623   0.002807  -0.000630   0.003728
    11  O    0.005354   0.002581  -0.001089  -0.001434   0.008159   0.007583
    12  H   -0.000026  -0.000003   0.000020   0.001530   0.001614  -0.000002
    13  H   -0.000017   0.000001   0.000000   0.005821   0.001601  -0.000009
    14  H   -0.000017   0.000024   0.000041  -0.000388  -0.000716   0.000019
    15  H   -0.000431   0.000083   0.000016  -0.000490  -0.000562   0.000163
    16  H   -0.000264  -0.000065  -0.000063  -0.000563  -0.001758   0.000045
    17  H   -0.003846  -0.000322   0.000224   0.000083  -0.000071   0.000647
    18  H   -0.001909   0.000230   0.004185   0.000010  -0.000053  -0.000290
    19  H    0.493884  -0.003780  -0.001993  -0.000429  -0.000257  -0.000151
    20  H   -0.003780   0.495041  -0.014062  -0.007394   0.003167  -0.000051
    21  H   -0.001993  -0.014062   0.519296   0.004244  -0.011189   0.000061
    22  H   -0.000429  -0.007394   0.004244   0.528477  -0.015521  -0.000003
    23  H   -0.000257   0.003167  -0.011189  -0.015521   0.534080  -0.000025
    24  H   -0.000151  -0.000051   0.000061  -0.000003  -0.000025   0.547011
    25  H    0.000736   0.000016  -0.000001  -0.000021  -0.000018  -0.022102
    26  H   -0.000443  -0.000007   0.000034   0.000037  -0.000009  -0.022714
    27  H    0.000763  -0.002580   0.000280   0.000751   0.000240  -0.000400
    28  H   -0.000439   0.000193   0.000028   0.000015  -0.000009   0.000447
    29  H   -0.000101   0.000638  -0.000291   0.000149   0.000044  -0.001661
              25         26         27         28         29
     1  C   -0.000837   0.000034  -0.000841   0.000033   0.000117
     2  C   -0.003865  -0.000044  -0.003836  -0.000069   0.002043
     3  C   -0.001843   0.000235   0.000910  -0.000104  -0.000085
     4  C    0.010225  -0.001111  -0.001833  -0.001064   0.000562
     5  C   -0.012211   0.018009  -0.011867   0.017994  -0.004670
     6  C   -0.001822  -0.001079   0.010198  -0.001133  -0.003872
     7  C    0.000887  -0.000088  -0.001915   0.000285  -0.000205
     8  C   -0.038847  -0.042121  -0.039274  -0.042275  -0.026544
     9  C    0.400519   0.398571   0.013684  -0.013268   0.003796
    10  C    0.013637  -0.013174   0.400374   0.398875   0.374778
    11  O    0.000156   0.001057   0.000343   0.001082   0.007579
    12  H    0.000014   0.000003   0.000013   0.000003  -0.000002
    13  H   -0.000016   0.000014   0.000071   0.000049   0.000019
    14  H    0.000069   0.000049  -0.000016   0.000015  -0.000008
    15  H    0.000781   0.000024  -0.000021   0.000039  -0.000002
    16  H    0.000252  -0.000010  -0.000018  -0.000009  -0.000025
    17  H   -0.002675   0.000194   0.000015  -0.000007  -0.000053
    18  H    0.000282   0.000028  -0.000000   0.000034   0.000061
    19  H    0.000736  -0.000443   0.000763  -0.000439  -0.000101
    20  H    0.000016  -0.000007  -0.002580   0.000193   0.000638
    21  H   -0.000001   0.000034   0.000280   0.000028  -0.000291
    22  H   -0.000021   0.000037   0.000751   0.000015   0.000149
    23  H   -0.000018  -0.000009   0.000240  -0.000009   0.000044
    24  H   -0.022102  -0.022714  -0.000400   0.000447  -0.001661
    25  H    0.524169  -0.023050  -0.000475   0.000090  -0.000389
    26  H   -0.023050   0.531159   0.000088   0.005661   0.000428
    27  H   -0.000475   0.000088   0.524663  -0.023063  -0.022032
    28  H    0.000090   0.005661  -0.023063   0.531180  -0.022790
    29  H   -0.000389   0.000428  -0.022032  -0.022790   0.547075
 Mulliken charges:
               1
     1  C   -0.377877
     2  C   -0.047978
     3  C   -0.261528
     4  C   -0.359042
     5  C   -0.067836
     6  C   -0.358656
     7  C   -0.260827
     8  C   -0.009418
     9  C   -0.422113
    10  C   -0.421536
    11  O   -0.250974
    12  H    0.146946
    13  H    0.143735
    14  H    0.143676
    15  H    0.153547
    16  H    0.156517
    17  H    0.180404
    18  H    0.163675
    19  H    0.196690
    20  H    0.180430
    21  H    0.163615
    22  H    0.152928
    23  H    0.156183
    24  H    0.145446
    25  H    0.156337
    26  H    0.148226
    27  H    0.155779
    28  H    0.148211
    29  H    0.145441
 Sum of Mulliken charges =  -0.00000
 Mulliken charges with hydrogens summed into heavy atoms:
               1
     1  C    0.056480
     2  C   -0.047978
     3  C    0.048537
     4  C   -0.014963
     5  C    0.128854
     6  C   -0.014612
     7  C    0.048284
     8  C   -0.009418
     9  C    0.027895
    10  C    0.027895
    11  O   -0.250974
 Electronic spatial extent (au):  <R**2>=           1579.0657
 Charge=             -0.0000 electrons
 Dipole moment (field-independent basis, Debye):
    X=              0.0524    Y=              2.4925    Z=              0.0327  Tot=              2.4933
 Quadrupole moment (field-independent basis, Debye-Ang):
   XX=            -66.1886   YY=            -73.1330   ZZ=            -70.0585
   XY=              0.0794   XZ=              0.0033   YZ=             -0.0387
 Traceless Quadrupole moment (field-independent basis, Debye-Ang):
   XX=              3.6047   YY=             -3.3396   ZZ=             -0.2651
   XY=              0.0794   XZ=              0.0033   YZ=             -0.0387
 Octapole moment (field-independent basis, Debye-Ang**2):
  XXX=              1.0923  YYY=              4.7519  ZZZ=             -0.0705  XYY=              0.2871
  XXY=              1.1910  XXZ=              0.0243  XZZ=              0.0709  YZZ=             -1.8210
  YYZ=              0.0849  XYZ=              0.0046
 Hexadecapole moment (field-independent basis, Debye-Ang**3):
 XXXX=          -1019.8787 YYYY=           -594.8155 ZZZZ=           -563.9936 XXXY=             -0.4498
 XXXZ=              0.0343 YYYX=              7.8119 YYYZ=              0.0947 ZZZX=             -0.1402
 ZZZY=             -0.0493 XXYY=           -267.6342 XXZZ=           -275.7769 YYZZ=           -197.7698
 XXYZ=              0.1929 YYXZ=              0.1473 ZZXY=             -5.1829
 N-N= 7.145634327343D+02 E-N=-2.515066860726D+03  KE= 4.648144530515D+02
 Unable to Open any file for archive entry.
 1\1\GINC-TCN1634\SP\RBP86\TZVP\C10H18O1\ELENAA\22-Feb-2021\0\\# BP86/T
 ZVP SCRF=COSMORS geom=CHECKPOINT guess=CHECKPOINT\\COSMO-file for #WEE
 GYLXZBRQIMU-UHFFFAOYSA-N\\0,1\C,0,-1.0776991286,-0.3836268386,3.123561
 7842\C,0,0.1428334337,-0.6839151884,2.2639779153\C,0,1.4613924351,-0.4
 320000032,3.0234339852\C,0,2.6672718112,-0.6885368476,2.0764408237\C,0
 ,2.1237926278,-1.0158868665,0.6701892887\C,0,1.3454967867,-2.343479908
 2,0.7779428062\C,0,0.1183286445,-2.1217885368,1.7064431342\C,0,1.17992
 84823,0.1187892705,0.1850493372\C,0,1.8881197693,1.4794876693,0.129582
 9719\C,0,0.5595745972,-0.1874000127,-1.1850543055\O,0,0.0683338391,0.2
 486186025,1.1425880165\H,0,-1.1020175837,-1.0491173374,3.9990811453\H,
 0,-2.0012453286,-0.5339177644,2.5444592015\H,0,-1.0514495511,0.6581804
 598,3.476899359\H,0,1.4528728064,0.6093812314,3.3814257975\H,0,1.49994
 04906,-1.0824478138,3.9112065561\H,0,3.3409861015,0.179323097,2.050345
 4612\H,0,3.2696484867,-1.5402848406,2.4284362828\H,0,2.9507201047,-1.1
 104449861,-0.0512022944\H,0,1.0318871208,-2.7017916873,-0.2124934512\H
 ,0,2.0165217242,-3.1131543219,1.1896695836\H,0,-0.8253502284,-2.256112
 0398,1.1550355719\H,0,0.1119198342,-2.8365312389,2.544233086\H,0,2.741
 1302572,1.4496498333,-0.5664221464\H,0,2.2530311032,1.7815137903,1.120
 2259838\H,0,1.1835211098,2.2491008435,-0.2197617748\H,0,-0.0443468247,
 -1.1040026388,-1.1552856039\H,0,-0.0988426675,0.6411693516,-1.48631351
 67\H,0,1.3411897465,-0.3047452783,-1.9520149987\\Version=ES64L-G16RevC
 .01\State=1-A\HF=-467.2801397\RMSD=4.853e-09\Dipole=0.7199919,-0.65653
 74,0.1131751\Quadrupole=-1.0077456,-0.8500948,1.8578404,1.5235826,-1.1
 322772,-0.7066191\PG=C01 [X(C10H18O1)]\\@
 The archive entry for this job was punched.


     ON THE SURVIVAL OF THE FITTEST -
 "STRONG REPRESENTATIVES FROM EACH PAST ERA THRIVE TODAY,
 SUCH AS PROGRAMMING IN THE THIRTY YEAR OLD LANGUAGE KNOWN
 AS FORTRAN, AND EVEN IN THE ANCIENT SCRIPT KNOWN AS DIRECT
 MACHINE CODE. SOME PEOPLE MIGHT LOOK ON SUCH RELICS AS LIVING
 FOSSILS; OTHERS WOULD POINT OUT THAT EVEN A VERY OLD SPECIES
 MIGHT STILL BE FILLING A PARTICULAR ECOLOGICAL NICHE."
     -- ALAN KAY, SCI.AM. SEPTEMBER 1984
 Job cpu time:       0 days  0 hours 10 minutes 37.9 seconds.
 Elapsed time:       0 days  0 hours  0 minutes 20.5 seconds.
 File lengths (MBytes):  RWF=     79 Int=      0 D2E=      0 Chk=     11 Scr=      1
 Normal termination of Gaussian 16 at Mon Feb 22 21:24:55 2021.
