 Entering Gaussian System, Link 0=g16
 Input=WOAGQHQTBSCFJV-UHFFFAOYSA-N.gjf
 Output=WOAGQHQTBSCFJV-UHFFFAOYSA-N.log
 Initial command:
 /sw/arch/RedHatEnterpriseServer7/EB_production/2019/software/Gaussian/g16.c01/l1.exe "/scratch-local/elenaa.9715954/Gau-9082.inp" -scrdir="/scratch-local/elenaa.9715954/"
 Entering Link 1 = /sw/arch/RedHatEnterpriseServer7/EB_production/2019/software/Gaussian/g16.c01/l1.exe PID=      9083.
  
 Copyright (c) 1988-2019, Gaussian, Inc.  All Rights Reserved.
  
 This is part of the Gaussian(R) 16 program.  It is based on
 the Gaussian(R) 09 system (copyright 2009, Gaussian, Inc.),
 the Gaussian(R) 03 system (copyright 2003, Gaussian, Inc.),
 the Gaussian(R) 98 system (copyright 1998, Gaussian, Inc.),
 the Gaussian(R) 94 system (copyright 1995, Gaussian, Inc.),
 the Gaussian 92(TM) system (copyright 1992, Gaussian, Inc.),
 the Gaussian 90(TM) system (copyright 1990, Gaussian, Inc.),
 the Gaussian 88(TM) system (copyright 1988, Gaussian, Inc.),
 the Gaussian 86(TM) system (copyright 1986, Carnegie Mellon
 University), and the Gaussian 82(TM) system (copyright 1983,
 Carnegie Mellon University). Gaussian is a federally registered
 trademark of Gaussian, Inc.
  
 This software contains proprietary and confidential information,
 including trade secrets, belonging to Gaussian, Inc.
  
 This software is provided under written license and may be
 used, copied, transmitted, or stored only in accord with that
 written license.
  
 The following legend is applicable only to US Government
 contracts under FAR:
  
                    RESTRICTED RIGHTS LEGEND
  
 Use, reproduction and disclosure by the US Government is
 subject to restrictions as set forth in subparagraphs (a)
 and (c) of the Commercial Computer Software - Restricted
 Rights clause in FAR 52.227-19.
  
 Gaussian, Inc.
 340 Quinnipiac St., Bldg. 40, Wallingford CT 06492
  
  
 ---------------------------------------------------------------
 Warning -- This program may not be used in any manner that
 competes with the business of Gaussian, Inc. or will provide
 assistance to any competitor of Gaussian, Inc.  The licensee
 of this program is prohibited from giving any competitor of
 Gaussian, Inc. access to this program.  By using this program,
 the user acknowledges that Gaussian, Inc. is engaged in the
 business of creating and licensing software in the field of
 computational chemistry and represents and warrants to the
 licensee that it is not a competitor of Gaussian, Inc. and that
 it will not use this program in any manner prohibited above.
 ---------------------------------------------------------------
  

 Cite this work as:
 Gaussian 16, Revision C.01,
 M. J. Frisch, G. W. Trucks, H. B. Schlegel, G. E. Scuseria, 
 M. A. Robb, J. R. Cheeseman, G. Scalmani, V. Barone, 
 G. A. Petersson, H. Nakatsuji, X. Li, M. Caricato, A. V. Marenich, 
 J. Bloino, B. G. Janesko, R. Gomperts, B. Mennucci, H. P. Hratchian, 
 J. V. Ortiz, A. F. Izmaylov, J. L. Sonnenberg, D. Williams-Young, 
 F. Ding, F. Lipparini, F. Egidi, J. Goings, B. Peng, A. Petrone, 
 T. Henderson, D. Ranasinghe, V. G. Zakrzewski, J. Gao, N. Rega, 
 G. Zheng, W. Liang, M. Hada, M. Ehara, K. Toyota, R. Fukuda, 
 J. Hasegawa, M. Ishida, T. Nakajima, Y. Honda, O. Kitao, H. Nakai, 
 T. Vreven, K. Throssell, J. A. Montgomery, Jr., J. E. Peralta, 
 F. Ogliaro, M. J. Bearpark, J. J. Heyd, E. N. Brothers, K. N. Kudin, 
 V. N. Staroverov, T. A. Keith, R. Kobayashi, J. Normand, 
 K. Raghavachari, A. P. Rendell, J. C. Burant, S. S. Iyengar, 
 J. Tomasi, M. Cossi, J. M. Millam, M. Klene, C. Adamo, R. Cammi, 
 J. W. Ochterski, R. L. Martin, K. Morokuma, O. Farkas, 
 J. B. Foresman, and D. J. Fox, Gaussian, Inc., Wallingford CT, 2019.
 
 ******************************************
 Gaussian 16:  ES64L-G16RevC.01  3-Jul-2019
                23-Feb-2021 
 ******************************************
 %chk=WOAGQHQTBSCFJV-UHFFFAOYSA-N.chk
 %NProcShared=32
 Will use up to   32 processors via shared memory.
 -------------------------------------------------------------
 #P BP86/TZVP EmpiricalDispersion=GD3 SCRF=(Solvent=Water) Opt
 -------------------------------------------------------------
 1/18=20,19=15,26=3,38=1/1,3;
 2/9=110,12=2,17=6,18=5,40=1/2;
 3/5=19,7=101,11=2,25=1,30=1,70=2201,71=1,72=1,74=404,124=31/1,2,3;
 4//1;
 5/5=2,38=5,53=1/2;
 6/7=2,8=2,9=2,10=2,28=1/1;
 7//1,2,3,16;
 1/18=20,19=15,26=3/3(2);
 2/9=110/2;
 99//99;
 2/9=110/2;
 3/5=19,7=101,11=2,25=1,30=1,70=2205,71=1,72=1,74=404,124=31/1,2,3;
 4/5=5,16=3,69=1/1;
 5/5=2,38=5,53=1/2;
 7//1,2,3,16;
 1/18=20,19=15,26=3/3(-5);
 2/9=110/2;
 6/7=2,8=2,9=2,10=2,19=2,28=1/1;
 99/9=1/99;
 Leave Link    1 at Tue Feb 23 00:12:41 2021, MaxMem=           0 cpu:               2.4 elap:               0.1
 (Enter /sw/arch/RedHatEnterpriseServer7/EB_production/2019/software/Gaussian/g16.c01/l101.exe)
 -------------------------------------
 Particle #WOAGQHQTBSCFJV-UHFFFAOYSA-N
 -------------------------------------
 Symbolic Z-matrix:
 Charge =  1 Multiplicity = 1
 C                    -2.0921    1.91734  -0.2324 
 N                    -1.02449   2.05192   0.82697 
 C                    -0.81641   3.52698   1.10016 
 C                    -1.49199   1.3996    2.10607 
 C                     0.2932    1.45176   0.35594 
 C                     0.34132  -0.06459   0.00787 
 F                     1.6067   -0.4182   -0.39515 
 H                    -2.34193   0.87374  -0.42375 
 H                    -1.76976   2.36147  -1.17825 
 H                    -3.01969   2.41264   0.06635 
 H                    -1.7366    4.00844   1.4429 
 H                    -0.06031   3.69068   1.87235 
 H                    -0.48844   4.06005   0.20403 
 H                    -1.73059   0.3463    1.9585 
 H                    -0.72703   1.46185   2.885 
 H                    -2.39705   1.87545   2.49264 
 H                     1.06037   1.61724   1.11979 
 H                     0.63495   1.98427  -0.53795 
 H                     0.08941  -0.6756    0.87428 
 H                    -0.34198  -0.30342  -0.8067 
 
 ITRead=  0  0  0  0  0  0  0  0  0  0  0  0  0  0  0  0  0  0  0  0
 MicOpt= -1 -1 -1 -1 -1 -1 -1 -1 -1 -1 -1 -1 -1 -1 -1 -1 -1 -1 -1 -1
 NAtoms=     20 NQM=       20 NQMF=       0 NMMI=      0 NMMIF=      0
                NMic=       0 NMicF=      0.
                    Isotopes and Nuclear Properties:
 (Nuclear quadrupole moments (NQMom) in fm**2, nuclear magnetic moments (NMagM)
  in nuclear magnetons)

  Atom         1           2           3           4           5           6           7           8           9          10
 IAtWgt=          12          14          12          12          12          12          19           1           1           1
 AtmWgt=  12.0000000  14.0030740  12.0000000  12.0000000  12.0000000  12.0000000  18.9984032   1.0078250   1.0078250   1.0078250
 NucSpn=           0           2           0           0           0           0           1           1           1           1
 AtZEff=  -0.0000000  -0.0000000  -0.0000000  -0.0000000  -0.0000000  -0.0000000  -0.0000000  -0.0000000  -0.0000000  -0.0000000
 NQMom=    0.0000000   2.0440000   0.0000000   0.0000000   0.0000000   0.0000000   0.0000000   0.0000000   0.0000000   0.0000000
 NMagM=    0.0000000   0.4037610   0.0000000   0.0000000   0.0000000   0.0000000   2.6288670   2.7928460   2.7928460   2.7928460
 AtZNuc=   6.0000000   7.0000000   6.0000000   6.0000000   6.0000000   6.0000000   9.0000000   1.0000000   1.0000000   1.0000000

  Atom        11          12          13          14          15          16          17          18          19          20
 IAtWgt=           1           1           1           1           1           1           1           1           1           1
 AtmWgt=   1.0078250   1.0078250   1.0078250   1.0078250   1.0078250   1.0078250   1.0078250   1.0078250   1.0078250   1.0078250
 NucSpn=           1           1           1           1           1           1           1           1           1           1
 AtZEff=  -0.0000000  -0.0000000  -0.0000000  -0.0000000  -0.0000000  -0.0000000  -0.0000000  -0.0000000  -0.0000000  -0.0000000
 NQMom=    0.0000000   0.0000000   0.0000000   0.0000000   0.0000000   0.0000000   0.0000000   0.0000000   0.0000000   0.0000000
 NMagM=    2.7928460   2.7928460   2.7928460   2.7928460   2.7928460   2.7928460   2.7928460   2.7928460   2.7928460   2.7928460
 AtZNuc=   1.0000000   1.0000000   1.0000000   1.0000000   1.0000000   1.0000000   1.0000000   1.0000000   1.0000000   1.0000000
 Leave Link  101 at Tue Feb 23 00:12:41 2021, MaxMem=   104857600 cpu:               2.8 elap:               0.1
 (Enter /sw/arch/RedHatEnterpriseServer7/EB_production/2019/software/Gaussian/g16.c01/l103.exe)

 GradGradGradGradGradGradGradGradGradGradGradGradGradGradGradGradGradGrad
 Berny optimization.
 Initialization pass.
                           ----------------------------
                           !    Initial Parameters    !
                           ! (Angstroms and Degrees)  !
 --------------------------                            --------------------------
 ! Name  Definition              Value          Derivative Info.                !
 --------------------------------------------------------------------------------
 ! R1    R(1,2)                  1.51           estimate D2E/DX2                !
 ! R2    R(1,8)                  1.09           estimate D2E/DX2                !
 ! R3    R(1,9)                  1.0935         estimate D2E/DX2                !
 ! R4    R(1,10)                 1.0932         estimate D2E/DX2                !
 ! R5    R(2,3)                  1.5145         estimate D2E/DX2                !
 ! R6    R(2,4)                  1.51           estimate D2E/DX2                !
 ! R7    R(2,5)                  1.5226         estimate D2E/DX2                !
 ! R8    R(3,11)                 1.0936         estimate D2E/DX2                !
 ! R9    R(3,12)                 1.0931         estimate D2E/DX2                !
 ! R10   R(3,13)                 1.0931         estimate D2E/DX2                !
 ! R11   R(4,14)                 1.09           estimate D2E/DX2                !
 ! R12   R(4,15)                 1.0935         estimate D2E/DX2                !
 ! R13   R(4,16)                 1.0932         estimate D2E/DX2                !
 ! R14   R(5,6)                  1.5565         estimate D2E/DX2                !
 ! R15   R(5,17)                 1.0952         estimate D2E/DX2                !
 ! R16   R(5,18)                 1.0952         estimate D2E/DX2                !
 ! R17   R(6,7)                  1.3743         estimate D2E/DX2                !
 ! R18   R(6,19)                 1.0897         estimate D2E/DX2                !
 ! R19   R(6,20)                 1.0897         estimate D2E/DX2                !
 ! A1    A(2,1,8)              111.7486         estimate D2E/DX2                !
 ! A2    A(2,1,9)              111.2362         estimate D2E/DX2                !
 ! A3    A(2,1,10)             111.5813         estimate D2E/DX2                !
 ! A4    A(8,1,9)              107.7324         estimate D2E/DX2                !
 ! A5    A(8,1,10)             106.6957         estimate D2E/DX2                !
 ! A6    A(9,1,10)             107.6072         estimate D2E/DX2                !
 ! A7    A(1,2,3)              108.0887         estimate D2E/DX2                !
 ! A8    A(1,2,4)              109.6869         estimate D2E/DX2                !
 ! A9    A(1,2,5)              111.0817         estimate D2E/DX2                !
 ! A10   A(3,2,4)              108.0882         estimate D2E/DX2                !
 ! A11   A(3,2,5)              108.7112         estimate D2E/DX2                !
 ! A12   A(4,2,5)              111.0817         estimate D2E/DX2                !
 ! A13   A(2,3,11)             111.6973         estimate D2E/DX2                !
 ! A14   A(2,3,12)             111.6128         estimate D2E/DX2                !
 ! A15   A(2,3,13)             111.6123         estimate D2E/DX2                !
 ! A16   A(11,3,12)            107.1394         estimate D2E/DX2                !
 ! A17   A(11,3,13)            107.1394         estimate D2E/DX2                !
 ! A18   A(12,3,13)            107.3727         estimate D2E/DX2                !
 ! A19   A(2,4,14)             111.7483         estimate D2E/DX2                !
 ! A20   A(2,4,15)             111.2364         estimate D2E/DX2                !
 ! A21   A(2,4,16)             111.5816         estimate D2E/DX2                !
 ! A22   A(14,4,15)            107.7323         estimate D2E/DX2                !
 ! A23   A(14,4,16)            106.695          estimate D2E/DX2                !
 ! A24   A(15,4,16)            107.6077         estimate D2E/DX2                !
 ! A25   A(2,5,6)              118.6802         estimate D2E/DX2                !
 ! A26   A(2,5,17)             109.3233         estimate D2E/DX2                !
 ! A27   A(2,5,18)             109.3232         estimate D2E/DX2                !
 ! A28   A(6,5,17)             106.3504         estimate D2E/DX2                !
 ! A29   A(6,5,18)             106.3507         estimate D2E/DX2                !
 ! A30   A(17,5,18)            106.0944         estimate D2E/DX2                !
 ! A31   A(5,6,7)              110.1639         estimate D2E/DX2                !
 ! A32   A(5,6,19)             111.1797         estimate D2E/DX2                !
 ! A33   A(5,6,20)             111.1791         estimate D2E/DX2                !
 ! A34   A(7,6,19)             107.5625         estimate D2E/DX2                !
 ! A35   A(7,6,20)             107.5629         estimate D2E/DX2                !
 ! A36   A(19,6,20)            109.0559         estimate D2E/DX2                !
 ! D1    D(8,1,2,3)           -175.8425         estimate D2E/DX2                !
 ! D2    D(8,1,2,4)            -58.212          estimate D2E/DX2                !
 ! D3    D(8,1,2,5)             64.9743         estimate D2E/DX2                !
 ! D4    D(9,1,2,3)             63.7047         estimate D2E/DX2                !
 ! D5    D(9,1,2,4)           -178.6648         estimate D2E/DX2                !
 ! D6    D(9,1,2,5)            -55.4784         estimate D2E/DX2                !
 ! D7    D(10,1,2,3)           -56.4743         estimate D2E/DX2                !
 ! D8    D(10,1,2,4)            61.1562         estimate D2E/DX2                !
 ! D9    D(10,1,2,5)          -175.6575         estimate D2E/DX2                !
 ! D10   D(1,2,3,11)            59.3264         estimate D2E/DX2                !
 ! D11   D(1,2,3,12)           179.2467         estimate D2E/DX2                !
 ! D12   D(1,2,3,13)           -60.5936         estimate D2E/DX2                !
 ! D13   D(4,2,3,11)           -59.3267         estimate D2E/DX2                !
 ! D14   D(4,2,3,12)            60.5936         estimate D2E/DX2                !
 ! D15   D(4,2,3,13)          -179.2467         estimate D2E/DX2                !
 ! D16   D(5,2,3,11)           179.9999         estimate D2E/DX2                !
 ! D17   D(5,2,3,12)           -60.0797         estimate D2E/DX2                !
 ! D18   D(5,2,3,13)            60.08           estimate D2E/DX2                !
 ! D19   D(1,2,4,14)            58.2117         estimate D2E/DX2                !
 ! D20   D(1,2,4,15)           178.6642         estimate D2E/DX2                !
 ! D21   D(1,2,4,16)           -61.1558         estimate D2E/DX2                !
 ! D22   D(3,2,4,14)           175.8425         estimate D2E/DX2                !
 ! D23   D(3,2,4,15)           -63.7049         estimate D2E/DX2                !
 ! D24   D(3,2,4,16)            56.4751         estimate D2E/DX2                !
 ! D25   D(5,2,4,14)           -64.9746         estimate D2E/DX2                !
 ! D26   D(5,2,4,15)            55.4779         estimate D2E/DX2                !
 ! D27   D(5,2,4,16)           175.6579         estimate D2E/DX2                !
 ! D28   D(1,2,5,6)            -61.1908         estimate D2E/DX2                !
 ! D29   D(1,2,5,17)           176.6785         estimate D2E/DX2                !
 ! D30   D(1,2,5,18)            60.9402         estimate D2E/DX2                !
 ! D31   D(3,2,5,6)            179.9996         estimate D2E/DX2                !
 ! D32   D(3,2,5,17)            57.8689         estimate D2E/DX2                !
 ! D33   D(3,2,5,18)           -57.8694         estimate D2E/DX2                !
 ! D34   D(4,2,5,6)             61.1907         estimate D2E/DX2                !
 ! D35   D(4,2,5,17)           -60.94           estimate D2E/DX2                !
 ! D36   D(4,2,5,18)          -176.6783         estimate D2E/DX2                !
 ! D37   D(2,5,6,7)            180.0            estimate D2E/DX2                !
 ! D38   D(2,5,6,19)           -60.8554         estimate D2E/DX2                !
 ! D39   D(2,5,6,20)            60.8553         estimate D2E/DX2                !
 ! D40   D(17,5,6,7)           -56.3888         estimate D2E/DX2                !
 ! D41   D(17,5,6,19)           62.7559         estimate D2E/DX2                !
 ! D42   D(17,5,6,20)         -175.5335         estimate D2E/DX2                !
 ! D43   D(18,5,6,7)            56.3886         estimate D2E/DX2                !
 ! D44   D(18,5,6,19)          175.5332         estimate D2E/DX2                !
 ! D45   D(18,5,6,20)          -62.7561         estimate D2E/DX2                !
 --------------------------------------------------------------------------------
 Trust Radius=3.00D-01 FncErr=1.00D-07 GrdErr=1.00D-06 EigMax=2.50D+02 EigMin=1.00D-04
 Number of steps in this run=    110 maximum allowed number of steps=    120.
 GradGradGradGradGradGradGradGradGradGradGradGradGradGradGradGradGradGrad

 Leave Link  103 at Tue Feb 23 00:12:41 2021, MaxMem=   104857600 cpu:               0.6 elap:               0.0
 (Enter /sw/arch/RedHatEnterpriseServer7/EB_production/2019/software/Gaussian/g16.c01/l202.exe)
                          Input orientation:                          
 ---------------------------------------------------------------------
 Center     Atomic      Atomic             Coordinates (Angstroms)
 Number     Number       Type             X           Y           Z
 ---------------------------------------------------------------------
      1          6           0       -2.092100    1.917340   -0.232400
      2          7           0       -1.024490    2.051920    0.826970
      3          6           0       -0.816410    3.526980    1.100160
      4          6           0       -1.491990    1.399600    2.106070
      5          6           0        0.293200    1.451760    0.355940
      6          6           0        0.341320   -0.064590    0.007870
      7          9           0        1.606700   -0.418200   -0.395150
      8          1           0       -2.341930    0.873740   -0.423750
      9          1           0       -1.769760    2.361470   -1.178250
     10          1           0       -3.019690    2.412640    0.066350
     11          1           0       -1.736600    4.008440    1.442900
     12          1           0       -0.060310    3.690680    1.872350
     13          1           0       -0.488440    4.060050    0.204030
     14          1           0       -1.730590    0.346300    1.958500
     15          1           0       -0.727030    1.461850    2.885000
     16          1           0       -2.397050    1.875450    2.492640
     17          1           0        1.060370    1.617240    1.119790
     18          1           0        0.634950    1.984270   -0.537950
     19          1           0        0.089410   -0.675600    0.874280
     20          1           0       -0.341980   -0.303420   -0.806700
 ---------------------------------------------------------------------
                    Distance matrix (angstroms):
                    1          2          3          4          5
     1  C    0.000000
     2  N    1.510022   0.000000
     3  C    2.448273   1.514507   0.000000
     4  C    2.469135   1.510025   2.448267   0.000000
     5  C    2.500513   1.522619   2.468124   2.500516   0.000000
     6  C    3.147588   2.648769   3.928462   3.147590   1.556530
     7  F    4.377483   3.810280   4.865374   4.377485   2.405446
     8  H    1.090014   2.165192   3.418947   2.720095   2.808190
     9  H    1.093520   2.161517   2.731015   3.433527   2.727107
    10  H    1.093159   2.165522   2.676744   2.742367   3.461559
    11  H    2.702908   2.171276   1.093629   2.702901   3.440666
    12  H    3.420947   2.169792   1.093052   2.711712   2.727129
    13  H    2.711716   2.169790   1.093059   3.420945   2.727126
    14  H    2.720092   2.165197   3.418947   1.090022   2.808196
    15  H    3.433522   2.161516   2.731008   1.093513   2.727108
    16  H    2.742370   2.165530   2.676747   1.093162   3.461567
    17  H    3.443333   2.149728   2.677647   2.744933   1.095171
    18  H    2.744930   2.149727   2.677649   3.443335   1.095171
    19  H    3.564697   2.946587   4.305022   2.885236   2.199061
    20  H    2.885224   2.946578   4.305016   3.564692   2.199055
                    6          7          8          9         10
     6  C    0.000000
     7  F    1.374282   0.000000
     8  H    2.875168   4.154709   0.000000
     9  H    3.427726   4.443005   1.763516   0.000000
    10  H    4.175701   5.443356   1.751505   1.764645   0.000000
    11  H    4.792352   5.843905   3.698263   3.095810   2.467344
    12  H    4.211846   4.980299   4.291039   3.741013   3.694990
    13  H    4.211845   4.980296   3.739265   2.537253   3.023267
    14  H    2.875169   4.154712   2.515362   3.728491   3.084116
    15  H    3.427721   4.443002   3.728485   4.290292   3.755673
    16  H    4.175704   5.443361   3.084119   3.755681   2.561862
    17  H    2.140549   2.595484   3.809325   3.720820   4.288273
    18  H    2.140553   2.595487   3.179329   2.516922   3.728951
    19  H    1.089706   1.994963   3.161764   4.110132   4.456061
    20  H    1.089708   1.994969   2.352054   3.046021   3.912714
                   11         12         13         14         15
    11  H    0.000000
    12  H    1.759360   0.000000
    13  H    1.759365   1.761539   0.000000
    14  H    3.698263   3.739269   4.291042   0.000000
    15  H    3.095804   2.537254   3.741012   1.763515   0.000000
    16  H    2.467346   3.023272   3.694997   1.751506   1.764647
    17  H    3.693952   2.474151   3.033933   3.179337   2.516925
    18  H    3.693952   3.033936   2.474147   3.809329   3.720820
    19  H    5.059434   4.481402   4.817627   2.352066   3.046024
    20  H    5.059427   4.817622   4.481394   3.161757   4.110121
                   16         17         18         19         20
    16  H    0.000000
    17  H    3.728960   0.000000
    18  H    4.288280   1.750370   0.000000
    19  H    3.912726   2.502030   3.060542   0.000000
    20  H    4.456056   3.060537   2.502028   1.774911   0.000000
 Stoichiometry    C5H13FN(1+)
 Framework group  C1[X(C5H13FN)]
 Deg. of freedom    54
 Full point group                 C1      NOp   1
 Largest Abelian subgroup         C1      NOp   1
 Largest concise Abelian subgroup C1      NOp   1
                         Standard orientation:                         
 ---------------------------------------------------------------------
 Center     Atomic      Atomic             Coordinates (Angstroms)
 Number     Number       Type             X           Y           Z
 ---------------------------------------------------------------------
      1          6           0       -1.132647   -0.810485   -1.234564
      2          7           0       -0.882753    0.022329   -0.000002
      3          6           0       -1.869705    1.171092   -0.000003
      4          6           0       -1.132651   -0.810469    1.234572
      5          6           0        0.529432    0.591630   -0.000005
      6          6           0        1.732839   -0.395587    0.000004
      7          9           0        2.917297    0.301343   -0.000000
      8          1           0       -0.500548   -1.698206   -1.257673
      9          1           0       -0.936007   -0.237810   -2.145147
     10          1           0       -2.167266   -1.160357   -1.280925
     11          1           0       -2.903938    0.815583   -0.000002
     12          1           0       -1.747600    1.806788    0.880760
     13          1           0       -1.747597    1.806780   -0.880780
     14          1           0       -0.500551   -1.698198    1.257688
     15          1           0       -0.936007   -0.237792    2.145144
     16          1           0       -2.167270   -1.160350    1.280937
     17          1           0        0.660022    1.236923    0.875177
     18          1           0        0.660021    1.236913   -0.875193
     19          1           0        1.723367   -1.027873    0.887462
     20          1           0        1.723358   -1.027884   -0.887449
 ---------------------------------------------------------------------
 Rotational constants (GHZ):           4.2795192           1.3519364           1.3376190
 Leave Link  202 at Tue Feb 23 00:12:41 2021, MaxMem=   104857600 cpu:               0.7 elap:               0.1
 (Enter /sw/arch/RedHatEnterpriseServer7/EB_production/2019/software/Gaussian/g16.c01/l301.exe)
 Standard basis: TZVP (5D, 7F)
 Ernie: Thresh=  0.10000D-02 Tol=  0.10000D-05 Strict=F.
 There are   218 symmetry adapted cartesian basis functions of A   symmetry.
 There are   211 symmetry adapted basis functions of A   symmetry.
   211 basis functions,   349 primitive gaussians,   218 cartesian basis functions
    29 alpha electrons       29 beta electrons
       nuclear repulsion energy       348.1571966760 Hartrees.
 IExCor=  404 DFT=T Ex=B Corr=P86 ExCW=0 ScaHFX=  0.000000
 ScaDFX=  1.000000  1.000000  1.000000  1.000000 ScalE2=  1.000000  1.000000
 IRadAn=      5 IRanWt=     -1 IRanGd=            0 ICorTp=0 IEmpDi=131
 NAtoms=   20 NActive=   20 NUniq=   20 SFac= 1.00D+00 NAtFMM=   60 NAOKFM=F Big=F
 Integral buffers will be    131072 words long.
 Raffenetti 2 integral format.
 Two-electron integral symmetry is turned on.
 R6Disp:  Grimme-D3 Dispersion energy=       -0.0200350092 Hartrees.
 Nuclear repulsion after empirical dispersion term =      348.1371616669 Hartrees.
 ------------------------------------------------------------------------------
 Polarizable Continuum Model (PCM)
 =================================
 Model                : PCM.
 Atomic radii         : UFF (Universal Force Field).
 Polarization charges : Total charges.
 Charge compensation  : None.
 Solution method      : On-the-fly selection.
 Cavity type          : Scaled VdW (van der Waals Surface) (Alpha=1.100).
 Cavity algorithm     : GePol (No added spheres)
                        Default sphere list used, NSphG=   20.
                        Lebedev-Laikov grids with approx.  5.0 points / Ang**2.
                        Smoothing algorithm: York/Karplus (Gamma=1.0000).
                        Polarization charges: spherical gaussians, with
                                              point-specific exponents (IZeta= 3).
                        Self-potential: point-specific (ISelfS= 7).
                        Self-field    : sphere-specific E.n sum rule (ISelfD= 2).
 1st derivatives      : Analytical E(r).r(x)/FMM algorithm (CHGder, D1EAlg=3).
                        Cavity 1st derivative terms included.
 Solvent              : Water, Eps=  78.355300 Eps(inf)=   1.777849
 ------------------------------------------------------------------------------
 Spheres list:
 ISph  on   Nord     Re0    Alpha      Xe            Ye            Ze
    1   C      1    1.9255  1.100     -1.132647     -0.810485     -1.234564
    2   N      2    1.8300  1.100     -0.882753      0.022329     -0.000002
    3   C      3    1.9255  1.100     -1.869705      1.171092     -0.000003
    4   C      4    1.9255  1.100     -1.132651     -0.810469      1.234572
    5   C      5    1.9255  1.100      0.529432      0.591630     -0.000005
    6   C      6    1.9255  1.100      1.732839     -0.395587      0.000004
    7   F      7    1.6820  1.100      2.917297      0.301343     -0.000000
    8   H      8    1.4430  1.100     -0.500548     -1.698206     -1.257673
    9   H      9    1.4430  1.100     -0.936007     -0.237810     -2.145147
   10   H     10    1.4430  1.100     -2.167266     -1.160357     -1.280925
   11   H     11    1.4430  1.100     -2.903938      0.815583     -0.000002
   12   H     12    1.4430  1.100     -1.747600      1.806788      0.880760
   13   H     13    1.4430  1.100     -1.747597      1.806780     -0.880780
   14   H     14    1.4430  1.100     -0.500551     -1.698198      1.257688
   15   H     15    1.4430  1.100     -0.936007     -0.237792      2.145144
   16   H     16    1.4430  1.100     -2.167270     -1.160350      1.280937
   17   H     17    1.4430  1.100      0.660022      1.236923      0.875177
   18   H     18    1.4430  1.100      0.660021      1.236913     -0.875193
   19   H     19    1.4430  1.100      1.723367     -1.027873      0.887462
   20   H     20    1.4430  1.100      1.723358     -1.027884     -0.887449
 ------------------------------------------------------------------------------
 GePol: Number of generator spheres                  =      20
 GePol: Total number of spheres                      =      20
 GePol: Number of exposed spheres                    =      19 ( 95.00%)
 GePol: Number of points                             =    1390
 GePol: Average weight of points                     =       0.13
 GePol: Minimum weight of points                     =   0.47D-09
 GePol: Maximum weight of points                     =    0.20577
 GePol: Number of points with low weight             =      81
 GePol: Fraction of low-weight points (<1% of avg)   =       5.83%
 GePol: Cavity surface area                          =    185.638 Ang**2
 GePol: Cavity volume                                =    183.149 Ang**3
 Leave Link  301 at Tue Feb 23 00:12:42 2021, MaxMem=   104857600 cpu:               1.9 elap:               0.1
 (Enter /sw/arch/RedHatEnterpriseServer7/EB_production/2019/software/Gaussian/g16.c01/l302.exe)
 NPDir=0 NMtPBC=     1 NCelOv=     1 NCel=       1 NClECP=     1 NCelD=      1
         NCelK=      1 NCelE2=     1 NClLst=     1 CellRange=     0.0.
 One-electron integrals computed using PRISM.
 One-electron integral symmetry used in STVInt
 PrsmSu:  requested number of processors reduced to:  29 ShMem   1 Linda.
 NBasis=   211 RedAO= T EigKep=  4.14D-04  NBF=   211
 NBsUse=   211 1.00D-06 EigRej= -1.00D+00 NBFU=   211
 Precomputing XC quadrature grid using
 IXCGrd= 4 IRadAn=           5 IRanWt=          -1 IRanGd=           0 AccXCQ= 0.00D+00.
 Generated NRdTot=       0 NPtTot=           0 NUsed=           0 NTot=          32
 NSgBfM=   217   217   217   217   217 MxSgAt=    20 MxSgA2=    20.
 Leave Link  302 at Tue Feb 23 00:12:42 2021, MaxMem=   104857600 cpu:               8.2 elap:               0.3
 (Enter /sw/arch/RedHatEnterpriseServer7/EB_production/2019/software/Gaussian/g16.c01/l303.exe)
 DipDrv:  MaxL=1.
 Leave Link  303 at Tue Feb 23 00:12:42 2021, MaxMem=   104857600 cpu:               1.6 elap:               0.1
 (Enter /sw/arch/RedHatEnterpriseServer7/EB_production/2019/software/Gaussian/g16.c01/l401.exe)
 ExpMin= 9.52D-02 ExpMax= 3.55D+04 ExpMxC= 1.21D+03 IAcc=3 IRadAn=         5 AccDes= 0.00D+00
 Harris functional with IExCor=  404 and IRadAn=       5 diagonalized for initial guess.
 HarFok:  IExCor=  404 AccDes= 0.00D+00 IRadAn=         5 IDoV= 1 UseB2=F ITyADJ=14
 ICtDFT=  3500011 ScaDFX=  1.000000  1.000000  1.000000  1.000000
 FoFCou: FMM=F IPFlag=           0 FMFlag=      100000 FMFlg1=           0
         NFxFlg=           0 DoJE=T BraDBF=F KetDBF=T FulRan=T
         wScrn=  0.000000 ICntrl=       500 IOpCl=  0 I1Cent=   200000004 NGrid=           0
         NMat0=    1 NMatS0=      1 NMatT0=    0 NMatD0=    1 NMtDS0=    0 NMtDT0=    0
 Petite list used in FoFCou.
 Harris En= -352.983939986845    
 JPrj=0 DoOrth=F DoCkMO=F.
 Leave Link  401 at Tue Feb 23 00:12:43 2021, MaxMem=   104857600 cpu:              12.7 elap:               0.5
 (Enter /sw/arch/RedHatEnterpriseServer7/EB_production/2019/software/Gaussian/g16.c01/l502.exe)
 Integral symmetry usage will be decided dynamically.
 Closed shell SCF:
 Using DIIS extrapolation, IDIIS=  1040.
 NGot=   104857600 LenX=   104752696 LenY=   104704731
 Requested convergence on RMS density matrix=1.00D-08 within 128 cycles.
 Requested convergence on MAX density matrix=1.00D-06.
 Requested convergence on             energy=1.00D-06.
 No special actions if energy rises.
 Fock matrices will be formed incrementally for  20 cycles.

 Cycle   1  Pass 1  IDiag  1:
 FoFJK:  IHMeth= 1 ICntrl=     500 DoSepK=F KAlg= 0 I1Cent=           0 FoldK=F
 IRaf= 960000000 NMat=       1 IRICut=       1 DoRegI=T DoRafI=F ISym2E= 0 IDoP0=0 IntGTp=1.
 FoFCou: FMM=F IPFlag=           0 FMFlag=      100000 FMFlg1=           0
         NFxFlg=           0 DoJE=T BraDBF=F KetDBF=F FulRan=T
         wScrn=  0.000000 ICntrl=       500 IOpCl=  0 I1Cent=           0 NGrid=           0
         NMat0=    1 NMatS0=      1 NMatT0=    0 NMatD0=    1 NMtDS0=    0 NMtDT0=    0
 Symmetry not used in FoFCou.
 Inv3:  Mode=1 IEnd=     5796300.
 Iteration    1 A*A^-1 deviation from unit magnitude is 3.55D-15 for    733.
 Iteration    1 A*A^-1 deviation from orthogonality  is 1.44D-15 for   1252     67.
 Iteration    1 A^-1*A deviation from unit magnitude is 3.55D-15 for    733.
 Iteration    1 A^-1*A deviation from orthogonality  is 2.66D-15 for   1116    237.
 E= -352.762031633746    
 DIIS: error= 2.48D-02 at cycle   1 NSaved=   1.
 NSaved= 1 IEnMin= 1 EnMin= -352.762031633746     IErMin= 1 ErrMin= 2.48D-02
 ErrMax= 2.48D-02  0.00D+00 EMaxC= 1.00D-01 BMatC= 1.67D-01 BMatP= 1.67D-01
 IDIUse=3 WtCom= 7.52D-01 WtEn= 2.48D-01
 Coeff-Com:  0.100D+01
 Coeff-En:   0.100D+01
 Coeff:      0.100D+01
 Gap=     0.257 Goal=   None    Shift=    0.000
 GapD=    0.257 DampG=1.000 DampE=0.500 DampFc=0.5000 IDamp=-1.
 Damping current iteration by 5.00D-01
 RMSDP=3.19D-03 MaxDP=1.36D-01              OVMax= 1.55D-01

 Cycle   2  Pass 1  IDiag  1:
 RMSU=  1.60D-03    CP:  9.98D-01
 E= -352.801570310817     Delta-E=       -0.039538677071 Rises=F Damp=T
 DIIS: error= 1.45D-02 at cycle   2 NSaved=   2.
 NSaved= 2 IEnMin= 2 EnMin= -352.801570310817     IErMin= 2 ErrMin= 1.45D-02
 ErrMax= 1.45D-02  0.00D+00 EMaxC= 1.00D-01 BMatC= 2.90D-02 BMatP= 1.67D-01
 IDIUse=3 WtCom= 8.55D-01 WtEn= 1.45D-01
 Coeff-Com:  0.239D+00 0.761D+00
 Coeff-En:   0.353D+00 0.647D+00
 Coeff:      0.255D+00 0.745D+00
 Gap=     0.296 Goal=   None    Shift=    0.000
 RMSDP=6.86D-04 MaxDP=2.93D-02 DE=-3.95D-02 OVMax= 9.45D-02

 Cycle   3  Pass 1  IDiag  1:
 RMSU=  6.14D-04    CP:  9.94D-01  8.11D-01
 E= -352.898298132209     Delta-E=       -0.096727821392 Rises=F Damp=F
 DIIS: error= 6.85D-03 at cycle   3 NSaved=   3.
 NSaved= 3 IEnMin= 3 EnMin= -352.898298132209     IErMin= 3 ErrMin= 6.85D-03
 ErrMax= 6.85D-03  0.00D+00 EMaxC= 1.00D-01 BMatC= 8.62D-03 BMatP= 2.90D-02
 IDIUse=3 WtCom= 9.32D-01 WtEn= 6.85D-02
 Coeff-Com:  0.766D-01 0.344D+00 0.579D+00
 Coeff-En:   0.000D+00 0.000D+00 0.100D+01
 Coeff:      0.714D-01 0.321D+00 0.608D+00
 Gap=     0.282 Goal=   None    Shift=    0.000
 RMSDP=3.96D-04 MaxDP=1.19D-02 DE=-9.67D-02 OVMax= 2.26D-02

 Cycle   4  Pass 1  IDiag  1:
 RMSU=  3.15D-04    CP:  1.00D+00  8.31D-01  6.33D-01
 E= -352.902761163670     Delta-E=       -0.004463031461 Rises=F Damp=F
 DIIS: error= 3.98D-03 at cycle   4 NSaved=   4.
 NSaved= 4 IEnMin= 4 EnMin= -352.902761163670     IErMin= 4 ErrMin= 3.98D-03
 ErrMax= 3.98D-03  0.00D+00 EMaxC= 1.00D-01 BMatC= 2.95D-03 BMatP= 8.62D-03
 IDIUse=3 WtCom= 9.60D-01 WtEn= 3.98D-02
 Coeff-Com:  0.232D-01 0.956D-01 0.379D+00 0.503D+00
 Coeff-En:   0.000D+00 0.000D+00 0.302D+00 0.698D+00
 Coeff:      0.223D-01 0.918D-01 0.376D+00 0.510D+00
 Gap=     0.287 Goal=   None    Shift=    0.000
 RMSDP=2.17D-04 MaxDP=6.18D-03 DE=-4.46D-03 OVMax= 9.53D-03

 Cycle   5  Pass 1  IDiag  1:
 RMSU=  8.18D-05    CP:  9.97D-01  7.87D-01  6.95D-01  4.31D-01
 E= -352.905468281375     Delta-E=       -0.002707117705 Rises=F Damp=F
 DIIS: error= 5.50D-04 at cycle   5 NSaved=   5.
 NSaved= 5 IEnMin= 5 EnMin= -352.905468281375     IErMin= 5 ErrMin= 5.50D-04
 ErrMax= 5.50D-04  0.00D+00 EMaxC= 1.00D-01 BMatC= 5.78D-05 BMatP= 2.95D-03
 IDIUse=3 WtCom= 9.95D-01 WtEn= 5.50D-03
 Coeff-Com:  0.427D-02 0.155D-01 0.105D+00 0.210D+00 0.665D+00
 Coeff-En:   0.000D+00 0.000D+00 0.000D+00 0.000D+00 0.100D+01
 Coeff:      0.425D-02 0.155D-01 0.105D+00 0.209D+00 0.666D+00
 Gap=     0.286 Goal=   None    Shift=    0.000
 RMSDP=4.47D-05 MaxDP=1.82D-03 DE=-2.71D-03 OVMax= 1.72D-03

 Cycle   6  Pass 1  IDiag  1:
 RMSU=  2.13D-05    CP:  9.98D-01  8.01D-01  6.91D-01  4.87D-01  6.94D-01
 E= -352.905513359838     Delta-E=       -0.000045078463 Rises=F Damp=F
 DIIS: error= 2.94D-04 at cycle   6 NSaved=   6.
 NSaved= 6 IEnMin= 6 EnMin= -352.905513359838     IErMin= 6 ErrMin= 2.94D-04
 ErrMax= 2.94D-04  0.00D+00 EMaxC= 1.00D-01 BMatC= 1.01D-05 BMatP= 5.78D-05
 IDIUse=3 WtCom= 9.97D-01 WtEn= 2.94D-03
 Coeff-Com:  0.164D-02 0.556D-02 0.502D-01 0.113D+00 0.426D+00 0.403D+00
 Coeff-En:   0.000D+00 0.000D+00 0.000D+00 0.000D+00 0.000D+00 0.100D+01
 Coeff:      0.163D-02 0.554D-02 0.501D-01 0.113D+00 0.425D+00 0.404D+00
 Gap=     0.286 Goal=   None    Shift=    0.000
 RMSDP=1.41D-05 MaxDP=5.90D-04 DE=-4.51D-05 OVMax= 5.65D-04

 Cycle   7  Pass 1  IDiag  1:
 RMSU=  5.66D-06    CP:  9.98D-01  7.98D-01  6.97D-01  4.94D-01  7.22D-01
                    CP:  5.03D-01
 E= -352.905519732663     Delta-E=       -0.000006372825 Rises=F Damp=F
 DIIS: error= 5.49D-05 at cycle   7 NSaved=   7.
 NSaved= 7 IEnMin= 7 EnMin= -352.905519732663     IErMin= 7 ErrMin= 5.49D-05
 ErrMax= 5.49D-05  0.00D+00 EMaxC= 1.00D-01 BMatC= 1.72D-07 BMatP= 1.01D-05
 IDIUse=1 WtCom= 1.00D+00 WtEn= 0.00D+00
 Coeff-Com:  0.517D-03 0.177D-02 0.170D-01 0.398D-01 0.153D+00 0.181D+00
 Coeff-Com:  0.607D+00
 Coeff:      0.517D-03 0.177D-02 0.170D-01 0.398D-01 0.153D+00 0.181D+00
 Coeff:      0.607D+00
 Gap=     0.286 Goal=   None    Shift=    0.000
 RMSDP=1.80D-06 MaxDP=5.82D-05 DE=-6.37D-06 OVMax= 1.03D-04

 Cycle   8  Pass 1  IDiag  1:
 RMSU=  1.49D-06    CP:  9.98D-01  7.98D-01  6.97D-01  4.94D-01  7.26D-01
                    CP:  5.06D-01  8.41D-01
 E= -352.905519796975     Delta-E=       -0.000000064312 Rises=F Damp=F
 DIIS: error= 2.25D-05 at cycle   8 NSaved=   8.
 NSaved= 8 IEnMin= 8 EnMin= -352.905519796975     IErMin= 8 ErrMin= 2.25D-05
 ErrMax= 2.25D-05  0.00D+00 EMaxC= 1.00D-01 BMatC= 3.43D-08 BMatP= 1.72D-07
 IDIUse=1 WtCom= 1.00D+00 WtEn= 0.00D+00
 Coeff-Com:  0.820D-04 0.290D-03 0.291D-02 0.762D-02 0.302D-01 0.480D-01
 Coeff-Com:  0.346D+00 0.565D+00
 Coeff:      0.820D-04 0.290D-03 0.291D-02 0.762D-02 0.302D-01 0.480D-01
 Coeff:      0.346D+00 0.565D+00
 Gap=     0.286 Goal=   None    Shift=    0.000
 RMSDP=6.98D-07 MaxDP=2.55D-05 DE=-6.43D-08 OVMax= 4.08D-05

 Cycle   9  Pass 1  IDiag  1:
 RMSU=  3.48D-07    CP:  9.98D-01  7.98D-01  6.97D-01  4.94D-01  7.27D-01
                    CP:  5.12D-01  8.51D-01  6.18D-01
 E= -352.905519821652     Delta-E=       -0.000000024677 Rises=F Damp=F
 DIIS: error= 1.65D-06 at cycle   9 NSaved=   9.
 NSaved= 9 IEnMin= 9 EnMin= -352.905519821652     IErMin= 9 ErrMin= 1.65D-06
 ErrMax= 1.65D-06  0.00D+00 EMaxC= 1.00D-01 BMatC= 7.50D-10 BMatP= 3.43D-08
 IDIUse=1 WtCom= 1.00D+00 WtEn= 0.00D+00
 Coeff-Com:  0.199D-05 0.138D-04 0.160D-03 0.646D-03 0.233D-02 0.755D-02
 Coeff-Com:  0.845D-01 0.208D+00 0.697D+00
 Coeff:      0.199D-05 0.138D-04 0.160D-03 0.646D-03 0.233D-02 0.755D-02
 Coeff:      0.845D-01 0.208D+00 0.697D+00
 Gap=     0.286 Goal=   None    Shift=    0.000
 RMSDP=1.46D-07 MaxDP=5.37D-06 DE=-2.47D-08 OVMax= 6.39D-06

 Cycle  10  Pass 1  IDiag  1:
 RMSU=  7.07D-08    CP:  9.98D-01  7.98D-01  6.97D-01  4.94D-01  7.26D-01
                    CP:  5.13D-01  8.57D-01  6.26D-01  6.75D-01
 E= -352.905519822314     Delta-E=       -0.000000000661 Rises=F Damp=F
 DIIS: error= 5.73D-07 at cycle  10 NSaved=  10.
 NSaved=10 IEnMin=10 EnMin= -352.905519822314     IErMin=10 ErrMin= 5.73D-07
 ErrMax= 5.73D-07  0.00D+00 EMaxC= 1.00D-01 BMatC= 4.70D-11 BMatP= 7.50D-10
 IDIUse=1 WtCom= 1.00D+00 WtEn= 0.00D+00
 Coeff-Com: -0.132D-05-0.565D-05-0.188D-04 0.388D-04 0.351D-04 0.166D-02
 Coeff-Com:  0.246D-01 0.699D-01 0.301D+00 0.603D+00
 Coeff:     -0.132D-05-0.565D-05-0.188D-04 0.388D-04 0.351D-04 0.166D-02
 Coeff:      0.246D-01 0.699D-01 0.301D+00 0.603D+00
 Gap=     0.286 Goal=   None    Shift=    0.000
 RMSDP=3.85D-08 MaxDP=1.33D-06 DE=-6.61D-10 OVMax= 1.77D-06

 Cycle  11  Pass 1  IDiag  1:
 RMSU=  2.19D-08    CP:  9.98D-01  7.98D-01  6.97D-01  4.94D-01  7.26D-01
                    CP:  5.13D-01  8.57D-01  6.35D-01  7.13D-01  6.64D-01
 E= -352.905519822350     Delta-E=       -0.000000000036 Rises=F Damp=F
 DIIS: error= 2.08D-07 at cycle  11 NSaved=  11.
 NSaved=11 IEnMin=11 EnMin= -352.905519822350     IErMin=11 ErrMin= 2.08D-07
 ErrMax= 2.08D-07  0.00D+00 EMaxC= 1.00D-01 BMatC= 9.72D-12 BMatP= 4.70D-11
 IDIUse=1 WtCom= 1.00D+00 WtEn= 0.00D+00
 Coeff-Com: -0.442D-06-0.463D-05-0.213D-04-0.415D-04-0.210D-03 0.321D-04
 Coeff-Com:  0.403D-02 0.144D-01 0.860D-01 0.341D+00 0.555D+00
 Coeff:     -0.442D-06-0.463D-05-0.213D-04-0.415D-04-0.210D-03 0.321D-04
 Coeff:      0.403D-02 0.144D-01 0.860D-01 0.341D+00 0.555D+00
 Gap=     0.286 Goal=   None    Shift=    0.000
 RMSDP=1.06D-08 MaxDP=3.78D-07 DE=-3.64D-11 OVMax= 6.33D-07

 Cycle  12  Pass 1  IDiag  1:
 RMSU=  4.96D-09    CP:  9.98D-01  7.98D-01  6.97D-01  4.94D-01  7.26D-01
                    CP:  5.13D-01  8.57D-01  6.34D-01  7.17D-01  7.11D-01
                    CP:  6.36D-01
 E= -352.905519822357     Delta-E=       -0.000000000007 Rises=F Damp=F
 DIIS: error= 2.07D-08 at cycle  12 NSaved=  12.
 NSaved=12 IEnMin=12 EnMin= -352.905519822357     IErMin=12 ErrMin= 2.07D-08
 ErrMax= 2.07D-08  0.00D+00 EMaxC= 1.00D-01 BMatC= 1.12D-13 BMatP= 9.72D-12
 IDIUse=1 WtCom= 1.00D+00 WtEn= 0.00D+00
 Coeff-Com: -0.823D-07-0.160D-05-0.636D-05-0.155D-04-0.705D-04-0.557D-04
 Coeff-Com:  0.707D-03 0.278D-02 0.205D-01 0.100D+00 0.195D+00 0.681D+00
 Coeff:     -0.823D-07-0.160D-05-0.636D-05-0.155D-04-0.705D-04-0.557D-04
 Coeff:      0.707D-03 0.278D-02 0.205D-01 0.100D+00 0.195D+00 0.681D+00
 Gap=     0.286 Goal=   None    Shift=    0.000
 RMSDP=1.99D-09 MaxDP=5.21D-08 DE=-7.11D-12 OVMax= 6.02D-08

 Error on total polarization charges =  0.00790
 SCF Done:  E(RB-P86) =  -352.905519822     A.U. after   12 cycles
            NFock= 12  Conv=0.20D-08     -V/T= 2.0051
 KE= 3.511262819334D+02 PE=-1.508984161280D+03 EE= 4.568151978572D+02
 Leave Link  502 at Tue Feb 23 00:12:53 2021, MaxMem=   104857600 cpu:             304.9 elap:               9.7
 (Enter /sw/arch/RedHatEnterpriseServer7/EB_production/2019/software/Gaussian/g16.c01/l601.exe)
 Copying SCF densities to generalized density rwf, IOpCl= 0 IROHF=0.

 **********************************************************************

            Population analysis using the SCF Density.

 **********************************************************************

 Orbital symmetries:
       Occupied  (A) (A) (A) (A) (A) (A) (A) (A) (A) (A) (A) (A)
                 (A) (A) (A) (A) (A) (A) (A) (A) (A) (A) (A) (A)
                 (A) (A) (A) (A) (A)
       Virtual   (A) (A) (A) (A) (A) (A) (A) (A) (A) (A) (A) (A)
                 (A) (A) (A) (A) (A) (A) (A) (A) (A) (A) (A) (A)
                 (A) (A) (A) (A) (A) (A) (A) (A) (A) (A) (A) (A)
                 (A) (A) (A) (A) (A) (A) (A) (A) (A) (A) (A) (A)
                 (A) (A) (A) (A) (A) (A) (A) (A) (A) (A) (A) (A)
                 (A) (A) (A) (A) (A) (A) (A) (A) (A) (A) (A) (A)
                 (A) (A) (A) (A) (A) (A) (A) (A) (A) (A) (A) (A)
                 (A) (A) (A) (A) (A) (A) (A) (A) (A) (A) (A) (A)
                 (A) (A) (A) (A) (A) (A) (A) (A) (A) (A) (A) (A)
                 (A) (A) (A) (A) (A) (A) (A) (A) (A) (A) (A) (A)
                 (A) (A) (A) (A) (A) (A) (A) (A) (A) (A) (A) (A)
                 (A) (A) (A) (A) (A) (A) (A) (A) (A) (A) (A) (A)
                 (A) (A) (A) (A) (A) (A) (A) (A) (A) (A) (A) (A)
                 (A) (A) (A) (A) (A) (A) (A) (A) (A) (A) (A) (A)
                 (A) (A) (A) (A) (A) (A) (A) (A) (A) (A) (A) (A)
                 (A) (A)
 The electronic state is 1-A.
 Alpha  occ. eigenvalues --  -24.29391 -14.17145  -9.99813  -9.98079  -9.96605
 Alpha  occ. eigenvalues --   -9.96604  -9.96574  -1.12942  -0.96392  -0.73528
 Alpha  occ. eigenvalues --   -0.70433  -0.70251  -0.64074  -0.58536  -0.51388
 Alpha  occ. eigenvalues --   -0.50534  -0.49787  -0.47104  -0.46634  -0.42489
 Alpha  occ. eigenvalues --   -0.40939  -0.40174  -0.38394  -0.38173  -0.37723
 Alpha  occ. eigenvalues --   -0.37617  -0.37560  -0.32254  -0.31332
 Alpha virt. eigenvalues --   -0.02742   0.00716   0.02476   0.03478   0.03579
 Alpha virt. eigenvalues --    0.04071   0.04505   0.04681   0.07174   0.07463
 Alpha virt. eigenvalues --    0.08220   0.09474   0.09709   0.10807   0.11484
 Alpha virt. eigenvalues --    0.12865   0.13462   0.14089   0.14154   0.16839
 Alpha virt. eigenvalues --    0.20180   0.21694   0.21728   0.22572   0.24168
 Alpha virt. eigenvalues --    0.24561   0.25363   0.27513   0.30258   0.30272
 Alpha virt. eigenvalues --    0.32312   0.34311   0.34367   0.35981   0.37351
 Alpha virt. eigenvalues --    0.38719   0.39202   0.39293   0.39761   0.39996
 Alpha virt. eigenvalues --    0.41319   0.41686   0.41806   0.42233   0.42368
 Alpha virt. eigenvalues --    0.43086   0.44328   0.45314   0.45908   0.47755
 Alpha virt. eigenvalues --    0.50573   0.53584   0.56068   0.65390   0.65677
 Alpha virt. eigenvalues --    0.67740   0.68801   0.72904   0.74835   0.95583
 Alpha virt. eigenvalues --    0.99235   0.99666   1.12578   1.13288   1.14006
 Alpha virt. eigenvalues --    1.14719   1.15706   1.16470   1.17067   1.19513
 Alpha virt. eigenvalues --    1.20888   1.21645   1.24168   1.24644   1.24981
 Alpha virt. eigenvalues --    1.26044   1.27508   1.27831   1.31321   1.34353
 Alpha virt. eigenvalues --    1.37129   1.38738   1.43732   1.44373   1.44456
 Alpha virt. eigenvalues --    1.46873   1.50222   1.50542   1.51986   1.56679
 Alpha virt. eigenvalues --    1.57574   1.61941   1.62989   1.63492   1.65032
 Alpha virt. eigenvalues --    1.65346   1.66004   1.66498   1.67856   1.68666
 Alpha virt. eigenvalues --    1.69034   1.70352   1.71025   1.71477   1.71856
 Alpha virt. eigenvalues --    1.73018   1.78874   1.80123   1.82935   1.85041
 Alpha virt. eigenvalues --    1.85748   1.86371   1.89087   1.96364   1.96579
 Alpha virt. eigenvalues --    1.97905   2.03351   2.13288   2.13948   2.13949
 Alpha virt. eigenvalues --    2.16075   2.18594   2.25369   2.27376   2.28211
 Alpha virt. eigenvalues --    2.31742   2.31880   2.34357   2.34801   2.36006
 Alpha virt. eigenvalues --    2.37416   2.38812   2.40272   2.45245   2.48719
 Alpha virt. eigenvalues --    2.52383   2.54329   2.54367   2.57816   2.58755
 Alpha virt. eigenvalues --    2.59470   2.61575   2.62560   2.66129   2.66226
 Alpha virt. eigenvalues --    2.78626   2.83277   2.83580   2.85226   2.88155
 Alpha virt. eigenvalues --    2.95283   2.96496   3.03962   3.04600   3.05004
 Alpha virt. eigenvalues --    3.08726   3.11722   3.14199   3.15911   3.18363
 Alpha virt. eigenvalues --    3.18476   3.21410   3.22944   3.23313   3.25037
 Alpha virt. eigenvalues --    3.29137   3.31167   3.33516   3.42824   3.45430
 Alpha virt. eigenvalues --    3.52958   3.53168   3.54474   3.83093   4.33544
 Alpha virt. eigenvalues --   21.64440  21.77732  21.78733  21.81505  21.82469
 Alpha virt. eigenvalues --   31.59246  56.44887
          Condensed to atoms (all electrons):
               1          2          3          4          5          6
     1  C    5.184829   0.240628  -0.085048  -0.113755  -0.085970   0.007008
     2  N    0.240628   6.464006   0.263893   0.240627   0.139507   0.002995
     3  C   -0.085048   0.263893   5.118341  -0.085050  -0.091514   0.011689
     4  C   -0.113755   0.240627  -0.085050   5.184832  -0.085969   0.007008
     5  C   -0.085970   0.139507  -0.091514  -0.085969   5.601075   0.134899
     6  C    0.007008   0.002995   0.011689   0.007008   0.134899   4.872532
     7  F   -0.000576   0.004940  -0.000022  -0.000576  -0.053530   0.239864
     8  H    0.390575  -0.015869   0.009101  -0.005257  -0.010885   0.003023
     9  H    0.377655  -0.012284  -0.006796   0.011127  -0.003024  -0.003020
    10  H    0.386986  -0.012275  -0.006236  -0.006820   0.008449   0.000353
    11  H   -0.008602  -0.011276   0.388787  -0.008602   0.008393  -0.000363
    12  H    0.009308  -0.014576   0.387245  -0.005360  -0.007817   0.000122
    13  H   -0.005360  -0.014577   0.387243   0.009308  -0.007817   0.000122
    14  H   -0.005257  -0.015869   0.009102   0.390574  -0.010885   0.003023
    15  H    0.011127  -0.012283  -0.006796   0.377656  -0.003024  -0.003020
    16  H   -0.006820  -0.012275  -0.006236   0.386986   0.008449   0.000353
    17  H    0.014514  -0.007449  -0.004984  -0.019640   0.373485  -0.024809
    18  H   -0.019640  -0.007449  -0.004984   0.014514   0.373486  -0.024808
    19  H   -0.007219  -0.002516  -0.000663   0.018701  -0.051238   0.416005
    20  H    0.018702  -0.002516  -0.000663  -0.007219  -0.051239   0.416003
               7          8          9         10         11         12
     1  C   -0.000576   0.390575   0.377655   0.386986  -0.008602   0.009308
     2  N    0.004940  -0.015869  -0.012284  -0.012275  -0.011276  -0.014576
     3  C   -0.000022   0.009101  -0.006796  -0.006236   0.388787   0.387245
     4  C   -0.000576  -0.005257   0.011127  -0.006820  -0.008602  -0.005360
     5  C   -0.053530  -0.010885  -0.003024   0.008449   0.008393  -0.007817
     6  C    0.239864   0.003023  -0.003020   0.000353  -0.000363   0.000122
     7  F    9.081663  -0.000039   0.000120  -0.000003   0.000005  -0.000013
     8  H   -0.000039   0.465254  -0.019132  -0.019027   0.000092  -0.000339
     9  H    0.000120  -0.019132   0.467289  -0.018246   0.000193   0.000021
    10  H   -0.000003  -0.019027  -0.018246   0.461749   0.002589   0.000044
    11  H    0.000005   0.000092   0.000193   0.002589   0.464023  -0.019520
    12  H   -0.000013  -0.000339   0.000021   0.000044  -0.019520   0.468094
    13  H   -0.000013   0.000004   0.001961  -0.000138  -0.019520  -0.019399
    14  H   -0.000039   0.001595  -0.000012  -0.000048   0.000092   0.000004
    15  H    0.000120  -0.000012  -0.000388  -0.000024   0.000193   0.001961
    16  H   -0.000003  -0.000048  -0.000024   0.002363   0.002589  -0.000138
    17  H    0.008357  -0.000202  -0.000266  -0.000219   0.000082   0.002978
    18  H    0.008357   0.000710   0.003610  -0.000108   0.000082  -0.000374
    19  H   -0.039953   0.000435   0.000418  -0.000016   0.000013   0.000071
    20  H   -0.039952  -0.002851  -0.001915   0.000115   0.000013  -0.000018
              13         14         15         16         17         18
     1  C   -0.005360  -0.005257   0.011127  -0.006820   0.014514  -0.019640
     2  N   -0.014577  -0.015869  -0.012283  -0.012275  -0.007449  -0.007449
     3  C    0.387243   0.009102  -0.006796  -0.006236  -0.004984  -0.004984
     4  C    0.009308   0.390574   0.377656   0.386986  -0.019640   0.014514
     5  C   -0.007817  -0.010885  -0.003024   0.008449   0.373485   0.373486
     6  C    0.000122   0.003023  -0.003020   0.000353  -0.024809  -0.024808
     7  F   -0.000013  -0.000039   0.000120  -0.000003   0.008357   0.008357
     8  H    0.000004   0.001595  -0.000012  -0.000048  -0.000202   0.000710
     9  H    0.001961  -0.000012  -0.000388  -0.000024  -0.000266   0.003610
    10  H   -0.000138  -0.000048  -0.000024   0.002363  -0.000219  -0.000108
    11  H   -0.019520   0.000092   0.000193   0.002589   0.000082   0.000082
    12  H   -0.019399   0.000004   0.001961  -0.000138   0.002978  -0.000374
    13  H    0.468098  -0.000339   0.000021   0.000044  -0.000374   0.002978
    14  H   -0.000339   0.465257  -0.019132  -0.019027   0.000710  -0.000202
    15  H    0.000021  -0.019132   0.467286  -0.018246   0.003610  -0.000266
    16  H    0.000044  -0.019027  -0.018246   0.461748  -0.000108  -0.000219
    17  H   -0.000374   0.000710   0.003610  -0.000108   0.472879  -0.022778
    18  H    0.002978  -0.000202  -0.000266  -0.000219  -0.022778   0.472878
    19  H   -0.000018  -0.002851  -0.001915   0.000115  -0.011090   0.008037
    20  H    0.000071   0.000435   0.000418  -0.000016   0.008037  -0.011090
              19         20
     1  C   -0.007219   0.018702
     2  N   -0.002516  -0.002516
     3  C   -0.000663  -0.000663
     4  C    0.018701  -0.007219
     5  C   -0.051238  -0.051239
     6  C    0.416005   0.416003
     7  F   -0.039953  -0.039952
     8  H    0.000435  -0.002851
     9  H    0.000418  -0.001915
    10  H   -0.000016   0.000115
    11  H    0.000013   0.000013
    12  H    0.000071  -0.000018
    13  H   -0.000018   0.000071
    14  H   -0.002851   0.000435
    15  H   -0.001915   0.000418
    16  H    0.000115  -0.000016
    17  H   -0.011090   0.008037
    18  H    0.008037  -0.011090
    19  H    0.562832  -0.052944
    20  H   -0.052944   0.562835
 Mulliken charges:
               1
     1  C   -0.303083
     2  N   -0.215380
     3  C   -0.276409
     4  C   -0.303085
     5  C   -0.184830
     6  C   -0.058977
     7  F   -0.208705
     8  H    0.202874
     9  H    0.202714
    10  H    0.200511
    11  H    0.200736
    12  H    0.197708
    13  H    0.197706
    14  H    0.202872
    15  H    0.202715
    16  H    0.200511
    17  H    0.207267
    18  H    0.207268
    19  H    0.163795
    20  H    0.163794
 Sum of Mulliken charges =   1.00000
 Mulliken charges with hydrogens summed into heavy atoms:
               1
     1  C    0.303015
     2  N   -0.215380
     3  C    0.319741
     4  C    0.303014
     5  C    0.229704
     6  C    0.268611
     7  F   -0.208705
 Electronic spatial extent (au):  <R**2>=            976.2059
 Charge=              1.0000 electrons
 Dipole moment (field-independent basis, Debye):
    X=             -6.0546    Y=             -0.8587    Z=              0.0000  Tot=              6.1152
 Quadrupole moment (field-independent basis, Debye-Ang):
   XX=            -38.2937   YY=            -35.5897   ZZ=            -35.3366
   XY=             -2.5098   XZ=              0.0000   YZ=              0.0000
 Traceless Quadrupole moment (field-independent basis, Debye-Ang):
   XX=             -1.8871   YY=              0.8170   ZZ=              1.0701
   XY=             -2.5098   XZ=              0.0000   YZ=              0.0000
 Octapole moment (field-independent basis, Debye-Ang**2):
  XXX=            -31.6561  YYY=              2.1266  ZZZ=              0.0000  XYY=             -1.9137
  XXY=             -3.3182  XXZ=              0.0001  XZZ=             -1.0120  YZZ=             -2.0947
  YYZ=             -0.0000  XYZ=             -0.0000
 Hexadecapole moment (field-independent basis, Debye-Ang**3):
 XXXX=           -742.8471 YYYY=           -205.8686 ZZZZ=           -187.5448 XXXY=            -10.9183
 XXXZ=              0.0000 YYYX=             -1.6407 YYYZ=              0.0002 ZZZX=             -0.0000
 ZZZY=             -0.0000 XXYY=           -140.5183 XXZZ=           -146.3356 YYZZ=            -60.5215
 XXYZ=             -0.0001 YYXZ=             -0.0000 ZZXY=              4.4712
 N-N= 3.481371616669D+02 E-N=-1.508984161807D+03  KE= 3.511262819334D+02
 No NMR shielding tensors so no spin-rotation constants.
 Leave Link  601 at Tue Feb 23 00:12:53 2021, MaxMem=   104857600 cpu:               5.1 elap:               0.2
 (Enter /sw/arch/RedHatEnterpriseServer7/EB_production/2019/software/Gaussian/g16.c01/l701.exe)
 ... and contract with generalized density number  0.
 Compute integral first derivatives.
 R6Disp: Adding Grimme-D3 dispersion energy 1st derivatives to the gradient.
 PrsmSu:  requested number of processors reduced to:  29 ShMem   1 Linda.
 D1PCM: PCM CHGder 1st derivatives, ID1Alg=3 FixD1E=F DoIter=F DoCFld=F I1PDM=0.
 GePol: Maximum number of non-zero 1st derivatives   =     211
 CoulSu:  requested number of processors reduced to:  29 ShMem   1 Linda.
 CoulSu:  requested number of processors reduced to:  30 ShMem   1 Linda.
 Leave Link  701 at Tue Feb 23 00:12:54 2021, MaxMem=   104857600 cpu:              20.0 elap:               0.7
 (Enter /sw/arch/RedHatEnterpriseServer7/EB_production/2019/software/Gaussian/g16.c01/l702.exe)
 L702 exits ... SP integral derivatives will be done elsewhere.
 Leave Link  702 at Tue Feb 23 00:12:54 2021, MaxMem=   104857600 cpu:               0.6 elap:               0.0
 (Enter /sw/arch/RedHatEnterpriseServer7/EB_production/2019/software/Gaussian/g16.c01/l703.exe)
 Integral derivatives from FoFJK, PRISM(SPDF).
 Compute integral first derivatives, UseDBF=F ICtDFT=           0.
 Calling FoFJK, ICntrl=      2527 FMM=F ISym2X=0 I1Cent= 0 IOpClX= 0 NMat=1 NMatS=1 NMatT=0.
 FoFJK:  IHMeth= 1 ICntrl=    2527 DoSepK=F KAlg= 0 I1Cent=           0 FoldK=F
 IRaf=         0 NMat=       1 IRICut=       1 DoRegI=T DoRafI=F ISym2E= 0 IDoP0=0 IntGTp=1.
 FoFCou: FMM=F IPFlag=           0 FMFlag=      100000 FMFlg1=         800
         NFxFlg=           0 DoJE=F BraDBF=F KetDBF=F FulRan=T
         wScrn=  0.000000 ICntrl=      2527 IOpCl=  0 I1Cent=           0 NGrid=           0
         NMat0=    1 NMatS0=      1 NMatT0=    0 NMatD0=    1 NMtDS0=    0 NMtDT0=    0
 Symmetry not used in FoFCou.
 Leave Link  703 at Tue Feb 23 00:12:55 2021, MaxMem=   104857600 cpu:              46.2 elap:               1.5
 (Enter /sw/arch/RedHatEnterpriseServer7/EB_production/2019/software/Gaussian/g16.c01/l716.exe)
 Dipole        =-2.38206316D+00-3.37824017D-01 3.21887784D-06
 ***** Axes restored to original set *****
 -------------------------------------------------------------------
 Center     Atomic                   Forces (Hartrees/Bohr)
 Number     Number              X              Y              Z
 -------------------------------------------------------------------
      1        6          -0.007564663   -0.002377989   -0.009734990
      2        7          -0.003352940    0.001312209    0.001153069
      3        6           0.005351455    0.012474440    0.001383617
      4        6          -0.002437631   -0.006812798    0.010262356
      5        6           0.019291224   -0.008875822   -0.006914580
      6        6          -0.028465851    0.007218247    0.008901690
      7        9           0.018315852    0.005132844   -0.003564340
      8        1           0.003909237   -0.005626754    0.003725039
      9        1           0.006399127    0.002266283    0.001291700
     10        1           0.001933793    0.003218514    0.007220225
     11        1          -0.005441438   -0.006793399   -0.000107783
     12        1           0.002684347   -0.007187863    0.001996866
     13        1           0.000713982   -0.005490279   -0.005672178
     14        1           0.001160355   -0.003249514   -0.006991088
     15        1           0.005282494    0.003232992   -0.003068207
     16        1          -0.001288602    0.006000413   -0.005344927
     17        1          -0.003540836    0.004147319    0.005950358
     18        1          -0.005439024    0.005784697   -0.001447181
     19        1          -0.002395502   -0.003360368    0.005782001
     20        1          -0.005115379   -0.001013171   -0.004821647
 -------------------------------------------------------------------
 Cartesian Forces:  Max     0.028465851 RMS     0.007202920
 Leave Link  716 at Tue Feb 23 00:12:56 2021, MaxMem=   104857600 cpu:               0.7 elap:               0.1
 (Enter /sw/arch/RedHatEnterpriseServer7/EB_production/2019/software/Gaussian/g16.c01/l103.exe)

 GradGradGradGradGradGradGradGradGradGradGradGradGradGradGradGradGradGrad
 Berny optimization.
 FormGI is forming the generalized inverse of G from B-inverse, IUseBI=4.
 Internal  Forces:  Max     0.018353924 RMS     0.005166822
 Search for a local minimum.
 Step number   1 out of a maximum of  110
 All quantities printed in internal units (Hartrees-Bohrs-Radians)
 RMS Force = .51668D-02 SwitMx=.10000D-02 MixMth= 1
 Mixed Optimization -- RFO/linear search
 Second derivative matrix not updated -- first step.
 ITU=  0
     Eigenvalues ---    0.00230   0.00230   0.00230   0.00236   0.00236
     Eigenvalues ---    0.02897   0.04316   0.04599   0.04836   0.05087
     Eigenvalues ---    0.05313   0.05315   0.05329   0.05329   0.05351
     Eigenvalues ---    0.05351   0.05557   0.05636   0.09284   0.12864
     Eigenvalues ---    0.14335   0.14415   0.16000   0.16000   0.16000
     Eigenvalues ---    0.16000   0.16000   0.16000   0.16000   0.16000
     Eigenvalues ---    0.16000   0.16000   0.16000   0.22019   0.22307
     Eigenvalues ---    0.27103   0.30116   0.30902   0.31348   0.31348
     Eigenvalues ---    0.34222   0.34222   0.34397   0.34409   0.34410
     Eigenvalues ---    0.34450   0.34450   0.34462   0.34462   0.34810
     Eigenvalues ---    0.34811   0.34846   0.34847   0.50162
 RFO step:  Lambda=-1.30646857D-02 EMin= 2.30000000D-03
 Linear search not attempted -- first point.
 Iteration  1 RMS(Cart)=  0.05626676 RMS(Int)=  0.00120928
 Iteration  2 RMS(Cart)=  0.00131164 RMS(Int)=  0.00071998
 Iteration  3 RMS(Cart)=  0.00000340 RMS(Int)=  0.00071998
 Iteration  4 RMS(Cart)=  0.00000001 RMS(Int)=  0.00071998
 ITry= 1 IFail=0 DXMaxC= 1.74D-01 DCOld= 1.00D+10 DXMaxT= 3.00D-01 DXLimC= 3.00D+00 Rises=F
 Variable       Old X    -DE/DX   Delta X   Delta X   Delta X     New X
                                 (Linear)    (Quad)   (Total)
    R1        2.85353  -0.00484   0.00000  -0.01483  -0.01483   2.83870
    R2        2.05983   0.00383   0.00000   0.01061   0.01061   2.07044
    R3        2.06645   0.00169   0.00000   0.00473   0.00473   2.07119
    R4        2.06577   0.00179   0.00000   0.00501   0.00501   2.07078
    R5        2.86200  -0.00679   0.00000  -0.02108  -0.02108   2.84093
    R6        2.85353  -0.00484   0.00000  -0.01483  -0.01483   2.83870
    R7        2.87733  -0.01114   0.00000  -0.03545  -0.03545   2.84189
    R8        2.06666   0.00155   0.00000   0.00433   0.00433   2.07099
    R9        2.06557   0.00220   0.00000   0.00614   0.00614   2.07171
   R10        2.06558   0.00219   0.00000   0.00613   0.00613   2.07171
   R11        2.05984   0.00383   0.00000   0.01060   0.01060   2.07044
   R12        2.06644   0.00169   0.00000   0.00475   0.00475   2.07119
   R13        2.06578   0.00179   0.00000   0.00501   0.00501   2.07078
   R14        2.94142  -0.00971   0.00000  -0.03417  -0.03417   2.90725
   R15        2.06957   0.00229   0.00000   0.00646   0.00646   2.07603
   R16        2.06957   0.00229   0.00000   0.00646   0.00646   2.07603
   R17        2.59702   0.01658   0.00000   0.03222   0.03222   2.62924
   R18        2.05925   0.00704   0.00000   0.01947   0.01947   2.07872
   R19        2.05925   0.00704   0.00000   0.01947   0.01947   2.07872
    A1        1.95038  -0.00619   0.00000  -0.03507  -0.03577   1.91461
    A2        1.94144  -0.00614   0.00000  -0.03568  -0.03644   1.90499
    A3        1.94746  -0.00824   0.00000  -0.04807  -0.04895   1.89851
    A4        1.88029   0.00677   0.00000   0.04003   0.03944   1.91973
    A5        1.86219   0.00776   0.00000   0.04521   0.04437   1.90656
    A6        1.87810   0.00752   0.00000   0.04215   0.04120   1.91930
    A7        1.88650   0.00160   0.00000   0.01819   0.01806   1.90456
    A8        1.91440  -0.00105   0.00000  -0.00209  -0.00240   1.91200
    A9        1.93874   0.00005   0.00000  -0.00734  -0.00728   1.93146
   A10        1.88649   0.00160   0.00000   0.01820   0.01807   1.90456
   A11        1.89737  -0.00216   0.00000  -0.01829  -0.01818   1.87919
   A12        1.93874   0.00005   0.00000  -0.00734  -0.00728   1.93146
   A13        1.94949  -0.00862   0.00000  -0.04990  -0.05093   1.89856
   A14        1.94801  -0.00707   0.00000  -0.04082  -0.04175   1.90626
   A15        1.94800  -0.00707   0.00000  -0.04081  -0.04174   1.90626
   A16        1.86994   0.00843   0.00000   0.04863   0.04758   1.91752
   A17        1.86994   0.00843   0.00000   0.04863   0.04758   1.91752
   A18        1.87401   0.00765   0.00000   0.04434   0.04351   1.91752
   A19        1.95038  -0.00619   0.00000  -0.03507  -0.03577   1.91461
   A20        1.94144  -0.00614   0.00000  -0.03568  -0.03645   1.90500
   A21        1.94747  -0.00824   0.00000  -0.04807  -0.04896   1.89851
   A22        1.88028   0.00677   0.00000   0.04003   0.03944   1.91973
   A23        1.86218   0.00776   0.00000   0.04522   0.04438   1.90656
   A24        1.87811   0.00752   0.00000   0.04215   0.04119   1.91930
   A25        2.07136  -0.01390   0.00000  -0.06741  -0.06730   2.00406
   A26        1.90805  -0.00100   0.00000  -0.03171  -0.03063   1.87742
   A27        1.90805  -0.00100   0.00000  -0.03170  -0.03063   1.87742
   A28        1.85616   0.00867   0.00000   0.05475   0.05232   1.90848
   A29        1.85617   0.00867   0.00000   0.05475   0.05231   1.90848
   A30        1.85170   0.00014   0.00000   0.03557   0.03264   1.88434
   A31        1.92272  -0.01835   0.00000  -0.08101  -0.08130   1.84143
   A32        1.94045   0.00223   0.00000   0.01065   0.01039   1.95084
   A33        1.94044   0.00223   0.00000   0.01066   0.01040   1.95084
   A34        1.87732   0.00721   0.00000   0.02522   0.02494   1.90226
   A35        1.87733   0.00721   0.00000   0.02522   0.02494   1.90226
   A36        1.90338  -0.00009   0.00000   0.01079   0.01056   1.91394
    D1       -3.06903  -0.00125   0.00000  -0.01420  -0.01427  -3.08330
    D2       -1.01599   0.00101   0.00000   0.01691   0.01681  -0.99919
    D3        1.13402   0.00037   0.00000   0.00115   0.00111   1.13512
    D4        1.11186  -0.00140   0.00000  -0.01659  -0.01648   1.09538
    D5       -3.11829   0.00085   0.00000   0.01452   0.01460  -3.10369
    D6       -0.96828   0.00021   0.00000  -0.00124  -0.00110  -0.96939
    D7       -0.98566  -0.00118   0.00000  -0.01316  -0.01319  -0.99885
    D8        1.06738   0.00108   0.00000   0.01795   0.01789   1.08527
    D9       -3.06580   0.00044   0.00000   0.00220   0.00219  -3.06361
   D10        1.03544   0.00026   0.00000   0.00878   0.00892   1.04436
   D11        3.12845   0.00024   0.00000   0.00857   0.00877   3.13721
   D12       -1.05756   0.00027   0.00000   0.00899   0.00907  -1.04849
   D13       -1.03545  -0.00026   0.00000  -0.00878  -0.00892  -1.04436
   D14        1.05756  -0.00027   0.00000  -0.00899  -0.00907   1.04849
   D15       -3.12845  -0.00024   0.00000  -0.00857  -0.00877  -3.13721
   D16        3.14159   0.00000   0.00000   0.00000   0.00000   3.14159
   D17       -1.04859  -0.00001   0.00000  -0.00021  -0.00015  -1.04874
   D18        1.04859   0.00001   0.00000   0.00021   0.00015   1.04874
   D19        1.01598  -0.00101   0.00000  -0.01690  -0.01680   0.99918
   D20        3.11828  -0.00085   0.00000  -0.01452  -0.01459   3.10369
   D21       -1.06737  -0.00108   0.00000  -0.01796  -0.01790  -1.08527
   D22        3.06903   0.00125   0.00000   0.01420   0.01427   3.08330
   D23       -1.11186   0.00140   0.00000   0.01659   0.01648  -1.09538
   D24        0.98568   0.00118   0.00000   0.01315   0.01318   0.99885
   D25       -1.13402  -0.00037   0.00000  -0.00115  -0.00110  -1.13512
   D26        0.96827  -0.00021   0.00000   0.00124   0.00111   0.96938
   D27        3.06581  -0.00044   0.00000  -0.00220  -0.00220   3.06361
   D28       -1.06798   0.00064   0.00000   0.00648   0.00654  -1.06145
   D29        3.08362   0.00017   0.00000   0.01008   0.00949   3.09311
   D30        1.06361   0.00111   0.00000   0.00288   0.00357   1.06718
   D31        3.14159   0.00000   0.00000   0.00000   0.00000   3.14159
   D32        1.01000  -0.00047   0.00000   0.00360   0.00296   1.01296
   D33       -1.01001   0.00047   0.00000  -0.00360  -0.00296  -1.01297
   D34        1.06798  -0.00064   0.00000  -0.00648  -0.00654   1.06144
   D35       -1.06360  -0.00111   0.00000  -0.00289  -0.00358  -1.06718
   D36       -3.08362  -0.00017   0.00000  -0.01008  -0.00950  -3.09311
   D37        3.14159  -0.00000   0.00000  -0.00000  -0.00000   3.14159
   D38       -1.06213  -0.00149   0.00000  -0.01430  -0.01428  -1.07641
   D39        1.06212   0.00149   0.00000   0.01430   0.01428   1.07640
   D40       -0.98417  -0.00390   0.00000  -0.04429  -0.04574  -1.02991
   D41        1.09530  -0.00540   0.00000  -0.05859  -0.06002   1.03528
   D42       -3.06364  -0.00241   0.00000  -0.02999  -0.03146  -3.09509
   D43        0.98417   0.00390   0.00000   0.04429   0.04574   1.02990
   D44        3.06363   0.00241   0.00000   0.03000   0.03146   3.09509
   D45       -1.09530   0.00540   0.00000   0.05859   0.06002  -1.03528
         Item               Value     Threshold  Converged?
 Maximum Force            0.018354     0.000450     NO 
 RMS     Force            0.005167     0.000300     NO 
 Maximum Displacement     0.174175     0.001800     NO 
 RMS     Displacement     0.056666     0.001200     NO 
 Predicted change in Energy=-7.101063D-03
 Lowest energy point so far.  Saving SCF results.
 GradGradGradGradGradGradGradGradGradGradGradGradGradGradGradGradGradGrad

 Leave Link  103 at Tue Feb 23 00:12:56 2021, MaxMem=   104857600 cpu:               1.2 elap:               0.1
 (Enter /sw/arch/RedHatEnterpriseServer7/EB_production/2019/software/Gaussian/g16.c01/l202.exe)
                          Input orientation:                          
 ---------------------------------------------------------------------
 Center     Atomic      Atomic             Coordinates (Angstroms)
 Number     Number       Type             X           Y           Z
 ---------------------------------------------------------------------
      1          6           0       -2.067391    1.893510   -0.236148
      2          7           0       -1.015136    2.050741    0.824309
      3          6           0       -0.802269    3.514356    1.093733
      4          6           0       -1.470903    1.378890    2.088203
      5          6           0        0.295291    1.476601    0.360905
      6          6           0        0.263022   -0.026871    0.036314
      7          9           0        1.555406   -0.348256   -0.366502
      8          1           0       -2.272821    0.829505   -0.397695
      9          1           0       -1.711937    2.351934   -1.166079
     10          1           0       -2.983974    2.391247    0.099912
     11          1           0       -1.748004    3.951781    1.433279
     12          1           0       -0.037717    3.630838    1.870756
     13          1           0       -0.473883    4.007143    0.171130
     14          1           0       -1.686146    0.323348    1.888429
     15          1           0       -0.682610    1.463880    2.844933
     16          1           0       -2.383180    1.872909    2.441051
     17          1           0        1.036482    1.662739    1.150136
     18          1           0        0.604554    2.035383   -0.532972
     19          1           0        0.002946   -0.629431    0.919096
     20          1           0       -0.434149   -0.252329   -0.784140
 ---------------------------------------------------------------------
                    Distance matrix (angstroms):
                    1          2          3          4          5
     1  C    0.000000
     2  N    1.502176   0.000000
     3  C    2.448726   1.503354   0.000000
     4  C    2.454229   1.502177   2.448726   0.000000
     5  C    2.472358   1.503862   2.427781   2.472357   0.000000
     6  C    3.031983   2.563414   3.846202   3.031982   1.538450
     7  F    4.262296   3.712264   4.755070   4.262295   2.333905
     8  H    1.095630   2.136933   3.405189   2.669192   2.754888
     9  H    1.096025   2.130233   2.699161   3.405182   2.669616
    10  H    1.095812   2.125328   2.647431   2.695840   3.414422
    11  H    2.669359   2.126475   1.095922   2.669359   3.384015
    12  H    3.402489   2.132394   1.096299   2.678166   2.651656
    13  H    2.678168   2.132395   1.096300   3.402489   2.651657
    14  H    2.669192   2.136935   3.405189   1.095631   2.754890
    15  H    3.405181   2.130234   2.699161   1.096024   2.669615
    16  H    2.695838   2.125329   2.647431   1.095812   3.414422
    17  H    3.407208   2.113255   2.610110   2.692122   1.098589
    18  H    2.692122   2.113254   2.610112   3.407208   1.098589
    19  H    3.462097   2.868587   4.224907   2.751799   2.198275
    20  H    2.751799   2.868586   4.224907   3.462094   2.198275
                    6          7          8          9         10
     6  C    0.000000
     7  F    1.391332   0.000000
     8  H    2.711501   4.005423   0.000000
     9  H    3.317367   4.313453   1.795215   0.000000
    10  H    4.048990   5.322442   1.786727   1.795092   0.000000
    11  H    4.671767   5.713322   3.657392   3.052454   2.395988
    12  H    4.102981   4.834930   4.241347   3.696075   3.654162
    13  H    4.102983   4.834931   3.695554   2.461832   2.986092
    14  H    2.711502   4.005425   2.413866   3.666858   3.026443
    15  H    3.317363   4.313451   3.666857   4.235135   3.700193
    16  H    4.048988   5.322442   3.026442   3.700191   2.471954
    17  H    2.166477   2.571687   3.747205   3.659734   4.218740
    18  H    2.166477   2.571686   3.122775   2.422221   3.661245
    19  H    1.100010   2.035179   3.006917   4.022103   4.326344
    20  H    1.100011   2.035179   2.168044   2.925885   3.777784
                   11         12         13         14         15
    11  H    0.000000
    12  H    1.794288   0.000000
    13  H    1.794288   1.794596   0.000000
    14  H    3.657392   3.695554   4.241349   0.000000
    15  H    3.052455   2.461832   3.696076   1.795214   0.000000
    16  H    2.395989   2.986093   3.654164   1.786725   1.795095
    17  H    3.615694   2.355124   2.955653   3.122779   2.422222
    18  H    3.615695   2.955654   2.355127   3.747206   3.659733
    19  H    4.931299   4.365455   4.720660   2.168047   2.925881
    20  H    4.931299   4.720658   4.365458   3.006913   4.022098
                   16         17         18         19         20
    16  H    0.000000
    17  H    3.661246   0.000000
    18  H    4.218740   1.777155   0.000000
    19  H    3.777783   2.524999   3.093811   0.000000
    20  H    4.326339   3.093812   2.524998   1.798409   0.000000
 Stoichiometry    C5H13FN(1+)
 Framework group  C1[X(C5H13FN)]
 Deg. of freedom    54
 Full point group                 C1      NOp   1
 RotChk:  IX=2 Diff= 4.83D-03
 Largest Abelian subgroup         C1      NOp   1
 Largest concise Abelian subgroup C1      NOp   1
                         Standard orientation:                         
 ---------------------------------------------------------------------
 Center     Atomic      Atomic             Coordinates (Angstroms)
 Number     Number       Type             X           Y           Z
 ---------------------------------------------------------------------
      1          6           0       -1.083320   -0.813441   -1.227116
      2          7           0       -0.862301    0.024336   -0.000001
      3          6           0       -1.840886    1.165583    0.000002
      4          6           0       -1.083320   -0.813444    1.227114
      5          6           0        0.522600    0.610553    0.000001
      6          6           0        1.661688   -0.423520    0.000000
      7          9           0        2.838239    0.319132   -0.000000
      8          1           0       -0.415108   -1.681480   -1.206936
      9          1           0       -0.882684   -0.206720   -2.117568
     10          1           0       -2.123342   -1.158521   -1.235979
     11          1           0       -2.858201    0.758010    0.000001
     12          1           0       -1.683946    1.775580    0.897301
     13          1           0       -1.683947    1.775584   -0.897295
     14          1           0       -0.415109   -1.681486    1.206930
     15          1           0       -0.882681   -0.206727    2.117567
     16          1           0       -2.123341   -1.158527    1.235975
     17          1           0        0.611851    1.250366    0.888579
     18          1           0        0.611851    1.250367   -0.888577
     19          1           0        1.638023   -1.056683    0.899205
     20          1           0        1.638022   -1.056683   -0.899204
 ---------------------------------------------------------------------
 Rotational constants (GHZ):           4.3004386           1.4247478           1.4032146
 Leave Link  202 at Tue Feb 23 00:12:56 2021, MaxMem=   104857600 cpu:               1.5 elap:               0.1
 (Enter /sw/arch/RedHatEnterpriseServer7/EB_production/2019/software/Gaussian/g16.c01/l301.exe)
 Standard basis: TZVP (5D, 7F)
 Ernie: Thresh=  0.10000D-02 Tol=  0.10000D-05 Strict=F.
 There are   218 symmetry adapted cartesian basis functions of A   symmetry.
 There are   211 symmetry adapted basis functions of A   symmetry.
   211 basis functions,   349 primitive gaussians,   218 cartesian basis functions
    29 alpha electrons       29 beta electrons
       nuclear repulsion energy       352.4166130000 Hartrees.
 IExCor=  404 DFT=T Ex=B Corr=P86 ExCW=0 ScaHFX=  0.000000
 ScaDFX=  1.000000  1.000000  1.000000  1.000000 ScalE2=  1.000000  1.000000
 IRadAn=      5 IRanWt=     -1 IRanGd=            0 ICorTp=0 IEmpDi=131
 NAtoms=   20 NActive=   20 NUniq=   20 SFac= 1.00D+00 NAtFMM=   60 NAOKFM=F Big=F
 Integral buffers will be    131072 words long.
 Raffenetti 2 integral format.
 Two-electron integral symmetry is turned on.
 R6Disp:  Grimme-D3 Dispersion energy=       -0.0201445931 Hartrees.
 Nuclear repulsion after empirical dispersion term =      352.3964684069 Hartrees.
 ------------------------------------------------------------------------------
 Polarizable Continuum Model (PCM)
 =================================
 Model                : PCM.
 Atomic radii         : UFF (Universal Force Field).
 Polarization charges : Total charges.
 Charge compensation  : None.
 Solution method      : On-the-fly selection.
 Cavity type          : Scaled VdW (van der Waals Surface) (Alpha=1.100).
 Cavity algorithm     : GePol (No added spheres)
                        Default sphere list used, NSphG=   20.
                        Lebedev-Laikov grids with approx.  5.0 points / Ang**2.
                        Smoothing algorithm: York/Karplus (Gamma=1.0000).
                        Polarization charges: spherical gaussians, with
                                              point-specific exponents (IZeta= 3).
                        Self-potential: point-specific (ISelfS= 7).
                        Self-field    : sphere-specific E.n sum rule (ISelfD= 2).
 1st derivatives      : Analytical E(r).r(x)/FMM algorithm (CHGder, D1EAlg=3).
                        Cavity 1st derivative terms included.
 Solvent              : Water, Eps=  78.355300 Eps(inf)=   1.777849
 ------------------------------------------------------------------------------
 Spheres list:
 ISph  on   Nord     Re0    Alpha      Xe            Ye            Ze
    1   C      1    1.9255  1.100     -1.083320     -0.813441     -1.227116
    2   N      2    1.8300  1.100     -0.862301      0.024336     -0.000001
    3   C      3    1.9255  1.100     -1.840886      1.165583      0.000002
    4   C      4    1.9255  1.100     -1.083320     -0.813444      1.227114
    5   C      5    1.9255  1.100      0.522600      0.610553      0.000001
[...]
    1   C      1    2.0000  1.000     -1.112562     -0.814532     -1.235710
    2   N      2    1.8300  1.000     -0.867056      0.023532     -0.000000
    3   C      3    2.0000  1.000     -1.833409      1.189437      0.000000
    4   C      4    2.0000  1.000     -1.112560     -0.814532      1.235711
    5   C      5    2.0000  1.000      0.542144      0.599219     -0.000001
    6   C      6    2.0000  1.000      1.669819     -0.433962     -0.000000
    7   F      7    1.7200  1.000      2.864739      0.315237     -0.000000
    8   H      8    1.3000  1.000     -0.482535     -1.708371     -1.200965
    9   H      9    1.3000  1.000     -0.877677     -0.214751     -2.121600
   10   H     10    1.3000  1.000     -2.167255     -1.109375     -1.245155
   11   H     11    1.3000  1.000     -2.853803      0.792316     -0.000001
   12   H     12    1.3000  1.000     -1.659480      1.790093      0.899188
   13   H     13    1.3000  1.000     -1.659479      1.790094     -0.899187
   14   H     14    1.3000  1.000     -0.482532     -1.708369      1.200966
   15   H     15    1.3000  1.000     -0.877676     -0.214749      2.121600
   16   H     16    1.3000  1.000     -2.167253     -1.109375      1.245156
   17   H     17    1.3000  1.000      0.626854      1.232193      0.892319
   18   H     18    1.3000  1.000      0.626854      1.232192     -0.892321
   19   H     19    1.3000  1.000      1.670068     -1.063764      0.900210
   20   H     20    1.3000  1.000      1.670069     -1.063765     -0.900209
 ------------------------------------------------------------------------------
 One-electron integrals computed using PRISM.
 PrsmSu:  requested number of processors reduced to:  29 ShMem   1 Linda.
 NBasis=   211 RedAO= T EigKep=  3.91D-04  NBF=   211
 NBsUse=   211 1.00D-06 EigRej= -1.00D+00 NBFU=   211
 Initial guess from the checkpoint file:  "WOAGQHQTBSCFJV-UHFFFAOYSA-N.chk"
 B after Tr=    -0.000000    0.000000    0.000000
         Rot=    1.000000   -0.000000    0.000000    0.000000 Ang=   0.00 deg.
 Requested convergence on RMS density matrix=1.00D-08 within 128 cycles.
 Requested convergence on MAX density matrix=1.00D-06.
 Requested convergence on             energy=1.00D-06.
 No special actions if energy rises.
 Inv3:  Mode=1 IEnd=     4198467.
 Iteration    1 A*A^-1 deviation from unit magnitude is 3.69D-14 for    395.
 Iteration    1 A*A^-1 deviation from orthogonality  is 5.49D-14 for    395     36.
 Iteration    1 A^-1*A deviation from unit magnitude is 1.73D-14 for     36.
 Iteration    1 A^-1*A deviation from orthogonality  is 2.02D-14 for    395     36.
 Error on nuclear    polarization charges =  0.01967
 Error on electronic polarization charges = -0.04082
 SCF Done:  E(RB-P86) =  -352.905087568     A.U. after   10 cycles
            NFock= 10  Conv=0.30D-08     -V/T= 2.0052
 --------------------------------------------------------------------
 Variational C-PCM results
 =========================
 <psi(f)|   H    |psi(f)>                     (a.u.) =    -352.803710
 <psi(f)|H+V(f)/2|psi(f)>                     (a.u.) =    -352.905088
 Total free energy in solution:
 - with all non electrostatic terms           (a.u.) =    -352.893535
 --------------------------------------------------------------------
 (Polarized solute)-Solvent               (kcal/mol) =     -63.62
 --------------------------------------------------------------------
 Cavitation energy                        (kcal/mol) =      21.13
 Dispersion energy                        (kcal/mol) =     -15.10
 Repulsion energy                         (kcal/mol) =       1.22
 Total non electrostatic                  (kcal/mol) =       7.25
 --------------------------------------------------------------------
 Partition over spheres:
 Sphere  on Atom  Surface  Charge   GEl     GCav    GDR
    1      C1      14.00  -0.080   -4.77    1.64   -1.02
    2      N2       0.00   0.000    0.00    0.00    0.00
    3      C3      14.41  -0.079   -4.64    1.69   -1.09
    4      C4      14.00  -0.079   -4.72    1.64   -1.02
    5      C5       6.24  -0.052   -2.97    0.73   -0.23
    6      C6      11.17  -0.064   -3.36    1.31   -0.61
    7      F7      21.21   0.139    3.42    2.64   -1.90
    8      H8       5.72  -0.060   -3.74    0.81   -0.50
    9      H9       6.47  -0.059   -3.55    0.91   -0.67
   10      H10      6.43  -0.061   -3.66    0.91   -0.64
   11      H11      6.44  -0.060   -3.59    0.91   -0.62
   12      H12      6.45  -0.060   -3.58    0.91   -0.64
   13      H13      6.45  -0.061   -3.63    0.91   -0.64
   14      H14      5.72  -0.059   -3.64    0.81   -0.50
   15      H15      6.47  -0.061   -3.64    0.91   -0.67
   16      H16      6.43  -0.063   -3.87    0.91   -0.64
   17      H17      6.43  -0.066   -3.85    0.91   -0.62
   18      H18      6.43  -0.064   -3.74    0.91   -0.62
   19      H19      5.91  -0.056   -3.05    0.83   -0.61
   20      H20      5.91  -0.056   -3.04    0.83   -0.61
 --------------------------------------------------------------------
 - cavitation energy not included in the total energy.
 - dispersion energy not included in the total energy.
 - repulsion  energy not included in the total energy.
 After PCM corrections, the energy is  -352.905087568     a.u.
 --------------------------------------------------------------------
 Writing COSMO formatted file "WOAGQHQTBSCFJV-UHFFFAOYSA-N.cosmo"
 Recomputed dielectric energy= -0.099560 old= -0.101378 diff= 1.82D-03

 **********************************************************************

            Population analysis using the SCF Density.

 **********************************************************************

 Orbital symmetries:
       Occupied  (A) (A) (A) (A) (A) (A) (A) (A) (A) (A) (A) (A)
                 (A) (A) (A) (A) (A) (A) (A) (A) (A) (A) (A) (A)
                 (A) (A) (A) (A) (A)
       Virtual   (A) (A) (A) (A) (A) (A) (A) (A) (A) (A) (A) (A)
                 (A) (A) (A) (A) (A) (A) (A) (A) (A) (A) (A) (A)
                 (A) (A) (A) (A) (A) (A) (A) (A) (A) (A) (A) (A)
                 (A) (A) (A) (A) (A) (A) (A) (A) (A) (A) (A) (A)
                 (A) (A) (A) (A) (A) (A) (A) (A) (A) (A) (A) (A)
                 (A) (A) (A) (A) (A) (A) (A) (A) (A) (A) (A) (A)
                 (A) (A) (A) (A) (A) (A) (A) (A) (A) (A) (A) (A)
                 (A) (A) (A) (A) (A) (A) (A) (A) (A) (A) (A) (A)
                 (A) (A) (A) (A) (A) (A) (A) (A) (A) (A) (A) (A)
                 (A) (A) (A) (A) (A) (A) (A) (A) (A) (A) (A) (A)
                 (A) (A) (A) (A) (A) (A) (A) (A) (A) (A) (A) (A)
                 (A) (A) (A) (A) (A) (A) (A) (A) (A) (A) (A) (A)
                 (A) (A) (A) (A) (A) (A) (A) (A) (A) (A) (A) (A)
                 (A) (A) (A) (A) (A) (A) (A) (A) (A) (A) (A) (A)
                 (A) (A) (A) (A) (A) (A) (A) (A) (A) (A) (A) (A)
                 (A) (A)
 The electronic state is 1-A.
 Alpha  occ. eigenvalues --  -24.28026 -14.14420  -9.98632  -9.96237  -9.94830
 Alpha  occ. eigenvalues --   -9.94826  -9.94780  -1.10681  -0.94323  -0.72159
 Alpha  occ. eigenvalues --   -0.68527  -0.68481  -0.62205  -0.56280  -0.49416
 Alpha  occ. eigenvalues --   -0.48420  -0.47531  -0.45347  -0.44513  -0.41094
 Alpha  occ. eigenvalues --   -0.39252  -0.38459  -0.36505  -0.36340  -0.36190
 Alpha  occ. eigenvalues --   -0.36107  -0.35975  -0.31338  -0.30525
 Alpha virt. eigenvalues --   -0.01570   0.01922   0.03910   0.04973   0.05250
 Alpha virt. eigenvalues --    0.05541   0.05776   0.05919   0.08308   0.08646
 Alpha virt. eigenvalues --    0.09983   0.10918   0.11054   0.12683   0.13203
 Alpha virt. eigenvalues --    0.14600   0.14668   0.15519   0.15777   0.18268
 Alpha virt. eigenvalues --    0.21544   0.22890   0.23230   0.23837   0.24594
 Alpha virt. eigenvalues --    0.25630   0.26520   0.28403   0.30717   0.31096
 Alpha virt. eigenvalues --    0.33175   0.34101   0.35444   0.37703   0.39239
 Alpha virt. eigenvalues --    0.39517   0.40167   0.40413   0.40847   0.41492
 Alpha virt. eigenvalues --    0.42484   0.43506   0.43551   0.44115   0.44226
 Alpha virt. eigenvalues --    0.44988   0.45787   0.46313   0.47867   0.49326
 Alpha virt. eigenvalues --    0.51607   0.55340   0.57617   0.65061   0.65768
 Alpha virt. eigenvalues --    0.68290   0.68722   0.73605   0.76500   0.96607
 Alpha virt. eigenvalues --    1.00397   1.01324   1.14303   1.15956   1.16724
 Alpha virt. eigenvalues --    1.17622   1.18392   1.18690   1.19284   1.21274
 Alpha virt. eigenvalues --    1.22955   1.23504   1.25868   1.26061   1.27479
 Alpha virt. eigenvalues --    1.28101   1.28927   1.29088   1.30194   1.34483
 Alpha virt. eigenvalues --    1.37468   1.40414   1.43653   1.44403   1.45348
 Alpha virt. eigenvalues --    1.47132   1.51113   1.51298   1.53893   1.58018
 Alpha virt. eigenvalues --    1.59663   1.62789   1.65280   1.65748   1.67810
 Alpha virt. eigenvalues --    1.68535   1.68547   1.69491   1.69577   1.71264
 Alpha virt. eigenvalues --    1.71687   1.72228   1.72358   1.73946   1.73981
 Alpha virt. eigenvalues --    1.74921   1.81988   1.83154   1.85585   1.85949
 Alpha virt. eigenvalues --    1.88413   1.89514   1.91769   1.97975   1.99409
 Alpha virt. eigenvalues --    1.99859   2.06794   2.11866   2.12437   2.12979
 Alpha virt. eigenvalues --    2.18358   2.20375   2.26234   2.29648   2.29690
 Alpha virt. eigenvalues --    2.31555   2.32083   2.36371   2.36753   2.38112
 Alpha virt. eigenvalues --    2.40017   2.40862   2.41364   2.48577   2.53390
 Alpha virt. eigenvalues --    2.54218   2.56722   2.57309   2.61629   2.62780
 Alpha virt. eigenvalues --    2.63128   2.65114   2.65338   2.69666   2.69714
 Alpha virt. eigenvalues --    2.83193   2.86298   2.86562   2.88048   2.91935
 Alpha virt. eigenvalues --    2.96184   2.98498   3.07163   3.07726   3.08041
 Alpha virt. eigenvalues --    3.10649   3.12414   3.12661   3.17786   3.19032
 Alpha virt. eigenvalues --    3.19624   3.20687   3.22735   3.22818   3.23937
 Alpha virt. eigenvalues --    3.27744   3.30014   3.33313   3.43906   3.45164
 Alpha virt. eigenvalues --    3.56585   3.57064   3.58118   3.83809   4.29593
 Alpha virt. eigenvalues --   21.63077  21.79865  21.80341  21.82078  21.83639
 Alpha virt. eigenvalues --   31.64771  56.44473
          Condensed to atoms (all electrons):
               1          2          3          4          5          6
     1  C    5.194080   0.226276  -0.082136  -0.116509  -0.078492   0.004207
     2  N    0.226276   6.555375   0.249929   0.226284   0.123183  -0.005439
     3  C   -0.082136   0.249929   5.130947  -0.082194  -0.102585   0.014145
     4  C   -0.116509   0.226284  -0.082194   5.194154  -0.078313   0.004107
     5  C   -0.078492   0.123183  -0.102585  -0.078313   5.574609   0.164146
     6  C    0.004207  -0.005439   0.014145   0.004107   0.164146   4.876917
     7  F   -0.000856   0.006558   0.000047  -0.000856  -0.062880   0.229258
     8  H    0.391553  -0.017001   0.009364  -0.006175  -0.010995   0.002445
     9  H    0.377912  -0.014638  -0.006820   0.011679  -0.003127  -0.003264
    10  H    0.389254  -0.016463  -0.006955  -0.006750   0.008888   0.000444
    11  H   -0.009140  -0.015225   0.391139  -0.009099   0.009087  -0.000558
    12  H    0.009492  -0.017190   0.388829  -0.005598  -0.008485   0.000235
    13  H   -0.005593  -0.017201   0.388814   0.009488  -0.008487   0.000236
    14  H   -0.006158  -0.017001   0.009367   0.391536  -0.010961   0.002411
    15  H    0.011681  -0.014619  -0.006839   0.377933  -0.003144  -0.003246
    16  H   -0.006786  -0.016480  -0.006947   0.389277   0.008885   0.000446
    17  H    0.014531  -0.009978  -0.004803  -0.020887   0.377810  -0.024577
    18  H   -0.020879  -0.009964  -0.004791   0.014532   0.377788  -0.024619
    19  H   -0.008000  -0.001891  -0.000667   0.020188  -0.046803   0.409450
    20  H    0.020182  -0.001901  -0.000668  -0.007997  -0.046842   0.409522
               7          8          9         10         11         12
     1  C   -0.000856   0.391553   0.377912   0.389254  -0.009140   0.009492
     2  N    0.006558  -0.017001  -0.014638  -0.016463  -0.015225  -0.017190
     3  C    0.000047   0.009364  -0.006820  -0.006955   0.391139   0.388829
     4  C   -0.000856  -0.006175   0.011679  -0.006750  -0.009099  -0.005598
     5  C   -0.062880  -0.010995  -0.003127   0.008888   0.009087  -0.008485
     6  C    0.229258   0.002445  -0.003264   0.000444  -0.000558   0.000235
     7  F    9.126760  -0.000033   0.000168  -0.000005   0.000008  -0.000030
     8  H   -0.000033   0.464341  -0.018947  -0.018808   0.000083  -0.000404
     9  H    0.000168  -0.018947   0.468857  -0.018283   0.000230   0.000020
    10  H   -0.000005  -0.018808  -0.018283   0.463622   0.002980   0.000070
    11  H    0.000008   0.000083   0.000230   0.002980   0.465013  -0.019028
    12  H   -0.000030  -0.000404   0.000020   0.000070  -0.019028   0.469007
    13  H   -0.000030   0.000025   0.002163  -0.000092  -0.018991  -0.019812
    14  H   -0.000033   0.001954   0.000022  -0.000069   0.000082   0.000025
    15  H    0.000168   0.000023  -0.000469  -0.000030   0.000229   0.002167
    16  H   -0.000005  -0.000069  -0.000029   0.002494   0.002988  -0.000095
    17  H    0.009002  -0.000247  -0.000233  -0.000273   0.000121   0.003657
    18  H    0.009001   0.000868   0.003741  -0.000118   0.000120  -0.000576
    19  H   -0.036153   0.000711   0.000472  -0.000034   0.000018   0.000086
    20  H   -0.036143  -0.003708  -0.002088   0.000157   0.000018  -0.000029
              13         14         15         16         17         18
     1  C   -0.005593  -0.006158   0.011681  -0.006786   0.014531  -0.020879
     2  N   -0.017201  -0.017001  -0.014619  -0.016480  -0.009978  -0.009964
     3  C    0.388814   0.009367  -0.006839  -0.006947  -0.004803  -0.004791
     4  C    0.009488   0.391536   0.377933   0.389277  -0.020887   0.014532
     5  C   -0.008487  -0.010961  -0.003144   0.008885   0.377810   0.377788
     6  C    0.000236   0.002411  -0.003246   0.000446  -0.024577  -0.024619
     7  F   -0.000030  -0.000033   0.000168  -0.000005   0.009002   0.009001
     8  H    0.000025   0.001954   0.000023  -0.000069  -0.000247   0.000868
     9  H    0.002163   0.000022  -0.000469  -0.000029  -0.000233   0.003741
    10  H   -0.000092  -0.000069  -0.000030   0.002494  -0.000273  -0.000118
    11  H   -0.018991   0.000082   0.000229   0.002988   0.000121   0.000120
    12  H   -0.019812   0.000025   0.002167  -0.000095   0.003657  -0.000576
    13  H    0.469042  -0.000404   0.000020   0.000070  -0.000578   0.003658
    14  H   -0.000404   0.464269  -0.018910  -0.018789   0.000867  -0.000248
    15  H    0.000020  -0.018910   0.468819  -0.018329   0.003734  -0.000233
    16  H    0.000070  -0.018789  -0.018329   0.463670  -0.000117  -0.000273
    17  H   -0.000578   0.000867   0.003734  -0.000117   0.462516  -0.020121
    18  H    0.003658  -0.000248  -0.000233  -0.000273  -0.020121   0.462563
    19  H   -0.000029  -0.003713  -0.002088   0.000156  -0.009776   0.007029
    20  H    0.000086   0.000712   0.000472  -0.000034   0.007026  -0.009779
              19         20
     1  C   -0.008000   0.020182
     2  N   -0.001891  -0.001901
     3  C   -0.000667  -0.000668
     4  C    0.020188  -0.007997
     5  C   -0.046803  -0.046842
     6  C    0.409450   0.409522
     7  F   -0.036153  -0.036143
     8  H    0.000711  -0.003708
     9  H    0.000472  -0.002088
    10  H   -0.000034   0.000157
    11  H    0.000018   0.000018
    12  H    0.000086  -0.000029
    13  H   -0.000029   0.000086
    14  H   -0.003713   0.000712
    15  H   -0.002088   0.000472
    16  H    0.000156  -0.000034
    17  H   -0.009776   0.007026
    18  H    0.007029  -0.009779
    19  H    0.545878  -0.048646
    20  H   -0.048646   0.545912
 Mulliken charges:
               1
     1  C   -0.304617
     2  N   -0.212613
     3  C   -0.277173
     4  C   -0.304798
     5  C   -0.183281
     6  C   -0.056266
     7  F   -0.243942
     8  H    0.205021
     9  H    0.202635
    10  H    0.199971
    11  H    0.199926
    12  H    0.197659
    13  H    0.197615
    14  H    0.205042
    15  H    0.202661
    16  H    0.199970
    17  H    0.212326
    18  H    0.212303
    19  H    0.173812
    20  H    0.173748
 Sum of Mulliken charges =   1.00000
 Mulliken charges with hydrogens summed into heavy atoms:
               1
     1  C    0.303011
     2  N   -0.212613
     3  C    0.318028
     4  C    0.302874
     5  C    0.241348
     6  C    0.291294
     7  F   -0.243942
 Electronic spatial extent (au):  <R**2>=            952.9867
 Charge=              1.0000 electrons
 Dipole moment (field-independent basis, Debye):
    X=             -6.2021    Y=             -1.0059    Z=             -0.0008  Tot=              6.2831
 Quadrupole moment (field-independent basis, Debye-Ang):
   XX=            -40.3531   YY=            -35.8410   ZZ=            -35.7550
   XY=             -2.8268   XZ=              0.0027   YZ=             -0.0007
 Traceless Quadrupole moment (field-independent basis, Debye-Ang):
   XX=             -3.0367   YY=              1.4754   ZZ=              1.5614
   XY=             -2.8268   XZ=              0.0027   YZ=             -0.0007
 Octapole moment (field-independent basis, Debye-Ang**2):
  XXX=            -33.9040  YYY=              1.5512  ZZZ=             -0.0032  XYY=             -0.3604
  XXY=             -5.1198  XXZ=             -0.0053  XZZ=              0.1681  YZZ=             -0.6509
  YYZ=              0.0004  XYZ=              0.0000
 Hexadecapole moment (field-independent basis, Debye-Ang**3):
 XXXX=           -732.4114 YYYY=           -210.5340 ZZZZ=           -190.2946 XXXY=             -8.2734
 XXXZ=              0.0125 YYYX=             -1.2769 YYYZ=             -0.0025 ZZZX=              0.0084
 ZZZY=              0.0001 XXYY=           -141.3585 XXZZ=           -144.5093 YYZZ=            -62.1212
 XXYZ=             -0.0003 YYXZ=              0.0019 ZZXY=              2.4301
 N-N= 3.503214044937D+02 E-N=-1.513205932469D+03  KE= 3.510942863400D+02
 Unable to Open any file for archive entry.
 1\1\GINC-TCN1638\SP\RBP86\TZVP\C5H13F1N1(1+)\ELENAA\23-Feb-2021\0\\# B
 P86/TZVP SCRF=COSMORS geom=CHECKPOINT guess=CHECKPOINT\\COSMO-file for
  #WOAGQHQTBSCFJV-UHFFFAOYSA-N\\1,1\C,0,-2.0883548315,1.8988893984,-0.2
 38653532\N,0,-1.0227737204,2.0468761279,0.8254143818\C,0,-0.8024975619
 ,3.5206059381,1.0951753607\C,0,-1.4876892206,1.3806641885,2.1019796602
 \C,0,0.3037514764,1.465862955,0.3563561462\C,0,0.2837115054,-0.0283408
 861,0.0306776858\F,0,1.5975287551,-0.3411444081,-0.375735823\H,0,-2.32
 03287012,0.8386593131,-0.3771755375\H,0,-1.717789104,2.3349399502,-1.1
 725968551\H,0,-2.984987072,2.4294382942,0.0989371006\H,0,-1.7487425259
 ,3.9549089341,1.4341602517\H,0,-0.0367968869,3.6252410837,1.8712763163
 \H,0,-0.4738795324,4.0023369765,0.1680700689\H,0,-1.7365507776,0.33500
 48824,1.8976448946\H,0,-0.6865028027,1.4451969005,2.8460528682\H,0,-2.
 3797309608,1.9072508007,2.4574610675\H,0,1.0335848893,1.656103068,1.15
 33621744\H,0,0.5998374601,2.0303179779,-0.5368349504\H,0,0.0466854684,
 -0.6512074655,0.9041101411\H,0,-0.3908958566,-0.2736840297,-0.80103142
 \\Version=ES64L-G16RevC.01\State=1-A\HF=-352.9050876\RMSD=3.000e-09\Di
 pole=-1.8618239,1.4202675,0.7919128\Quadrupole=-2.2614653,1.4949775,0.
 7664878,1.6194239,1.2377688,-0.3434423\PG=C01 [X(C5H13F1N1)]\\@
 The archive entry for this job was punched.


 "ANNA, YOU MUSN'T SPEAK OF OXIDIZED MURIATIC ACID
 ANYMORE, FROM NOW ON YOU MUST SAY CHLORINE."
   -- JENS JACOB BERZELIUS, IN 1820, TO HIS COOK, WHO HAD
 COMPLAINED OF THE SMELL OF THE FLASK SHE WAS CLEANING.
 Job cpu time:       0 days  0 hours  4 minutes 32.1 seconds.
 Elapsed time:       0 days  0 hours  0 minutes  8.9 seconds.
 File lengths (MBytes):  RWF=     41 Int=      0 D2E=      0 Chk=      7 Scr=      1
 Normal termination of Gaussian 16 at Tue Feb 23 00:14:00 2021.
