 Entering Gaussian System, Link 0=g16
 Input=WPYMKLBDIGXBTP-UHFFFAOYSA-N.gjf
 Output=WPYMKLBDIGXBTP-UHFFFAOYSA-N.log
 Initial command:
 /sw/arch/RedHatEnterpriseServer7/EB_production/2019/software/Gaussian/g16.c01/l1.exe "/scratch-local/elenaa.9715291/Gau-18932.inp" -scrdir="/scratch-local/elenaa.9715291/"
 Entering Link 1 = /sw/arch/RedHatEnterpriseServer7/EB_production/2019/software/Gaussian/g16.c01/l1.exe PID=     18933.
  
 Copyright (c) 1988-2019, Gaussian, Inc.  All Rights Reserved.
  
 This is part of the Gaussian(R) 16 program.  It is based on
 the Gaussian(R) 09 system (copyright 2009, Gaussian, Inc.),
 the Gaussian(R) 03 system (copyright 2003, Gaussian, Inc.),
 the Gaussian(R) 98 system (copyright 1998, Gaussian, Inc.),
 the Gaussian(R) 94 system (copyright 1995, Gaussian, Inc.),
 the Gaussian 92(TM) system (copyright 1992, Gaussian, Inc.),
 the Gaussian 90(TM) system (copyright 1990, Gaussian, Inc.),
 the Gaussian 88(TM) system (copyright 1988, Gaussian, Inc.),
 the Gaussian 86(TM) system (copyright 1986, Carnegie Mellon
 University), and the Gaussian 82(TM) system (copyright 1983,
 Carnegie Mellon University). Gaussian is a federally registered
 trademark of Gaussian, Inc.
  
 This software contains proprietary and confidential information,
 including trade secrets, belonging to Gaussian, Inc.
  
 This software is provided under written license and may be
 used, copied, transmitted, or stored only in accord with that
 written license.
  
 The following legend is applicable only to US Government
 contracts under FAR:
  
                    RESTRICTED RIGHTS LEGEND
  
 Use, reproduction and disclosure by the US Government is
 subject to restrictions as set forth in subparagraphs (a)
 and (c) of the Commercial Computer Software - Restricted
 Rights clause in FAR 52.227-19.
  
 Gaussian, Inc.
 340 Quinnipiac St., Bldg. 40, Wallingford CT 06492
  
  
 ---------------------------------------------------------------
 Warning -- This program may not be used in any manner that
 competes with the business of Gaussian, Inc. or will provide
 assistance to any competitor of Gaussian, Inc.  The licensee
 of this program is prohibited from giving any competitor of
 Gaussian, Inc. access to this program.  By using this program,
 the user acknowledges that Gaussian, Inc. is engaged in the
 business of creating and licensing software in the field of
 computational chemistry and represents and warrants to the
 licensee that it is not a competitor of Gaussian, Inc. and that
 it will not use this program in any manner prohibited above.
 ---------------------------------------------------------------
  

 Cite this work as:
 Gaussian 16, Revision C.01,
 M. J. Frisch, G. W. Trucks, H. B. Schlegel, G. E. Scuseria, 
 M. A. Robb, J. R. Cheeseman, G. Scalmani, V. Barone, 
 G. A. Petersson, H. Nakatsuji, X. Li, M. Caricato, A. V. Marenich, 
 J. Bloino, B. G. Janesko, R. Gomperts, B. Mennucci, H. P. Hratchian, 
 J. V. Ortiz, A. F. Izmaylov, J. L. Sonnenberg, D. Williams-Young, 
 F. Ding, F. Lipparini, F. Egidi, J. Goings, B. Peng, A. Petrone, 
 T. Henderson, D. Ranasinghe, V. G. Zakrzewski, J. Gao, N. Rega, 
 G. Zheng, W. Liang, M. Hada, M. Ehara, K. Toyota, R. Fukuda, 
 J. Hasegawa, M. Ishida, T. Nakajima, Y. Honda, O. Kitao, H. Nakai, 
 T. Vreven, K. Throssell, J. A. Montgomery, Jr., J. E. Peralta, 
 F. Ogliaro, M. J. Bearpark, J. J. Heyd, E. N. Brothers, K. N. Kudin, 
 V. N. Staroverov, T. A. Keith, R. Kobayashi, J. Normand, 
 K. Raghavachari, A. P. Rendell, J. C. Burant, S. S. Iyengar, 
 J. Tomasi, M. Cossi, J. M. Millam, M. Klene, C. Adamo, R. Cammi, 
 J. W. Ochterski, R. L. Martin, K. Morokuma, O. Farkas, 
 J. B. Foresman, and D. J. Fox, Gaussian, Inc., Wallingford CT, 2019.
 
 ******************************************
 Gaussian 16:  ES64L-G16RevC.01  3-Jul-2019
                22-Feb-2021 
 ******************************************
 %chk=WPYMKLBDIGXBTP-UHFFFAOYSA-N.chk
 %NProcShared=32
 Will use up to   32 processors via shared memory.
 -------------------------------------------------------------
 #P BP86/TZVP EmpiricalDispersion=GD3 SCRF=(Solvent=Water) Opt
 -------------------------------------------------------------
 1/18=20,19=15,26=3,38=1/1,3;
 2/9=110,12=2,17=6,18=5,40=1/2;
 3/5=19,7=101,11=2,25=1,30=1,70=2201,71=1,72=1,74=404,124=31/1,2,3;
 4//1;
 5/5=2,38=5,53=1/2;
 6/7=2,8=2,9=2,10=2,28=1/1;
 7//1,2,3,16;
 1/18=20,19=15,26=3/3(2);
 2/9=110/2;
 99//99;
 2/9=110/2;
 3/5=19,7=101,11=2,25=1,30=1,70=2205,71=1,72=1,74=404,124=31/1,2,3;
 4/5=5,16=3,69=1/1;
 5/5=2,38=5,53=1/2;
 7//1,2,3,16;
 1/18=20,19=15,26=3/3(-5);
 2/9=110/2;
 6/7=2,8=2,9=2,10=2,19=2,28=1/1;
 99/9=1/99;
 Leave Link    1 at Mon Feb 22 21:24:53 2021, MaxMem=           0 cpu:              12.5 elap:               1.5
 (Enter /sw/arch/RedHatEnterpriseServer7/EB_production/2019/software/Gaussian/g16.c01/l101.exe)
 -------------------------------------
 Particle #WPYMKLBDIGXBTP-UHFFFAOYSA-N
 -------------------------------------
 Symbolic Z-matrix:
 Charge =  0 Multiplicity = 1
 O                    -2.76433   0.23446   0.20534 
 C                    -2.06917   1.27659   0.19155 
 O                    -2.74959   2.4459    0.2756 
 C                    -0.65098   1.23782   0.09753 
 C                     0.04521   0.00504   0.02214 
 C                     1.44953  -0.03261  -0.06047 
 C                     2.18616   1.16363  -0.07591 
 C                     1.51526   2.39692  -0.01386 
 C                     0.11095   2.43368   0.07499 
 H                    -3.72799   2.44314   0.34088 
 H                    -0.4617   -0.88424   0.02629 
 H                     1.93532  -0.93121  -0.1108 
 H                     3.20614   1.1373   -0.13683 
 H                     2.04878   3.26892  -0.03506 
 H                    -0.34612   3.34702   0.12256 
 
 ITRead=  0  0  0  0  0  0  0  0  0  0  0  0  0  0  0
 MicOpt= -1 -1 -1 -1 -1 -1 -1 -1 -1 -1 -1 -1 -1 -1 -1
 NAtoms=     15 NQM=       15 NQMF=       0 NMMI=      0 NMMIF=      0
                NMic=       0 NMicF=      0.
                    Isotopes and Nuclear Properties:
 (Nuclear quadrupole moments (NQMom) in fm**2, nuclear magnetic moments (NMagM)
  in nuclear magnetons)

  Atom         1           2           3           4           5           6           7           8           9          10
 IAtWgt=          16          12          16          12          12          12          12          12          12           1
 AtmWgt=  15.9949146  12.0000000  15.9949146  12.0000000  12.0000000  12.0000000  12.0000000  12.0000000  12.0000000   1.0078250
 NucSpn=           0           0           0           0           0           0           0           0           0           1
 AtZEff=  -0.0000000  -0.0000000  -0.0000000  -0.0000000  -0.0000000  -0.0000000  -0.0000000  -0.0000000  -0.0000000  -0.0000000
 NQMom=    0.0000000   0.0000000   0.0000000   0.0000000   0.0000000   0.0000000   0.0000000   0.0000000   0.0000000   0.0000000
 NMagM=    0.0000000   0.0000000   0.0000000   0.0000000   0.0000000   0.0000000   0.0000000   0.0000000   0.0000000   2.7928460
 AtZNuc=   8.0000000   6.0000000   8.0000000   6.0000000   6.0000000   6.0000000   6.0000000   6.0000000   6.0000000   1.0000000

  Atom        11          12          13          14          15
 IAtWgt=           1           1           1           1           1
 AtmWgt=   1.0078250   1.0078250   1.0078250   1.0078250   1.0078250
 NucSpn=           1           1           1           1           1
 AtZEff=  -0.0000000  -0.0000000  -0.0000000  -0.0000000  -0.0000000
 NQMom=    0.0000000   0.0000000   0.0000000   0.0000000   0.0000000
 NMagM=    2.7928460   2.7928460   2.7928460   2.7928460   2.7928460
 AtZNuc=   1.0000000   1.0000000   1.0000000   1.0000000   1.0000000
 Leave Link  101 at Mon Feb 22 21:24:53 2021, MaxMem=   104857600 cpu:               2.8 elap:               0.1
 (Enter /sw/arch/RedHatEnterpriseServer7/EB_production/2019/software/Gaussian/g16.c01/l103.exe)

 GradGradGradGradGradGradGradGradGradGradGradGradGradGradGradGradGradGrad
 Berny optimization.
 Initialization pass.
                           ----------------------------
                           !    Initial Parameters    !
                           ! (Angstroms and Degrees)  !
 --------------------------                            --------------------------
 ! Name  Definition              Value          Derivative Info.                !
 --------------------------------------------------------------------------------
 ! R1    R(1,2)                  1.2528         estimate D2E/DX2                !
 ! R2    R(2,3)                  1.3555         estimate D2E/DX2                !
 ! R3    R(2,4)                  1.4218         estimate D2E/DX2                !
 ! R4    R(3,10)                 0.9806         estimate D2E/DX2                !
 ! R5    R(4,5)                  1.4178         estimate D2E/DX2                !
 ! R6    R(4,9)                  1.4181         estimate D2E/DX2                !
 ! R7    R(5,6)                  1.4073         estimate D2E/DX2                !
 ! R8    R(5,11)                 1.0236         estimate D2E/DX2                !
 ! R9    R(6,7)                  1.4049         estimate D2E/DX2                !
 ! R10   R(6,12)                 1.0227         estimate D2E/DX2                !
 ! R11   R(7,8)                  1.4053         estimate D2E/DX2                !
 ! R12   R(7,13)                 1.0221         estimate D2E/DX2                !
 ! R13   R(8,9)                  1.4076         estimate D2E/DX2                !
 ! R14   R(8,14)                 1.0225         estimate D2E/DX2                !
 ! R15   R(9,15)                 1.0224         estimate D2E/DX2                !
 ! A1    A(1,2,3)              116.0002         estimate D2E/DX2                !
 ! A2    A(1,2,4)              122.1079         estimate D2E/DX2                !
 ! A3    A(3,2,4)              121.8917         estimate D2E/DX2                !
 ! A4    A(2,3,10)             120.1697         estimate D2E/DX2                !
 ! A5    A(2,4,5)              121.1318         estimate D2E/DX2                !
 ! A6    A(2,4,9)              120.9276         estimate D2E/DX2                !
 ! A7    A(5,4,9)              117.9405         estimate D2E/DX2                !
 ! A8    A(4,5,6)              121.0913         estimate D2E/DX2                !
 ! A9    A(4,5,11)             120.798          estimate D2E/DX2                !
 ! A10   A(6,5,11)             118.1107         estimate D2E/DX2                !
 ! A11   A(5,6,7)              120.072          estimate D2E/DX2                !
 ! A12   A(5,6,12)             120.026          estimate D2E/DX2                !
 ! A13   A(7,6,12)             119.902          estimate D2E/DX2                !
 ! A14   A(6,7,8)              119.7639         estimate D2E/DX2                !
 ! A15   A(6,7,13)             120.1278         estimate D2E/DX2                !
 ! A16   A(8,7,13)             120.1076         estimate D2E/DX2                !
 ! A17   A(7,8,9)              120.1315         estimate D2E/DX2                !
 ! A18   A(7,8,14)             119.8945         estimate D2E/DX2                !
 ! A19   A(9,8,14)             119.9739         estimate D2E/DX2                !
 ! A20   A(4,9,8)              120.9974         estimate D2E/DX2                !
 ! A21   A(4,9,15)             120.8212         estimate D2E/DX2                !
 ! A22   A(8,9,15)             118.1813         estimate D2E/DX2                !
 ! D1    D(1,2,3,10)            -0.088          estimate D2E/DX2                !
 ! D2    D(4,2,3,10)          -179.9046         estimate D2E/DX2                !
 ! D3    D(1,2,4,5)             -0.3628         estimate D2E/DX2                !
 ! D4    D(1,2,4,9)            179.5745         estimate D2E/DX2                !
 ! D5    D(3,2,4,5)            179.4426         estimate D2E/DX2                !
 ! D6    D(3,2,4,9)             -0.6201         estimate D2E/DX2                !
 ! D7    D(2,4,5,6)           -179.5033         estimate D2E/DX2                !
 ! D8    D(2,4,5,11)             0.5007         estimate D2E/DX2                !
 ! D9    D(9,4,5,6)              0.5576         estimate D2E/DX2                !
 ! D10   D(9,4,5,11)          -179.4385         estimate D2E/DX2                !
 ! D11   D(2,4,9,8)            179.8005         estimate D2E/DX2                !
 ! D12   D(2,4,9,15)            -0.2241         estimate D2E/DX2                !
 ! D13   D(5,4,9,8)             -0.2603         estimate D2E/DX2                !
 ! D14   D(5,4,9,15)           179.7152         estimate D2E/DX2                !
 ! D15   D(4,5,6,7)             -0.3102         estimate D2E/DX2                !
 ! D16   D(4,5,6,12)           179.7827         estimate D2E/DX2                !
 ! D17   D(11,5,6,7)           179.6859         estimate D2E/DX2                !
 ! D18   D(11,5,6,12)           -0.2211         estimate D2E/DX2                !
 ! D19   D(5,6,7,8)             -0.2481         estimate D2E/DX2                !
 ! D20   D(5,6,7,13)          -179.939          estimate D2E/DX2                !
 ! D21   D(12,6,7,8)           179.659          estimate D2E/DX2                !
 ! D22   D(12,6,7,13)           -0.0319         estimate D2E/DX2                !
 ! D23   D(6,7,8,9)              0.5423         estimate D2E/DX2                !
 ! D24   D(6,7,8,14)          -179.3461         estimate D2E/DX2                !
 ! D25   D(13,7,8,9)          -179.7667         estimate D2E/DX2                !
 ! D26   D(13,7,8,14)            0.3449         estimate D2E/DX2                !
 ! D27   D(7,8,9,4)             -0.2852         estimate D2E/DX2                !
 ! D28   D(7,8,9,15)           179.7388         estimate D2E/DX2                !
 ! D29   D(14,8,9,4)           179.6032         estimate D2E/DX2                !
 ! D30   D(14,8,9,15)           -0.3729         estimate D2E/DX2                !
 --------------------------------------------------------------------------------
 Trust Radius=3.00D-01 FncErr=1.00D-07 GrdErr=1.00D-06 EigMax=2.50D+02 EigMin=1.00D-04
 Number of steps in this run=     77 maximum allowed number of steps=    100.
 GradGradGradGradGradGradGradGradGradGradGradGradGradGradGradGradGradGrad

 Leave Link  103 at Mon Feb 22 21:24:53 2021, MaxMem=   104857600 cpu:               0.3 elap:               0.0
 (Enter /sw/arch/RedHatEnterpriseServer7/EB_production/2019/software/Gaussian/g16.c01/l202.exe)
                          Input orientation:                          
 ---------------------------------------------------------------------
 Center     Atomic      Atomic             Coordinates (Angstroms)
 Number     Number       Type             X           Y           Z
 ---------------------------------------------------------------------
      1          8           0       -2.764330    0.234460    0.205340
      2          6           0       -2.069170    1.276590    0.191550
      3          8           0       -2.749590    2.445900    0.275600
      4          6           0       -0.650980    1.237820    0.097530
      5          6           0        0.045210    0.005040    0.022140
      6          6           0        1.449530   -0.032610   -0.060470
      7          6           0        2.186160    1.163630   -0.075910
      8          6           0        1.515260    2.396920   -0.013860
      9          6           0        0.110950    2.433680    0.074990
     10          1           0       -3.727990    2.443140    0.340880
     11          1           0       -0.461700   -0.884240    0.026290
     12          1           0        1.935320   -0.931210   -0.110800
     13          1           0        3.206140    1.137300   -0.136830
     14          1           0        2.048780    3.268920   -0.035060
     15          1           0       -0.346120    3.347020    0.122560
 ---------------------------------------------------------------------
                    Distance matrix (angstroms):
                    1          2          3          4          5
     1  O    0.000000
     2  C    1.252786   0.000000
     3  O    2.212605   1.355478   0.000000
     4  C    2.341923   1.421832   2.428030   0.000000
     5  C    2.824838   2.473083   3.719267   1.417784   0.000000
     6  C    4.230673   3.762814   4.887593   2.459898   1.407251
     7  C    5.044780   4.265223   5.111693   2.843404   2.436311
     8  C    4.799914   3.761047   4.274942   2.459373   2.807745
     9  C    3.622264   2.470904   2.867592   1.418142   2.430104
    10  H    2.413561   2.033426   0.980579   3.313609   4.503661
    11  H    2.566253   2.698232   4.048015   2.131676   1.023618
    12  H    4.852364   4.582765   5.788139   3.381869   2.113469
    13  H    6.048034   5.287356   6.111731   3.865541   3.361363
    14  H    5.694890   4.580201   4.878343   3.381073   3.830206
    15  H    3.942413   2.694502   2.571402   2.131265   3.366312
                    6          7          8          9         10
     6  C    0.000000
     7  C    1.404939   0.000000
     8  C    2.430866   1.405333   0.000000
     9  C    2.809401   2.437682   1.407598   0.000000
    10  H    5.753011   6.065314   5.255440   3.848149   0.000000
    11  H    2.094183   3.348937   3.830926   3.367327   4.673230
    12  H    1.022745   2.110093   3.355935   3.832144   6.607824
    13  H    2.111918   1.022137   2.112070   3.362391   7.072170
    14  H    3.355569   2.110163   1.022486   2.113036   5.847591
    15  H    3.831417   3.349481   2.094286   1.022431   3.507379
                   11         12         13         14         15
    11  H    0.000000
    12  H    2.401396   0.000000
    13  H    4.191215   2.427837   0.000000
    14  H    4.853351   4.202345   2.427683   0.000000
    15  H    4.233933   4.854140   4.191503   2.401352   0.000000
 Stoichiometry    C7H6O2
 Framework group  C1[X(C7H6O2)]
 Deg. of freedom    39
 Full point group                 C1      NOp   1
 Largest Abelian subgroup         C1      NOp   1
 Largest concise Abelian subgroup C1      NOp   1
                         Standard orientation:                         
 ---------------------------------------------------------------------
 Center     Atomic      Atomic             Coordinates (Angstroms)
 Number     Number       Type             X           Y           Z
 ---------------------------------------------------------------------
      1          8           0        2.290218    1.178364   -0.005497
      2          6           0        1.664794    0.092870   -0.000919
      3          8           0        2.423753   -1.030152    0.010158
      4          6           0        0.243974    0.039294   -0.003098
      5          6           0       -0.534243    1.224406   -0.002938
      6          6           0       -1.940434    1.170396    0.005352
      7          6           0       -2.597251   -0.071554    0.007075
      8          6           0       -1.845056   -1.258576   -0.004789
      9          6           0       -0.438525   -1.203810   -0.006831
     10          1           0        3.402079   -0.963764    0.012816
     11          1           0       -0.086972    2.145115   -0.008929
     12          1           0       -2.485805    2.035594    0.008695
     13          1           0       -3.618584   -0.111776    0.012154
     14          1           0       -2.321062   -2.163461   -0.013675
     15          1           0        0.079025   -2.085562   -0.011461
 ---------------------------------------------------------------------
 Rotational constants (GHZ):           3.9171898           1.2006638           0.9190010
 Leave Link  202 at Mon Feb 22 21:24:53 2021, MaxMem=   104857600 cpu:               0.8 elap:               0.1
 (Enter /sw/arch/RedHatEnterpriseServer7/EB_production/2019/software/Gaussian/g16.c01/l301.exe)
 Standard basis: TZVP (5D, 7F)
 Ernie: Thresh=  0.10000D-02 Tol=  0.10000D-05 Strict=F.
 There are   216 symmetry adapted cartesian basis functions of A   symmetry.
 There are   207 symmetry adapted basis functions of A   symmetry.
   207 basis functions,   363 primitive gaussians,   216 cartesian basis functions
    32 alpha electrons       32 beta electrons
       nuclear repulsion energy       403.6935422365 Hartrees.
 IExCor=  404 DFT=T Ex=B Corr=P86 ExCW=0 ScaHFX=  0.000000
 ScaDFX=  1.000000  1.000000  1.000000  1.000000 ScalE2=  1.000000  1.000000
 IRadAn=      5 IRanWt=     -1 IRanGd=            0 ICorTp=0 IEmpDi=131
 NAtoms=   15 NActive=   15 NUniq=   15 SFac= 1.00D+00 NAtFMM=   60 NAOKFM=F Big=F
 Integral buffers will be    131072 words long.
 Raffenetti 2 integral format.
 Two-electron integral symmetry is turned on.
 R6Disp:  Grimme-D3 Dispersion energy=       -0.0108228637 Hartrees.
 Nuclear repulsion after empirical dispersion term =      403.6827193728 Hartrees.
 ------------------------------------------------------------------------------
 Polarizable Continuum Model (PCM)
 =================================
 Model                : PCM.
 Atomic radii         : UFF (Universal Force Field).
 Polarization charges : Total charges.
 Charge compensation  : None.
 Solution method      : On-the-fly selection.
 Cavity type          : Scaled VdW (van der Waals Surface) (Alpha=1.100).
 Cavity algorithm     : GePol (No added spheres)
                        Default sphere list used, NSphG=   15.
                        Lebedev-Laikov grids with approx.  5.0 points / Ang**2.
                        Smoothing algorithm: York/Karplus (Gamma=1.0000).
                        Polarization charges: spherical gaussians, with
                                              point-specific exponents (IZeta= 3).
                        Self-potential: point-specific (ISelfS= 7).
                        Self-field    : sphere-specific E.n sum rule (ISelfD= 2).
 1st derivatives      : Analytical E(r).r(x)/FMM algorithm (CHGder, D1EAlg=3).
                        Cavity 1st derivative terms included.
 Solvent              : Water, Eps=  78.355300 Eps(inf)=   1.777849
 ------------------------------------------------------------------------------
 Spheres list:
 ISph  on   Nord     Re0    Alpha      Xe            Ye            Ze
    1   O      1    1.7500  1.100      2.290218      1.178364     -0.005497
    2   C      2    1.9255  1.100      1.664794      0.092870     -0.000919
    3   O      3    1.7500  1.100      2.423753     -1.030152      0.010158
    4   C      4    1.9255  1.100      0.243974      0.039294     -0.003098
    5   C      5    1.9255  1.100     -0.534243      1.224406     -0.002938
    6   C      6    1.9255  1.100     -1.940434      1.170396      0.005352
    7   C      7    1.9255  1.100     -2.597251     -0.071554      0.007075
    8   C      8    1.9255  1.100     -1.845056     -1.258576     -0.004789
    9   C      9    1.9255  1.100     -0.438525     -1.203810     -0.006831
   10   H     10    1.4430  1.100      3.402079     -0.963764      0.012816
   11   H     11    1.4430  1.100     -0.086972      2.145115     -0.008929
   12   H     12    1.4430  1.100     -2.485805      2.035594      0.008695
   13   H     13    1.4430  1.100     -3.618584     -0.111776      0.012154
   14   H     14    1.4430  1.100     -2.321062     -2.163461     -0.013675
   15   H     15    1.4430  1.100      0.079025     -2.085562     -0.011461
 ------------------------------------------------------------------------------
 GePol: Number of generator spheres                  =      15
 GePol: Total number of spheres                      =      15
 GePol: Number of exposed spheres                    =      15 (100.00%)
 GePol: Number of points                             =    1371
 GePol: Average weight of points                     =       0.13
 GePol: Minimum weight of points                     =   0.87D-10
 GePol: Maximum weight of points                     =    0.20577
 GePol: Number of points with low weight             =      74
 GePol: Fraction of low-weight points (<1% of avg)   =       5.40%
 GePol: Cavity surface area                          =    177.672 Ang**2
 GePol: Cavity volume                                =    173.851 Ang**3
 Leave Link  301 at Mon Feb 22 21:24:53 2021, MaxMem=   104857600 cpu:               1.6 elap:               0.1
 (Enter /sw/arch/RedHatEnterpriseServer7/EB_production/2019/software/Gaussian/g16.c01/l302.exe)
 NPDir=0 NMtPBC=     1 NCelOv=     1 NCel=       1 NClECP=     1 NCelD=      1
         NCelK=      1 NCelE2=     1 NClLst=     1 CellRange=     0.0.
 One-electron integrals computed using PRISM.
 One-electron integral symmetry used in STVInt
 PrsmSu:  requested number of processors reduced to:  29 ShMem   1 Linda.
 NBasis=   207 RedAO= T EigKep=  9.79D-06  NBF=   207
 NBsUse=   207 1.00D-06 EigRej= -1.00D+00 NBFU=   207
 Precomputing XC quadrature grid using
 IXCGrd= 4 IRadAn=           5 IRanWt=          -1 IRanGd=           0 AccXCQ= 0.00D+00.
 Generated NRdTot=       0 NPtTot=           0 NUsed=           0 NTot=          32
 NSgBfM=   215   215   215   215   215 MxSgAt=    15 MxSgA2=    15.
 Leave Link  302 at Mon Feb 22 21:24:54 2021, MaxMem=   104857600 cpu:              13.7 elap:               0.6
 (Enter /sw/arch/RedHatEnterpriseServer7/EB_production/2019/software/Gaussian/g16.c01/l303.exe)
 DipDrv:  MaxL=1.
 Leave Link  303 at Mon Feb 22 21:24:54 2021, MaxMem=   104857600 cpu:               1.0 elap:               0.1
 (Enter /sw/arch/RedHatEnterpriseServer7/EB_production/2019/software/Gaussian/g16.c01/l401.exe)
 ExpMin= 9.52D-02 ExpMax= 2.70D+04 ExpMxC= 9.22D+02 IAcc=3 IRadAn=         5 AccDes= 0.00D+00
 Harris functional with IExCor=  404 and IRadAn=       5 diagonalized for initial guess.
 HarFok:  IExCor=  404 AccDes= 0.00D+00 IRadAn=         5 IDoV= 1 UseB2=F ITyADJ=14
 ICtDFT=  3500011 ScaDFX=  1.000000  1.000000  1.000000  1.000000
 FoFCou: FMM=F IPFlag=           0 FMFlag=      100000 FMFlg1=           0
         NFxFlg=           0 DoJE=T BraDBF=F KetDBF=T FulRan=T
         wScrn=  0.000000 ICntrl=       500 IOpCl=  0 I1Cent=   200000004 NGrid=           0
         NMat0=    1 NMatS0=      1 NMatT0=    0 NMatD0=    1 NMtDS0=    0 NMtDT0=    0
 Petite list used in FoFCou.
 Harris En= -421.106785854616    
 JPrj=0 DoOrth=F DoCkMO=F.
 Leave Link  401 at Mon Feb 22 21:24:55 2021, MaxMem=   104857600 cpu:               9.5 elap:               0.4
 (Enter /sw/arch/RedHatEnterpriseServer7/EB_production/2019/software/Gaussian/g16.c01/l502.exe)
 Integral symmetry usage will be decided dynamically.
 Closed shell SCF:
 Using DIIS extrapolation, IDIIS=  1040.
 NGot=   104857600 LenX=   104754822 LenY=   104707725
 Requested convergence on RMS density matrix=1.00D-08 within 128 cycles.
 Requested convergence on MAX density matrix=1.00D-06.
 Requested convergence on             energy=1.00D-06.
 No special actions if energy rises.
 Fock matrices will be formed incrementally for  20 cycles.

 Cycle   1  Pass 1  IDiag  1:
 FoFJK:  IHMeth= 1 ICntrl=     500 DoSepK=F KAlg= 0 I1Cent=           0 FoldK=F
 IRaf= 930000000 NMat=       1 IRICut=       1 DoRegI=T DoRafI=F ISym2E= 0 IDoP0=0 IntGTp=1.
 FoFCou: FMM=F IPFlag=           0 FMFlag=      100000 FMFlg1=           0
         NFxFlg=           0 DoJE=T BraDBF=F KetDBF=F FulRan=T
         wScrn=  0.000000 ICntrl=       500 IOpCl=  0 I1Cent=           0 NGrid=           0
         NMat0=    1 NMatS0=      1 NMatT0=    0 NMatD0=    1 NMtDS0=    0 NMtDT0=    0
 Symmetry not used in FoFCou.
 Inv3:  Mode=1 IEnd=     5638923.
 Iteration    1 A*A^-1 deviation from unit magnitude is 2.89D-15 for   1102.
 Iteration    1 A*A^-1 deviation from orthogonality  is 2.06D-15 for    777    247.
 Iteration    1 A^-1*A deviation from unit magnitude is 2.66D-15 for    247.
 Iteration    1 A^-1*A deviation from orthogonality  is 2.56D-15 for    771    281.
 E= -420.753387091640    
 DIIS: error= 3.71D-02 at cycle   1 NSaved=   1.
 NSaved= 1 IEnMin= 1 EnMin= -420.753387091640     IErMin= 1 ErrMin= 3.71D-02
 ErrMax= 3.71D-02  0.00D+00 EMaxC= 1.00D-01 BMatC= 2.40D-01 BMatP= 2.40D-01
 IDIUse=3 WtCom= 6.29D-01 WtEn= 3.71D-01
 Coeff-Com:  0.100D+01
 Coeff-En:   0.100D+01
 Coeff:      0.100D+01
 Gap=     0.122 Goal=   None    Shift=    0.000
 GapD=    0.122 DampG=1.000 DampE=0.500 DampFc=0.5000 IDamp=-1.
 Damping current iteration by 5.00D-01
 RMSDP=1.36D-02 MaxDP=1.15D+00              OVMax= 2.76D-01

 Cycle   2  Pass 1  IDiag  1:
 RMSU=  6.77D-03    CP:  1.03D+00
 E= -420.762575105505     Delta-E=       -0.009188013865 Rises=F Damp=T
 DIIS: error= 2.23D-02 at cycle   2 NSaved=   2.
 NSaved= 2 IEnMin= 2 EnMin= -420.762575105505     IErMin= 2 ErrMin= 2.23D-02
 ErrMax= 2.23D-02  0.00D+00 EMaxC= 1.00D-01 BMatC= 7.95D-02 BMatP= 2.40D-01
 IDIUse=3 WtCom= 7.77D-01 WtEn= 2.23D-01
 Coeff-Com:  0.333D+00 0.667D+00
 Coeff-En:   0.482D+00 0.518D+00
 Coeff:      0.366D+00 0.634D+00
 Gap=     0.137 Goal=   None    Shift=    0.000
 RMSDP=4.22D-03 MaxDP=3.12D-01 DE=-9.19D-03 OVMax= 2.80D-01

 Cycle   3  Pass 1  IDiag  1:
 RMSU=  2.64D-03    CP:  9.94D-01  5.20D-01
 E= -420.902281764769     Delta-E=       -0.139706659263 Rises=F Damp=F
 DIIS: error= 2.57D-02 at cycle   3 NSaved=   3.
 NSaved= 3 IEnMin= 3 EnMin= -420.902281764769     IErMin= 2 ErrMin= 2.23D-02
 ErrMax= 2.57D-02  0.00D+00 EMaxC= 1.00D-01 BMatC= 7.02D-02 BMatP= 7.95D-02
 IDIUse=3 WtCom= 7.43D-01 WtEn= 2.57D-01
 EnCoef did     2 forward-backward iterations
 Coeff-Com:  0.174D+00 0.456D+00 0.371D+00
 Coeff-En:   0.907D-02 0.250D-01 0.966D+00
 Coeff:      0.131D+00 0.345D+00 0.524D+00
 Gap=     0.147 Goal=   None    Shift=    0.000
 RMSDP=2.89D-03 MaxDP=8.65D-02 DE=-1.40D-01 OVMax= 1.59D-01

 Cycle   4  Pass 1  IDiag  1:
 RMSU=  1.68D-03    CP:  1.01D+00  6.84D-01  2.18D-01
 E= -420.918929269156     Delta-E=       -0.016647504387 Rises=F Damp=F
 DIIS: error= 2.08D-02 at cycle   4 NSaved=   4.
 NSaved= 4 IEnMin= 4 EnMin= -420.918929269156     IErMin= 4 ErrMin= 2.08D-02
 ErrMax= 2.08D-02  0.00D+00 EMaxC= 1.00D-01 BMatC= 5.61D-02 BMatP= 7.02D-02
 IDIUse=3 WtCom= 7.92D-01 WtEn= 2.08D-01
 Coeff-Com:  0.782D-01 0.139D+00 0.413D+00 0.371D+00
 Coeff-En:   0.000D+00 0.000D+00 0.442D+00 0.558D+00
 Coeff:      0.620D-01 0.110D+00 0.419D+00 0.410D+00
 Gap=     0.132 Goal=   None    Shift=    0.000
 RMSDP=1.74D-03 MaxDP=9.42D-02 DE=-1.66D-02 OVMax= 9.76D-02

 Cycle   5  Pass 1  IDiag  1:
 RMSU=  3.41D-04    CP:  1.00D+00  5.03D-01  5.35D-01  5.05D-01
 E= -420.960362453560     Delta-E=       -0.041433184404 Rises=F Damp=F
 DIIS: error= 3.25D-03 at cycle   5 NSaved=   5.
 NSaved= 5 IEnMin= 5 EnMin= -420.960362453560     IErMin= 5 ErrMin= 3.25D-03
 ErrMax= 3.25D-03  0.00D+00 EMaxC= 1.00D-01 BMatC= 1.51D-03 BMatP= 5.61D-02
 IDIUse=3 WtCom= 9.68D-01 WtEn= 3.25D-02
 Coeff-Com:  0.213D-01 0.196D-01 0.204D+00 0.259D+00 0.496D+00
 Coeff-En:   0.000D+00 0.000D+00 0.000D+00 0.000D+00 0.100D+01
 Coeff:      0.206D-01 0.190D-01 0.198D+00 0.250D+00 0.512D+00
 Gap=     0.132 Goal=   None    Shift=    0.000
 RMSDP=3.03D-04 MaxDP=1.15D-02 DE=-4.14D-02 OVMax= 1.52D-02

 Cycle   6  Pass 1  IDiag  1:
 RMSU=  1.74D-04    CP:  1.00D+00  5.29D-01  5.09D-01  5.69D-01  6.37D-01
 E= -420.961526208707     Delta-E=       -0.001163755147 Rises=F Damp=F
 DIIS: error= 8.75D-04 at cycle   6 NSaved=   6.
 NSaved= 6 IEnMin= 6 EnMin= -420.961526208707     IErMin= 6 ErrMin= 8.75D-04
 ErrMax= 8.75D-04  0.00D+00 EMaxC= 1.00D-01 BMatC= 1.63D-04 BMatP= 1.51D-03
 IDIUse=3 WtCom= 9.91D-01 WtEn= 8.75D-03
 Coeff-Com:  0.231D-02-0.571D-03 0.575D-01 0.814D-01 0.306D+00 0.553D+00
 Coeff-En:   0.000D+00 0.000D+00 0.000D+00 0.000D+00 0.118D+00 0.882D+00
 Coeff:      0.229D-02-0.566D-03 0.570D-01 0.807D-01 0.305D+00 0.556D+00
 Gap=     0.131 Goal=   None    Shift=    0.000
 RMSDP=6.85D-05 MaxDP=1.60D-03 DE=-1.16D-03 OVMax= 7.04D-03

 Cycle   7  Pass 1  IDiag  1:
 RMSU=  3.94D-05    CP:  1.00D+00  5.28D-01  5.13D-01  5.62D-01  7.05D-01
                    CP:  7.26D-01
 E= -420.961657277374     Delta-E=       -0.000131068667 Rises=F Damp=F
 DIIS: error= 6.15D-04 at cycle   7 NSaved=   7.
 NSaved= 7 IEnMin= 7 EnMin= -420.961657277374     IErMin= 7 ErrMin= 6.15D-04
 ErrMax= 6.15D-04  0.00D+00 EMaxC= 1.00D-01 BMatC= 2.68D-05 BMatP= 1.63D-04
 IDIUse=3 WtCom= 9.94D-01 WtEn= 6.15D-03
 Coeff-Com: -0.238D-03-0.117D-02 0.179D-01 0.257D-01 0.154D+00 0.374D+00
 Coeff-Com:  0.430D+00
 Coeff-En:   0.000D+00 0.000D+00 0.000D+00 0.000D+00 0.000D+00 0.134D+00
 Coeff-En:   0.866D+00
 Coeff:     -0.237D-03-0.116D-02 0.178D-01 0.255D-01 0.153D+00 0.373D+00
 Coeff:      0.432D+00
 Gap=     0.131 Goal=   None    Shift=    0.000
 RMSDP=2.57D-05 MaxDP=8.44D-04 DE=-1.31D-04 OVMax= 2.83D-03

 Cycle   8  Pass 1  IDiag  1:
 RMSU=  1.48D-05    CP:  1.00D+00  5.29D-01  5.16D-01  5.61D-01  6.91D-01
                    CP:  7.31D-01  5.68D-01
 E= -420.961684626861     Delta-E=       -0.000027349487 Rises=F Damp=F
 DIIS: error= 1.27D-04 at cycle   8 NSaved=   8.
 NSaved= 8 IEnMin= 8 EnMin= -420.961684626861     IErMin= 8 ErrMin= 1.27D-04
 ErrMax= 1.27D-04  0.00D+00 EMaxC= 1.00D-01 BMatC= 1.62D-06 BMatP= 2.68D-05
 IDIUse=3 WtCom= 9.99D-01 WtEn= 1.27D-03
 Coeff-Com: -0.163D-03-0.285D-03 0.373D-02 0.424D-02 0.504D-01 0.142D+00
 Coeff-Com:  0.243D+00 0.557D+00
 Coeff-En:   0.000D+00 0.000D+00 0.000D+00 0.000D+00 0.000D+00 0.000D+00
 Coeff-En:   0.171D-03 0.100D+01
 Coeff:     -0.163D-03-0.284D-03 0.373D-02 0.424D-02 0.504D-01 0.142D+00
 Coeff:      0.243D+00 0.557D+00
 Gap=     0.131 Goal=   None    Shift=    0.000
 RMSDP=1.40D-05 MaxDP=1.03D-03 DE=-2.73D-05 OVMax= 6.59D-04

 Cycle   9  Pass 1  IDiag  1:
 RMSU=  4.30D-06    CP:  1.00D+00  5.28D-01  5.16D-01  5.60D-01  7.03D-01
                    CP:  7.34D-01  5.91D-01  5.92D-01
 E= -420.961686263735     Delta-E=       -0.000001636873 Rises=F Damp=F
 DIIS: error= 2.69D-05 at cycle   9 NSaved=   9.
 NSaved= 9 IEnMin= 9 EnMin= -420.961686263735     IErMin= 9 ErrMin= 2.69D-05
 ErrMax= 2.69D-05  0.00D+00 EMaxC= 1.00D-01 BMatC= 1.56D-07 BMatP= 1.62D-06
 IDIUse=1 WtCom= 1.00D+00 WtEn= 0.00D+00
 Coeff-Com: -0.158D-04-0.880D-04 0.432D-03-0.190D-03 0.128D-01 0.436D-01
 Coeff-Com:  0.932D-01 0.310D+00 0.540D+00
 Coeff:     -0.158D-04-0.880D-04 0.432D-03-0.190D-03 0.128D-01 0.436D-01
 Coeff:      0.932D-01 0.310D+00 0.540D+00
 Gap=     0.131 Goal=   None    Shift=    0.000
 RMSDP=2.99D-06 MaxDP=2.08D-04 DE=-1.64D-06 OVMax= 1.15D-04

 Cycle  10  Pass 1  IDiag  1:
 RMSU=  1.00D-06    CP:  1.00D+00  5.28D-01  5.16D-01  5.60D-01  7.02D-01
                    CP:  7.37D-01  5.92D-01  6.49D-01  6.01D-01
 E= -420.961686438028     Delta-E=       -0.000000174294 Rises=F Damp=F
 DIIS: error= 4.06D-06 at cycle  10 NSaved=  10.
 NSaved=10 IEnMin=10 EnMin= -420.961686438028     IErMin=10 ErrMin= 4.06D-06
 ErrMax= 4.06D-06  0.00D+00 EMaxC= 1.00D-01 BMatC= 1.60D-09 BMatP= 1.56D-07
 IDIUse=1 WtCom= 1.00D+00 WtEn= 0.00D+00
 Coeff-Com:  0.280D-04-0.443D-04 0.275D-04-0.117D-03 0.940D-03 0.492D-02
 Coeff-Com:  0.121D-01 0.444D-01 0.130D+00 0.808D+00
 Coeff:      0.280D-04-0.443D-04 0.275D-04-0.117D-03 0.940D-03 0.492D-02
 Coeff:      0.121D-01 0.444D-01 0.130D+00 0.808D+00
 Gap=     0.131 Goal=   None    Shift=    0.000
 RMSDP=4.02D-07 MaxDP=2.62D-05 DE=-1.74D-07 OVMax= 1.22D-05

 Cycle  11  Pass 1  IDiag  1:
 RMSU=  1.53D-07    CP:  1.00D+00  5.28D-01  5.16D-01  5.60D-01  7.01D-01
                    CP:  7.37D-01  5.94D-01  6.51D-01  6.36D-01  8.54D-01
 E= -420.961686439166     Delta-E=       -0.000000001138 Rises=F Damp=F
 DIIS: error= 9.68D-07 at cycle  11 NSaved=  11.
 NSaved=11 IEnMin=11 EnMin= -420.961686439166     IErMin=11 ErrMin= 9.68D-07
 ErrMax= 9.68D-07  0.00D+00 EMaxC= 1.00D-01 BMatC= 1.83D-10 BMatP= 1.60D-09
 IDIUse=1 WtCom= 1.00D+00 WtEn= 0.00D+00
 Coeff-Com:  0.166D-04-0.256D-04 0.987D-05-0.621D-04 0.318D-03 0.205D-02
 Coeff-Com:  0.524D-02 0.197D-01 0.644D-01 0.458D+00 0.451D+00
 Coeff:      0.166D-04-0.256D-04 0.987D-05-0.621D-04 0.318D-03 0.205D-02
 Coeff:      0.524D-02 0.197D-01 0.644D-01 0.458D+00 0.451D+00
 Gap=     0.131 Goal=   None    Shift=    0.000
 RMSDP=8.27D-08 MaxDP=4.02D-06 DE=-1.14D-09 OVMax= 6.56D-06

 Cycle  12  Pass 1  IDiag  1:
 RMSU=  4.91D-08    CP:  1.00D+00  5.28D-01  5.16D-01  5.60D-01  7.01D-01
                    CP:  7.37D-01  5.94D-01  6.52D-01  6.31D-01  8.72D-01
                    CP:  7.07D-01
 E= -420.961686439323     Delta-E=       -0.000000000157 Rises=F Damp=F
 DIIS: error= 3.96D-07 at cycle  12 NSaved=  12.
 NSaved=12 IEnMin=12 EnMin= -420.961686439323     IErMin=12 ErrMin= 3.96D-07
 ErrMax= 3.96D-07  0.00D+00 EMaxC= 1.00D-01 BMatC= 2.14D-11 BMatP= 1.83D-10
 IDIUse=1 WtCom= 1.00D+00 WtEn= 0.00D+00
 Coeff-Com:  0.430D-05-0.607D-05 0.173D-05-0.932D-05-0.210D-04 0.917D-04
 Coeff-Com:  0.369D-03 0.165D-02 0.951D-02 0.953D-01 0.266D+00 0.627D+00
 Coeff:      0.430D-05-0.607D-05 0.173D-05-0.932D-05-0.210D-04 0.917D-04
 Coeff:      0.369D-03 0.165D-02 0.951D-02 0.953D-01 0.266D+00 0.627D+00
 Gap=     0.131 Goal=   None    Shift=    0.000
 RMSDP=3.49D-08 MaxDP=2.30D-06 DE=-1.57D-10 OVMax= 2.07D-06

 Cycle  13  Pass 1  IDiag  1:
 RMSU=  1.60D-08    CP:  1.00D+00  5.28D-01  5.16D-01  5.60D-01  7.01D-01
                    CP:  7.37D-01  5.94D-01  6.51D-01  6.32D-01  8.75D-01
                    CP:  7.33D-01  7.52D-01
 E= -420.961686439344     Delta-E=       -0.000000000021 Rises=F Damp=F
 DIIS: error= 6.21D-08 at cycle  13 NSaved=  13.
 NSaved=13 IEnMin=13 EnMin= -420.961686439344     IErMin=13 ErrMin= 6.21D-08
 ErrMax= 6.21D-08  0.00D+00 EMaxC= 1.00D-01 BMatC= 5.83D-13 BMatP= 2.14D-11
 IDIUse=1 WtCom= 1.00D+00 WtEn= 0.00D+00
 Coeff-Com:  0.153D-05-0.215D-05 0.515D-06-0.297D-05-0.151D-04-0.660D-05
 Coeff-Com:  0.426D-04 0.319D-03 0.287D-02 0.333D-01 0.115D+00 0.301D+00
 Coeff-Com:  0.548D+00
 Coeff:      0.153D-05-0.215D-05 0.515D-06-0.297D-05-0.151D-04-0.660D-05
 Coeff:      0.426D-04 0.319D-03 0.287D-02 0.333D-01 0.115D+00 0.301D+00
 Coeff:      0.548D+00
 Gap=     0.131 Goal=   None    Shift=    0.000
 RMSDP=5.81D-09 MaxDP=2.84D-07 DE=-2.05D-11 OVMax= 5.95D-07

 Error on total polarization charges =  0.01158
 SCF Done:  E(RB-P86) =  -420.961686439     A.U. after   13 cycles
            NFock= 13  Conv=0.58D-08     -V/T= 2.0034
 KE= 4.195432256883D+02 PE=-1.790983358294D+03 EE= 5.467957267936D+02
 Leave Link  502 at Mon Feb 22 21:25:04 2021, MaxMem=   104857600 cpu:             281.9 elap:               9.0
 (Enter /sw/arch/RedHatEnterpriseServer7/EB_production/2019/software/Gaussian/g16.c01/l601.exe)
 Copying SCF densities to generalized density rwf, IOpCl= 0 IROHF=0.

 **********************************************************************

            Population analysis using the SCF Density.

 **********************************************************************

 Orbital symmetries:
       Occupied  (A) (A) (A) (A) (A) (A) (A) (A) (A) (A) (A) (A)
                 (A) (A) (A) (A) (A) (A) (A) (A) (A) (A) (A) (A)
                 (A) (A) (A) (A) (A) (A) (A) (A)
       Virtual   (A) (A) (A) (A) (A) (A) (A) (A) (A) (A) (A) (A)
                 (A) (A) (A) (A) (A) (A) (A) (A) (A) (A) (A) (A)
                 (A) (A) (A) (A) (A) (A) (A) (A) (A) (A) (A) (A)
                 (A) (A) (A) (A) (A) (A) (A) (A) (A) (A) (A) (A)
                 (A) (A) (A) (A) (A) (A) (A) (A) (A) (A) (A) (A)
                 (A) (A) (A) (A) (A) (A) (A) (A) (A) (A) (A) (A)
                 (A) (A) (A) (A) (A) (A) (A) (A) (A) (A) (A) (A)
                 (A) (A) (A) (A) (A) (A) (A) (A) (A) (A) (A) (A)
                 (A) (A) (A) (A) (A) (A) (A) (A) (A) (A) (A) (A)
                 (A) (A) (A) (A) (A) (A) (A) (A) (A) (A) (A) (A)
                 (A) (A) (A) (A) (A) (A) (A) (A) (A) (A) (A) (A)
                 (A) (A) (A) (A) (A) (A) (A) (A) (A) (A) (A) (A)
                 (A) (A) (A) (A) (A) (A) (A) (A) (A) (A) (A) (A)
                 (A) (A) (A) (A) (A) (A) (A) (A) (A) (A) (A) (A)
                 (A) (A) (A) (A) (A) (A) (A)
 The electronic state is 1-A.
 Alpha  occ. eigenvalues --  -18.81845 -18.75627 -10.03514  -9.93452  -9.91953
 Alpha  occ. eigenvalues --   -9.91875  -9.91523  -9.91242  -9.91175  -1.01772
 Alpha  occ. eigenvalues --   -0.92070  -0.80019  -0.72045  -0.69852  -0.62499
 Alpha  occ. eigenvalues --   -0.57602  -0.55671  -0.50866  -0.46504  -0.43056
 Alpha  occ. eigenvalues --   -0.41857  -0.41282  -0.41057  -0.39716  -0.35067
 Alpha  occ. eigenvalues --   -0.34392  -0.33408  -0.32205  -0.28640  -0.25214
 Alpha  occ. eigenvalues --   -0.24802  -0.23673
 Alpha virt. eigenvalues --   -0.10534  -0.06229  -0.00214   0.01751   0.05491
 Alpha virt. eigenvalues --    0.08160   0.08674   0.09445   0.09767   0.10851
 Alpha virt. eigenvalues --    0.12364   0.14071   0.15775   0.17012   0.17413
 Alpha virt. eigenvalues --    0.18916   0.20335   0.20745   0.20984   0.21391
 Alpha virt. eigenvalues --    0.22187   0.22770   0.25901   0.26360   0.27682
 Alpha virt. eigenvalues --    0.28663   0.29367   0.31063   0.32985   0.33052
 Alpha virt. eigenvalues --    0.33578   0.35664   0.37131   0.38468   0.39435
 Alpha virt. eigenvalues --    0.40680   0.41100   0.42409   0.43214   0.45035
 Alpha virt. eigenvalues --    0.45711   0.46230   0.46938   0.47470   0.47976
 Alpha virt. eigenvalues --    0.50263   0.52302   0.54637   0.55952   0.60396
 Alpha virt. eigenvalues --    0.61933   0.62248   0.64946   0.66271   0.73671
 Alpha virt. eigenvalues --    0.74511   0.75127   0.76515   0.78020   0.88120
 Alpha virt. eigenvalues --    0.90804   1.08980   1.11505   1.16000   1.16823
 Alpha virt. eigenvalues --    1.17222   1.18238   1.18336   1.21161   1.21758
 Alpha virt. eigenvalues --    1.22848   1.23152   1.23496   1.28119   1.30638
 Alpha virt. eigenvalues --    1.32129   1.33005   1.36338   1.37117   1.37274
 Alpha virt. eigenvalues --    1.37646   1.38741   1.40888   1.41509   1.41744
 Alpha virt. eigenvalues --    1.44512   1.45244   1.46119   1.46158   1.47695
 Alpha virt. eigenvalues --    1.49063   1.54557   1.54950   1.59658   1.69428
 Alpha virt. eigenvalues --    1.72375   1.72631   1.74630   1.75482   1.79368
 Alpha virt. eigenvalues --    1.79673   1.79781   1.83446   1.84275   1.84788
 Alpha virt. eigenvalues --    1.86814   1.92777   1.93286   1.93808   1.98056
 Alpha virt. eigenvalues --    2.00278   2.01032   2.09107   2.13991   2.15365
 Alpha virt. eigenvalues --    2.18689   2.18980   2.21088   2.22697   2.23246
 Alpha virt. eigenvalues --    2.27260   2.29269   2.30252   2.41069   2.44009
 Alpha virt. eigenvalues --    2.45377   2.47736   2.48163   2.50795   2.51586
 Alpha virt. eigenvalues --    2.53052   2.54457   2.56010   2.58766   2.59339
 Alpha virt. eigenvalues --    2.60807   2.62080   2.64095   2.67436   2.68877
 Alpha virt. eigenvalues --    2.73085   2.74090   2.76390   2.84334   2.89379
 Alpha virt. eigenvalues --    2.89661   2.94331   2.99141   3.00319   3.02298
 Alpha virt. eigenvalues --    3.04572   3.05738   3.07049   3.07104   3.07945
 Alpha virt. eigenvalues --    3.10199   3.18572   3.27649   3.32426   3.33201
 Alpha virt. eigenvalues --    3.41468   3.47496   3.75635   3.88005   4.01721
 Alpha virt. eigenvalues --    4.21411  21.04339  21.52227  21.62909  21.77072
 Alpha virt. eigenvalues --   21.84023  21.88160  21.96666  43.06824  43.14777
          Condensed to atoms (all electrons):
               1          2          3          4          5          6
     1  O    7.997108   0.681211  -0.131856  -0.241764   0.022939   0.002635
     2  C    0.681211   5.224900   0.424710  -0.383715  -0.120043   0.018254
     3  O   -0.131856   0.424710   7.870243  -0.218308   0.012221  -0.000585
     4  C   -0.241764  -0.383715  -0.218308   6.462613   0.365202   0.018571
     5  C    0.022939  -0.120043   0.012221   0.365202   5.194969   0.361963
     6  C    0.002635   0.018254  -0.000585   0.018571   0.361963   5.094981
     7  C    0.001017   0.016545   0.000735  -0.110499  -0.007258   0.392251
     8  C   -0.002404  -0.020984  -0.002214   0.073188  -0.095616   0.004243
     9  C    0.016539   0.052425   0.032861   0.146400  -0.030571  -0.114766
    10  H    0.002667  -0.028948   0.294981   0.027722  -0.000693   0.000070
    11  H    0.022422  -0.025259   0.001484  -0.059499   0.430410  -0.043519
    12  H   -0.000185  -0.002309  -0.000004   0.015726  -0.050855   0.435134
    13  H    0.000002   0.000191   0.000001  -0.003490   0.014947  -0.057674
    14  H   -0.000005  -0.002012  -0.000132   0.015288  -0.001006   0.012979
    15  H    0.000689  -0.023440   0.012191  -0.048097   0.011492  -0.002996
               7          8          9         10         11         12
     1  O    0.001017  -0.002404   0.016539   0.002667   0.022422  -0.000185
     2  C    0.016545  -0.020984   0.052425  -0.028948  -0.025259  -0.002309
     3  O    0.000735  -0.002214   0.032861   0.294981   0.001484  -0.000004
     4  C   -0.110499   0.073188   0.146400   0.027722  -0.059499   0.015726
     5  C   -0.007258  -0.095616  -0.030571  -0.000693   0.430410  -0.050855
     6  C    0.392251   0.004243  -0.114766   0.000070  -0.043519   0.435134
     7  C    5.079054   0.387433   0.012264  -0.000026   0.012316  -0.059543
     8  C    0.387433   5.113117   0.324018   0.000131  -0.002650   0.013371
     9  C    0.012264   0.324018   5.268856  -0.002746   0.012821  -0.001565
    10  H   -0.000026   0.000131  -0.002746   0.369469  -0.000041  -0.000000
    11  H    0.012316  -0.002650   0.012821  -0.000041   0.505040  -0.005682
    12  H   -0.059543   0.013371  -0.001565  -0.000000  -0.005682   0.507268
    13  H    0.439928  -0.057850   0.015439  -0.000000  -0.000146  -0.006001
    14  H   -0.058786   0.436398  -0.052673   0.000002   0.000048  -0.000145
    15  H    0.012388  -0.050744   0.434375  -0.000343  -0.000257   0.000032
              13         14         15
     1  O    0.000002  -0.000005   0.000689
     2  C    0.000191  -0.002012  -0.023440
     3  O    0.000001  -0.000132   0.012191
     4  C   -0.003490   0.015288  -0.048097
     5  C    0.014947  -0.001006   0.011492
     6  C   -0.057674   0.012979  -0.002996
     7  C    0.439928  -0.058786   0.012388
     8  C   -0.057850   0.436398  -0.050744
     9  C    0.015439  -0.052673   0.434375
    10  H   -0.000000   0.000002  -0.000343
    11  H   -0.000146   0.000048  -0.000257
    12  H   -0.006001  -0.000145   0.000032
    13  H    0.503998  -0.005916  -0.000142
    14  H   -0.005916   0.507439  -0.005819
    15  H   -0.000142  -0.005819   0.497973
 Mulliken charges:
               1
     1  O   -0.371015
     2  C    0.188474
     3  O   -0.296327
     4  C   -0.059336
     5  C   -0.108100
     6  C   -0.121541
     7  C   -0.117820
     8  C   -0.119437
     9  C   -0.113676
    10  H    0.337755
    11  H    0.152512
    12  H    0.154756
    13  H    0.156713
    14  H    0.154343
    15  H    0.162699
 Sum of Mulliken charges =  -0.00000
 Mulliken charges with hydrogens summed into heavy atoms:
               1
     1  O   -0.371015
     2  C    0.188474
     3  O    0.041428
     4  C   -0.059336
     5  C    0.044412
     6  C    0.033215
     7  C    0.038893
     8  C    0.034906
     9  C    0.049023
 Electronic spatial extent (au):  <R**2>=           1188.5614
 Charge=             -0.0000 electrons
 Dipole moment (field-independent basis, Debye):
    X=             -2.5623    Y=             -2.2974    Z=              0.0054  Tot=              3.4414
 Quadrupole moment (field-independent basis, Debye-Ang):
   XX=            -41.6067   YY=            -50.1618   ZZ=            -54.5307
   XY=             -7.6101   XZ=              0.0474   YZ=              0.0544
 Traceless Quadrupole moment (field-independent basis, Debye-Ang):
   XX=              7.1597   YY=             -1.3954   ZZ=             -5.7643
   XY=             -7.6101   XZ=              0.0474   YZ=              0.0544
 Octapole moment (field-independent basis, Debye-Ang**2):
  XXX=             20.0482  YYY=             -4.8372  ZZZ=              0.0245  XYY=            -11.6015
  XXY=            -25.8704  XXZ=              0.3431  XZZ=             10.6645  YZZ=             -0.0952
  YYZ=             -0.0792  XYZ=             -0.0537
 Hexadecapole moment (field-independent basis, Debye-Ang**3):
 XXXX=           -849.5573 YYYY=           -365.4440 ZZZZ=            -58.6309 XXXY=            -93.2500
 XXXZ=              0.6951 YYYX=            -14.3570 YYYZ=              0.1841 ZZZX=              0.1104
 ZZZY=             -0.0561 XXYY=           -242.0071 XXZZ=           -201.9712 YYZZ=            -81.0300
 XXYZ=              0.1223 YYXZ=              0.1833 ZZXY=             -1.2839
 N-N= 4.036827193728D+02 E-N=-1.790983358264D+03  KE= 4.195432256883D+02
 No NMR shielding tensors so no spin-rotation constants.
 Leave Link  601 at Mon Feb 22 21:25:04 2021, MaxMem=   104857600 cpu:               6.8 elap:               0.3
 (Enter /sw/arch/RedHatEnterpriseServer7/EB_production/2019/software/Gaussian/g16.c01/l701.exe)
 ... and contract with generalized density number  0.
 Compute integral first derivatives.
 R6Disp: Adding Grimme-D3 dispersion energy 1st derivatives to the gradient.
 PrsmSu:  requested number of processors reduced to:  29 ShMem   1 Linda.
 D1PCM: PCM CHGder 1st derivatives, ID1Alg=3 FixD1E=F DoIter=F DoCFld=F I1PDM=0.
 GePol: Maximum number of non-zero 1st derivatives   =     202
 CoulSu:  requested number of processors reduced to:  29 ShMem   1 Linda.
 CoulSu:  requested number of processors reduced to:  30 ShMem   1 Linda.
 Leave Link  701 at Mon Feb 22 21:25:05 2021, MaxMem=   104857600 cpu:              17.3 elap:               0.6
 (Enter /sw/arch/RedHatEnterpriseServer7/EB_production/2019/software/Gaussian/g16.c01/l702.exe)
 L702 exits ... SP integral derivatives will be done elsewhere.
 Leave Link  702 at Mon Feb 22 21:25:05 2021, MaxMem=   104857600 cpu:               0.6 elap:               0.0
 (Enter /sw/arch/RedHatEnterpriseServer7/EB_production/2019/software/Gaussian/g16.c01/l703.exe)
 Integral derivatives from FoFJK, PRISM(SPDF).
 Compute integral first derivatives, UseDBF=F ICtDFT=           0.
 Calling FoFJK, ICntrl=      2527 FMM=F ISym2X=0 I1Cent= 0 IOpClX= 0 NMat=1 NMatS=1 NMatT=0.
 FoFJK:  IHMeth= 1 ICntrl=    2527 DoSepK=F KAlg= 0 I1Cent=           0 FoldK=F
 IRaf=         0 NMat=       1 IRICut=       1 DoRegI=T DoRafI=F ISym2E= 0 IDoP0=0 IntGTp=1.
 FoFCou: FMM=F IPFlag=           0 FMFlag=      100000 FMFlg1=         800
         NFxFlg=           0 DoJE=F BraDBF=F KetDBF=F FulRan=T
         wScrn=  0.000000 ICntrl=      2527 IOpCl=  0 I1Cent=           0 NGrid=           0
         NMat0=    1 NMatS0=      1 NMatT0=    0 NMatD0=    1 NMtDS0=    0 NMtDT0=    0
 Symmetry not used in FoFCou.
 Leave Link  703 at Mon Feb 22 21:25:06 2021, MaxMem=   104857600 cpu:              36.6 elap:               1.2
 (Enter /sw/arch/RedHatEnterpriseServer7/EB_production/2019/software/Gaussian/g16.c01/l716.exe)
 Dipole        =-1.00806696D+00-9.03870097D-01 2.12365374D-03
 ***** Axes restored to original set *****
 -------------------------------------------------------------------
 Center     Atomic                   Forces (Hartrees/Bohr)
 Number     Number              X              Y              Z
 -------------------------------------------------------------------
      1        8           0.016430629    0.004545315   -0.001069271
      2        6          -0.087912503   -0.042421386    0.004691559
      3        8           0.032799628    0.037285372   -0.001074938
      4        6           0.046725692    0.018842673   -0.002682764
      5        6           0.030251824    0.043032213   -0.000420167
      6        6          -0.033519824    0.054102907    0.003278555
      7        6          -0.058859710    0.002884675    0.003156849
      8        6          -0.033946253   -0.051309426    0.001375344
      9        6           0.031618552   -0.047941033   -0.002915838
     10        1           0.006552647   -0.019525963   -0.001109212
     11        1          -0.030125145   -0.044119605    0.000752612
     12        1           0.024492907   -0.048326969   -0.002605411
     13        1           0.055255931   -0.001370455   -0.003305889
     14        1           0.027720683    0.047081139   -0.000772378
     15        1          -0.027485057    0.047240544    0.002700949
 -------------------------------------------------------------------
 Cartesian Forces:  Max     0.087912503 RMS     0.032498819
 Leave Link  716 at Mon Feb 22 21:25:06 2021, MaxMem=   104857600 cpu:               0.8 elap:               0.1
 (Enter /sw/arch/RedHatEnterpriseServer7/EB_production/2019/software/Gaussian/g16.c01/l103.exe)

 GradGradGradGradGradGradGradGradGradGradGradGradGradGradGradGradGradGrad
 Berny optimization.
 FormGI is forming the generalized inverse of G from B-inverse, IUseBI=4.
 Internal  Forces:  Max     0.055371619 RMS     0.017560872
 Search for a local minimum.
 Step number   1 out of a maximum of   77
 All quantities printed in internal units (Hartrees-Bohrs-Radians)
 RMS Force = .17561D-01 SwitMx=.10000D-02 MixMth= 1
 Mixed Optimization -- RFO/linear search
 Second derivative matrix not updated -- first step.
 ITU=  0
     Eigenvalues ---    0.01800   0.01839   0.01875   0.01913   0.01926
     Eigenvalues ---    0.01948   0.01969   0.02002   0.02007   0.02013
     Eigenvalues ---    0.02021   0.02281   0.16000   0.16000   0.16000
     Eigenvalues ---    0.16000   0.16000   0.16000   0.22000   0.22000
     Eigenvalues ---    0.23465   0.25000   0.25000   0.25000   0.40017
     Eigenvalues ---    0.40126   0.42186   0.43184   0.43766   0.43903
     Eigenvalues ---    0.43944   0.43952   0.43988   0.43999   0.44412
     Eigenvalues ---    0.44714   0.51272   0.53872   0.82216
 RFO step:  Lambda=-4.97537664D-02 EMin= 1.79996257D-02
 Linear search not attempted -- first point.
 Maximum step size (   0.300) exceeded in Quadratic search.
    -- Step size scaled by   0.825
 Iteration  1 RMS(Cart)=  0.04269905 RMS(Int)=  0.00146704
 Iteration  2 RMS(Cart)=  0.00194117 RMS(Int)=  0.00000929
 Iteration  3 RMS(Cart)=  0.00000082 RMS(Int)=  0.00000928
 ITry= 1 IFail=0 DXMaxC= 1.84D-01 DCOld= 1.00D+10 DXMaxT= 3.00D-01 DXLimC= 3.00D+00 Rises=F
 Variable       Old X    -DE/DX   Delta X   Delta X   Delta X     New X
                                 (Linear)    (Quad)   (Total)
    R1        2.36742  -0.01291   0.00000  -0.01221  -0.01221   2.35521
    R2        2.56148  -0.00457   0.00000  -0.00640  -0.00640   2.55508
    R3        2.68687   0.03159   0.00000   0.05523   0.05523   2.74211
    R4        1.85303  -0.00656   0.00000  -0.00961  -0.00961   1.84341
    R5        2.67922  -0.00845   0.00000  -0.01478  -0.01477   2.66446
    R6        2.67990  -0.00509   0.00000  -0.00891  -0.00890   2.67100
    R7        2.65932  -0.00999   0.00000  -0.01674  -0.01674   2.64258
    R8        1.93436   0.05325   0.00000   0.09008   0.09008   2.02444
    R9        2.65495  -0.00085   0.00000  -0.00130  -0.00131   2.65364
   R10        1.93271   0.05422   0.00000   0.09147   0.09147   2.02418
   R11        2.65569  -0.00310   0.00000  -0.00496  -0.00497   2.65072
   R12        1.93156   0.05537   0.00000   0.09322   0.09322   2.02478
   R13        2.65997  -0.00898   0.00000  -0.01493  -0.01493   2.64505
   R14        1.93222   0.05463   0.00000   0.09208   0.09208   2.02430
   R15        1.93212   0.05461   0.00000   0.09203   0.09203   2.02415
    A1        2.02458   0.03345   0.00000   0.09202   0.09202   2.11660
    A2        2.13118   0.00698   0.00000   0.01920   0.01920   2.15038
    A3        2.12741  -0.04043   0.00000  -0.11121  -0.11121   2.01620
    A4        2.09736  -0.03623   0.00000  -0.14243  -0.14243   1.95493
    A5        2.11415  -0.00797   0.00000  -0.02183  -0.02184   2.09231
    A6        2.11058   0.00101   0.00000   0.00288   0.00287   2.11346
    A7        2.05845   0.00695   0.00000   0.01895   0.01897   2.07742
    A8        2.11344  -0.00430   0.00000  -0.01328  -0.01327   2.10018
    A9        2.10832  -0.00206   0.00000  -0.00990  -0.00990   2.09842
   A10        2.06142   0.00636   0.00000   0.02318   0.02317   2.08459
   A11        2.09565   0.00084   0.00000   0.00298   0.00296   2.09862
   A12        2.09485  -0.00181   0.00000  -0.00696  -0.00695   2.08790
   A13        2.09268   0.00097   0.00000   0.00398   0.00399   2.09667
   A14        2.09027   0.00068   0.00000   0.00297   0.00295   2.09322
   A15        2.09663  -0.00029   0.00000  -0.00128  -0.00126   2.09536
   A16        2.09627  -0.00039   0.00000  -0.00169  -0.00168   2.09460
   A17        2.09669  -0.00132   0.00000  -0.00319  -0.00320   2.09349
   A18        2.09255   0.00157   0.00000   0.00518   0.00519   2.09774
   A19        2.09394  -0.00025   0.00000  -0.00199  -0.00199   2.09195
   A20        2.11180  -0.00284   0.00000  -0.00840  -0.00839   2.10342
   A21        2.10873  -0.00190   0.00000  -0.00886  -0.00887   2.09986
   A22        2.06265   0.00475   0.00000   0.01727   0.01726   2.07991
    D1       -0.00154   0.00005   0.00000   0.00075   0.00077  -0.00076
    D2       -3.13993  -0.00009   0.00000  -0.00123  -0.00125  -3.14118
    D3       -0.00633  -0.00008   0.00000  -0.00091  -0.00090  -0.00724
    D4        3.13417  -0.00004   0.00000  -0.00044  -0.00043   3.13374
    D5        3.13186   0.00011   0.00000   0.00130   0.00129   3.13315
    D6       -0.01082   0.00015   0.00000   0.00177   0.00176  -0.00906
    D7       -3.13292  -0.00015   0.00000  -0.00177  -0.00177  -3.13469
    D8        0.00874  -0.00013   0.00000  -0.00157  -0.00157   0.00717
    D9        0.00973  -0.00018   0.00000  -0.00222  -0.00222   0.00751
   D10       -3.13179  -0.00016   0.00000  -0.00202  -0.00203  -3.13382
   D11        3.13811   0.00005   0.00000   0.00056   0.00056   3.13867
   D12       -0.00391   0.00007   0.00000   0.00085   0.00085  -0.00307
   D13       -0.00454   0.00008   0.00000   0.00100   0.00101  -0.00354
   D14        3.13662   0.00010   0.00000   0.00129   0.00129   3.13792
   D15       -0.00541   0.00011   0.00000   0.00123   0.00122  -0.00419
   D16        3.13780   0.00007   0.00000   0.00074   0.00073   3.13853
   D17        3.13611   0.00009   0.00000   0.00103   0.00102   3.13714
   D18       -0.00386   0.00005   0.00000   0.00054   0.00054  -0.00332
   D19       -0.00433   0.00011   0.00000   0.00115   0.00114  -0.00319
   D20       -3.14053  -0.00006   0.00000  -0.00074  -0.00074  -3.14127
   D21        3.13564   0.00015   0.00000   0.00163   0.00162   3.13726
   D22       -0.00056  -0.00002   0.00000  -0.00026  -0.00026  -0.00082
   D23        0.00946  -0.00020   0.00000  -0.00231  -0.00231   0.00715
   D24       -3.13018  -0.00022   0.00000  -0.00259  -0.00258  -3.13276
   D25       -3.13752  -0.00003   0.00000  -0.00043  -0.00043  -3.13795
   D26        0.00602  -0.00006   0.00000  -0.00070  -0.00070   0.00532
   D27       -0.00498   0.00010   0.00000   0.00121   0.00121  -0.00377
   D28        3.13703   0.00007   0.00000   0.00093   0.00093   3.13797
   D29        3.13467   0.00012   0.00000   0.00149   0.00149   3.13615
   D30       -0.00651   0.00010   0.00000   0.00121   0.00121  -0.00530
         Item               Value     Threshold  Converged?
 Maximum Force            0.055372     0.000450     NO 
 RMS     Force            0.017561     0.000300     NO 
 Maximum Displacement     0.183709     0.001800     NO 
 RMS     Displacement     0.043420     0.001200     NO 
 Predicted change in Energy=-2.635103D-02
 Lowest energy point so far.  Saving SCF results.
 GradGradGradGradGradGradGradGradGradGradGradGradGradGradGradGradGradGrad

 Leave Link  103 at Mon Feb 22 21:25:06 2021, MaxMem=   104857600 cpu:               1.0 elap:               0.1
 (Enter /sw/arch/RedHatEnterpriseServer7/EB_production/2019/software/Gaussian/g16.c01/l202.exe)
                          Input orientation:                          
 ---------------------------------------------------------------------
 Center     Atomic      Atomic             Coordinates (Angstroms)
 Number     Number       Type             X           Y           Z
 ---------------------------------------------------------------------
      1          8           0       -2.789624    0.214953    0.206228
      2          6           0       -2.094177    1.249119    0.192819
      3          8           0       -2.658473    2.475454    0.269165
      4          6           0       -0.646341    1.232005    0.097669
      5          6           0        0.038250    0.001609    0.023680
      6          6           0        1.433866   -0.026094   -0.059952
      7          6           0        2.165351    1.172479   -0.076021
      8          6           0        1.494585    2.402734   -0.011859
      9          6           0        0.098027    2.433369    0.076713
     10          1           0       -3.630775    2.427227    0.331518
     11          1           0       -0.507193   -0.920397    0.030848
     12          1           0        1.942606   -0.967235   -0.112807
     13          1           0        3.234593    1.147774   -0.140471
     14          1           0        2.047963    3.319720   -0.031987
     15          1           0       -0.401186    3.379644    0.128408
 ---------------------------------------------------------------------
                    Distance matrix (angstroms):
                    1          2          3          4          5
     1  O    0.000000
     2  C    1.246325   0.000000
     3  O    2.265177   1.352093   0.000000
     4  C    2.374836   1.451061   2.371550   0.000000
     5  C    2.841780   2.476315   3.667763   1.409969   0.000000
     6  C    4.238729   3.759940   4.807629   2.436169   1.398394
     7  C    5.054533   4.268692   5.008610   2.817680   2.430110
     8  C    4.815433   3.775174   4.163190   2.442574   2.808483
     9  C    3.643717   2.494331   2.763530   1.413434   2.433072
    10  H    2.370103   1.941213   0.975492   3.223366   4.409096
    11  H    2.555243   2.692871   4.026984   2.157930   1.071287
    12  H    4.888083   4.615328   5.759161   3.403469   2.140995
    13  H    6.105862   5.340145   6.054648   3.889146   3.399595
    14  H    5.753136   4.636297   4.791035   3.410958   3.879678
    15  H    3.965598   2.722041   2.435717   2.161805   3.408107
                    6          7          8          9         10
     6  C    0.000000
     7  C    1.404246   0.000000
     8  C    2.430063   1.402701   0.000000
     9  C    2.802160   2.426314   1.399700   0.000000
    10  H    5.641154   5.944372   5.136908   3.737503   0.000000
    11  H    2.139096   3.396181   3.879709   3.408246   4.588437
    12  H    1.071147   2.151591   3.401118   3.873306   6.540823
    13  H    2.151062   1.071468   2.149207   3.396759   6.999504
    14  H    3.401818   2.150898   1.071212   2.144688   5.759926
    15  H    3.873235   3.391236   2.137283   1.071132   3.373218
                   11         12         13         14         15
    11  H    0.000000
    12  H    2.454454   0.000000
    13  H    4.278744   2.478560   0.000000
    14  H    4.950895   4.289011   2.477339   0.000000
    15  H    4.302454   4.944381   4.274627   2.455127   0.000000
 Stoichiometry    C7H6O2
 Framework group  C1[X(C7H6O2)]
 Deg. of freedom    39
 Full point group                 C1      NOp   1
 RotChk:  IX=0 Diff= 1.20D-02
 Largest Abelian subgroup         C1      NOp   1
 Largest concise Abelian subgroup C1      NOp   1
                         Standard orientation:                         
 ---------------------------------------------------------------------
 Center     Atomic      Atomic             Coordinates (Angstroms)
 Number     Number       Type             X           Y           Z
 ---------------------------------------------------------------------
      1          8           0        2.323860    1.179709   -0.005481
      2          6           0        1.688568    0.107467   -0.000350
      3          8           0        2.325030   -1.085420    0.009098
      4          6           0        0.238959    0.042597   -0.002421
      5          6           0       -0.517427    1.232511   -0.001736
      6          6           0       -1.914857    1.180993    0.004614
      7          6           0       -2.576937   -0.057375    0.005279
      8          6           0       -1.834973   -1.247739   -0.004325
      9          6           0       -0.436116   -1.199199   -0.005881
     10          1           0        3.295047   -0.982218    0.010442
     11          1           0       -0.025648    2.184239   -0.006326
     12          1           0       -2.478326    2.091954    0.007918
     13          1           0       -3.647790   -0.093363    0.009855
     14          1           0       -2.335785   -2.194641   -0.012033
     15          1           0        0.118076   -2.115812   -0.009862
 ---------------------------------------------------------------------
 Rotational constants (GHZ):           3.8363929           1.2230232           0.9273918
 Leave Link  202 at Mon Feb 22 21:25:07 2021, MaxMem=   104857600 cpu:               0.8 elap:               0.1
 (Enter /sw/arch/RedHatEnterpriseServer7/EB_production/2019/software/Gaussian/g16.c01/l301.exe)
 Standard basis: TZVP (5D, 7F)
 Ernie: Thresh=  0.10000D-02 Tol=  0.10000D-05 Strict=F.
 There are   216 symmetry adapted cartesian basis functions of A   symmetry.
 There are   207 symmetry adapted basis functions of A   symmetry.
   207 basis functions,   363 primitive gaussians,   216 cartesian basis functions
    32 alpha electrons       32 beta electrons
       nuclear repulsion energy       403.6068572379 Hartrees.
 IExCor=  404 DFT=T Ex=B Corr=P86 ExCW=0 ScaHFX=  0.000000
 ScaDFX=  1.000000  1.000000  1.000000  1.000000 ScalE2=  1.000000  1.000000
 IRadAn=      5 IRanWt=     -1 IRanGd=            0 ICorTp=0 IEmpDi=131
 NAtoms=   15 NActive=   15 NUniq=   15 SFac= 1.00D+00 NAtFMM=   60 NAOKFM=F Big=F
 Integral buffers will be    131072 words long.
 Raffenetti 2 integral format.
 Two-electron integral symmetry is turned on.
 R6Disp:  Grimme-D3 Dispersion energy=       -0.0108371667 Hartrees.
 Nuclear repulsion after empirical dispersion term =      403.5960200712 Hartrees.
 ------------------------------------------------------------------------------
 Polarizable Continuum Model (PCM)
 =================================
 Model                : PCM.
 Atomic radii         : UFF (Universal Force Field).
 Polarization charges : Total charges.
 Charge compensation  : None.
 Solution method      : On-the-fly selection.
 Cavity type          : Scaled VdW (van der Waals Surface) (Alpha=1.100).
 Cavity algorithm     : GePol (No added spheres)
                        Default sphere list used, NSphG=   15.
                        Lebedev-Laikov grids with approx.  5.0 points / Ang**2.
                        Smoothing algorithm: York/Karplus (Gamma=1.0000).
                        Polarization charges: spherical gaussians, with
                                              point-specific exponents (IZeta= 3).
                        Self-potential: point-specific (ISelfS= 7).
                        Self-field    : sphere-specific E.n sum rule (ISelfD= 2).
 1st derivatives      : Analytical E(r).r(x)/FMM algorithm (CHGder, D1EAlg=3).
                        Cavity 1st derivative terms included.
 Solvent              : Water, Eps=  78.355300 Eps(inf)=   1.777849
 ------------------------------------------------------------------------------
 Spheres list:
 ISph  on   Nord     Re0    Alpha      Xe            Ye            Ze
    1   O      1    1.7500  1.100      2.323860      1.179709     -0.005481
    2   C      2    1.9255  1.100      1.688568      0.107467     -0.000350
    3   O      3    1.7500  1.100      2.325030     -1.085420      0.009098
    4   C      4    1.9255  1.100      0.238959      0.042597     -0.002421
    5   C      5    1.9255  1.100     -0.517427      1.232511     -0.001736
    6   C      6    1.9255  1.100     -1.914857      1.180993      0.004614
    7   C      7    1.9255  1.100     -2.576937     -0.057375      0.005279
    8   C      8    1.9255  1.100     -1.834973     -1.247739     -0.004325
    9   C      9    1.9255  1.100     -0.436116     -1.199199     -0.005881
   10   H     10    1.4430  1.100      3.295047     -0.982218      0.010442
   11   H     11    1.4430  1.100     -0.025648      2.184239     -0.006326
   12   H     12    1.4430  1.100     -2.478326      2.091954      0.007918
   13   H     13    1.4430  1.100     -3.647790     -0.093363      0.009855
   14   H     14    1.4430  1.100     -2.335785     -2.194641     -0.012033
   15   H     15    1.4430  1.100      0.118076     -2.115812     -0.009862
 ------------------------------------------------------------------------------
 GePol: Number of generator spheres                  =      15
 GePol: Total number of spheres                      =      15
 GePol: Number of exposed spheres                    =      15 (100.00%)
 GePol: Number of points                             =    1351
 GePol: Average weight of points                     =       0.13
 GePol: Minimum weight of points                     =   0.74D-09
 GePol: Maximum weight of points                     =    0.20577
 GePol: Number of points with low weight             =      48
 GePol: Fraction of low-weight points (<1% of avg)   =       3.55%
 GePol: Cavity surface area                          =    179.035 Ang**2
 GePol: Cavity volume                                =    175.513 Ang**3
 Leave Link  301 at Mon Feb 22 21:25:07 2021, MaxMem=   104857600 cpu:               1.8 elap:               0.1
 (Enter /sw/arch/RedHatEnterpriseServer7/EB_production/2019/software/Gaussian/g16.c01/l302.exe)
 NPDir=0 NMtPBC=     1 NCelOv=     1 NCel=       1 NClECP=     1 NCelD=      1
         NCelK=      1 NCelE2=     1 NClLst=     1 CellRange=     0.0.
 One-electron integrals computed using PRISM.
 One-electron integral symmetry used in STVInt
 PrsmSu:  requested number of processors reduced to:  29 ShMem   1 Linda.
 NBasis=   207 RedAO= T EigKep=  1.00D-05  NBF=   207
 NBsUse=   207 1.00D-06 EigRej= -1.00D+00 NBFU=   207
 Precomputing XC quadrature grid using
 IXCGrd= 4 IRadAn=           5 IRanWt=          -1 IRanGd=           0 AccXCQ= 0.00D+00.
 Generated NRdTot=       0 NPtTot=           0 NUsed=           0 NTot=          32
 NSgBfM=   215   215   215   215   215 MxSgAt=    15 MxSgA2=    15.
 Leave Link  302 at Mon Feb 22 21:25:07 2021, MaxMem=   104857600 cpu:               6.4 elap:               0.2
 (Enter /sw/arch/RedHatEnterpriseServer7/EB_production/2019/software/Gaussian/g16.c01/l303.exe)
 DipDrv:  MaxL=1.
 Leave Link  303 at Mon Feb 22 21:25:07 2021, MaxMem=   104857600 cpu:               1.1 elap:               0.1
 (Enter /sw/arch/RedHatEnterpriseServer7/EB_production/2019/software/Gaussian/g16.c01/l401.exe)
 Initial guess from the checkpoint file:  "WPYMKLBDIGXBTP-UHFFFAOYSA-N.chk"
 B after Tr=    -0.000000    0.000000    0.000000
         Rot=    0.999986   -0.000044    0.000046    0.005229 Ang=  -0.60 deg.
 Guess basis will be translated and rotated to current coordinates.
 JPrj=2 DoOrth=T DoCkMO=T.
 Generating alternative initial guess.
 ExpMin= 9.52D-02 ExpMax= 2.70D+04 ExpMxC= 9.22D+02 IAcc=3 IRadAn=         5 AccDes= 0.00D+00
 Harris functional with IExCor=  404 and IRadAn=       5 diagonalized for initial guess.
 HarFok:  IExCor=  404 AccDes= 0.00D+00 IRadAn=         5 IDoV= 1 UseB2=F ITyADJ=14
 ICtDFT=  3500011 ScaDFX=  1.000000  1.000000  1.000000  1.000000
 FoFCou: FMM=F IPFlag=           0 FMFlag=      100000 FMFlg1=           0
         NFxFlg=           0 DoJE=T BraDBF=F KetDBF=T FulRan=T
         wScrn=  0.000000 ICntrl=       500 IOpCl=  0 I1Cent=   200000004 NGrid=           0
         NMat0=    1 NMatS0=      1 NMatT0=    0 NMatD0=    1 NMtDS0=    0 NMtDT0=    0
 Petite list used in FoFCou.
 Harris En= -421.117608025270    
 Leave Link  401 at Mon Feb 22 21:25:07 2021, MaxMem=   104857600 cpu:              11.8 elap:               0.4
 (Enter /sw/arch/RedHatEnterpriseServer7/EB_production/2019/software/Gaussian/g16.c01/l502.exe)
 Integral symmetry usage will be decided dynamically.
 Closed shell SCF:
 Using DIIS extrapolation, IDIIS=  1040.
 NGot=   104857600 LenX=   104754822 LenY=   104707725
 Requested convergence on RMS density matrix=1.00D-08 within 128 cycles.
 Requested convergence on MAX density matrix=1.00D-06.
 Requested convergence on             energy=1.00D-06.
 No special actions if energy rises.
 Fock matrices will be formed incrementally for  20 cycles.

 Cycle   1  Pass 1  IDiag  1:
 FoFJK:  IHMeth= 1 ICntrl=     500 DoSepK=F KAlg= 0 I1Cent=           0 FoldK=F
 IRaf= 930000000 NMat=       1 IRICut=       1 DoRegI=T DoRafI=F ISym2E= 0 IDoP0=0 IntGTp=1.
 FoFCou: FMM=F IPFlag=           0 FMFlag=      100000 FMFlg1=           0
         NFxFlg=           0 DoJE=T BraDBF=F KetDBF=F FulRan=T
         wScrn=  0.000000 ICntrl=       500 IOpCl=  0 I1Cent=           0 NGrid=           0
         NMat0=    1 NMatS0=      1 NMatT0=    0 NMatD0=    1 NMtDS0=    0 NMtDT0=    0
 Symmetry not used in FoFCou.
 Inv3:  Mode=1 IEnd=     5475603.
 Iteration    1 A*A^-1 deviation from unit magnitude is 3.11D-15 for    375.
 Iteration    1 A*A^-1 deviation from orthogonality  is 1.70D-15 for    850    205.
 Iteration    1 A^-1*A deviation from unit magnitude is 2.89D-15 for    375.
 Iteration    1 A^-1*A deviation from orthogonality  is 4.28D-15 for    922    175.
 E= -420.981944906500    
 DIIS: error= 3.37D-03 at cycle   1 NSaved=   1.
 NSaved= 1 IEnMin= 1 EnMin= -420.981944906500     IErMin= 1 ErrMin= 3.37D-03
 ErrMax= 3.37D-03  0.00D+00 EMaxC= 1.00D-01 BMatC= 4.87D-03 BMatP= 4.87D-03
 IDIUse=3 WtCom= 9.66D-01 WtEn= 3.37D-02
 Coeff-Com:  0.100D+01
 Coeff-En:   0.100D+01
 Coeff:      0.100D+01
 Gap=     0.642 Goal=   None    Shift=    0.000
 GapD=    0.642 DampG=2.000 DampE=1.000 DampFc=2.0000 IDamp=-1.
 RMSDP=1.27D-03 MaxDP=4.52D-02              OVMax= 2.20D-02

 Cycle   2  Pass 1  IDiag  1:
 RMSU=  1.25D-03    CP:  9.83D-01
 E= -420.986327001763     Delta-E=       -0.004382095263 Rises=F Damp=F
 DIIS: error= 3.55D-03 at cycle   2 NSaved=   2.
 NSaved= 2 IEnMin= 2 EnMin= -420.986327001763     IErMin= 1 ErrMin= 3.37D-03
 ErrMax= 3.55D-03  0.00D+00 EMaxC= 1.00D-01 BMatC= 1.61D-03 BMatP= 4.87D-03
 IDIUse=3 WtCom= 9.64D-01 WtEn= 3.55D-02
 Coeff-Com:  0.295D+00 0.705D+00
 Coeff-En:   0.000D+00 0.100D+01
 Coeff:      0.285D+00 0.715D+00
 Gap=     0.149 Goal=   None    Shift=    0.000
 RMSDP=6.93D-04 MaxDP=3.87D-02 DE=-4.38D-03 OVMax= 3.80D-02

 Cycle   3  Pass 1  IDiag  1:
 RMSU=  6.20D-04    CP:  9.95D-01  7.96D-01
 E= -420.983471230178     Delta-E=        0.002855771585 Rises=F Damp=F
 DIIS: error= 7.37D-03 at cycle   3 NSaved=   3.
 NSaved= 3 IEnMin= 2 EnMin= -420.986327001763     IErMin= 1 ErrMin= 3.37D-03
 ErrMax= 7.37D-03  0.00D+00 EMaxC= 1.00D-01 BMatC= 5.43D-03 BMatP= 1.61D-03
 IDIUse=3 WtCom= 1.04D-01 WtEn= 8.96D-01
 Coeff-Com:  0.460D-01 0.627D+00 0.327D+00
 Coeff-En:   0.000D+00 0.700D+00 0.300D+00
 Coeff:      0.480D-02 0.693D+00 0.302D+00
 Gap=     0.142 Goal=   None    Shift=    0.000
 RMSDP=4.10D-04 MaxDP=2.38D-02 DE= 2.86D-03 OVMax= 2.35D-02

 Cycle   4  Pass 1  IDiag  1:
 RMSU=  1.01D-04    CP:  9.88D-01  9.10D-01  4.26D-01
 E= -420.987420797889     Delta-E=       -0.003949567711 Rises=F Damp=F
 DIIS: error= 1.11D-03 at cycle   4 NSaved=   4.
 NSaved= 4 IEnMin= 4 EnMin= -420.987420797889     IErMin= 4 ErrMin= 1.11D-03
 ErrMax= 1.11D-03  0.00D+00 EMaxC= 1.00D-01 BMatC= 1.70D-04 BMatP= 1.61D-03
 IDIUse=3 WtCom= 9.89D-01 WtEn= 1.11D-02
 Coeff-Com:  0.683D-02 0.316D+00 0.697D-01 0.607D+00
 Coeff-En:   0.000D+00 0.133D+00 0.000D+00 0.867D+00
 Coeff:      0.676D-02 0.314D+00 0.690D-01 0.610D+00
 Gap=     0.145 Goal=   None    Shift=    0.000
 RMSDP=1.04D-04 MaxDP=7.76D-03 DE=-3.95D-03 OVMax= 4.53D-03

 Cycle   5  Pass 1  IDiag  1:
 RMSU=  4.60D-05    CP:  9.86D-01  9.46D-01  3.06D-01  9.26D-01
 E= -420.987543781023     Delta-E=       -0.000122983134 Rises=F Damp=F
 DIIS: error= 4.06D-04 at cycle   5 NSaved=   5.
 NSaved= 5 IEnMin= 5 EnMin= -420.987543781023     IErMin= 5 ErrMin= 4.06D-04
 ErrMax= 4.06D-04  0.00D+00 EMaxC= 1.00D-01 BMatC= 1.38D-05 BMatP= 1.70D-04
 IDIUse=3 WtCom= 9.96D-01 WtEn= 4.06D-03
 Coeff-Com:  0.552D-03 0.151D+00 0.153D-01 0.419D+00 0.414D+00
 Coeff-En:   0.000D+00 0.000D+00 0.000D+00 0.000D+00 0.100D+01
 Coeff:      0.549D-03 0.151D+00 0.152D-01 0.417D+00 0.416D+00
 Gap=     0.145 Goal=   None    Shift=    0.000
 RMSDP=2.67D-05 MaxDP=1.98D-03 DE=-1.23D-04 OVMax= 1.04D-03

 Cycle   6  Pass 1  IDiag  1:
 RMSU=  9.71D-06    CP:  9.86D-01  9.39D-01  3.15D-01  8.48D-01  5.76D-01
 E= -420.987554062557     Delta-E=       -0.000010281534 Rises=F Damp=F
 DIIS: error= 3.00D-05 at cycle   6 NSaved=   6.
 NSaved= 6 IEnMin= 6 EnMin= -420.987554062557     IErMin= 6 ErrMin= 3.00D-05
 ErrMax= 3.00D-05  0.00D+00 EMaxC= 1.00D-01 BMatC= 2.20D-07 BMatP= 1.38D-05
 IDIUse=1 WtCom= 1.00D+00 WtEn= 0.00D+00
 Coeff-Com: -0.222D-03 0.456D-01 0.216D-02 0.148D+00 0.178D+00 0.626D+00
 Coeff:     -0.222D-03 0.456D-01 0.216D-02 0.148D+00 0.178D+00 0.626D+00
 Gap=     0.145 Goal=   None    Shift=    0.000
 RMSDP=3.29D-06 MaxDP=7.13D-05 DE=-1.03D-05 OVMax= 2.07D-04

 Cycle   7  Pass 1  IDiag  1:
 RMSU=  2.56D-06    CP:  9.86D-01  9.39D-01  3.18D-01  8.49D-01  5.82D-01
                    CP:  8.47D-01
 E= -420.987554237096     Delta-E=       -0.000000174539 Rises=F Damp=F
 DIIS: error= 1.53D-05 at cycle   7 NSaved=   7.
 NSaved= 7 IEnMin= 7 EnMin= -420.987554237096     IErMin= 7 ErrMin= 1.53D-05
 ErrMax= 1.53D-05  0.00D+00 EMaxC= 1.00D-01 BMatC= 6.58D-08 BMatP= 2.20D-07
 IDIUse=1 WtCom= 1.00D+00 WtEn= 0.00D+00
 Coeff-Com: -0.180D-03 0.138D-01-0.281D-03 0.526D-01 0.682D-01 0.394D+00
 Coeff-Com:  0.472D+00
 Coeff:     -0.180D-03 0.138D-01-0.281D-03 0.526D-01 0.682D-01 0.394D+00
 Coeff:      0.472D+00
 Gap=     0.145 Goal=   None    Shift=    0.000
 RMSDP=1.47D-06 MaxDP=6.04D-05 DE=-1.75D-07 OVMax= 1.14D-04

 Cycle   8  Pass 1  IDiag  1:
 RMSU=  1.20D-06    CP:  9.86D-01  9.39D-01  3.17D-01  8.52D-01  5.86D-01
                    CP:  8.41D-01  7.86D-01
 E= -420.987554279053     Delta-E=       -0.000000041957 Rises=F Damp=F
 DIIS: error= 5.70D-06 at cycle   8 NSaved=   8.
 NSaved= 8 IEnMin= 8 EnMin= -420.987554279053     IErMin= 8 ErrMin= 5.70D-06
 ErrMax= 5.70D-06  0.00D+00 EMaxC= 1.00D-01 BMatC= 4.06D-09 BMatP= 6.58D-08
 IDIUse=1 WtCom= 1.00D+00 WtEn= 0.00D+00
 Coeff-Com: -0.999D-04 0.631D-02-0.313D-03 0.252D-01 0.323D-01 0.207D+00
 Coeff-Com:  0.288D+00 0.441D+00
 Coeff:     -0.999D-04 0.631D-02-0.313D-03 0.252D-01 0.323D-01 0.207D+00
 Coeff:      0.288D+00 0.441D+00
 Gap=     0.145 Goal=   None    Shift=    0.000
 RMSDP=3.79D-07 MaxDP=7.93D-06 DE=-4.20D-08 OVMax= 3.81D-05

 Cycle   9  Pass 1  IDiag  1:
 RMSU=  3.12D-07    CP:  9.86D-01  9.39D-01  3.17D-01  8.52D-01  5.88D-01
                    CP:  8.43D-01  8.14D-01  8.95D-01
 E= -420.987554299298     Delta-E=       -0.000000020244 Rises=F Damp=F
 DIIS: error= 2.29D-06 at cycle   9 NSaved=   9.
 NSaved= 9 IEnMin= 9 EnMin= -420.987554299298     IErMin= 9 ErrMin= 2.29D-06
 ErrMax= 2.29D-06  0.00D+00 EMaxC= 1.00D-01 BMatC= 5.62D-10 BMatP= 4.06D-09
 IDIUse=1 WtCom= 1.00D+00 WtEn= 0.00D+00
 Coeff-Com: -0.203D-04 0.821D-03-0.188D-03 0.394D-02 0.458D-02 0.402D-01
 Coeff-Com:  0.739D-01 0.283D+00 0.593D+00
 Coeff:     -0.203D-04 0.821D-03-0.188D-03 0.394D-02 0.458D-02 0.402D-01
 Coeff:      0.739D-01 0.283D+00 0.593D+00
 Gap=     0.145 Goal=   None    Shift=    0.000
 RMSDP=1.38D-07 MaxDP=3.67D-06 DE=-2.02D-08 OVMax= 1.10D-05

 Cycle  10  Pass 1  IDiag  1:
 RMSU=  6.37D-08    CP:  9.86D-01  9.39D-01  3.17D-01  8.52D-01  5.87D-01
                    CP:  8.50D-01  8.24D-01  9.14D-01  7.26D-01
 E= -420.987554293969     Delta-E=        0.000000005329 Rises=F Damp=F
 DIIS: error= 4.62D-07 at cycle  10 NSaved=  10.
 NSaved=10 IEnMin= 9 EnMin= -420.987554299298     IErMin=10 ErrMin= 4.62D-07
[...]
 Largest Abelian subgroup         C1      NOp   1
 Largest concise Abelian subgroup C1      NOp   1
                         Standard orientation:                         
 ---------------------------------------------------------------------
 Center     Atomic      Atomic             Coordinates (Angstroms)
 Number     Number       Type             X           Y           Z
 ---------------------------------------------------------------------
      1          8           0        2.345201    1.170070   -0.003207
      2          6           0        1.710001    0.122369    0.000264
      3          8           0        2.318725   -1.098817    0.002708
      4          6           0        0.222751    0.029727    0.000283
      5          6           0       -0.515906    1.227007    0.001285
      6          6           0       -1.911140    1.189078    0.001212
      7          6           0       -2.578372   -0.043707   -0.000131
      8          6           0       -1.846980   -1.238716   -0.001328
      9          6           0       -0.450058   -1.206317   -0.001047
     10          1           0        3.286163   -0.939085    0.001112
     11          1           0        0.017917    2.178728    0.002235
     12          1           0       -2.480904    2.120106    0.002158
     13          1           0       -3.669887   -0.072983   -0.000338
     14          1           0       -2.367158   -2.198381   -0.002456
     15          1           0        0.120686   -2.135061   -0.001952
 ---------------------------------------------------------------------
 Rotational constants (GHZ):           3.8296525           1.2149522           0.9223421
 Standard basis: TZVP (5D, 7F)
 There are   216 symmetry adapted cartesian basis functions of A   symmetry.
 There are   207 symmetry adapted basis functions of A   symmetry.
   207 basis functions,   363 primitive gaussians,   216 cartesian basis functions
    32 alpha electrons       32 beta electrons
       nuclear repulsion energy       402.7031146528 Hartrees.
 NAtoms=   15 NActive=   15 NUniq=   15 SFac= 1.00D+00 NAtFMM=   60 NAOKFM=F Big=F
 Integral buffers will be    131072 words long.
 Raffenetti 2 integral format.
 Two-electron integral symmetry is turned on.
 Warning! Using old PCM defaults because the COSMOthermo output has been requested.
 These settings can be overridden by following keywords.
 ------------------------------------------------------------------------------
 Polarizable Continuum Model (PCM)
 =================================
 Model                : C-PCM.
 Atomic radii         : Klamt.
 XCosmo               : -1.000 (infinite dielectric limit)
 Polarization charges : Electronic and nuclear charges.
 Charge compensation  : Type 3 (Electronic density weighted correction).
 Solution method      : On-the-fly selection.
 Cavity type          : VdW (van der Waals Surface) (Alpha=1.000).
 Cavity algorithm     : GePol (No added spheres)
                        Default sphere list used, NSphG=   15.
                        Tesserae with average area of 0.200 Ang**2.
                        Smoothing algorithm: None.
                        Polarization charges: point-like.
                        Self-potential: constant (ISelfS= 1).
                        Self-field    : global E.n sum rule (ISelfD= 3).
 Solvent              : Water, Eps=  78.355300 Eps(inf)=   1.777849
 ------------------------------------------------------------------------------
 Spheres list:
 ISph  on   Nord     Re0    Alpha      Xe            Ye            Ze
    1   O      1    1.7200  1.000      2.345201      1.170070     -0.003207
    2   C      2    2.0000  1.000      1.710001      0.122369      0.000264
    3   O      3    1.7200  1.000      2.318725     -1.098817      0.002708
    4   C      4    2.0000  1.000      0.222751      0.029727      0.000283
    5   C      5    2.0000  1.000     -0.515906      1.227007      0.001285
    6   C      6    2.0000  1.000     -1.911140      1.189078      0.001212
    7   C      7    2.0000  1.000     -2.578372     -0.043707     -0.000131
    8   C      8    2.0000  1.000     -1.846980     -1.238716     -0.001328
    9   C      9    2.0000  1.000     -0.450058     -1.206317     -0.001047
   10   H     10    1.3000  1.000      3.286163     -0.939085      0.001112
   11   H     11    1.3000  1.000      0.017917      2.178728      0.002235
   12   H     12    1.3000  1.000     -2.480904      2.120106      0.002158
   13   H     13    1.3000  1.000     -3.669887     -0.072983     -0.000338
   14   H     14    1.3000  1.000     -2.367158     -2.198381     -0.002456
   15   H     15    1.3000  1.000      0.120686     -2.135061     -0.001952
 ------------------------------------------------------------------------------
 One-electron integrals computed using PRISM.
 PrsmSu:  requested number of processors reduced to:  29 ShMem   1 Linda.
 NBasis=   207 RedAO= T EigKep=  1.01D-05  NBF=   207
 NBsUse=   207 1.00D-06 EigRej= -1.00D+00 NBFU=   207
 Initial guess from the checkpoint file:  "WPYMKLBDIGXBTP-UHFFFAOYSA-N.chk"
 B after Tr=     0.000000   -0.000000    0.000000
         Rot=    1.000000    0.000000    0.000000    0.000000 Ang=   0.00 deg.
 Requested convergence on RMS density matrix=1.00D-08 within 128 cycles.
 Requested convergence on MAX density matrix=1.00D-06.
 Requested convergence on             energy=1.00D-06.
 No special actions if energy rises.
 Inv3:  Mode=1 IEnd=     3864675.
 Iteration    1 A*A^-1 deviation from unit magnitude is 4.88D-15 for    411.
 Iteration    1 A*A^-1 deviation from orthogonality  is 3.54D-15 for    411    230.
 Iteration    1 A^-1*A deviation from unit magnitude is 5.11D-15 for    411.
 Iteration    1 A^-1*A deviation from orthogonality  is 4.25D-15 for    863    332.
 Error on nuclear    polarization charges =  0.02179
 Error on electronic polarization charges = -0.04770
 SCF Done:  E(RB-P86) =  -420.985734652     A.U. after   11 cycles
            NFock= 11  Conv=0.42D-08     -V/T= 2.0044
 --------------------------------------------------------------------
 Variational C-PCM results
 =========================
 <psi(f)|   H    |psi(f)>                     (a.u.) =    -420.970555
 <psi(f)|H+V(f)/2|psi(f)>                     (a.u.) =    -420.985735
 Total free energy in solution:
 - with all non electrostatic terms           (a.u.) =    -420.975880
 --------------------------------------------------------------------
 (Polarized solute)-Solvent               (kcal/mol) =      -9.53
 --------------------------------------------------------------------
 Cavitation energy                        (kcal/mol) =      19.60
 Dispersion energy                        (kcal/mol) =     -14.62
 Repulsion energy                         (kcal/mol) =       1.20
 Total non electrostatic                  (kcal/mol) =       6.18
 --------------------------------------------------------------------
 Partition over spheres:
 Sphere  on Atom  Surface  Charge   GEl     GCav    GDR
    1      O1      19.33   0.234   -3.81    2.40   -1.62
    2      C2      10.65  -0.031   -0.05    1.25   -0.78
    3      O3      14.44   0.076   -0.62    1.79   -1.24
    4      C4       5.77   0.008   -0.05    0.68   -0.35
    5      C5      12.73   0.016   -0.13    1.50   -0.95
    6      C6      14.00   0.019   -0.15    1.64   -1.02
    7      C7      14.02   0.014   -0.14    1.65   -1.01
    8      C8      13.99   0.019   -0.14    1.64   -1.02
    9      C9      12.63   0.015   -0.11    1.48   -0.95
   10      H10      8.42  -0.151   -2.61    1.19   -0.89
   11      H11      5.95  -0.041   -0.03    0.84   -0.60
   12      H12      6.43  -0.046   -0.43    0.91   -0.80
   13      H13      6.44  -0.046   -0.51    0.91   -0.79
   14      H14      6.43  -0.046   -0.49    0.91   -0.80
   15      H15      5.74  -0.042   -0.26    0.81   -0.59
 --------------------------------------------------------------------
 - cavitation energy not included in the total energy.
 - dispersion energy not included in the total energy.
 - repulsion  energy not included in the total energy.
 After PCM corrections, the energy is  -420.985734652     a.u.
 --------------------------------------------------------------------
 Writing COSMO formatted file "WPYMKLBDIGXBTP-UHFFFAOYSA-N.cosmo"
 Recomputed dielectric energy= -0.015251 old= -0.015180 diff=-7.09D-05

 **********************************************************************

            Population analysis using the SCF Density.

 **********************************************************************

 Orbital symmetries:
       Occupied  (A) (A) (A) (A) (A) (A) (A) (A) (A) (A) (A) (A)
                 (A) (A) (A) (A) (A) (A) (A) (A) (A) (A) (A) (A)
                 (A) (A) (A) (A) (A) (A) (A) (A)
       Virtual   (A) (A) (A) (A) (A) (A) (A) (A) (A) (A) (A) (A)
                 (A) (A) (A) (A) (A) (A) (A) (A) (A) (A) (A) (A)
                 (A) (A) (A) (A) (A) (A) (A) (A) (A) (A) (A) (A)
                 (A) (A) (A) (A) (A) (A) (A) (A) (A) (A) (A) (A)
                 (A) (A) (A) (A) (A) (A) (A) (A) (A) (A) (A) (A)
                 (A) (A) (A) (A) (A) (A) (A) (A) (A) (A) (A) (A)
                 (A) (A) (A) (A) (A) (A) (A) (A) (A) (A) (A) (A)
                 (A) (A) (A) (A) (A) (A) (A) (A) (A) (A) (A) (A)
                 (A) (A) (A) (A) (A) (A) (A) (A) (A) (A) (A) (A)
                 (A) (A) (A) (A) (A) (A) (A) (A) (A) (A) (A) (A)
                 (A) (A) (A) (A) (A) (A) (A) (A) (A) (A) (A) (A)
                 (A) (A) (A) (A) (A) (A) (A) (A) (A) (A) (A) (A)
                 (A) (A) (A) (A) (A) (A) (A) (A) (A) (A) (A) (A)
                 (A) (A) (A) (A) (A) (A) (A) (A) (A) (A) (A) (A)
                 (A) (A) (A) (A) (A) (A) (A)
 The electronic state is 1-A.
 Alpha  occ. eigenvalues --  -18.82215 -18.77104 -10.03741  -9.92923  -9.91852
 Alpha  occ. eigenvalues --   -9.91759  -9.91643  -9.91335  -9.91333  -1.02421
 Alpha  occ. eigenvalues --   -0.94109  -0.79715  -0.70834  -0.69120  -0.60923
 Alpha  occ. eigenvalues --   -0.56235  -0.53733  -0.48864  -0.45232  -0.43138
 Alpha  occ. eigenvalues --   -0.41477  -0.41318  -0.40237  -0.38732  -0.36245
 Alpha  occ. eigenvalues --   -0.34350  -0.32545  -0.31306  -0.29495  -0.25326
 Alpha  occ. eigenvalues --   -0.24930  -0.24638
 Alpha virt. eigenvalues --   -0.09599  -0.05628  -0.00234   0.02730   0.04824
 Alpha virt. eigenvalues --    0.07551   0.08353   0.09797   0.09841   0.10836
 Alpha virt. eigenvalues --    0.11764   0.13760   0.16942   0.17027   0.18037
 Alpha virt. eigenvalues --    0.18535   0.20071   0.20703   0.20809   0.21252
 Alpha virt. eigenvalues --    0.22176   0.22785   0.25643   0.26689   0.27432
 Alpha virt. eigenvalues --    0.27535   0.29427   0.30745   0.32761   0.32902
 Alpha virt. eigenvalues --    0.33846   0.34829   0.36612   0.38544   0.38750
 Alpha virt. eigenvalues --    0.39689   0.40233   0.41968   0.42151   0.44401
 Alpha virt. eigenvalues --    0.45824   0.46094   0.46464   0.46673   0.47198
 Alpha virt. eigenvalues --    0.49822   0.53027   0.55072   0.56205   0.60219
 Alpha virt. eigenvalues --    0.61477   0.62443   0.64603   0.66957   0.72116
 Alpha virt. eigenvalues --    0.72975   0.74751   0.76321   0.77134   0.86193
 Alpha virt. eigenvalues --    0.90630   1.07903   1.11850   1.16772   1.17279
 Alpha virt. eigenvalues --    1.17805   1.18608   1.18812   1.20873   1.22612
 Alpha virt. eigenvalues --    1.23281   1.23581   1.24768   1.28152   1.31018
 Alpha virt. eigenvalues --    1.31610   1.32748   1.35679   1.36915   1.37149
 Alpha virt. eigenvalues --    1.37419   1.38312   1.39716   1.41156   1.41171
 Alpha virt. eigenvalues --    1.43760   1.45033   1.46057   1.46643   1.47093
 Alpha virt. eigenvalues --    1.49208   1.51894   1.56655   1.63528   1.68048
 Alpha virt. eigenvalues --    1.69866   1.70077   1.72532   1.74175   1.76968
 Alpha virt. eigenvalues --    1.78527   1.79133   1.82308   1.83332   1.83885
 Alpha virt. eigenvalues --    1.84517   1.88406   1.90918   1.92715   1.93685
 Alpha virt. eigenvalues --    1.95982   2.00354   2.05862   2.10267   2.15585
 Alpha virt. eigenvalues --    2.19744   2.20342   2.21377   2.22622   2.24092
 Alpha virt. eigenvalues --    2.25400   2.26671   2.27558   2.39435   2.40738
 Alpha virt. eigenvalues --    2.42197   2.44199   2.47386   2.49260   2.50223
 Alpha virt. eigenvalues --    2.53589   2.54380   2.55335   2.55719   2.57438
 Alpha virt. eigenvalues --    2.58256   2.59375   2.61463   2.64091   2.66910
 Alpha virt. eigenvalues --    2.70878   2.71618   2.79706   2.84937   2.85622
 Alpha virt. eigenvalues --    2.91025   2.92884   2.95721   2.96601   2.99092
 Alpha virt. eigenvalues --    3.00497   3.02141   3.05289   3.07945   3.09077
 Alpha virt. eigenvalues --    3.10013   3.17560   3.19260   3.24514   3.30906
 Alpha virt. eigenvalues --    3.39800   3.44192   3.66813   3.82868   4.10079
 Alpha virt. eigenvalues --    4.20009  20.99504  21.51070  21.55634  21.75304
 Alpha virt. eigenvalues --   21.79663  21.83161  21.93904  43.05387  43.14874
          Condensed to atoms (all electrons):
               1          2          3          4          5          6
     1  O    7.960447   0.643812  -0.101492  -0.193727   0.020569   0.001894
     2  C    0.643812   5.019926   0.378743  -0.071077  -0.088600   0.016699
     3  O   -0.101492   0.378743   7.885289  -0.218849   0.013953  -0.001120
     4  C   -0.193727  -0.071077  -0.218849   6.141329   0.284820   0.057636
     5  C    0.020569  -0.088600   0.013953   0.284820   5.268342   0.311051
     6  C    0.001894   0.016699  -0.001120   0.057636   0.311051   5.168176
     7  C    0.000547   0.007829   0.000951  -0.117389   0.016268   0.355565
     8  C   -0.001435   0.001994  -0.002213   0.059087  -0.122986   0.028507
     9  C    0.011995  -0.033986   0.023457   0.217871  -0.000486  -0.128138
    10  H    0.001794  -0.020374   0.288506   0.024672  -0.001086   0.000090
    11  H    0.019024  -0.027387   0.001182  -0.059630   0.423980  -0.039782
    12  H   -0.000076  -0.001528  -0.000000   0.016565  -0.058679   0.433459
    13  H    0.000000   0.000086   0.000001  -0.004871   0.018247  -0.063268
    14  H    0.000001  -0.001065  -0.000104   0.014937  -0.002068   0.013594
    15  H    0.000507  -0.021091   0.013805  -0.057112   0.012127  -0.003398
               7          8          9         10         11         12
     1  O    0.000547  -0.001435   0.011995   0.001794   0.019024  -0.000076
     2  C    0.007829   0.001994  -0.033986  -0.020374  -0.027387  -0.001528
     3  O    0.000951  -0.002213   0.023457   0.288506   0.001182  -0.000000
     4  C   -0.117389   0.059087   0.217871   0.024672  -0.059630   0.016565
     5  C    0.016268  -0.122986  -0.000486  -0.001086   0.423980  -0.058679
     6  C    0.355565   0.028507  -0.128138   0.000090  -0.039782   0.433459
     7  C    5.134751   0.360416   0.007447  -0.000014   0.012167  -0.059589
     8  C    0.360416   5.166966   0.323522   0.000093  -0.003051   0.013642
     9  C    0.007447   0.323522   5.250869  -0.001980   0.013579  -0.001617
    10  H   -0.000014   0.000093  -0.001980   0.373580  -0.000059  -0.000001
    11  H    0.012167  -0.003051   0.013579  -0.000059   0.509445  -0.005509
    12  H   -0.059589   0.013642  -0.001617  -0.000001  -0.005509   0.514672
    13  H    0.438663  -0.062295   0.017216  -0.000000  -0.000127  -0.006822
    14  H   -0.058542   0.429552  -0.052778  -0.000001   0.000041  -0.000146
    15  H    0.012717  -0.049734   0.433323  -0.000381  -0.000145   0.000028
              13         14         15
     1  O    0.000000   0.000001   0.000507
     2  C    0.000086  -0.001065  -0.021091
     3  O    0.000001  -0.000104   0.013805
     4  C   -0.004871   0.014937  -0.057112
     5  C    0.018247  -0.002068   0.012127
     6  C   -0.063268   0.013594  -0.003398
     7  C    0.438663  -0.058542   0.012717
     8  C   -0.062295   0.429552  -0.049734
     9  C    0.017216  -0.052778   0.433323
    10  H   -0.000000  -0.000001  -0.000381
    11  H   -0.000127   0.000041  -0.000145
    12  H   -0.006822  -0.000146   0.000028
    13  H    0.513136  -0.006737  -0.000112
    14  H   -0.006737   0.513249  -0.006115
    15  H   -0.000112  -0.006115   0.500915
 Mulliken charges:
               1
     1  O   -0.363860
     2  C    0.196019
     3  O   -0.282109
     4  C   -0.094260
     5  C   -0.095452
     6  C   -0.150963
     7  C   -0.111786
     8  C   -0.142065
     9  C   -0.080293
    10  H    0.335161
    11  H    0.156273
    12  H    0.155600
    13  H    0.156885
    14  H    0.156183
    15  H    0.164667
 Sum of Mulliken charges =  -0.00000
 Mulliken charges with hydrogens summed into heavy atoms:
               1
     1  O   -0.363860
     2  C    0.196019
     3  O    0.053052
     4  C   -0.094260
     5  C    0.060821
     6  C    0.004637
     7  C    0.045099
     8  C    0.014118
     9  C    0.084374
 Electronic spatial extent (au):  <R**2>=           1186.7338
 Charge=             -0.0000 electrons
 Dipole moment (field-independent basis, Debye):
    X=             -2.0687    Y=             -2.0571    Z=              0.0038  Tot=              2.9174
 Quadrupole moment (field-independent basis, Debye-Ang):
   XX=            -42.1491   YY=            -50.1055   ZZ=            -54.9585
   XY=             -6.9878   XZ=              0.0131   YZ=              0.0277
 Traceless Quadrupole moment (field-independent basis, Debye-Ang):
   XX=              6.9219   YY=             -1.0345   ZZ=             -5.8875
   XY=             -6.9878   XZ=              0.0131   YZ=              0.0277
 Octapole moment (field-independent basis, Debye-Ang**2):
  XXX=             17.1693  YYY=             -4.4585  ZZZ=             -0.0018  XYY=            -11.1848
  XXY=            -24.3946  XXZ=              0.0325  XZZ=             11.6372  YZZ=             -0.1227
  YYZ=              0.0051  XYZ=              0.0233
 Hexadecapole moment (field-independent basis, Debye-Ang**3):
 XXXX=           -870.8197 YYYY=           -372.6956 ZZZZ=            -59.3860 XXXY=            -85.6296
 XXXZ=              0.1321 YYYX=            -12.6578 YYYZ=              0.0771 ZZZX=             -0.0008
 ZZZY=             -0.0231 XXYY=           -243.6881 XXZZ=           -201.9400 YYZZ=            -83.7599
 XXYZ=              0.1102 YYXZ=              0.0185 ZZXY=             -0.9568
 N-N= 4.027031146528D+02 E-N=-1.788736995168D+03  KE= 4.191236992138D+02
 Unable to Open any file for archive entry.
 1\1\GINC-TCN1637\SP\RBP86\TZVP\C7H6O2\ELENAA\22-Feb-2021\0\\# BP86/TZV
 P SCRF=COSMORS geom=CHECKPOINT guess=CHECKPOINT\\COSMO-file for #WPYMK
 LBDIGXBTP-UHFFFAOYSA-N\\0,1\O,0,-2.8076899499,0.2204575394,0.210592242
 5\C,0,-2.117285005,1.2325097745,0.1944654187\O,0,-2.6569920985,2.48391
 67624,0.261864077\C,0,-0.6302334673,1.2459123343,0.0996230227\C,0,0.04
 04722957,0.0113779066,0.0277034488\C,0,1.432839024,-0.0249429623,-0.06
 23787907\C,0,2.1649655142,1.1702896605,-0.0815511865\C,0,1.5013625284,
 2.4021745796,-0.0103464061\C,0,0.1076299911,2.4441016143,0.0801678928\
 H,0,-3.6298351683,2.375937146,0.3199133254\H,0,-0.5433887997,-0.910355
 0854,0.0436362747\H,0,1.9497901461,-0.9846990612,-0.1178372799\H,0,3.2
 542055363,1.1414823132,-0.1521819814\H,0,2.0720501796,3.3325686231,-0.
 0254034039\H,0,-0.4104207268,3.401628855,0.135683346\\Version=ES64L-G1
 6RevC.01\State=1-A\HF=-420.9857347\RMSD=4.245e-09\Dipole=0.8553011,0.7
 646275,-0.0346592\Quadrupole=4.5228422,-0.2019953,-4.320847,-5.4617996
 ,-0.7132074,0.4309702\PG=C01 [X(C7H6O2)]\\@
 The archive entry for this job was punched.


 The chemist is a guest at the physicist's table and
 frequently dines well.
                   -- Richard Bersohn
 Job cpu time:       0 days  0 hours  4 minutes 16.1 seconds.
 Elapsed time:       0 days  0 hours  0 minutes  8.4 seconds.
 File lengths (MBytes):  RWF=     39 Int=      0 D2E=      0 Chk=      6 Scr=      1
 Normal termination of Gaussian 16 at Mon Feb 22 21:26:16 2021.
