 Entering Gaussian System, Link 0=g16
 Input=WQZGKKKJIJFFOK-HGVZOGFYSA-N.gjf
 Output=WQZGKKKJIJFFOK-HGVZOGFYSA-N.log
 Initial command:
 /sw/arch/RedHatEnterpriseServer7/EB_production/2019/software/Gaussian/g16.c01/l1.exe "/scratch-local/elenaa.9715292/Gau-16761.inp" -scrdir="/scratch-local/elenaa.9715292/"
 Entering Link 1 = /sw/arch/RedHatEnterpriseServer7/EB_production/2019/software/Gaussian/g16.c01/l1.exe PID=     16762.
  
 Copyright (c) 1988-2019, Gaussian, Inc.  All Rights Reserved.
  
 This is part of the Gaussian(R) 16 program.  It is based on
 the Gaussian(R) 09 system (copyright 2009, Gaussian, Inc.),
 the Gaussian(R) 03 system (copyright 2003, Gaussian, Inc.),
 the Gaussian(R) 98 system (copyright 1998, Gaussian, Inc.),
 the Gaussian(R) 94 system (copyright 1995, Gaussian, Inc.),
 the Gaussian 92(TM) system (copyright 1992, Gaussian, Inc.),
 the Gaussian 90(TM) system (copyright 1990, Gaussian, Inc.),
 the Gaussian 88(TM) system (copyright 1988, Gaussian, Inc.),
 the Gaussian 86(TM) system (copyright 1986, Carnegie Mellon
 University), and the Gaussian 82(TM) system (copyright 1983,
 Carnegie Mellon University). Gaussian is a federally registered
 trademark of Gaussian, Inc.
  
 This software contains proprietary and confidential information,
 including trade secrets, belonging to Gaussian, Inc.
  
 This software is provided under written license and may be
 used, copied, transmitted, or stored only in accord with that
 written license.
  
 The following legend is applicable only to US Government
 contracts under FAR:
  
                    RESTRICTED RIGHTS LEGEND
  
 Use, reproduction and disclosure by the US Government is
 subject to restrictions as set forth in subparagraphs (a)
 and (c) of the Commercial Computer Software - Restricted
 Rights clause in FAR 52.227-19.
  
 Gaussian, Inc.
 340 Quinnipiac St., Bldg. 40, Wallingford CT 06492
  
  
 ---------------------------------------------------------------
 Warning -- This program may not be used in any manner that
 competes with the business of Gaussian, Inc. or will provide
 assistance to any competitor of Gaussian, Inc.  The licensee
 of this program is prohibited from giving any competitor of
 Gaussian, Inc. access to this program.  By using this program,
 the user acknowledges that Gaussian, Inc. is engaged in the
 business of creating and licensing software in the field of
 computational chemistry and represents and warrants to the
 licensee that it is not a competitor of Gaussian, Inc. and that
 it will not use this program in any manner prohibited above.
 ---------------------------------------------------------------
  

 Cite this work as:
 Gaussian 16, Revision C.01,
 M. J. Frisch, G. W. Trucks, H. B. Schlegel, G. E. Scuseria, 
 M. A. Robb, J. R. Cheeseman, G. Scalmani, V. Barone, 
 G. A. Petersson, H. Nakatsuji, X. Li, M. Caricato, A. V. Marenich, 
 J. Bloino, B. G. Janesko, R. Gomperts, B. Mennucci, H. P. Hratchian, 
 J. V. Ortiz, A. F. Izmaylov, J. L. Sonnenberg, D. Williams-Young, 
 F. Ding, F. Lipparini, F. Egidi, J. Goings, B. Peng, A. Petrone, 
 T. Henderson, D. Ranasinghe, V. G. Zakrzewski, J. Gao, N. Rega, 
 G. Zheng, W. Liang, M. Hada, M. Ehara, K. Toyota, R. Fukuda, 
 J. Hasegawa, M. Ishida, T. Nakajima, Y. Honda, O. Kitao, H. Nakai, 
 T. Vreven, K. Throssell, J. A. Montgomery, Jr., J. E. Peralta, 
 F. Ogliaro, M. J. Bearpark, J. J. Heyd, E. N. Brothers, K. N. Kudin, 
 V. N. Staroverov, T. A. Keith, R. Kobayashi, J. Normand, 
 K. Raghavachari, A. P. Rendell, J. C. Burant, S. S. Iyengar, 
 J. Tomasi, M. Cossi, J. M. Millam, M. Klene, C. Adamo, R. Cammi, 
 J. W. Ochterski, R. L. Martin, K. Morokuma, O. Farkas, 
 J. B. Foresman, and D. J. Fox, Gaussian, Inc., Wallingford CT, 2019.
 
 ******************************************
 Gaussian 16:  ES64L-G16RevC.01  3-Jul-2019
                22-Feb-2021 
 ******************************************
 %chk=WQZGKKKJIJFFOK-HGVZOGFYSA-N.chk
 %NProcShared=32
 Will use up to   32 processors via shared memory.
 -------------------------------------------------------------
 #P BP86/TZVP EmpiricalDispersion=GD3 SCRF=(Solvent=Water) Opt
 -------------------------------------------------------------
 1/18=20,19=15,26=3,38=1/1,3;
 2/9=110,12=2,17=6,18=5,40=1/2;
 3/5=19,7=101,11=2,25=1,30=1,70=2201,71=1,72=1,74=404,124=31/1,2,3;
 4//1;
 5/5=2,38=5,53=1/2;
 6/7=2,8=2,9=2,10=2,28=1/1;
 7//1,2,3,16;
 1/18=20,19=15,26=3/3(2);
 2/9=110/2;
 99//99;
 2/9=110/2;
 3/5=19,7=101,11=2,25=1,30=1,70=2205,71=1,72=1,74=404,124=31/1,2,3;
 4/5=5,16=3,69=1/1;
 5/5=2,38=5,53=1/2;
 7//1,2,3,16;
 1/18=20,19=15,26=3/3(-5);
 2/9=110/2;
 6/7=2,8=2,9=2,10=2,19=2,28=1/1;
 99/9=1/99;
 Leave Link    1 at Mon Feb 22 21:24:53 2021, MaxMem=           0 cpu:               2.1 elap:               0.1
 (Enter /sw/arch/RedHatEnterpriseServer7/EB_production/2019/software/Gaussian/g16.c01/l101.exe)
 -------------------------------------
 Particle #WQZGKKKJIJFFOK-HGVZOGFYSA-N
 -------------------------------------
 Symbolic Z-matrix:
 Charge =  0 Multiplicity = 1
 O                     2.20571   0.9986   -3.91909 
 C                     0.90666   0.59249  -4.34351 
 C                    -0.17081   1.5442   -3.75472 
 O                    -0.07647   1.66606  -2.31437 
 C                    -0.9556    2.62926  -1.69613 
 O                    -0.59482   3.91519  -2.19356 
 C                    -2.44402   2.35488  -2.03851 
 O                    -2.90893   1.19817  -1.34528 
 C                    -2.66804   2.20566  -3.56867 
 O                    -4.0049    1.78158  -3.84308 
 C                    -1.63523   1.22154  -4.18789 
 O                    -1.70713   1.30484  -5.61444 
 H                     2.8167    0.35959  -4.34297 
 H                     0.87156   0.62366  -5.43429 
 H                     0.752    -0.43851  -4.02291 
 H                     0.06521   2.5365   -4.14911 
 H                    -0.8061    2.63672  -0.61375 
 H                     0.35933   4.0136   -1.989 
 H                    -3.03974   3.2019   -1.68658 
 H                    -2.79752   1.40651  -0.39335 
 H                    -2.5491    3.18733  -4.03852 
 H                    -4.5792    2.45439  -3.41917 
 H                    -1.89256   0.19496  -3.91328 
 H                    -2.63179   1.07193  -5.84422 
 
 ITRead=  0  0  0  0  0  0  0  0  0  0  0  0  0  0  0  0  0  0  0  0
 ITRead=  0  0  0  0
 MicOpt= -1 -1 -1 -1 -1 -1 -1 -1 -1 -1 -1 -1 -1 -1 -1 -1 -1 -1 -1 -1
 MicOpt= -1 -1 -1 -1
 NAtoms=     24 NQM=       24 NQMF=       0 NMMI=      0 NMMIF=      0
                NMic=       0 NMicF=      0.
                    Isotopes and Nuclear Properties:
 (Nuclear quadrupole moments (NQMom) in fm**2, nuclear magnetic moments (NMagM)
  in nuclear magnetons)

  Atom         1           2           3           4           5           6           7           8           9          10
 IAtWgt=          16          12          12          16          12          16          12          16          12          16
 AtmWgt=  15.9949146  12.0000000  12.0000000  15.9949146  12.0000000  15.9949146  12.0000000  15.9949146  12.0000000  15.9949146
 NucSpn=           0           0           0           0           0           0           0           0           0           0
 AtZEff=  -0.0000000  -0.0000000  -0.0000000  -0.0000000  -0.0000000  -0.0000000  -0.0000000  -0.0000000  -0.0000000  -0.0000000
 NQMom=    0.0000000   0.0000000   0.0000000   0.0000000   0.0000000   0.0000000   0.0000000   0.0000000   0.0000000   0.0000000
 NMagM=    0.0000000   0.0000000   0.0000000   0.0000000   0.0000000   0.0000000   0.0000000   0.0000000   0.0000000   0.0000000
 AtZNuc=   8.0000000   6.0000000   6.0000000   8.0000000   6.0000000   8.0000000   6.0000000   8.0000000   6.0000000   8.0000000

  Atom        11          12          13          14          15          16          17          18          19          20
 IAtWgt=          12          16           1           1           1           1           1           1           1           1
 AtmWgt=  12.0000000  15.9949146   1.0078250   1.0078250   1.0078250   1.0078250   1.0078250   1.0078250   1.0078250   1.0078250
 NucSpn=           0           0           1           1           1           1           1           1           1           1
 AtZEff=  -0.0000000  -0.0000000  -0.0000000  -0.0000000  -0.0000000  -0.0000000  -0.0000000  -0.0000000  -0.0000000  -0.0000000
 NQMom=    0.0000000   0.0000000   0.0000000   0.0000000   0.0000000   0.0000000   0.0000000   0.0000000   0.0000000   0.0000000
 NMagM=    0.0000000   0.0000000   2.7928460   2.7928460   2.7928460   2.7928460   2.7928460   2.7928460   2.7928460   2.7928460
 AtZNuc=   6.0000000   8.0000000   1.0000000   1.0000000   1.0000000   1.0000000   1.0000000   1.0000000   1.0000000   1.0000000

  Atom        21          22          23          24
 IAtWgt=           1           1           1           1
 AtmWgt=   1.0078250   1.0078250   1.0078250   1.0078250
 NucSpn=           1           1           1           1
 AtZEff=  -0.0000000  -0.0000000  -0.0000000  -0.0000000
 NQMom=    0.0000000   0.0000000   0.0000000   0.0000000
 NMagM=    2.7928460   2.7928460   2.7928460   2.7928460
 AtZNuc=   1.0000000   1.0000000   1.0000000   1.0000000
 Leave Link  101 at Mon Feb 22 21:24:54 2021, MaxMem=   104857600 cpu:               2.7 elap:               0.1
 (Enter /sw/arch/RedHatEnterpriseServer7/EB_production/2019/software/Gaussian/g16.c01/l103.exe)

 GradGradGradGradGradGradGradGradGradGradGradGradGradGradGradGradGradGrad
 Berny optimization.
 Initialization pass.
                           ----------------------------
                           !    Initial Parameters    !
                           ! (Angstroms and Degrees)  !
 --------------------------                            --------------------------
 ! Name  Definition              Value          Derivative Info.                !
 --------------------------------------------------------------------------------
 ! R1    R(1,2)                  1.4257         estimate D2E/DX2                !
 ! R2    R(1,13)                 0.9805         estimate D2E/DX2                !
 ! R3    R(2,3)                  1.5535         estimate D2E/DX2                !
 ! R4    R(2,14)                 1.0918         estimate D2E/DX2                !
 ! R5    R(2,15)                 1.0907         estimate D2E/DX2                !
 ! R6    R(3,4)                  1.4486         estimate D2E/DX2                !
 ! R7    R(3,11)                 1.5609         estimate D2E/DX2                !
 ! R8    R(3,16)                 1.0936         estimate D2E/DX2                !
 ! R9    R(4,5)                  1.4432         estimate D2E/DX2                !
 ! R10   R(5,6)                  1.4252         estimate D2E/DX2                !
 ! R11   R(5,7)                  1.5517         estimate D2E/DX2                !
 ! R12   R(5,17)                 1.0927         estimate D2E/DX2                !
 ! R13   R(6,18)                 0.9808         estimate D2E/DX2                !
 ! R14   R(7,8)                  1.4264         estimate D2E/DX2                !
 ! R15   R(7,9)                  1.5537         estimate D2E/DX2                !
 ! R16   R(7,19)                 1.0937         estimate D2E/DX2                !
 ! R17   R(8,20)                 0.9808         estimate D2E/DX2                !
 ! R18   R(9,10)                 1.4291         estimate D2E/DX2                !
 ! R19   R(9,11)                 1.5552         estimate D2E/DX2                !
 ! R20   R(9,21)                 1.0948         estimate D2E/DX2                !
 ! R21   R(10,22)                0.9809         estimate D2E/DX2                !
 ! R22   R(11,12)                1.4308         estimate D2E/DX2                !
 ! R23   R(11,23)                1.0934         estimate D2E/DX2                !
 ! R24   R(12,24)                0.9808         estimate D2E/DX2                !
 ! A1    A(2,1,13)             104.6823         estimate D2E/DX2                !
 ! A2    A(1,2,3)              110.1593         estimate D2E/DX2                !
 ! A3    A(1,2,14)             108.5769         estimate D2E/DX2                !
 ! A4    A(1,2,15)             108.1167         estimate D2E/DX2                !
 ! A5    A(3,2,14)             109.8083         estimate D2E/DX2                !
 ! A6    A(3,2,15)             111.6742         estimate D2E/DX2                !
 ! A7    A(14,2,15)            108.4269         estimate D2E/DX2                !
 ! A8    A(2,3,4)              112.5337         estimate D2E/DX2                !
 ! A9    A(2,3,11)             114.7652         estimate D2E/DX2                !
 ! A10   A(2,3,16)             105.6355         estimate D2E/DX2                !
 ! A11   A(4,3,11)             110.759          estimate D2E/DX2                !
 ! A12   A(4,3,16)             105.5575         estimate D2E/DX2                !
 ! A13   A(11,3,16)            106.8562         estimate D2E/DX2                !
 ! A14   A(3,4,5)              116.2586         estimate D2E/DX2                !
 ! A15   A(4,5,6)              107.3655         estimate D2E/DX2                !
 ! A16   A(4,5,7)              111.8244         estimate D2E/DX2                !
 ! A17   A(4,5,17)             110.2156         estimate D2E/DX2                !
 ! A18   A(6,5,7)              108.9864         estimate D2E/DX2                !
 ! A19   A(6,5,17)             107.7544         estimate D2E/DX2                !
 ! A20   A(7,5,17)             110.5488         estimate D2E/DX2                !
 ! A21   A(5,6,18)             105.3079         estimate D2E/DX2                !
 ! A22   A(5,7,8)              110.4129         estimate D2E/DX2                !
 ! A23   A(5,7,9)              111.8758         estimate D2E/DX2                !
 ! A24   A(5,7,19)             108.3319         estimate D2E/DX2                !
 ! A25   A(8,7,9)              110.7176         estimate D2E/DX2                !
 ! A26   A(8,7,19)             107.104          estimate D2E/DX2                !
 ! A27   A(9,7,19)             108.2253         estimate D2E/DX2                !
 ! A28   A(7,8,20)             105.213          estimate D2E/DX2                !
 ! A29   A(7,9,10)             110.64           estimate D2E/DX2                !
 ! A30   A(7,9,11)             110.926          estimate D2E/DX2                !
 ! A31   A(7,9,21)             108.7166         estimate D2E/DX2                !
 ! A32   A(10,9,11)            110.9163         estimate D2E/DX2                !
 ! A33   A(10,9,21)            106.5776         estimate D2E/DX2                !
 ! A34   A(11,9,21)            108.9278         estimate D2E/DX2                !
 ! A35   A(9,10,22)            105.1386         estimate D2E/DX2                !
 ! A36   A(3,11,9)             112.4431         estimate D2E/DX2                !
 ! A37   A(3,11,12)            108.1683         estimate D2E/DX2                !
 ! A38   A(3,11,23)            110.1936         estimate D2E/DX2                !
 ! A39   A(9,11,12)            109.0731         estimate D2E/DX2                !
 ! A40   A(9,11,23)            109.7447         estimate D2E/DX2                !
 ! A41   A(12,11,23)           107.0526         estimate D2E/DX2                !
 ! A42   A(11,12,24)           105.4931         estimate D2E/DX2                !
 ! D1    D(13,1,2,3)          -179.1503         estimate D2E/DX2                !
 ! D2    D(13,1,2,14)          -58.8709         estimate D2E/DX2                !
 ! D3    D(13,1,2,15)           58.5692         estimate D2E/DX2                !
 ! D4    D(1,2,3,4)            -53.8586         estimate D2E/DX2                !
 ! D5    D(1,2,3,11)           178.2616         estimate D2E/DX2                !
 ! D6    D(1,2,3,16)            60.8278         estimate D2E/DX2                !
 ! D7    D(14,2,3,4)          -173.3927         estimate D2E/DX2                !
 ! D8    D(14,2,3,11)           58.7275         estimate D2E/DX2                !
 ! D9    D(14,2,3,16)          -58.7063         estimate D2E/DX2                !
 ! D10   D(15,2,3,4)            66.2971         estimate D2E/DX2                !
 ! D11   D(15,2,3,11)          -61.5827         estimate D2E/DX2                !
 ! D12   D(15,2,3,16)         -179.0165         estimate D2E/DX2                !
 ! D13   D(2,3,4,5)            174.2483         estimate D2E/DX2                !
 ! D14   D(11,3,4,5)           -55.7897         estimate D2E/DX2                !
 ! D15   D(16,3,4,5)            59.5145         estimate D2E/DX2                !
 ! D16   D(2,3,11,9)           180.0            estimate D2E/DX2                !
 ! D17   D(2,3,11,12)          -59.4922         estimate D2E/DX2                !
 ! D18   D(2,3,11,23)           57.2228         estimate D2E/DX2                !
 ! D19   D(4,3,11,9)            51.2292         estimate D2E/DX2                !
 ! D20   D(4,3,11,12)          171.7369         estimate D2E/DX2                !
 ! D21   D(4,3,11,23)          -71.548          estimate D2E/DX2                !
 ! D22   D(16,3,11,9)          -63.2617         estimate D2E/DX2                !
 ! D23   D(16,3,11,12)          57.246          estimate D2E/DX2                !
 ! D24   D(16,3,11,23)         173.961          estimate D2E/DX2                !
 ! D25   D(3,4,5,6)            -63.1415         estimate D2E/DX2                !
 ! D26   D(3,4,5,7)             56.3592         estimate D2E/DX2                !
 ! D27   D(3,4,5,17)           179.7531         estimate D2E/DX2                !
 ! D28   D(4,5,6,18)           -55.9756         estimate D2E/DX2                !
 ! D29   D(7,5,6,18)          -177.2759         estimate D2E/DX2                !
 ! D30   D(17,5,6,18)           62.7288         estimate D2E/DX2                !
 ! D31   D(4,5,7,8)             72.3258         estimate D2E/DX2                !
 ! D32   D(4,5,7,9)            -51.466          estimate D2E/DX2                !
 ! D33   D(4,5,7,19)          -170.6801         estimate D2E/DX2                !
 ! D34   D(6,5,7,8)           -169.1329         estimate D2E/DX2                !
 ! D35   D(6,5,7,9)             67.0753         estimate D2E/DX2                !
 ! D36   D(6,5,7,19)           -52.1388         estimate D2E/DX2                !
 ! D37   D(17,5,7,8)           -50.8797         estimate D2E/DX2                !
 ! D38   D(17,5,7,9)          -174.6715         estimate D2E/DX2                !
 ! D39   D(17,5,7,19)           66.1145         estimate D2E/DX2                !
 ! D40   D(5,7,8,20)            60.0            estimate D2E/DX2                !
 ! D41   D(9,7,8,20)          -175.5419         estimate D2E/DX2                !
 ! D42   D(19,7,8,20)          -57.7518         estimate D2E/DX2                !
 ! D43   D(5,7,9,10)           172.3891         estimate D2E/DX2                !
 ! D44   D(5,7,9,11)            48.853          estimate D2E/DX2                !
 ! D45   D(5,7,9,21)           -70.8976         estimate D2E/DX2                !
 ! D46   D(8,7,9,10)            48.7687         estimate D2E/DX2                !
 ! D47   D(8,7,9,11)           -74.7674         estimate D2E/DX2                !
 ! D48   D(8,7,9,21)           165.4819         estimate D2E/DX2                !
 ! D49   D(19,7,9,10)          -68.3339         estimate D2E/DX2                !
 ! D50   D(19,7,9,11)          168.13           estimate D2E/DX2                !
 ! D51   D(19,7,9,21)           48.3793         estimate D2E/DX2                !
 ! D52   D(7,9,10,22)           56.4583         estimate D2E/DX2                !
 ! D53   D(11,9,10,22)         180.0            estimate D2E/DX2                !
 ! D54   D(21,9,10,22)         -61.5695         estimate D2E/DX2                !
 ! D55   D(7,9,11,3)           -49.137          estimate D2E/DX2                !
 ! D56   D(7,9,11,12)         -169.1219         estimate D2E/DX2                !
 ! D57   D(7,9,11,23)           73.8924         estimate D2E/DX2                !
 ! D58   D(10,9,11,3)         -172.5145         estimate D2E/DX2                !
 ! D59   D(10,9,11,12)          67.5006         estimate D2E/DX2                !
 ! D60   D(10,9,11,23)         -49.4851         estimate D2E/DX2                !
 ! D61   D(21,9,11,3)           70.4874         estimate D2E/DX2                !
 ! D62   D(21,9,11,12)         -49.4975         estimate D2E/DX2                !
 ! D63   D(21,9,11,23)        -166.4833         estimate D2E/DX2                !
 ! D64   D(3,11,12,24)         178.4655         estimate D2E/DX2                !
 ! D65   D(9,11,12,24)         -58.9459         estimate D2E/DX2                !
 ! D66   D(23,11,12,24)         59.736          estimate D2E/DX2                !
 --------------------------------------------------------------------------------
 Trust Radius=3.00D-01 FncErr=1.00D-07 GrdErr=1.00D-06 EigMax=2.50D+02 EigMin=1.00D-04
 Number of steps in this run=    142 maximum allowed number of steps=    144.
 GradGradGradGradGradGradGradGradGradGradGradGradGradGradGradGradGradGrad

 Leave Link  103 at Mon Feb 22 21:24:54 2021, MaxMem=   104857600 cpu:               0.6 elap:               0.1
 (Enter /sw/arch/RedHatEnterpriseServer7/EB_production/2019/software/Gaussian/g16.c01/l202.exe)
                          Input orientation:                          
 ---------------------------------------------------------------------
 Center     Atomic      Atomic             Coordinates (Angstroms)
 Number     Number       Type             X           Y           Z
 ---------------------------------------------------------------------
      1          8           0        2.205710    0.998602   -3.919090
      2          6           0        0.906656    0.592492   -4.343510
      3          6           0       -0.170807    1.544197   -3.754722
      4          8           0       -0.076470    1.666060   -2.314370
      5          6           0       -0.955600    2.629260   -1.696130
      6          8           0       -0.594820    3.915190   -2.193560
      7          6           0       -2.444020    2.354880   -2.038510
      8          8           0       -2.908931    1.198168   -1.345279
      9          6           0       -2.668045    2.205660   -3.568671
     10          8           0       -4.004900    1.781575   -3.843077
     11          6           0       -1.635233    1.221542   -4.187895
     12          8           0       -1.707128    1.304842   -5.614439
     13          1           0        2.816699    0.359592   -4.342967
     14          1           0        0.871560    0.623661   -5.434290
     15          1           0        0.751995   -0.438508   -4.022907
     16          1           0        0.065207    2.536501   -4.149113
     17          1           0       -0.806100    2.636720   -0.613750
     18          1           0        0.359330    4.013600   -1.989000
     19          1           0       -3.039744    3.201902   -1.686581
     20          1           0       -2.797524    1.406508   -0.393351
     21          1           0       -2.549099    3.187329   -4.038518
     22          1           0       -4.579197    2.454395   -3.419167
     23          1           0       -1.892565    0.194958   -3.913281
     24          1           0       -2.631795    1.071928   -5.844222
 ---------------------------------------------------------------------
                    Distance matrix (angstroms):
                    1          2          3          4          5
     1  O    0.000000
     2  C    1.425692   0.000000
     3  C    2.443875   1.553493   0.000000
     4  O    2.868618   2.497298   1.448573   0.000000
     5  C    4.194577   3.824270   2.455822   1.443206   0.000000
     6  O    4.396238   4.232852   2.870300   2.311248   1.425207
     7  C    5.195773   4.432388   2.961433   2.481102   1.551742
     8  O    5.729213   4.890290   3.663670   3.029999   2.446758
     9  C    5.033216   3.997646   2.590047   2.929283   2.572608
    10  O    6.260232   5.078163   3.842451   4.216972   3.824419
    11  C    3.856786   2.623189   1.560862   2.477385   2.941507
    12  O    4.275312   2.992419   2.424071   3.698646   4.203811
    13  H    0.980466   1.924190   3.267187   3.767292   5.136865
    14  H    2.053380   1.091790   2.180565   3.423340   4.618959
    15  H    2.046790   1.090719   2.203318   2.834548   4.212003
    16  H    2.645713   2.127204   1.093578   2.035687   2.658529
    17  H    4.762321   4.585140   3.385692   2.089653   1.092681
    18  H    4.027974   4.188945   3.081683   2.409716   1.931634
    19  H    6.111744   5.426082   3.905892   3.396163   2.161404
    20  H    6.134295   5.476069   4.268187   3.340931   2.566134
    21  H    5.235742   4.332256   2.904599   3.376513   2.887466
    22  H    6.957313   5.866487   4.513863   4.702828   4.016203
    23  H    4.176330   2.859854   2.193180   2.831759   3.423374
    24  H    5.207011   3.873323   3.262746   4.398015   4.737254
                    6          7          8          9         10
     6  O    0.000000
     7  C    2.424489   0.000000
     8  O    3.668365   1.426427   0.000000
     9  C    3.018556   1.553656   2.452863   0.000000
    10  O    4.347628   2.453872   2.789356   1.429101   0.000000
    11  C    3.509355   2.560946   3.115015   1.555193   2.459240
    12  O    4.444498   3.799060   4.436377   2.433105   2.940197
    13  H    5.375936   6.080038   6.517069   5.838657   6.986139
    14  H    4.846315   5.051882   5.598409   4.302564   5.258573
    15  H    4.910714   4.685655   4.821907   4.346795   5.252539
    16  H    2.482057   3.283877   4.300944   2.813722   4.150825
    17  H    2.043263   2.189100   2.650748   3.519120   4.625165
    18  H    0.980781   3.257695   4.361487   3.863807   5.240805
    19  H    2.596818   1.093704   2.036799   2.161694   2.756688
    20  H    3.792907   1.931560   0.980808   3.276899   3.674104
    21  H    2.784395   2.168881   3.367459   1.094796   2.033150
    22  H    4.417159   2.544621   2.944300   1.933060   0.980919
    23  H    4.299036   2.912753   2.938378   2.182441   2.642772
    24  H    5.055763   4.020531   4.509238   2.542596   2.528557
                   11         12         13         14         15
    11  C    0.000000
    12  O    1.430782   0.000000
    13  H    4.537257   4.793240   0.000000
    14  H    2.862687   2.673218   2.245948   0.000000
    15  H    2.912361   3.408744   2.236605   1.770453   0.000000
    16  H    2.149911   2.608704   3.513861   2.441484   3.055861
    17  H    3.932519   5.252870   5.676006   5.486762   4.848406
    18  H    4.075415   4.975081   4.993155   4.860462   4.910421
    19  H    3.485835   4.561005   7.030863   5.999246   5.752242
    20  H    3.972870   5.334704   6.943703   6.283797   5.401560
    21  H    2.172966   2.595419   6.072938   4.496830   4.903485
    22  H    3.282954   3.793345   7.742149   6.092869   6.095490
    23  H    1.093393   2.039649   4.731691   3.183966   2.721580
    24  H    1.938798   0.980845   5.696250   3.555627   4.129000
                   16         17         18         19         20
    16  H    0.000000
    17  H    3.642528   0.000000
    18  H    2.633328   2.268334   0.000000
    19  H    4.018400   2.541567   3.507708   0.000000
    20  H    4.855704   2.351121   4.394173   2.225883   0.000000
    21  H    2.696369   3.882042   3.652698   2.402613   4.064515
    22  H    4.702132   4.705302   5.372666   2.435269   3.664422
    23  H    3.061259   4.246117   4.832796   3.913557   3.831020
    24  H    3.506022   5.756698   5.697631   4.689263   5.463644
                   21         22         23         24
    21  H    0.000000
    22  H    2.245459   0.000000
    23  H    3.066106   3.545024   0.000000
    24  H    2.782504   3.403598   2.245901   0.000000
 Stoichiometry    C6H12O6
 Framework group  C1[X(C6H12O6)]
 Deg. of freedom    66
 Full point group                 C1      NOp   1
 Largest Abelian subgroup         C1      NOp   1
 Largest concise Abelian subgroup C1      NOp   1
                         Standard orientation:                         
 ---------------------------------------------------------------------
 Center     Atomic      Atomic             Coordinates (Angstroms)
 Number     Number       Type             X           Y           Z
 ---------------------------------------------------------------------
      1          8           0        3.504858   -0.355270   -0.189706
      2          6           0        2.514557    0.635651   -0.454238
      3          6           0        1.131174    0.163940    0.072147
      4          8           0        0.756522   -1.137940   -0.440793
      5          6           0       -0.454101   -1.711531    0.096078
      6          8           0       -0.245180   -1.917342    1.490785
      7          6           0       -1.673400   -0.771657   -0.098473
      8          8           0       -2.066077   -0.743474   -1.469496
      9          6           0       -1.386088    0.664265    0.420590
     10          8           0       -2.453033    1.548817    0.071987
     11          6           0       -0.027977    1.190574   -0.124533
     12          8           0        0.319197    2.393509    0.567965
     13          1           0        4.337937    0.026746   -0.538069
     14          1           0        2.805469    1.560718    0.047386
     15          1           0        2.495701    0.817734   -1.529486
     16          1           0        1.256227    0.029550    1.150208
     17          1           0       -0.644559   -2.686181   -0.359703
     18          1           0        0.557635   -2.477353    1.552484
     19          1           0       -2.515274   -1.178429    0.468953
     20          1           0       -2.295627   -1.671055   -1.690591
     21          1           0       -1.344600    0.640699    1.514346
     22          1           0       -3.259326    1.140336    0.453086
     23          1           0       -0.129189    1.447453   -1.182491
     24          1           0       -0.419673    3.015934    0.398507
 ---------------------------------------------------------------------
 Rotational constants (GHZ):           1.1989711           0.7420376           0.5571874
 Leave Link  202 at Mon Feb 22 21:24:54 2021, MaxMem=   104857600 cpu:               0.3 elap:               0.0
 (Enter /sw/arch/RedHatEnterpriseServer7/EB_production/2019/software/Gaussian/g16.c01/l301.exe)
 Standard basis: TZVP (5D, 7F)
 Ernie: Thresh=  0.10000D-02 Tol=  0.10000D-05 Strict=F.
 There are   312 symmetry adapted cartesian basis functions of A   symmetry.
 There are   300 symmetry adapted basis functions of A   symmetry.
   300 basis functions,   516 primitive gaussians,   312 cartesian basis functions
    48 alpha electrons       48 beta electrons
       nuclear repulsion energy       822.5352253026 Hartrees.
 IExCor=  404 DFT=T Ex=B Corr=P86 ExCW=0 ScaHFX=  0.000000
 ScaDFX=  1.000000  1.000000  1.000000  1.000000 ScalE2=  1.000000  1.000000
 IRadAn=      5 IRanWt=     -1 IRanGd=            0 ICorTp=0 IEmpDi=131
 NAtoms=   24 NActive=   24 NUniq=   24 SFac= 1.00D+00 NAtFMM=   60 NAOKFM=F Big=F
 Integral buffers will be    131072 words long.
 Raffenetti 2 integral format.
 Two-electron integral symmetry is turned on.
 R6Disp:  Grimme-D3 Dispersion energy=       -0.0283381303 Hartrees.
 Nuclear repulsion after empirical dispersion term =      822.5068871723 Hartrees.
 ------------------------------------------------------------------------------
 Polarizable Continuum Model (PCM)
 =================================
 Model                : PCM.
 Atomic radii         : UFF (Universal Force Field).
 Polarization charges : Total charges.
 Charge compensation  : None.
 Solution method      : On-the-fly selection.
 Cavity type          : Scaled VdW (van der Waals Surface) (Alpha=1.100).
 Cavity algorithm     : GePol (No added spheres)
                        Default sphere list used, NSphG=   24.
                        Lebedev-Laikov grids with approx.  5.0 points / Ang**2.
                        Smoothing algorithm: York/Karplus (Gamma=1.0000).
                        Polarization charges: spherical gaussians, with
                                              point-specific exponents (IZeta= 3).
                        Self-potential: point-specific (ISelfS= 7).
                        Self-field    : sphere-specific E.n sum rule (ISelfD= 2).
 1st derivatives      : Analytical E(r).r(x)/FMM algorithm (CHGder, D1EAlg=3).
                        Cavity 1st derivative terms included.
 Solvent              : Water, Eps=  78.355300 Eps(inf)=   1.777849
 ------------------------------------------------------------------------------
 GePol: Number of generator spheres                  =      24
 GePol: Total number of spheres                      =      24
 GePol: Number of exposed spheres                    =      24 (100.00%)
 GePol: Number of points                             =    1755
 GePol: Average weight of points                     =       0.13
 GePol: Minimum weight of points                     =   0.30D-08
 GePol: Maximum weight of points                     =    0.20577
 GePol: Number of points with low weight             =     101
 GePol: Fraction of low-weight points (<1% of avg)   =       5.75%
 GePol: Cavity surface area                          =    232.514 Ang**2
 GePol: Cavity volume                                =    238.075 Ang**3
 Leave Link  301 at Mon Feb 22 21:24:54 2021, MaxMem=   104857600 cpu:               3.1 elap:               0.1
 (Enter /sw/arch/RedHatEnterpriseServer7/EB_production/2019/software/Gaussian/g16.c01/l302.exe)
 NPDir=0 NMtPBC=     1 NCelOv=     1 NCel=       1 NClECP=     1 NCelD=      1
         NCelK=      1 NCelE2=     1 NClLst=     1 CellRange=     0.0.
 One-electron integrals computed using PRISM.
 One-electron integral symmetry used in STVInt
 PrsmSu:  requested number of processors reduced to:  28 ShMem   1 Linda.
 NBasis=   300 RedAO= T EigKep=  6.17D-05  NBF=   300
 NBsUse=   300 1.00D-06 EigRej= -1.00D+00 NBFU=   300
 Precomputing XC quadrature grid using
 IXCGrd= 4 IRadAn=           5 IRanWt=          -1 IRanGd=           0 AccXCQ= 0.00D+00.
 Generated NRdTot=       0 NPtTot=           0 NUsed=           0 NTot=          32
 NSgBfM=   308   308   308   308   308 MxSgAt=    24 MxSgA2=    24.
 Leave Link  302 at Mon Feb 22 21:24:55 2021, MaxMem=   104857600 cpu:              10.5 elap:               0.4
 (Enter /sw/arch/RedHatEnterpriseServer7/EB_production/2019/software/Gaussian/g16.c01/l303.exe)
 DipDrv:  MaxL=1.
 Leave Link  303 at Mon Feb 22 21:24:55 2021, MaxMem=   104857600 cpu:               2.3 elap:               0.1
 (Enter /sw/arch/RedHatEnterpriseServer7/EB_production/2019/software/Gaussian/g16.c01/l401.exe)
 ExpMin= 9.52D-02 ExpMax= 2.70D+04 ExpMxC= 9.22D+02 IAcc=3 IRadAn=         5 AccDes= 0.00D+00
 Harris functional with IExCor=  404 and IRadAn=       5 diagonalized for initial guess.
 HarFok:  IExCor=  404 AccDes= 0.00D+00 IRadAn=         5 IDoV= 1 UseB2=F ITyADJ=14
 ICtDFT=  3500011 ScaDFX=  1.000000  1.000000  1.000000  1.000000
 FoFCou: FMM=F IPFlag=           0 FMFlag=      100000 FMFlg1=           0
         NFxFlg=           0 DoJE=T BraDBF=F KetDBF=T FulRan=T
         wScrn=  0.000000 ICntrl=       500 IOpCl=  0 I1Cent=   200000004 NGrid=           0
         NMat0=    1 NMatS0=      1 NMatT0=    0 NMatD0=    1 NMtDS0=    0 NMtDT0=    0
 Petite list used in FoFCou.
 Harris En= -687.611882409053    
 JPrj=0 DoOrth=F DoCkMO=F.
 Leave Link  401 at Mon Feb 22 21:24:55 2021, MaxMem=   104857600 cpu:              16.0 elap:               0.5
 (Enter /sw/arch/RedHatEnterpriseServer7/EB_production/2019/software/Gaussian/g16.c01/l502.exe)
 Integral symmetry usage will be decided dynamically.
 Closed shell SCF:
 Using DIIS extrapolation, IDIIS=  1040.
 NGot=   104857600 LenX=   104649138 LenY=   104551353
 Requested convergence on RMS density matrix=1.00D-08 within 128 cycles.
 Requested convergence on MAX density matrix=1.00D-06.
 Requested convergence on             energy=1.00D-06.
 No special actions if energy rises.
 Fock matrices will be formed incrementally for  20 cycles.

 Cycle   1  Pass 1  IDiag  1:
 FoFJK:  IHMeth= 1 ICntrl=     500 DoSepK=F KAlg= 0 I1Cent=           0 FoldK=F
 IRaf= 900000000 NMat=       1 IRICut=       1 DoRegI=T DoRafI=F ISym2E= 0 IDoP0=0 IntGTp=1.
 FoFCou: FMM=F IPFlag=           0 FMFlag=      100000 FMFlg1=           0
         NFxFlg=           0 DoJE=T BraDBF=F KetDBF=F FulRan=T
         wScrn=  0.000000 ICntrl=       500 IOpCl=  0 I1Cent=           0 NGrid=           0
         NMat0=    1 NMatS0=      1 NMatT0=    0 NMatD0=    1 NMtDS0=    0 NMtDT0=    0
 Symmetry not used in FoFCou.
 Inv3:  Mode=1 IEnd=     9240075.
 Iteration    1 A*A^-1 deviation from unit magnitude is 2.89D-15 for    370.
 Iteration    1 A*A^-1 deviation from orthogonality  is 1.90D-15 for   1681    382.
 Iteration    1 A^-1*A deviation from unit magnitude is 2.66D-15 for    441.
 Iteration    1 A^-1*A deviation from orthogonality  is 3.39D-15 for    892    858.
 E= -687.208581098519    
 DIIS: error= 1.90D-02 at cycle   1 NSaved=   1.
 NSaved= 1 IEnMin= 1 EnMin= -687.208581098519     IErMin= 1 ErrMin= 1.90D-02
 ErrMax= 1.90D-02  0.00D+00 EMaxC= 1.00D-01 BMatC= 3.41D-01 BMatP= 3.41D-01
 IDIUse=3 WtCom= 8.10D-01 WtEn= 1.90D-01
 Coeff-Com:  0.100D+01
 Coeff-En:   0.100D+01
 Coeff:      0.100D+01
 Gap=     0.207 Goal=   None    Shift=    0.000
 GapD=    0.207 DampG=1.000 DampE=0.500 DampFc=0.5000 IDamp=-1.
 Damping current iteration by 5.00D-01
 RMSDP=1.45D-02 MaxDP=1.43D+00              OVMax= 1.79D-01

 Cycle   2  Pass 1  IDiag  1:
 RMSU=  7.11D-03    CP:  1.11D+00
 E= -687.238047324025     Delta-E=       -0.029466225506 Rises=F Damp=T
 DIIS: error= 9.75D-03 at cycle   2 NSaved=   2.
 NSaved= 2 IEnMin= 2 EnMin= -687.238047324025     IErMin= 2 ErrMin= 9.75D-03
 ErrMax= 9.75D-03  0.00D+00 EMaxC= 1.00D-01 BMatC= 8.11D-02 BMatP= 3.41D-01
 IDIUse=3 WtCom= 9.02D-01 WtEn= 9.75D-02
 Coeff-Com:  0.306D+00 0.694D+00
 Coeff-En:   0.453D+00 0.547D+00
 Coeff:      0.320D+00 0.680D+00
 Gap=     0.234 Goal=   None    Shift=    0.000
 RMSDP=3.88D-03 MaxDP=3.85D-01 DE=-2.95D-02 OVMax= 1.09D-01

 Cycle   3  Pass 1  IDiag  1:
 RMSU=  1.19D-03    CP:  1.06D+00  4.92D-01
 E= -687.457908815975     Delta-E=       -0.219861491950 Rises=F Damp=F
 DIIS: error= 3.32D-03 at cycle   3 NSaved=   3.
 NSaved= 3 IEnMin= 3 EnMin= -687.457908815975     IErMin= 3 ErrMin= 3.32D-03
 ErrMax= 3.32D-03  0.00D+00 EMaxC= 1.00D-01 BMatC= 9.85D-03 BMatP= 8.11D-02
 IDIUse=3 WtCom= 9.67D-01 WtEn= 3.32D-02
 Coeff-Com:  0.106D+00 0.293D+00 0.601D+00
 Coeff-En:   0.000D+00 0.000D+00 0.100D+01
 Coeff:      0.102D+00 0.283D+00 0.615D+00
 Gap=     0.235 Goal=   None    Shift=    0.000
 RMSDP=7.14D-04 MaxDP=2.93D-02 DE=-2.20D-01 OVMax= 1.96D-02

 Cycle   4  Pass 1  IDiag  1:
 RMSU=  6.23D-04    CP:  1.06D+00  4.67D-01  7.50D-01
 E= -687.464218431918     Delta-E=       -0.006309615943 Rises=F Damp=F
 DIIS: error= 1.93D-03 at cycle   4 NSaved=   4.
 NSaved= 4 IEnMin= 4 EnMin= -687.464218431918     IErMin= 4 ErrMin= 1.93D-03
 ErrMax= 1.93D-03  0.00D+00 EMaxC= 1.00D-01 BMatC= 3.36D-03 BMatP= 9.85D-03
 IDIUse=3 WtCom= 9.81D-01 WtEn= 1.93D-02
 Coeff-Com:  0.336D-01 0.863D-01 0.374D+00 0.506D+00
 Coeff-En:   0.000D+00 0.000D+00 0.263D+00 0.737D+00
 Coeff:      0.330D-01 0.847D-01 0.372D+00 0.510D+00
 Gap=     0.231 Goal=   None    Shift=    0.000
 RMSDP=3.65D-04 MaxDP=1.34D-02 DE=-6.31D-03 OVMax= 7.74D-03

 Cycle   5  Pass 1  IDiag  1:
 RMSU=  1.65D-04    CP:  1.05D+00  4.71D-01  8.32D-01  5.10D-01
 E= -687.467206360117     Delta-E=       -0.002987928200 Rises=F Damp=F
 DIIS: error= 2.85D-04 at cycle   5 NSaved=   5.
 NSaved= 5 IEnMin= 5 EnMin= -687.467206360117     IErMin= 5 ErrMin= 2.85D-04
 ErrMax= 2.85D-04  0.00D+00 EMaxC= 1.00D-01 BMatC= 8.88D-05 BMatP= 3.36D-03
 IDIUse=3 WtCom= 9.97D-01 WtEn= 2.85D-03
 Coeff-Com:  0.900D-02 0.154D-01 0.124D+00 0.219D+00 0.633D+00
 Coeff-En:   0.000D+00 0.000D+00 0.000D+00 0.000D+00 0.100D+01
 Coeff:      0.898D-02 0.154D-01 0.123D+00 0.218D+00 0.634D+00
 Gap=     0.230 Goal=   None    Shift=    0.000
 RMSDP=6.29D-05 MaxDP=2.03D-03 DE=-2.99D-03 OVMax= 1.48D-03

 Cycle   6  Pass 1  IDiag  1:
 RMSU=  4.13D-05    CP:  1.06D+00  4.71D-01  8.27D-01  5.48D-01  7.53D-01
 E= -687.467254218112     Delta-E=       -0.000047857995 Rises=F Damp=F
 DIIS: error= 2.22D-04 at cycle   6 NSaved=   6.
 NSaved= 6 IEnMin= 6 EnMin= -687.467254218112     IErMin= 6 ErrMin= 2.22D-04
 ErrMax= 2.22D-04  0.00D+00 EMaxC= 1.00D-01 BMatC= 3.19D-05 BMatP= 8.88D-05
 IDIUse=3 WtCom= 9.98D-01 WtEn= 2.22D-03
 Coeff-Com:  0.373D-02 0.334D-02 0.554D-01 0.108D+00 0.427D+00 0.402D+00
 Coeff-En:   0.000D+00 0.000D+00 0.000D+00 0.000D+00 0.225D+00 0.775D+00
 Coeff:      0.372D-02 0.334D-02 0.552D-01 0.108D+00 0.427D+00 0.402D+00
 Gap=     0.229 Goal=   None    Shift=    0.000
 RMSDP=2.61D-05 MaxDP=2.07D-03 DE=-4.79D-05 OVMax= 6.26D-04

 Cycle   7  Pass 1  IDiag  1:
 RMSU=  9.53D-06    CP:  1.06D+00  4.70D-01  8.29D-01  5.53D-01  7.50D-01
                    CP:  4.69D-01
 E= -687.467276295963     Delta-E=       -0.000022077852 Rises=F Damp=F
 DIIS: error= 2.84D-05 at cycle   7 NSaved=   7.
 NSaved= 7 IEnMin= 7 EnMin= -687.467276295963     IErMin= 7 ErrMin= 2.84D-05
 ErrMax= 2.84D-05  0.00D+00 EMaxC= 1.00D-01 BMatC= 5.97D-07 BMatP= 3.19D-05
 IDIUse=1 WtCom= 1.00D+00 WtEn= 0.00D+00
 Coeff-Com:  0.145D-02 0.518D-03 0.200D-01 0.400D-01 0.171D+00 0.191D+00
 Coeff-Com:  0.576D+00
 Coeff:      0.145D-02 0.518D-03 0.200D-01 0.400D-01 0.171D+00 0.191D+00
 Coeff:      0.576D+00
 Gap=     0.229 Goal=   None    Shift=    0.000
 RMSDP=4.54D-06 MaxDP=2.21D-04 DE=-2.21D-05 OVMax= 1.26D-04

 Cycle   8  Pass 1  IDiag  1:
 RMSU=  2.64D-06    CP:  1.06D+00  4.70D-01  8.29D-01  5.51D-01  7.55D-01
                    CP:  5.01D-01  6.82D-01
 E= -687.467276657674     Delta-E=       -0.000000361710 Rises=F Damp=F
 DIIS: error= 1.09D-05 at cycle   8 NSaved=   8.
 NSaved= 8 IEnMin= 8 EnMin= -687.467276657674     IErMin= 8 ErrMin= 1.09D-05
 ErrMax= 1.09D-05  0.00D+00 EMaxC= 1.00D-01 BMatC= 1.24D-07 BMatP= 5.97D-07
 IDIUse=1 WtCom= 1.00D+00 WtEn= 0.00D+00
 Coeff-Com:  0.511D-03-0.686D-04 0.592D-02 0.118D-01 0.532D-01 0.678D-01
 Coeff-Com:  0.354D+00 0.507D+00
 Coeff:      0.511D-03-0.686D-04 0.592D-02 0.118D-01 0.532D-01 0.678D-01
 Coeff:      0.354D+00 0.507D+00
 Gap=     0.229 Goal=   None    Shift=    0.000
 RMSDP=1.88D-06 MaxDP=8.09D-05 DE=-3.62D-07 OVMax= 5.52D-05

 Cycle   9  Pass 1  IDiag  1:
 RMSU=  1.33D-06    CP:  1.06D+00  4.70D-01  8.29D-01  5.51D-01  7.57D-01
                    CP:  4.97D-01  6.95D-01  6.29D-01
 E= -687.467276765171     Delta-E=       -0.000000107497 Rises=F Damp=F
 DIIS: error= 4.19D-06 at cycle   9 NSaved=   9.
 NSaved= 9 IEnMin= 9 EnMin= -687.467276765171     IErMin= 9 ErrMin= 4.19D-06
 ErrMax= 4.19D-06  0.00D+00 EMaxC= 1.00D-01 BMatC= 1.28D-08 BMatP= 1.24D-07
 IDIUse=1 WtCom= 1.00D+00 WtEn= 0.00D+00
 Coeff-Com:  0.136D-03-0.111D-03 0.109D-02 0.211D-02 0.103D-01 0.159D-01
 Coeff-Com:  0.129D+00 0.296D+00 0.546D+00
 Coeff:      0.136D-03-0.111D-03 0.109D-02 0.211D-02 0.103D-01 0.159D-01
 Coeff:      0.129D+00 0.296D+00 0.546D+00
 Gap=     0.229 Goal=   None    Shift=    0.000
 RMSDP=7.46D-07 MaxDP=5.02D-05 DE=-1.07D-07 OVMax= 2.54D-05

 Cycle  10  Pass 1  IDiag  1:
 RMSU=  3.70D-07    CP:  1.06D+00  4.70D-01  8.29D-01  5.51D-01  7.56D-01
                    CP:  4.94D-01  7.27D-01  6.95D-01  6.66D-01
 E= -687.467276757086     Delta-E=        0.000000008085 Rises=F Damp=F
 DIIS: error= 2.05D-06 at cycle  10 NSaved=  10.
 NSaved=10 IEnMin= 9 EnMin= -687.467276765171     IErMin=10 ErrMin= 2.05D-06
 ErrMax= 2.05D-06  0.00D+00 EMaxC= 1.00D-01 BMatC= 2.74D-09 BMatP= 1.28D-08
 IDIUse=1 WtCom= 1.00D+00 WtEn= 0.00D+00
 Coeff-Com:  0.245D-04-0.651D-04-0.682D-04-0.192D-03-0.467D-03 0.135D-02
 Coeff-Com:  0.390D-01 0.134D+00 0.367D+00 0.459D+00
 Coeff:      0.245D-04-0.651D-04-0.682D-04-0.192D-03-0.467D-03 0.135D-02
 Coeff:      0.390D-01 0.134D+00 0.367D+00 0.459D+00
 Gap=     0.229 Goal=   None    Shift=    0.000
 RMSDP=2.47D-07 MaxDP=1.10D-05 DE= 8.09D-09 OVMax= 9.37D-06

 Cycle  11  Pass 1  IDiag  1:
 RMSU=  1.11D-07    CP:  1.06D+00  4.70D-01  8.29D-01  5.51D-01  7.56D-01
                    CP:  4.97D-01  7.23D-01  6.95D-01  7.36D-01  5.84D-01
 E= -687.467276759145     Delta-E=       -0.000000002059 Rises=F Damp=F
 DIIS: error= 1.64D-07 at cycle  11 NSaved=  11.
 NSaved=11 IEnMin= 9 EnMin= -687.467276765171     IErMin=11 ErrMin= 1.64D-07
 ErrMax= 1.64D-07  0.00D+00 EMaxC= 1.00D-01 BMatC= 2.19D-11 BMatP= 2.74D-09
 IDIUse=1 WtCom= 1.00D+00 WtEn= 0.00D+00
 Coeff-Com:  0.361D-05-0.180D-04-0.548D-04-0.126D-03-0.467D-03-0.600D-04
 Coeff-Com:  0.893D-02 0.365D-01 0.107D+00 0.167D+00 0.681D+00
 Coeff:      0.361D-05-0.180D-04-0.548D-04-0.126D-03-0.467D-03-0.600D-04
 Coeff:      0.893D-02 0.365D-01 0.107D+00 0.167D+00 0.681D+00
 Gap=     0.229 Goal=   None    Shift=    0.000
 RMSDP=3.46D-08 MaxDP=1.10D-06 DE=-2.06D-09 OVMax= 8.80D-07

 Cycle  12  Pass 1  IDiag  1:
 RMSU=  2.44D-08    CP:  1.06D+00  4.70D-01  8.29D-01  5.51D-01  7.56D-01
                    CP:  4.96D-01  7.23D-01  6.95D-01  7.37D-01  5.94D-01
                    CP:  8.41D-01
 E= -687.467276759163     Delta-E=       -0.000000000018 Rises=F Damp=F
 DIIS: error= 1.09D-07 at cycle  12 NSaved=  12.
 NSaved=12 IEnMin= 9 EnMin= -687.467276765171     IErMin=12 ErrMin= 1.09D-07
 ErrMax= 1.09D-07  0.00D+00 EMaxC= 1.00D-01 BMatC= 6.80D-12 BMatP= 2.19D-11
 IDIUse=1 WtCom= 1.00D+00 WtEn= 0.00D+00
 Coeff-Com:  0.736D-06-0.753D-05-0.310D-04-0.693D-04-0.270D-03-0.117D-03
 Coeff-Com:  0.334D-02 0.152D-01 0.458D-01 0.784D-01 0.425D+00 0.433D+00
 Coeff:      0.736D-06-0.753D-05-0.310D-04-0.693D-04-0.270D-03-0.117D-03
 Coeff:      0.334D-02 0.152D-01 0.458D-01 0.784D-01 0.425D+00 0.433D+00
 Gap=     0.229 Goal=   None    Shift=    0.000
 RMSDP=1.27D-08 MaxDP=5.42D-07 DE=-1.82D-11 OVMax= 4.08D-07

 Cycle  13  Pass 1  IDiag  1:
 RMSU=  8.23D-09    CP:  1.06D+00  4.70D-01  8.29D-01  5.51D-01  7.56D-01
                    CP:  4.96D-01  7.23D-01  6.96D-01  7.37D-01  5.92D-01
                    CP:  8.53D-01  6.56D-01
 E= -687.467276759165     Delta-E=       -0.000000000002 Rises=F Damp=F
 DIIS: error= 2.57D-08 at cycle  13 NSaved=  13.
 NSaved=13 IEnMin= 9 EnMin= -687.467276765171     IErMin=13 ErrMin= 2.57D-08
 ErrMax= 2.57D-08  0.00D+00 EMaxC= 1.00D-01 BMatC= 3.00D-13 BMatP= 6.80D-12
 IDIUse=1 WtCom= 1.00D+00 WtEn= 0.00D+00
 Coeff-Com: -0.996D-07-0.131D-05-0.706D-05-0.154D-04-0.619D-04-0.364D-04
 Coeff-Com:  0.459D-03 0.260D-02 0.789D-02 0.161D-01 0.117D+00 0.212D+00
 Coeff-Com:  0.644D+00
 Coeff:     -0.996D-07-0.131D-05-0.706D-05-0.154D-04-0.619D-04-0.364D-04
 Coeff:      0.459D-03 0.260D-02 0.789D-02 0.161D-01 0.117D+00 0.212D+00
 Coeff:      0.644D+00
 Gap=     0.229 Goal=   None    Shift=    0.000
 RMSDP=3.83D-09 MaxDP=2.07D-07 DE=-1.71D-12 OVMax= 8.71D-08

 Error on total polarization charges =  0.01008
 SCF Done:  E(RB-P86) =  -687.467276759     A.U. after   13 cycles
            NFock= 13  Conv=0.38D-08     -V/T= 2.0044
 KE= 6.844791045341D+02 PE=-3.260569059690D+03 EE= 1.066115791225D+03
 Leave Link  502 at Mon Feb 22 21:25:15 2021, MaxMem=   104857600 cpu:             622.2 elap:              19.8
 (Enter /sw/arch/RedHatEnterpriseServer7/EB_production/2019/software/Gaussian/g16.c01/l601.exe)
 Copying SCF densities to generalized density rwf, IOpCl= 0 IROHF=0.

 **********************************************************************

            Population analysis using the SCF Density.

 **********************************************************************

 Orbital symmetries:
       Occupied  (A) (A) (A) (A) (A) (A) (A) (A) (A) (A) (A) (A)
                 (A) (A) (A) (A) (A) (A) (A) (A) (A) (A) (A) (A)
                 (A) (A) (A) (A) (A) (A) (A) (A) (A) (A) (A) (A)
                 (A) (A) (A) (A) (A) (A) (A) (A) (A) (A) (A) (A)
       Virtual   (A) (A) (A) (A) (A) (A) (A) (A) (A) (A) (A) (A)
                 (A) (A) (A) (A) (A) (A) (A) (A) (A) (A) (A) (A)
                 (A) (A) (A) (A) (A) (A) (A) (A) (A) (A) (A) (A)
                 (A) (A) (A) (A) (A) (A) (A) (A) (A) (A) (A) (A)
                 (A) (A) (A) (A) (A) (A) (A) (A) (A) (A) (A) (A)
                 (A) (A) (A) (A) (A) (A) (A) (A) (A) (A) (A) (A)
                 (A) (A) (A) (A) (A) (A) (A) (A) (A) (A) (A) (A)
                 (A) (A) (A) (A) (A) (A) (A) (A) (A) (A) (A) (A)
                 (A) (A) (A) (A) (A) (A) (A) (A) (A) (A) (A) (A)
                 (A) (A) (A) (A) (A) (A) (A) (A) (A) (A) (A) (A)
                 (A) (A) (A) (A) (A) (A) (A) (A) (A) (A) (A) (A)
                 (A) (A) (A) (A) (A) (A) (A) (A) (A) (A) (A) (A)
                 (A) (A) (A) (A) (A) (A) (A) (A) (A) (A) (A) (A)
                 (A) (A) (A) (A) (A) (A) (A) (A) (A) (A) (A) (A)
                 (A) (A) (A) (A) (A) (A) (A) (A) (A) (A) (A) (A)
                 (A) (A) (A) (A) (A) (A) (A) (A) (A) (A) (A) (A)
                 (A) (A) (A) (A) (A) (A) (A) (A) (A) (A) (A) (A)
                 (A) (A) (A) (A) (A) (A) (A) (A) (A) (A) (A) (A)
                 (A) (A) (A) (A) (A) (A) (A) (A) (A) (A) (A) (A)
                 (A) (A) (A) (A) (A) (A) (A) (A) (A) (A) (A) (A)
                 (A) (A) (A) (A) (A) (A) (A) (A) (A) (A) (A) (A)
 The electronic state is 1-A.
 Alpha  occ. eigenvalues --  -18.79162 -18.78755 -18.78555 -18.78535 -18.78126
 Alpha  occ. eigenvalues --  -18.77647 -10.01063  -9.96614  -9.96431  -9.96415
 Alpha  occ. eigenvalues --   -9.96389  -9.95125  -0.99408  -0.96507  -0.95217
 Alpha  occ. eigenvalues --   -0.94585  -0.93995  -0.92287  -0.71729  -0.70595
 Alpha  occ. eigenvalues --   -0.63524  -0.59404  -0.56980  -0.53153  -0.49948
 Alpha  occ. eigenvalues --   -0.48784  -0.47927  -0.46773  -0.46377  -0.43912
 Alpha  occ. eigenvalues --   -0.43314  -0.41401  -0.39729  -0.39058  -0.37745
 Alpha  occ. eigenvalues --   -0.37176  -0.35146  -0.33850  -0.32663  -0.31303
 Alpha  occ. eigenvalues --   -0.29760  -0.28736  -0.26635  -0.25160  -0.24626
 Alpha  occ. eigenvalues --   -0.23939  -0.23484  -0.23306
 Alpha virt. eigenvalues --   -0.00368   0.00728   0.01507   0.02047   0.02916
 Alpha virt. eigenvalues --    0.05500   0.06065   0.06919   0.07371   0.08600
 Alpha virt. eigenvalues --    0.10043   0.10347   0.10883   0.11419   0.12137
 Alpha virt. eigenvalues --    0.13247   0.14064   0.15412   0.16246   0.16847
 Alpha virt. eigenvalues --    0.18019   0.18838   0.20534   0.21336   0.24564
 Alpha virt. eigenvalues --    0.25007   0.25925   0.26230   0.27519   0.28168
 Alpha virt. eigenvalues --    0.28805   0.29886   0.30339   0.30815   0.32063
 Alpha virt. eigenvalues --    0.32443   0.32874   0.34243   0.34784   0.35387
 Alpha virt. eigenvalues --    0.37079   0.37437   0.37781   0.38389   0.39162
 Alpha virt. eigenvalues --    0.39961   0.40604   0.41449   0.41691   0.42207
 Alpha virt. eigenvalues --    0.43265   0.44084   0.45003   0.45526   0.46253
 Alpha virt. eigenvalues --    0.47198   0.48232   0.49898   0.52118   0.52767
 Alpha virt. eigenvalues --    0.53192   0.54224   0.55217   0.55923   0.58052
 Alpha virt. eigenvalues --    0.59226   0.60315   0.61014   0.63132   0.63762
 Alpha virt. eigenvalues --    0.67229   0.69931   0.70671   0.72950   0.75103
 Alpha virt. eigenvalues --    0.76434   0.79695   0.80994   0.81577   0.88354
 Alpha virt. eigenvalues --    0.88914   0.91857   0.94611   0.99878   1.12827
 Alpha virt. eigenvalues --    1.13564   1.17243   1.18856   1.21359   1.22876
 Alpha virt. eigenvalues --    1.23457   1.24189   1.24424   1.26954   1.27545
 Alpha virt. eigenvalues --    1.28764   1.29862   1.30629   1.31890   1.33020
 Alpha virt. eigenvalues --    1.34440   1.35355   1.36052   1.37323   1.39774
 Alpha virt. eigenvalues --    1.40529   1.42023   1.42260   1.44436   1.47193
 Alpha virt. eigenvalues --    1.47670   1.48879   1.49461   1.51654   1.51888
 Alpha virt. eigenvalues --    1.53089   1.54527   1.56669   1.59291   1.60974
 Alpha virt. eigenvalues --    1.63634   1.65564   1.66269   1.68216   1.70734
 Alpha virt. eigenvalues --    1.71867   1.72945   1.73960   1.76518   1.77746
 Alpha virt. eigenvalues --    1.79435   1.80644   1.83142   1.84901   1.85969
 Alpha virt. eigenvalues --    1.88671   1.89446   1.89949   1.91088   1.92679
 Alpha virt. eigenvalues --    1.93492   1.94960   1.95570   1.98795   1.99089
 Alpha virt. eigenvalues --    2.01014   2.02505   2.03535   2.05331   2.06301
 Alpha virt. eigenvalues --    2.06738   2.09823   2.12989   2.14475   2.19281
 Alpha virt. eigenvalues --    2.20371   2.21580   2.24767   2.27129   2.28320
 Alpha virt. eigenvalues --    2.29306   2.33830   2.39444   2.42881   2.43777
 Alpha virt. eigenvalues --    2.45805   2.46928   2.48824   2.50353   2.51286
 Alpha virt. eigenvalues --    2.51498   2.55625   2.57605   2.59267   2.59876
 Alpha virt. eigenvalues --    2.60123   2.60325   2.62298   2.63065   2.64131
 Alpha virt. eigenvalues --    2.65813   2.67268   2.68150   2.69575   2.70219
 Alpha virt. eigenvalues --    2.73215   2.73715   2.76514   2.79122   2.82154
 Alpha virt. eigenvalues --    2.83843   2.84692   2.84984   2.85595   2.86881
 Alpha virt. eigenvalues --    2.87256   2.87907   2.88720   2.90321   2.91231
 Alpha virt. eigenvalues --    2.92602   2.93640   2.95150   2.95759   2.96902
 Alpha virt. eigenvalues --    2.97913   2.99891   3.01350   3.05851   3.06290
 Alpha virt. eigenvalues --    3.07758   3.09458   3.10491   3.12462   3.12830
 Alpha virt. eigenvalues --    3.14764   3.15859   3.20913   3.23704   3.25996
 Alpha virt. eigenvalues --    3.28890   3.30377   3.31901   3.37603   3.38504
 Alpha virt. eigenvalues --    3.40093   3.43759   3.48315   3.82640   3.86313
 Alpha virt. eigenvalues --    3.89760   3.92793   3.93428   3.94236   4.00233
 Alpha virt. eigenvalues --    4.15271   4.15790   4.16116   4.17054   4.17385
 Alpha virt. eigenvalues --   21.57989  21.66683  21.70088  21.76354  21.78855
 Alpha virt. eigenvalues --   21.85796  43.11212  43.15286  43.21829  43.26711
 Alpha virt. eigenvalues --   43.31363  43.42634
          Condensed to atoms (all electrons):
               1          2          3          4          5          6
     1  O    7.952746   0.341379  -0.121285   0.006351  -0.000051  -0.000201
     2  C    0.341379   5.185708   0.000695  -0.034625  -0.003964  -0.001751
     3  C   -0.121285   0.000695   6.377958   0.200722  -0.274752  -0.044925
     4  O    0.006351  -0.034625   0.200722   8.071917   0.193437  -0.091361
     5  C   -0.000051  -0.003964  -0.274752   0.193437   5.675228   0.275438
     6  O   -0.000201  -0.001751  -0.044925  -0.091361   0.275438   7.989633
     7  C    0.000238   0.007714   0.172611   0.073617  -0.280824  -0.091427
     8  O    0.000000  -0.001261   0.003550  -0.012989   0.012712   0.005358
     9  C   -0.000483  -0.010348   0.122074  -0.067221   0.010892  -0.018123
    10  O    0.000000   0.000012   0.011046  -0.000220   0.018157  -0.000260
    11  C    0.011646   0.035824  -0.615585  -0.014776   0.163338   0.019882
    12  O   -0.000102  -0.003689  -0.068662   0.003926  -0.002371   0.000080
    13  H    0.301145  -0.046915   0.020053  -0.000298   0.000130  -0.000002
    14  H   -0.059490   0.393444  -0.039221   0.005987   0.001652   0.000097
    15  H   -0.060212   0.400356  -0.040959  -0.005148  -0.002727   0.000095
    16  H    0.010515  -0.047468   0.329781  -0.068335  -0.017175   0.042721
    17  H    0.000014   0.000101  -0.000189  -0.047929   0.420756  -0.054537
    18  H    0.000279  -0.000287   0.001181   0.008021  -0.031582   0.292388
    19  H   -0.000003   0.000282   0.003256   0.008649  -0.073353   0.013310
    20  H    0.000000  -0.000005   0.000346  -0.000442   0.007232   0.000218
    21  H    0.000024  -0.003573  -0.026717  -0.000512   0.023328   0.014397
    22  H   -0.000000   0.000083  -0.001037   0.000113  -0.000500  -0.000006
    23  H   -0.000390  -0.039801  -0.033792   0.002401   0.000854   0.000899
    24  H   -0.000007   0.001757   0.019779  -0.000373  -0.000650  -0.000005
               7          8          9         10         11         12
     1  O    0.000238   0.000000  -0.000483   0.000000   0.011646  -0.000102
     2  C    0.007714  -0.001261  -0.010348   0.000012   0.035824  -0.003689
     3  C    0.172611   0.003550   0.122074   0.011046  -0.615585  -0.068662
     4  O    0.073617  -0.012989  -0.067221  -0.000220  -0.014776   0.003926
     5  C   -0.280824   0.012712   0.010892   0.018157   0.163338  -0.002371
     6  O   -0.091427   0.005358  -0.018123  -0.000260   0.019882   0.000080
     7  C    6.328228   0.171613  -0.186779  -0.037779  -0.224259   0.027240
     8  O    0.171613   7.957099  -0.036201  -0.000577  -0.018195  -0.000220
     9  C   -0.186779  -0.036201   5.914265   0.259271  -0.148829  -0.030987
    10  O   -0.037779  -0.000577   0.259271   7.946896  -0.081946  -0.002716
    11  C   -0.224259  -0.018195  -0.148829  -0.081946   6.397187   0.241987
    12  O    0.027240  -0.000220  -0.030987  -0.002716   0.241987   7.933551
    13  H   -0.000037   0.000000   0.000105  -0.000000  -0.001462   0.000051
    14  H   -0.000118  -0.000011  -0.002002  -0.000005   0.011346   0.016184
    15  H    0.000032   0.000079  -0.000616   0.000006  -0.005870  -0.000939
    16  H   -0.015126   0.000682  -0.029405  -0.000439  -0.001773   0.007993
    17  H   -0.094701  -0.007055   0.017160  -0.000366   0.001057   0.000034
    18  H    0.016171  -0.000229  -0.000212   0.000011   0.000634  -0.000025
    19  H    0.415550  -0.053007  -0.079153  -0.007414   0.018029  -0.000479
    20  H   -0.046763   0.298841   0.014076  -0.000741  -0.000882   0.000027
    21  H   -0.083294   0.005006   0.409569  -0.056830  -0.034440   0.002442
    22  H   -0.001044   0.001259  -0.042862   0.304197   0.019007  -0.000419
    23  H   -0.008630   0.014760  -0.055883   0.002963   0.379214  -0.062285
    24  H    0.002571   0.000005   0.009439   0.012874  -0.059990   0.301560
              13         14         15         16         17         18
     1  O    0.301145  -0.059490  -0.060212   0.010515   0.000014   0.000279
     2  C   -0.046915   0.393444   0.400356  -0.047468   0.000101  -0.000287
     3  C    0.020053  -0.039221  -0.040959   0.329781  -0.000189   0.001181
     4  O   -0.000298   0.005987  -0.005148  -0.068335  -0.047929   0.008021
     5  C    0.000130   0.001652  -0.002727  -0.017175   0.420756  -0.031582
     6  O   -0.000002   0.000097   0.000095   0.042721  -0.054537   0.292388
     7  C   -0.000037  -0.000118   0.000032  -0.015126  -0.094701   0.016171
     8  O    0.000000  -0.000011   0.000079   0.000682  -0.007055  -0.000229
     9  C    0.000105  -0.002002  -0.000616  -0.029405   0.017160  -0.000212
    10  O   -0.000000  -0.000005   0.000006  -0.000439  -0.000366   0.000011
    11  C   -0.001462   0.011346  -0.005870  -0.001773   0.001057   0.000634
    12  O    0.000051   0.016184  -0.000939   0.007993   0.000034  -0.000025
    13  H    0.437738  -0.002789  -0.004318  -0.000475   0.000001  -0.000012
    14  H   -0.002789   0.606307  -0.066544  -0.014747   0.000040  -0.000046
    15  H   -0.004318  -0.066544   0.633570   0.015539  -0.000119   0.000033
    16  H   -0.000475  -0.014747   0.015539   0.629589   0.000801  -0.000047
    17  H    0.000001   0.000040  -0.000119   0.000801   0.580220  -0.010810
    18  H   -0.000012  -0.000046   0.000033  -0.000047  -0.010810   0.431438
    19  H    0.000000  -0.000000   0.000008  -0.000682  -0.012079  -0.000555
    20  H    0.000000  -0.000001   0.000008   0.000079   0.006812  -0.000110
    21  H   -0.000001   0.000181   0.000040   0.010435   0.000324  -0.000021
    22  H    0.000000   0.000001  -0.000001  -0.000045  -0.000030  -0.000007
    23  H   -0.000032  -0.000953   0.010566   0.016070  -0.000628   0.000088
    24  H   -0.000006  -0.000089  -0.000281  -0.001204   0.000008  -0.000000
              19         20         21         22         23         24
     1  O   -0.000003   0.000000   0.000024  -0.000000  -0.000390  -0.000007
     2  C    0.000282  -0.000005  -0.003573   0.000083  -0.039801   0.001757
     3  C    0.003256   0.000346  -0.026717  -0.001037  -0.033792   0.019779
     4  O    0.008649  -0.000442  -0.000512   0.000113   0.002401  -0.000373
     5  C   -0.073353   0.007232   0.023328  -0.000500   0.000854  -0.000650
     6  O    0.013310   0.000218   0.014397  -0.000006   0.000899  -0.000005
     7  C    0.415550  -0.046763  -0.083294  -0.001044  -0.008630   0.002571
     8  O   -0.053007   0.298841   0.005006   0.001259   0.014760   0.000005
     9  C   -0.079153   0.014076   0.409569  -0.042862  -0.055883   0.009439
    10  O   -0.007414  -0.000741  -0.056830   0.304197   0.002963   0.012874
    11  C    0.018029  -0.000882  -0.034440   0.019007   0.379214  -0.059990
    12  O   -0.000479   0.000027   0.002442  -0.000419  -0.062285   0.301560
    13  H    0.000000   0.000000  -0.000001   0.000000  -0.000032  -0.000006
    14  H   -0.000000  -0.000001   0.000181   0.000001  -0.000953  -0.000089
    15  H    0.000008   0.000008   0.000040  -0.000001   0.010566  -0.000281
    16  H   -0.000682   0.000079   0.010435  -0.000045   0.016070  -0.001204
    17  H   -0.012079   0.006812   0.000324  -0.000030  -0.000628   0.000008
    18  H   -0.000555  -0.000110  -0.000021  -0.000007   0.000088  -0.000000
    19  H    0.593745  -0.008969  -0.006452   0.006439  -0.000058  -0.000109
    20  H   -0.008969   0.439377  -0.000450  -0.000323  -0.000300   0.000004
    21  H   -0.006452  -0.000450   0.564441  -0.007445   0.014371  -0.003806
    22  H    0.006439  -0.000323  -0.007445   0.423482  -0.000734  -0.000499
    23  H   -0.000058  -0.000300   0.014371  -0.000734   0.622392  -0.010959
    24  H   -0.000109   0.000004  -0.003806  -0.000499  -0.010959   0.434071
 Mulliken charges:
               1
     1  O   -0.382114
     2  C   -0.173668
     3  C    0.004073
     4  O   -0.230914
     5  C   -0.115203
     6  O   -0.351917
     7  C   -0.144804
     8  O   -0.341219
     9  C   -0.047744
    10  O   -0.366141
    11  C   -0.091144
    12  O   -0.362180
    13  H    0.297125
    14  H    0.150777
    15  H    0.127402
    16  H    0.132716
    17  H    0.201115
    18  H    0.293699
    19  H    0.183046
    20  H    0.291967
    21  H    0.178983
    22  H    0.300369
    23  H    0.149865
    24  H    0.295910
 Sum of Mulliken charges =  -0.00000
 Mulliken charges with hydrogens summed into heavy atoms:
               1
     1  O   -0.084988
     2  C    0.104511
     3  C    0.136789
     4  O   -0.230914
     5  C    0.085912
     6  O   -0.058218
     7  C    0.038242
     8  O   -0.049252
     9  C    0.131239
    10  O   -0.065772
    11  C    0.058721
    12  O   -0.066271
 Electronic spatial extent (au):  <R**2>=           2130.8036
 Charge=             -0.0000 electrons
 Dipole moment (field-independent basis, Debye):
    X=             -1.2616    Y=             -1.6224    Z=              0.0951  Tot=              2.0574
 Quadrupole moment (field-independent basis, Debye-Ang):
   XX=            -57.7040   YY=            -64.9707   ZZ=            -75.6383
   XY=              8.9609   XZ=             -5.8336   YZ=              0.0646
 Traceless Quadrupole moment (field-independent basis, Debye-Ang):
   XX=              8.4004   YY=              1.1336   ZZ=             -9.5340
   XY=              8.9609   XZ=             -5.8336   YZ=              0.0646
 Octapole moment (field-independent basis, Debye-Ang**2):
  XXX=             18.8114  YYY=            -25.2947  ZZZ=             -2.7125  XYY=            -12.2570
  XXY=              7.1255  XXZ=             -3.9530  XZZ=              5.3702  YZZ=             -3.4758
  YYZ=             -6.5688  XYZ=            -21.8750
 Hexadecapole moment (field-independent basis, Debye-Ang**3):
 XXXX=          -1033.4889 YYYY=           -712.4133 ZZZZ=           -310.0722 XXXY=             87.5239
 XXXZ=           -108.9494 YYYX=            -14.1098 YYYZ=             -0.3904 ZZZX=              7.3052
 ZZZY=              8.0679 XXYY=           -376.0450 XXZZ=           -280.1787 YYZZ=           -180.3692
 XXYZ=             18.4689 YYXZ=             30.2418 ZZXY=             -0.9067
 N-N= 8.225068871723D+02 E-N=-3.260569057905D+03  KE= 6.844791045341D+02
 No NMR shielding tensors so no spin-rotation constants.
 Leave Link  601 at Mon Feb 22 21:25:16 2021, MaxMem=   104857600 cpu:               8.8 elap:               0.4
 (Enter /sw/arch/RedHatEnterpriseServer7/EB_production/2019/software/Gaussian/g16.c01/l701.exe)
 ... and contract with generalized density number  0.
 Compute integral first derivatives.
 R6Disp: Adding Grimme-D3 dispersion energy 1st derivatives to the gradient.
 PrsmSu:  requested number of processors reduced to:  28 ShMem   1 Linda.
 D1PCM: PCM CHGder 1st derivatives, ID1Alg=3 FixD1E=F DoIter=F DoCFld=F I1PDM=0.
 GePol: Maximum number of non-zero 1st derivatives   =     202
 CoulSu:  requested number of processors reduced to:  29 ShMem   1 Linda.
 CoulSu:  requested number of processors reduced to:  29 ShMem   1 Linda.
 Leave Link  701 at Mon Feb 22 21:25:17 2021, MaxMem=   104857600 cpu:              26.7 elap:               0.9
 (Enter /sw/arch/RedHatEnterpriseServer7/EB_production/2019/software/Gaussian/g16.c01/l702.exe)
 L702 exits ... SP integral derivatives will be done elsewhere.
 Leave Link  702 at Mon Feb 22 21:25:17 2021, MaxMem=   104857600 cpu:               0.6 elap:               0.0
 (Enter /sw/arch/RedHatEnterpriseServer7/EB_production/2019/software/Gaussian/g16.c01/l703.exe)
 Integral derivatives from FoFJK, PRISM(SPDF).
 Compute integral first derivatives, UseDBF=F ICtDFT=           0.
 Calling FoFJK, ICntrl=      2527 FMM=F ISym2X=0 I1Cent= 0 IOpClX= 0 NMat=1 NMatS=1 NMatT=0.
 FoFJK:  IHMeth= 1 ICntrl=    2527 DoSepK=F KAlg= 0 I1Cent=           0 FoldK=F
 IRaf=         0 NMat=       1 IRICut=       1 DoRegI=T DoRafI=F ISym2E= 0 IDoP0=0 IntGTp=1.
 FoFCou: FMM=F IPFlag=           0 FMFlag=      100000 FMFlg1=         800
         NFxFlg=           0 DoJE=F BraDBF=F KetDBF=F FulRan=T
         wScrn=  0.000000 ICntrl=      2527 IOpCl=  0 I1Cent=           0 NGrid=           0
         NMat0=    1 NMatS0=      1 NMatT0=    0 NMatD0=    1 NMtDS0=    0 NMtDT0=    0
 Symmetry not used in FoFCou.
 Leave Link  703 at Mon Feb 22 21:25:20 2021, MaxMem=   104857600 cpu:              99.9 elap:               3.2
 (Enter /sw/arch/RedHatEnterpriseServer7/EB_production/2019/software/Gaussian/g16.c01/l716.exe)
 Dipole        =-4.96356160D-01-6.38289340D-01 3.74026142D-02
 ***** Axes restored to original set *****
 -------------------------------------------------------------------
 Center     Atomic                   Forces (Hartrees/Bohr)
 Number     Number              X              Y              Z
 -------------------------------------------------------------------
      1        8           0.011687707    0.002558164    0.001167957
      2        6          -0.010612702    0.001800550    0.013898639
      3        6          -0.006833151    0.012655281   -0.005294256
      4        8          -0.000074407   -0.020813770    0.016603391
      5        6           0.004189027    0.005164574   -0.033624895
      6        8          -0.003312413    0.007721223    0.001327063
      7        6           0.004370662    0.006518727   -0.002163418
      8        8           0.004534127   -0.006030583    0.004248453
      9        6           0.013839522   -0.004619777    0.017041149
     10        8          -0.003706788   -0.004636739   -0.001165861
     11        6          -0.004497659    0.001866191   -0.001088353
     12        8          -0.001936424    0.000579039   -0.009575175
     13        1          -0.000796918    0.006269283    0.004276275
     14        1          -0.009947686    0.002064585   -0.006609165
     15        1          -0.008536222   -0.008658002    0.003143178
     16        1           0.000095547    0.006873697   -0.006564140
     17        1           0.005176270   -0.012954791    0.005220689
     18        1          -0.004546660    0.001692435   -0.000893209
     19        1          -0.001053896    0.010654357   -0.000107000
     20        1          -0.002718362   -0.004729688   -0.004359184
     21        1           0.010388380    0.005359992   -0.000202631
     22        1          -0.000006235   -0.005460385   -0.004597712
     23        1          -0.000839636   -0.005768781    0.010041907
     24        1           0.005137916    0.001894417   -0.000723705
 -------------------------------------------------------------------
 Cartesian Forces:  Max     0.033624895 RMS     0.008046812
 Leave Link  716 at Mon Feb 22 21:25:20 2021, MaxMem=   104857600 cpu:               1.1 elap:               0.1
 (Enter /sw/arch/RedHatEnterpriseServer7/EB_production/2019/software/Gaussian/g16.c01/l103.exe)

 GradGradGradGradGradGradGradGradGradGradGradGradGradGradGradGradGradGrad
 Berny optimization.
 FormGI is forming the generalized inverse of G from B-inverse, IUseBI=4.
 Internal  Forces:  Max     0.021128547 RMS     0.006157269
 Search for a local minimum.
 Step number   1 out of a maximum of  142
 All quantities printed in internal units (Hartrees-Bohrs-Radians)
 RMS Force = .61573D-02 SwitMx=.10000D-02 MixMth= 1
 Mixed Optimization -- RFO/linear search
 Second derivative matrix not updated -- first step.
 ITU=  0
     Eigenvalues ---    0.00230   0.00440   0.00468   0.01159   0.01285
     Eigenvalues ---    0.01307   0.01342   0.01352   0.01358   0.02625
     Eigenvalues ---    0.02980   0.03859   0.04361   0.04648   0.04722
     Eigenvalues ---    0.04985   0.04994   0.05068   0.05609   0.05638
     Eigenvalues ---    0.06602   0.07130   0.07177   0.07364   0.07868
     Eigenvalues ---    0.09327   0.10970   0.11402   0.11499   0.13793
     Eigenvalues ---    0.14817   0.16000   0.16000   0.16000   0.16000
     Eigenvalues ---    0.16000   0.16789   0.17587   0.18931   0.19692
     Eigenvalues ---    0.20174   0.22021   0.25606   0.26659   0.26760
     Eigenvalues ---    0.27222   0.27356   0.34264   0.34388   0.34402
     Eigenvalues ---    0.34424   0.34505   0.34607   0.34730   0.37100
     Eigenvalues ---    0.37895   0.40877   0.41119   0.41507   0.41615
     Eigenvalues ---    0.41686   0.51207   0.51221   0.51228   0.51233
     Eigenvalues ---    0.51294
 RFO step:  Lambda=-2.68902922D-02 EMin= 2.30000000D-03
 Linear search not attempted -- first point.
 Maximum step size (   0.300) exceeded in Quadratic search.
    -- Step size scaled by   0.986
 Iteration  1 RMS(Cart)=  0.08030020 RMS(Int)=  0.00244903
 Iteration  2 RMS(Cart)=  0.00319985 RMS(Int)=  0.00087600
 Iteration  3 RMS(Cart)=  0.00000613 RMS(Int)=  0.00087598
 Iteration  4 RMS(Cart)=  0.00000001 RMS(Int)=  0.00087598
 ITry= 1 IFail=0 DXMaxC= 3.29D-01 DCOld= 1.00D+10 DXMaxT= 3.00D-01 DXLimC= 3.00D+00 Rises=F
 Variable       Old X    -DE/DX   Delta X   Delta X   Delta X     New X
                                 (Linear)    (Quad)   (Total)
    R1        2.69417   0.01407   0.00000   0.03132   0.03132   2.72549
    R2        1.85281  -0.00644   0.00000  -0.01176  -0.01176   1.84105
    R3        2.93568  -0.02113   0.00000  -0.06934  -0.06934   2.86634
    R4        2.06318   0.00698   0.00000   0.01846   0.01846   2.08164
    R5        2.06116   0.01031   0.00000   0.02717   0.02717   2.08833
    R6        2.73741  -0.00521   0.00000  -0.01536  -0.01484   2.72256
    R7        2.94960  -0.01535   0.00000  -0.05068  -0.05015   2.89945
    R8        2.06656   0.00863   0.00000   0.02294   0.02294   2.08950
    R9        2.72726  -0.01029   0.00000  -0.02732  -0.02719   2.70008
   R10        2.69325   0.00634   0.00000   0.01408   0.01408   2.70733
   R11        2.93237  -0.00746   0.00000  -0.02540  -0.02590   2.90646
   R12        2.06487   0.00579   0.00000   0.01536   0.01536   2.08023
   R13        1.85341  -0.00444   0.00000  -0.00813  -0.00813   1.84528
   R14        2.69556   0.00810   0.00000   0.01807   0.01807   2.71363
   R15        2.93598  -0.00900   0.00000  -0.02583  -0.02638   2.90961
   R16        2.06680   0.00879   0.00000   0.02337   0.02337   2.09017
   R17        1.85346  -0.00555   0.00000  -0.01015  -0.01015   1.84330
   R18        2.70061   0.00758   0.00000   0.01706   0.01706   2.71767
   R19        2.93889  -0.01635   0.00000  -0.04968  -0.04978   2.88910
   R20        2.06887   0.00602   0.00000   0.01607   0.01607   2.08493
   R21        1.85367  -0.00573   0.00000  -0.01049  -0.01049   1.84318
   R22        2.70379   0.01026   0.00000   0.02322   0.02322   2.72701
   R23        2.06621   0.00813   0.00000   0.02161   0.02161   2.08782
   R24        1.85353  -0.00513   0.00000  -0.00938  -0.00938   1.84414
    A1        1.82705   0.00761   0.00000   0.04014   0.04014   1.86720
    A2        1.92264  -0.00913   0.00000  -0.03402  -0.03380   1.88884
    A3        1.89502   0.00878   0.00000   0.05174   0.05016   1.94519
    A4        1.88699   0.00846   0.00000   0.05941   0.05871   1.94570
    A5        1.91652  -0.00651   0.00000  -0.05528  -0.05550   1.86102
    A6        1.94908  -0.00258   0.00000  -0.02474  -0.02471   1.92437
    A7        1.89241   0.00169   0.00000   0.00743   0.00457   1.89697
    A8        1.96408  -0.00934   0.00000  -0.06405  -0.06546   1.89862
    A9        2.00303  -0.00647   0.00000  -0.04753  -0.04943   1.95360
   A10        1.84369   0.00533   0.00000   0.03773   0.03939   1.88308
   A11        1.93311   0.00940   0.00000   0.01864   0.01575   1.94886
   A12        1.84233   0.00319   0.00000   0.05870   0.05874   1.90107
   A13        1.86499  -0.00106   0.00000   0.01216   0.01180   1.87680
   A14        2.02910  -0.01053   0.00000  -0.05182  -0.05066   1.97844
   A15        1.87388   0.01458   0.00000   0.09255   0.09279   1.96667
   A16        1.95170   0.00057   0.00000  -0.00232  -0.00352   1.94819
   A17        1.92363  -0.01036   0.00000  -0.09002  -0.09125   1.83237
   A18        1.90217  -0.01148   0.00000  -0.02855  -0.02842   1.87376
   A19        1.88067   0.00482   0.00000   0.04211   0.04306   1.92373
   A20        1.92944   0.00234   0.00000  -0.00834  -0.00987   1.91957
   A21        1.83797   0.00356   0.00000   0.01878   0.01878   1.85675
   A22        1.92707   0.00250   0.00000   0.00152   0.00002   1.92709
   A23        1.95260  -0.00216   0.00000  -0.02398  -0.02452   1.92809
   A24        1.89075  -0.00128   0.00000  -0.00554  -0.00546   1.88529
   A25        1.93239  -0.00490   0.00000  -0.03711  -0.03757   1.89481
   A26        1.86932   0.00414   0.00000   0.05635   0.05658   1.92589
   A27        1.88889   0.00206   0.00000   0.01346   0.01381   1.90269
   A28        1.83631   0.00782   0.00000   0.04126   0.04126   1.87757
   A29        1.93103   0.00720   0.00000   0.03222   0.03138   1.96241
   A30        1.93602   0.00309   0.00000   0.00954   0.00948   1.94550
   A31        1.89746  -0.00328   0.00000  -0.00739  -0.00780   1.88966
   A32        1.93586  -0.01221   0.00000  -0.07435  -0.07369   1.86216
   A33        1.86013   0.00541   0.00000   0.05645   0.05545   1.91558
   A34        1.90115  -0.00010   0.00000  -0.01431  -0.01394   1.88721
   A35        1.83502   0.00770   0.00000   0.04063   0.04063   1.87564
   A36        1.96250  -0.00651   0.00000  -0.03327  -0.03301   1.92950
   A37        1.88789  -0.00303   0.00000  -0.02145  -0.02155   1.86634
   A38        1.92324   0.00238   0.00000  -0.00090  -0.00116   1.92208
   A39        1.90369   0.00623   0.00000   0.02836   0.02773   1.93141
   A40        1.91541  -0.00085   0.00000  -0.01377  -0.01481   1.90059
   A41        1.86842   0.00224   0.00000   0.04539   0.04545   1.91387
   A42        1.84120   0.00375   0.00000   0.01979   0.01979   1.86099
    D1       -3.12676   0.00172   0.00000   0.01847   0.01868  -3.10808
    D2       -1.02749  -0.00631   0.00000  -0.03759  -0.03960  -1.06709
    D3        1.02223   0.00512   0.00000   0.03192   0.03371   1.05594
    D4       -0.94001  -0.00237   0.00000  -0.07826  -0.07609  -1.01610
    D5        3.11125  -0.00145   0.00000  -0.00445  -0.00603   3.10522
    D6        1.06165  -0.00010   0.00000  -0.01816  -0.01794   1.04371
    D7       -3.02627  -0.00345   0.00000  -0.08633  -0.08439  -3.11066
    D8        1.02499  -0.00253   0.00000  -0.01251  -0.01433   1.01066
    D9       -1.02462  -0.00118   0.00000  -0.02622  -0.02623  -1.05085
   D10        1.15710   0.00046   0.00000  -0.04251  -0.04091   1.11619
   D11       -1.07482   0.00138   0.00000   0.03131   0.02914  -1.04568
   D12       -3.12443   0.00273   0.00000   0.01759   0.01724  -3.10719
   D13        3.04121   0.00427   0.00000   0.04759   0.04731   3.08851
   D14       -0.97371  -0.00439   0.00000  -0.05553  -0.05627  -1.02999
   D15        1.03872   0.00069   0.00000   0.00017   0.00139   1.04012
   D16        3.14159  -0.00603   0.00000  -0.06562  -0.06595   3.07564
   D17       -1.03834  -0.00435   0.00000  -0.06540  -0.06548  -1.10382
   D18        0.99873  -0.00209   0.00000  -0.02379  -0.02415   0.97458
   D19        0.89412   0.00412   0.00000   0.04776   0.04810   0.94221
   D20        2.99738   0.00580   0.00000   0.04798   0.04857   3.04594
   D21       -1.24875   0.00806   0.00000   0.08959   0.08990  -1.15885
   D22       -1.10413  -0.00382   0.00000  -0.03785  -0.03817  -1.14230
   D23        0.99913  -0.00214   0.00000  -0.03762  -0.03770   0.96143
   D24        3.03619   0.00012   0.00000   0.00399   0.00363   3.03982
   D25       -1.10203   0.00549   0.00000   0.02202   0.02052  -1.08150
   D26        0.98365   0.00104   0.00000   0.04461   0.04489   1.02855
   D27        3.13728  -0.00304   0.00000  -0.03279  -0.02966   3.10763
   D28       -0.97696   0.00094   0.00000   0.00922   0.00810  -0.96885
   D29       -3.09405  -0.00179   0.00000  -0.02643  -0.02687  -3.12091
   D30        1.09482  -0.00087   0.00000  -0.02471  -0.02316   1.07167
   D31        1.26232  -0.01111   0.00000  -0.10693  -0.10678   1.15554
   D32       -0.89825  -0.00505   0.00000  -0.04283  -0.04240  -0.94065
   D33       -2.97893  -0.00546   0.00000  -0.04139  -0.04136  -3.02029
   D34       -2.95193  -0.00009   0.00000  -0.01215  -0.01235  -2.96427
   D35        1.17068   0.00597   0.00000   0.05195   0.05204   1.22273
   D36       -0.90999   0.00556   0.00000   0.05338   0.05307  -0.85692
   D37       -0.88802   0.00017   0.00000   0.01690   0.01700  -0.87101
   D38       -3.04859   0.00622   0.00000   0.08100   0.08139  -2.96720
   D39        1.15391   0.00582   0.00000   0.08244   0.08242   1.23634
   D40        1.04720   0.00259   0.00000   0.03619   0.03646   1.08366
   D41       -3.06378  -0.00189   0.00000  -0.01990  -0.01967  -3.08345
   D42       -1.00796   0.00034   0.00000   0.00919   0.00869  -0.99927
   D43        3.00876  -0.00531   0.00000  -0.03587  -0.03591   2.97285
   D44        0.85265   0.00306   0.00000   0.02990   0.03000   0.88265
   D45       -1.23740   0.00339   0.00000   0.04641   0.04637  -1.19103
   D46        0.85117  -0.00340   0.00000   0.00668   0.00622   0.85739
   D47       -1.30494   0.00497   0.00000   0.07246   0.07212  -1.23281
   D48        2.88820   0.00530   0.00000   0.08897   0.08849   2.97670
   D49       -1.19265  -0.00687   0.00000  -0.04849  -0.04862  -1.24127
   D50        2.93442   0.00151   0.00000   0.01729   0.01729   2.95171
   D51        0.84438   0.00183   0.00000   0.03380   0.03366   0.87804
   D52        0.98538   0.00146   0.00000   0.03379   0.03506   1.02044
   D53        3.14159   0.00191   0.00000   0.01639   0.01681  -3.12478
   D54       -1.07459  -0.00165   0.00000  -0.00773  -0.00942  -1.08401
   D55       -0.85760   0.00026   0.00000  -0.02602  -0.02678  -0.88438
   D56       -2.95173   0.00400   0.00000   0.00294   0.00293  -2.94881
[...]
   18      H18      8.55  -0.133   -2.05    1.21   -1.00
   19      H19      6.59  -0.041   -0.51    0.93   -0.87
   20      H20      8.49  -0.132   -2.51    1.20   -0.98
   21      H21      6.04  -0.035   -0.19    0.85   -0.64
   22      H22      8.59  -0.132   -2.55    1.21   -1.03
   23      H23      6.21  -0.030    0.12    0.88   -0.60
   24      H24      6.79  -0.090   -0.61    0.96   -0.72
 --------------------------------------------------------------------
 - cavitation energy not included in the total energy.
 - dispersion energy not included in the total energy.
 - repulsion  energy not included in the total energy.
 After PCM corrections, the energy is  -687.470855768     a.u.
 --------------------------------------------------------------------
 Writing COSMO formatted file "WQZGKKKJIJFFOK-HGVZOGFYSA-N.cosmo"
 Recomputed dielectric energy= -0.043805 old= -0.043591 diff=-2.14D-04

 **********************************************************************

            Population analysis using the SCF Density.

 **********************************************************************

 Orbital symmetries:
       Occupied  (A) (A) (A) (A) (A) (A) (A) (A) (A) (A) (A) (A)
                 (A) (A) (A) (A) (A) (A) (A) (A) (A) (A) (A) (A)
                 (A) (A) (A) (A) (A) (A) (A) (A) (A) (A) (A) (A)
                 (A) (A) (A) (A) (A) (A) (A) (A) (A) (A) (A) (A)
       Virtual   (A) (A) (A) (A) (A) (A) (A) (A) (A) (A) (A) (A)
                 (A) (A) (A) (A) (A) (A) (A) (A) (A) (A) (A) (A)
                 (A) (A) (A) (A) (A) (A) (A) (A) (A) (A) (A) (A)
                 (A) (A) (A) (A) (A) (A) (A) (A) (A) (A) (A) (A)
                 (A) (A) (A) (A) (A) (A) (A) (A) (A) (A) (A) (A)
                 (A) (A) (A) (A) (A) (A) (A) (A) (A) (A) (A) (A)
                 (A) (A) (A) (A) (A) (A) (A) (A) (A) (A) (A) (A)
                 (A) (A) (A) (A) (A) (A) (A) (A) (A) (A) (A) (A)
                 (A) (A) (A) (A) (A) (A) (A) (A) (A) (A) (A) (A)
                 (A) (A) (A) (A) (A) (A) (A) (A) (A) (A) (A) (A)
                 (A) (A) (A) (A) (A) (A) (A) (A) (A) (A) (A) (A)
                 (A) (A) (A) (A) (A) (A) (A) (A) (A) (A) (A) (A)
                 (A) (A) (A) (A) (A) (A) (A) (A) (A) (A) (A) (A)
                 (A) (A) (A) (A) (A) (A) (A) (A) (A) (A) (A) (A)
                 (A) (A) (A) (A) (A) (A) (A) (A) (A) (A) (A) (A)
                 (A) (A) (A) (A) (A) (A) (A) (A) (A) (A) (A) (A)
                 (A) (A) (A) (A) (A) (A) (A) (A) (A) (A) (A) (A)
                 (A) (A) (A) (A) (A) (A) (A) (A) (A) (A) (A) (A)
                 (A) (A) (A) (A) (A) (A) (A) (A) (A) (A) (A) (A)
                 (A) (A) (A) (A) (A) (A) (A) (A) (A) (A) (A) (A)
                 (A) (A) (A) (A) (A) (A) (A) (A) (A) (A) (A) (A)
 The electronic state is 1-A.
 Alpha  occ. eigenvalues --  -18.79165 -18.78665 -18.78297 -18.78026 -18.77832
 Alpha  occ. eigenvalues --  -18.77439 -10.00181  -9.95811  -9.95745  -9.95672
 Alpha  occ. eigenvalues --   -9.95573  -9.94526  -0.99284  -0.95996  -0.94574
 Alpha  occ. eigenvalues --   -0.94002  -0.93268  -0.92542  -0.72418  -0.70892
 Alpha  occ. eigenvalues --   -0.63180  -0.58941  -0.56283  -0.53206  -0.49704
 Alpha  occ. eigenvalues --   -0.48717  -0.47565  -0.46368  -0.46237  -0.42874
 Alpha  occ. eigenvalues --   -0.42503  -0.40925  -0.38956  -0.37830  -0.37121
 Alpha  occ. eigenvalues --   -0.36728  -0.34884  -0.33020  -0.32314  -0.31052
 Alpha  occ. eigenvalues --   -0.29898  -0.28527  -0.26787  -0.25216  -0.25028
 Alpha  occ. eigenvalues --   -0.24170  -0.23599  -0.23178
 Alpha virt. eigenvalues --    0.00724   0.02012   0.02318   0.02814   0.04075
 Alpha virt. eigenvalues --    0.06323   0.06553   0.07703   0.08259   0.09758
 Alpha virt. eigenvalues --    0.10379   0.10964   0.11640   0.11937   0.12114
 Alpha virt. eigenvalues --    0.13701   0.15156   0.16086   0.16274   0.17609
 Alpha virt. eigenvalues --    0.18816   0.18988   0.21712   0.21847   0.25136
 Alpha virt. eigenvalues --    0.25816   0.26041   0.26739   0.27996   0.28898
 Alpha virt. eigenvalues --    0.29329   0.29940   0.30478   0.31765   0.32654
 Alpha virt. eigenvalues --    0.33170   0.33706   0.34823   0.35497   0.35871
 Alpha virt. eigenvalues --    0.37142   0.37952   0.38843   0.39219   0.40089
 Alpha virt. eigenvalues --    0.40454   0.40796   0.41873   0.42509   0.42969
 Alpha virt. eigenvalues --    0.43351   0.44638   0.45575   0.46362   0.46399
 Alpha virt. eigenvalues --    0.48295   0.49018   0.51216   0.52438   0.53185
 Alpha virt. eigenvalues --    0.53891   0.54651   0.55877   0.56723   0.57379
 Alpha virt. eigenvalues --    0.58755   0.59176   0.61619   0.63933   0.65409
 Alpha virt. eigenvalues --    0.69781   0.70105   0.72151   0.73146   0.75283
 Alpha virt. eigenvalues --    0.76732   0.80371   0.84398   0.85720   0.88096
 Alpha virt. eigenvalues --    0.89050   0.93565   0.94041   1.00457   1.11661
 Alpha virt. eigenvalues --    1.14293   1.17936   1.20921   1.21471   1.23464
 Alpha virt. eigenvalues --    1.24420   1.25006   1.26247   1.27870   1.29161
 Alpha virt. eigenvalues --    1.29557   1.30750   1.31621   1.32570   1.35146
 Alpha virt. eigenvalues --    1.35410   1.36774   1.36941   1.39592   1.40833
 Alpha virt. eigenvalues --    1.42478   1.43421   1.44356   1.45543   1.47480
 Alpha virt. eigenvalues --    1.48779   1.49801   1.51047   1.52741   1.53535
 Alpha virt. eigenvalues --    1.54685   1.55025   1.59060   1.59445   1.61558
 Alpha virt. eigenvalues --    1.64230   1.65281   1.67523   1.68038   1.69901
 Alpha virt. eigenvalues --    1.71653   1.73405   1.74054   1.76302   1.78199
 Alpha virt. eigenvalues --    1.79076   1.80687   1.85243   1.86419   1.87226
 Alpha virt. eigenvalues --    1.90708   1.91985   1.92498   1.93202   1.94155
 Alpha virt. eigenvalues --    1.95370   1.97165   1.98645   1.99837   1.99942
 Alpha virt. eigenvalues --    2.01557   2.03602   2.05207   2.05901   2.07712
 Alpha virt. eigenvalues --    2.08706   2.10564   2.14472   2.16537   2.20926
 Alpha virt. eigenvalues --    2.21934   2.23812   2.26825   2.27437   2.28732
 Alpha virt. eigenvalues --    2.30937   2.35455   2.38782   2.43412   2.44757
 Alpha virt. eigenvalues --    2.45627   2.46708   2.48712   2.50604   2.52356
 Alpha virt. eigenvalues --    2.53548   2.56263   2.57916   2.58823   2.59857
 Alpha virt. eigenvalues --    2.61389   2.61808   2.62532   2.63378   2.63973
 Alpha virt. eigenvalues --    2.66246   2.67721   2.68762   2.70443   2.71965
 Alpha virt. eigenvalues --    2.73917   2.75537   2.78150   2.82646   2.83047
 Alpha virt. eigenvalues --    2.84108   2.84953   2.86243   2.86808   2.87228
 Alpha virt. eigenvalues --    2.87765   2.89703   2.90171   2.91249   2.92516
 Alpha virt. eigenvalues --    2.94346   2.95573   2.96556   2.98574   2.99377
 Alpha virt. eigenvalues --    3.00245   3.02606   3.04077   3.05782   3.06157
 Alpha virt. eigenvalues --    3.07978   3.09340   3.10144   3.11995   3.12259
 Alpha virt. eigenvalues --    3.15206   3.19623   3.21200   3.24780   3.25191
 Alpha virt. eigenvalues --    3.27890   3.31245   3.32058   3.36674   3.38808
 Alpha virt. eigenvalues --    3.43151   3.44554   3.48227   3.81898   3.84435
 Alpha virt. eigenvalues --    3.88955   3.93959   3.94705   3.95083   4.03610
 Alpha virt. eigenvalues --    4.17344   4.17826   4.18386   4.18650   4.19097
 Alpha virt. eigenvalues --   21.58771  21.65080  21.72679  21.78794  21.81552
 Alpha virt. eigenvalues --   21.89260  43.10191  43.17689  43.26888  43.27981
 Alpha virt. eigenvalues --   43.32337  43.41376
          Condensed to atoms (all electrons):
               1          2          3          4          5          6
     1  O    7.974348   0.338485  -0.113236   0.000998  -0.000389  -0.000106
     2  C    0.338485   5.158472  -0.040079  -0.033320   0.009569  -0.001082
     3  C   -0.113236  -0.040079   6.523806   0.171769  -0.316387  -0.030330
     4  O    0.000998  -0.033320   0.171769   8.082165   0.163623  -0.082716
     5  C   -0.000389   0.009569  -0.316387   0.163623   5.769150   0.253262
     6  O   -0.000106  -0.001082  -0.030330  -0.082716   0.253262   7.998700
     7  C    0.000572   0.001026   0.137451   0.083704  -0.290074  -0.081591
     8  O   -0.000002  -0.001785   0.023106  -0.017360  -0.012138   0.005915
     9  C   -0.000675  -0.024292   0.165075  -0.066352  -0.031492  -0.023577
    10  O    0.000001  -0.000324   0.016820  -0.000277   0.019353  -0.000245
    11  C    0.010640   0.110926  -0.726876  -0.004425   0.218624   0.011075
    12  O   -0.000140  -0.021555  -0.058717   0.004299  -0.004112   0.000041
    13  H    0.305448  -0.043794   0.018531  -0.000433   0.000145  -0.000001
    14  H   -0.054226   0.409989  -0.086540   0.006746   0.000714   0.000043
    15  H   -0.050846   0.386578  -0.026719  -0.002808  -0.001633   0.000188
    16  H    0.011069  -0.037656   0.328322  -0.052403  -0.005263   0.031313
    17  H    0.000094  -0.000438   0.004639  -0.057312   0.428718  -0.049192
    18  H    0.000067   0.000081  -0.000837   0.004529  -0.019440   0.293721
    19  H   -0.000000   0.000163   0.004593   0.009010  -0.069489   0.015630
    20  H   -0.000001  -0.000081  -0.000363  -0.000187   0.006678   0.000202
    21  H    0.000004  -0.003200  -0.016491  -0.001410   0.024135   0.020603
    22  H   -0.000000   0.000090  -0.001052   0.000103  -0.001143   0.000066
    23  H   -0.000280  -0.031117  -0.018945  -0.000315   0.002856   0.000980
    24  H   -0.000010   0.000977   0.018004  -0.000332  -0.001311  -0.000010
               7          8          9         10         11         12
     1  O    0.000572  -0.000002  -0.000675   0.000001   0.010640  -0.000140
     2  C    0.001026  -0.001785  -0.024292  -0.000324   0.110926  -0.021555
     3  C    0.137451   0.023106   0.165075   0.016820  -0.726876  -0.058717
     4  O    0.083704  -0.017360  -0.066352  -0.000277  -0.004425   0.004299
     5  C   -0.290074  -0.012138  -0.031492   0.019353   0.218624  -0.004112
     6  O   -0.081591   0.005915  -0.023577  -0.000245   0.011075   0.000041
     7  C    6.287782   0.206511  -0.157764  -0.062384  -0.236521   0.027588
     8  O    0.206511   7.980573  -0.041806   0.001266  -0.050598  -0.000349
     9  C   -0.157764  -0.041806   6.046844   0.289181  -0.302833  -0.041450
    10  O   -0.062384   0.001266   0.289181   7.992140  -0.121572  -0.003514
    11  C   -0.236521  -0.050598  -0.302833  -0.121572   6.680146   0.248904
    12  O    0.027588  -0.000349  -0.041450  -0.003514   0.248904   7.956063
    13  H   -0.000059   0.000001   0.000115  -0.000000  -0.001830   0.000051
    14  H    0.000719  -0.000060  -0.000765   0.000024   0.025328   0.022330
    15  H   -0.001422   0.000458  -0.000915   0.000006  -0.012830   0.000049
    16  H   -0.017375   0.000617  -0.027215  -0.000592  -0.014329   0.011481
    17  H   -0.086447  -0.005196   0.013233  -0.000243  -0.000595   0.000053
    18  H    0.012462  -0.000209  -0.000827   0.000005   0.001421  -0.000020
    19  H    0.420122  -0.043042  -0.074792  -0.002839   0.012511  -0.000356
    20  H   -0.044422   0.307007   0.013399  -0.000705   0.000159   0.000023
    21  H   -0.104936   0.005805   0.428646  -0.051526  -0.047501   0.004187
    22  H    0.006406   0.000286  -0.041467   0.309764   0.017327   0.000022
    23  H   -0.028692   0.028654  -0.042676   0.002476   0.347266  -0.057519
    24  H    0.005321  -0.000134   0.003437   0.027074  -0.066777   0.303990
              13         14         15         16         17         18
     1  O    0.305448  -0.054226  -0.050846   0.011069   0.000094   0.000067
     2  C   -0.043794   0.409989   0.386578  -0.037656  -0.000438   0.000081
     3  C    0.018531  -0.086540  -0.026719   0.328322   0.004639  -0.000837
     4  O   -0.000433   0.006746  -0.002808  -0.052403  -0.057312   0.004529
     5  C    0.000145   0.000714  -0.001633  -0.005263   0.428718  -0.019440
     6  O   -0.000001   0.000043   0.000188   0.031313  -0.049192   0.293721
     7  C   -0.000059   0.000719  -0.001422  -0.017375  -0.086447   0.012462
     8  O    0.000001  -0.000060   0.000458   0.000617  -0.005196  -0.000209
     9  C    0.000115  -0.000765  -0.000915  -0.027215   0.013233  -0.000827
    10  O   -0.000000   0.000024   0.000006  -0.000592  -0.000243   0.000005
    11  C   -0.001830   0.025328  -0.012830  -0.014329  -0.000595   0.001421
    12  O    0.000051   0.022330   0.000049   0.011481   0.000053  -0.000020
    13  H    0.410226  -0.002342  -0.002146  -0.000277  -0.000004  -0.000004
    14  H   -0.002342   0.595045  -0.055488  -0.009762   0.000048  -0.000020
    15  H   -0.002146  -0.055488   0.610397   0.014061  -0.000285   0.000016
    16  H   -0.000277  -0.009762   0.014061   0.600026   0.000743   0.000312
    17  H   -0.000004   0.000048  -0.000285   0.000743   0.568389  -0.010669
    18  H   -0.000004  -0.000020   0.000016   0.000312  -0.010669   0.404839
    19  H    0.000000   0.000010   0.000008  -0.000754  -0.008471  -0.000416
    20  H    0.000000  -0.000003   0.000034   0.000090   0.004792  -0.000072
    21  H    0.000000   0.000124  -0.000010   0.010691   0.001201  -0.000091
    22  H    0.000000   0.000005  -0.000001  -0.000055  -0.000013  -0.000011
    23  H    0.000002  -0.003493   0.010553   0.014843  -0.000408   0.000081
    24  H   -0.000007   0.000020  -0.000235  -0.000849   0.000010  -0.000001
              19         20         21         22         23         24
     1  O   -0.000000  -0.000001   0.000004  -0.000000  -0.000280  -0.000010
     2  C    0.000163  -0.000081  -0.003200   0.000090  -0.031117   0.000977
     3  C    0.004593  -0.000363  -0.016491  -0.001052  -0.018945   0.018004
     4  O    0.009010  -0.000187  -0.001410   0.000103  -0.000315  -0.000332
     5  C   -0.069489   0.006678   0.024135  -0.001143   0.002856  -0.001311
     6  O    0.015630   0.000202   0.020603   0.000066   0.000980  -0.000010
     7  C    0.420122  -0.044422  -0.104936   0.006406  -0.028692   0.005321
     8  O   -0.043042   0.307007   0.005805   0.000286   0.028654  -0.000134
     9  C   -0.074792   0.013399   0.428646  -0.041467  -0.042676   0.003437
    10  O   -0.002839  -0.000705  -0.051526   0.309764   0.002476   0.027074
    11  C    0.012511   0.000159  -0.047501   0.017327   0.347266  -0.066777
    12  O   -0.000356   0.000023   0.004187   0.000022  -0.057519   0.303990
    13  H    0.000000   0.000000   0.000000   0.000000   0.000002  -0.000007
    14  H    0.000010  -0.000003   0.000124   0.000005  -0.003493   0.000020
    15  H    0.000008   0.000034  -0.000010  -0.000001   0.010553  -0.000235
    16  H   -0.000754   0.000090   0.010691  -0.000055   0.014843  -0.000849
    17  H   -0.008471   0.004792   0.001201  -0.000013  -0.000408   0.000010
    18  H   -0.000416  -0.000072  -0.000091  -0.000011   0.000081  -0.000001
    19  H    0.553823  -0.008154  -0.001151   0.003310   0.000230  -0.000168
    20  H   -0.008154   0.408837  -0.000385   0.000005  -0.000458   0.000010
    21  H   -0.001151  -0.000385   0.533986  -0.010794   0.014516  -0.003640
    22  H    0.003310   0.000005  -0.010794   0.395785  -0.001353  -0.000757
    23  H    0.000230  -0.000458   0.014516  -0.001353   0.614903  -0.005347
    24  H   -0.000168   0.000010  -0.003640  -0.000757  -0.005347   0.416284
 Mulliken charges:
               1
     1  O   -0.421813
     2  C   -0.177631
     3  C    0.024458
     4  O   -0.207297
     5  C   -0.143956
     6  O   -0.362888
     7  C   -0.077979
     8  O   -0.387518
     9  C   -0.081031
    10  O   -0.413889
    11  C   -0.097644
    12  O   -0.391349
    13  H    0.316379
    14  H    0.151552
    15  H    0.132988
    16  H    0.142961
    17  H    0.197355
    18  H    0.315079
    19  H    0.190221
    20  H    0.313593
    21  H    0.197237
    22  H    0.323477
    23  H    0.153246
    24  H    0.304452
 Sum of Mulliken charges =  -0.00000
 Mulliken charges with hydrogens summed into heavy atoms:
               1
     1  O   -0.105433
     2  C    0.106909
     3  C    0.167419
     4  O   -0.207297
     5  C    0.053399
     6  O   -0.047809
     7  C    0.112242
     8  O   -0.073926
     9  C    0.116205
    10  O   -0.090412
    11  C    0.055601
    12  O   -0.086897
 Electronic spatial extent (au):  <R**2>=           2066.8616
 Charge=              0.0000 electrons
 Dipole moment (field-independent basis, Debye):
    X=             -2.2183    Y=             -2.2530    Z=              0.5245  Tot=              3.2050
 Quadrupole moment (field-independent basis, Debye-Ang):
   XX=            -58.5239   YY=            -65.1531   ZZ=            -72.2894
   XY=              6.3345   XZ=             -7.9001   YZ=              2.1636
 Traceless Quadrupole moment (field-independent basis, Debye-Ang):
   XX=              6.7982   YY=              0.1690   ZZ=             -6.9673
   XY=              6.3345   XZ=             -7.9001   YZ=              2.1636
 Octapole moment (field-independent basis, Debye-Ang**2):
  XXX=             13.6857  YYY=            -31.9376  ZZZ=             -1.5245  XYY=            -15.8794
  XXY=              9.8153  XXZ=             -7.3088  XZZ=             -1.2247  YZZ=             -6.1135
  YYZ=              1.7839  XYZ=            -26.8507
 Hexadecapole moment (field-independent basis, Debye-Ang**3):
 XXXX=           -975.5562 YYYY=           -713.7977 ZZZZ=           -314.1364 XXXY=             60.7762
 XXXZ=           -124.2572 YYYX=            -29.9711 YYYZ=             -3.0906 ZZZX=             10.9453
 ZZZY=             11.6569 XXYY=           -352.6254 XXZZ=           -255.3453 YYZZ=           -166.3548
 XXYZ=             37.6685 YYXZ=             19.4667 ZZXY=             -2.4973
 N-N= 8.308585818837D+02 E-N=-3.277628880413D+03  KE= 6.845338395767D+02
 Unable to Open any file for archive entry.
 1\1\GINC-TCN1626\SP\RBP86\TZVP\C6H12O6\ELENAA\22-Feb-2021\0\\# BP86/TZ
 VP SCRF=COSMORS geom=CHECKPOINT guess=CHECKPOINT\\COSMO-file for #WQZG
 KKKJIJFFOK-HGVZOGFYSA-N\\0,1\O,0,2.1451492512,1.0981949335,-4.13365350
 29\C,0,0.8156297005,0.5580165008,-4.2547619045\C,0,-0.1796254571,1.597
 5055878,-3.7751219056\O,0,-0.0377084588,1.7031488384,-2.3369797393\C,0
 ,-0.9170127235,2.6421541406,-1.7259838599\O,0,-0.6974895668,3.97687197
 91,-2.1692471066\C,0,-2.3991342422,2.3097754514,-2.0142437744\O,0,-2.7
 503055324,1.043312596,-1.4418574658\C,0,-2.5919436332,2.2282963527,-3.
 533110724\O,0,-3.9167599973,1.8206657684,-3.9255243898\C,0,-1.62333454
 51,1.2167038744,-4.1461290613\O,0,-1.7305501835,1.2245242445,-5.579504
 6789\H,0,2.7639712293,0.4226508487,-4.4623652832\H,0,0.5769792266,0.31
 39375596,-5.3045365864\H,0,0.6956926096,-0.3563808868,-3.6433040557\H,
 0,0.0561011443,2.5697102737,-4.2453250665\H,0,-0.7072951886,2.53759344
 46,-0.6472658109\H,0,0.2088834268,4.2272241712,-1.9101678517\H,0,-3.02
 74801105,3.120192893,-1.6030313214\H,0,-2.7708458572,1.1481180535,-0.4
 736941064\H,0,-2.3558552515,3.2205778455,-3.9566933627\H,0,-4.49991370
 32,2.5985227667,-3.8744108744\H,0,-1.8518168402,0.2119804464,-3.743042
 1967\H,0,-2.6901558934,1.2277584184,-5.7664449897\\Version=ES64L-G16Re
 vC.01\State=1-A\HF=-687.4708558\RMSD=4.410e-09\Dipole=-0.4541876,0.733
 7236,0.9194152\Quadrupole=0.2938934,-1.8138973,1.5200038,-7.944714,-1.
 5622618,4.1304185\PG=C01 [X(C6H12O6)]\\@
 The archive entry for this job was punched.


 THE UNDERLYING PHYSICAL LAWS NECESSARY FOR THE 
 MATHEMATICAL THEORY OF A LARGE PART OF PHYSICS AND THE
 WHOLE OF CHEMISTRY ARE THUS COMPLETELY KNOWN, AND THE
 DIFFICULTY IS ONLY THAT THE EXACT APPLICATION OF THESE
 LAWS LEADS TO EQUATIONS MUCH TOO COMPLICATED 
 TO BE SOLUBLE.

                                        -- P. A. M. DIRAC, 1929
 Job cpu time:       0 days  0 hours  9 minutes 10.6 seconds.
 Elapsed time:       0 days  0 hours  0 minutes 17.8 seconds.
 File lengths (MBytes):  RWF=     70 Int=      0 D2E=      0 Chk=     10 Scr=      1
 Normal termination of Gaussian 16 at Mon Feb 22 21:29:05 2021.
