 Entering Gaussian System, Link 0=g16
 Input=WWZKQHOCKIZLMA-UHFFFAOYSA-N.gjf
 Output=WWZKQHOCKIZLMA-UHFFFAOYSA-N.log
 Initial command:
 /sw/arch/RedHatEnterpriseServer7/EB_production/2019/software/Gaussian/g16.c01/l1.exe "/scratch-local/elenaa.9715294/Gau-12035.inp" -scrdir="/scratch-local/elenaa.9715294/"
 Entering Link 1 = /sw/arch/RedHatEnterpriseServer7/EB_production/2019/software/Gaussian/g16.c01/l1.exe PID=     12036.
  
 Copyright (c) 1988-2019, Gaussian, Inc.  All Rights Reserved.
  
 This is part of the Gaussian(R) 16 program.  It is based on
 the Gaussian(R) 09 system (copyright 2009, Gaussian, Inc.),
 the Gaussian(R) 03 system (copyright 2003, Gaussian, Inc.),
 the Gaussian(R) 98 system (copyright 1998, Gaussian, Inc.),
 the Gaussian(R) 94 system (copyright 1995, Gaussian, Inc.),
 the Gaussian 92(TM) system (copyright 1992, Gaussian, Inc.),
 the Gaussian 90(TM) system (copyright 1990, Gaussian, Inc.),
 the Gaussian 88(TM) system (copyright 1988, Gaussian, Inc.),
 the Gaussian 86(TM) system (copyright 1986, Carnegie Mellon
 University), and the Gaussian 82(TM) system (copyright 1983,
 Carnegie Mellon University). Gaussian is a federally registered
 trademark of Gaussian, Inc.
  
 This software contains proprietary and confidential information,
 including trade secrets, belonging to Gaussian, Inc.
  
 This software is provided under written license and may be
 used, copied, transmitted, or stored only in accord with that
 written license.
  
 The following legend is applicable only to US Government
 contracts under FAR:
  
                    RESTRICTED RIGHTS LEGEND
  
 Use, reproduction and disclosure by the US Government is
 subject to restrictions as set forth in subparagraphs (a)
 and (c) of the Commercial Computer Software - Restricted
 Rights clause in FAR 52.227-19.
  
 Gaussian, Inc.
 340 Quinnipiac St., Bldg. 40, Wallingford CT 06492
  
  
 ---------------------------------------------------------------
 Warning -- This program may not be used in any manner that
 competes with the business of Gaussian, Inc. or will provide
 assistance to any competitor of Gaussian, Inc.  The licensee
 of this program is prohibited from giving any competitor of
 Gaussian, Inc. access to this program.  By using this program,
 the user acknowledges that Gaussian, Inc. is engaged in the
 business of creating and licensing software in the field of
 computational chemistry and represents and warrants to the
 licensee that it is not a competitor of Gaussian, Inc. and that
 it will not use this program in any manner prohibited above.
 ---------------------------------------------------------------
  

 Cite this work as:
 Gaussian 16, Revision C.01,
 M. J. Frisch, G. W. Trucks, H. B. Schlegel, G. E. Scuseria, 
 M. A. Robb, J. R. Cheeseman, G. Scalmani, V. Barone, 
 G. A. Petersson, H. Nakatsuji, X. Li, M. Caricato, A. V. Marenich, 
 J. Bloino, B. G. Janesko, R. Gomperts, B. Mennucci, H. P. Hratchian, 
 J. V. Ortiz, A. F. Izmaylov, J. L. Sonnenberg, D. Williams-Young, 
 F. Ding, F. Lipparini, F. Egidi, J. Goings, B. Peng, A. Petrone, 
 T. Henderson, D. Ranasinghe, V. G. Zakrzewski, J. Gao, N. Rega, 
 G. Zheng, W. Liang, M. Hada, M. Ehara, K. Toyota, R. Fukuda, 
 J. Hasegawa, M. Ishida, T. Nakajima, Y. Honda, O. Kitao, H. Nakai, 
 T. Vreven, K. Throssell, J. A. Montgomery, Jr., J. E. Peralta, 
 F. Ogliaro, M. J. Bearpark, J. J. Heyd, E. N. Brothers, K. N. Kudin, 
 V. N. Staroverov, T. A. Keith, R. Kobayashi, J. Normand, 
 K. Raghavachari, A. P. Rendell, J. C. Burant, S. S. Iyengar, 
 J. Tomasi, M. Cossi, J. M. Millam, M. Klene, C. Adamo, R. Cammi, 
 J. W. Ochterski, R. L. Martin, K. Morokuma, O. Farkas, 
 J. B. Foresman, and D. J. Fox, Gaussian, Inc., Wallingford CT, 2019.
 
 ******************************************
 Gaussian 16:  ES64L-G16RevC.01  3-Jul-2019
                22-Feb-2021 
 ******************************************
 %chk=WWZKQHOCKIZLMA-UHFFFAOYSA-N.chk
 %NProcShared=32
 Will use up to   32 processors via shared memory.
 -------------------------------------------------------------
 #P BP86/TZVP EmpiricalDispersion=GD3 SCRF=(Solvent=Water) Opt
 -------------------------------------------------------------
 1/18=20,19=15,26=3,38=1/1,3;
 2/9=110,12=2,17=6,18=5,40=1/2;
 3/5=19,7=101,11=2,25=1,30=1,70=2201,71=1,72=1,74=404,124=31/1,2,3;
 4//1;
 5/5=2,38=5,53=1/2;
 6/7=2,8=2,9=2,10=2,28=1/1;
 7//1,2,3,16;
 1/18=20,19=15,26=3/3(2);
 2/9=110/2;
 99//99;
 2/9=110/2;
 3/5=19,7=101,11=2,25=1,30=1,70=2205,71=1,72=1,74=404,124=31/1,2,3;
 4/5=5,16=3,69=1/1;
 5/5=2,38=5,53=1/2;
 7//1,2,3,16;
 1/18=20,19=15,26=3/3(-5);
 2/9=110/2;
 6/7=2,8=2,9=2,10=2,19=2,28=1/1;
 99/9=1/99;
 Leave Link    1 at Mon Feb 22 21:25:09 2021, MaxMem=           0 cpu:               2.7 elap:               0.1
 (Enter /sw/arch/RedHatEnterpriseServer7/EB_production/2019/software/Gaussian/g16.c01/l101.exe)
 -------------------------------------
 Particle #WWZKQHOCKIZLMA-UHFFFAOYSA-N
 -------------------------------------
 Symbolic Z-matrix:
 Charge =  0 Multiplicity = 1
 C                     0.51442   4.49519  -1.24922 
 C                     0.54345   2.96354  -1.03744 
 C                     1.93721   2.35948  -1.35812 
 C                     1.99993   0.82067  -1.16085 
 C                     3.40142   0.24037  -1.49294 
 C                     3.48656  -1.29285  -1.27365 
 C                     4.90161  -1.8605   -1.56097 
 C                     4.97459  -3.30551  -1.27382 
 O                     4.33227  -4.13003  -1.96135 
 O                     5.71741  -3.77593  -0.2445 
 H                     0.75124   4.74023  -2.28733 
 H                     1.2425    4.98206  -0.59627 
 H                    -0.47738   4.88397  -1.01687 
 H                    -0.21317   2.5062   -1.68052 
 H                     0.28116   2.74852   0.00188 
 H                     2.19243   2.59354  -2.39587 
 H                     2.68242   2.83048  -0.71027 
 H                     1.2565    0.34688  -1.80782 
 H                     1.75      0.58325  -0.12215 
 H                     3.64077   0.46481  -2.53565 
 H                     4.14635   0.73298  -0.86127 
 H                     2.75695  -1.78865  -1.92251 
 H                     3.22115  -1.5136   -0.23532 
 H                     5.16856  -1.69342  -2.60866 
 H                     5.62946  -1.33199  -0.93999 
 H                     5.72325  -4.73661  -0.04756 
 
 ITRead=  0  0  0  0  0  0  0  0  0  0  0  0  0  0  0  0  0  0  0  0
 ITRead=  0  0  0  0  0  0
 MicOpt= -1 -1 -1 -1 -1 -1 -1 -1 -1 -1 -1 -1 -1 -1 -1 -1 -1 -1 -1 -1
 MicOpt= -1 -1 -1 -1 -1 -1
 NAtoms=     26 NQM=       26 NQMF=       0 NMMI=      0 NMMIF=      0
                NMic=       0 NMicF=      0.
                    Isotopes and Nuclear Properties:
 (Nuclear quadrupole moments (NQMom) in fm**2, nuclear magnetic moments (NMagM)
  in nuclear magnetons)

  Atom         1           2           3           4           5           6           7           8           9          10
 IAtWgt=          12          12          12          12          12          12          12          12          16          16
 AtmWgt=  12.0000000  12.0000000  12.0000000  12.0000000  12.0000000  12.0000000  12.0000000  12.0000000  15.9949146  15.9949146
 NucSpn=           0           0           0           0           0           0           0           0           0           0
 AtZEff=  -0.0000000  -0.0000000  -0.0000000  -0.0000000  -0.0000000  -0.0000000  -0.0000000  -0.0000000  -0.0000000  -0.0000000
 NQMom=    0.0000000   0.0000000   0.0000000   0.0000000   0.0000000   0.0000000   0.0000000   0.0000000   0.0000000   0.0000000
 NMagM=    0.0000000   0.0000000   0.0000000   0.0000000   0.0000000   0.0000000   0.0000000   0.0000000   0.0000000   0.0000000
 AtZNuc=   6.0000000   6.0000000   6.0000000   6.0000000   6.0000000   6.0000000   6.0000000   6.0000000   8.0000000   8.0000000

  Atom        11          12          13          14          15          16          17          18          19          20
 IAtWgt=           1           1           1           1           1           1           1           1           1           1
 AtmWgt=   1.0078250   1.0078250   1.0078250   1.0078250   1.0078250   1.0078250   1.0078250   1.0078250   1.0078250   1.0078250
 NucSpn=           1           1           1           1           1           1           1           1           1           1
 AtZEff=  -0.0000000  -0.0000000  -0.0000000  -0.0000000  -0.0000000  -0.0000000  -0.0000000  -0.0000000  -0.0000000  -0.0000000
 NQMom=    0.0000000   0.0000000   0.0000000   0.0000000   0.0000000   0.0000000   0.0000000   0.0000000   0.0000000   0.0000000
 NMagM=    2.7928460   2.7928460   2.7928460   2.7928460   2.7928460   2.7928460   2.7928460   2.7928460   2.7928460   2.7928460
 AtZNuc=   1.0000000   1.0000000   1.0000000   1.0000000   1.0000000   1.0000000   1.0000000   1.0000000   1.0000000   1.0000000

  Atom        21          22          23          24          25          26
 IAtWgt=           1           1           1           1           1           1
 AtmWgt=   1.0078250   1.0078250   1.0078250   1.0078250   1.0078250   1.0078250
 NucSpn=           1           1           1           1           1           1
 AtZEff=  -0.0000000  -0.0000000  -0.0000000  -0.0000000  -0.0000000  -0.0000000
 NQMom=    0.0000000   0.0000000   0.0000000   0.0000000   0.0000000   0.0000000
 NMagM=    2.7928460   2.7928460   2.7928460   2.7928460   2.7928460   2.7928460
 AtZNuc=   1.0000000   1.0000000   1.0000000   1.0000000   1.0000000   1.0000000
 Leave Link  101 at Mon Feb 22 21:25:09 2021, MaxMem=   104857600 cpu:               3.0 elap:               0.1
 (Enter /sw/arch/RedHatEnterpriseServer7/EB_production/2019/software/Gaussian/g16.c01/l103.exe)

 GradGradGradGradGradGradGradGradGradGradGradGradGradGradGradGradGradGrad
 Berny optimization.
 Initialization pass.
                           ----------------------------
                           !    Initial Parameters    !
                           ! (Angstroms and Degrees)  !
 --------------------------                            --------------------------
 ! Name  Definition              Value          Derivative Info.                !
 --------------------------------------------------------------------------------
 ! R1    R(1,2)                  1.5465         estimate D2E/DX2                !
 ! R2    R(1,11)                 1.0926         estimate D2E/DX2                !
 ! R3    R(1,12)                 1.0925         estimate D2E/DX2                !
 ! R4    R(1,13)                 1.0903         estimate D2E/DX2                !
 ! R5    R(2,3)                  1.5525         estimate D2E/DX2                !
 ! R6    R(2,14)                 1.0932         estimate D2E/DX2                !
 ! R7    R(2,15)                 1.0933         estimate D2E/DX2                !
 ! R8    R(3,4)                  1.5527         estimate D2E/DX2                !
 ! R9    R(3,16)                 1.094          estimate D2E/DX2                !
 ! R10   R(3,17)                 1.094          estimate D2E/DX2                !
 ! R11   R(4,5)                  1.5528         estimate D2E/DX2                !
 ! R12   R(4,18)                 1.0935         estimate D2E/DX2                !
 ! R13   R(4,19)                 1.0944         estimate D2E/DX2                !
 ! R14   R(5,6)                  1.5512         estimate D2E/DX2                !
 ! R15   R(5,20)                 1.0931         estimate D2E/DX2                !
 ! R16   R(5,21)                 1.0939         estimate D2E/DX2                !
 ! R17   R(6,7)                  1.5515         estimate D2E/DX2                !
 ! R18   R(6,22)                 1.0951         estimate D2E/DX2                !
 ! R19   R(6,23)                 1.0942         estimate D2E/DX2                !
 ! R20   R(7,8)                  1.4751         estimate D2E/DX2                !
 ! R21   R(7,24)                 1.094          estimate D2E/DX2                !
 ! R22   R(7,25)                 1.093          estimate D2E/DX2                !
 ! R23   R(8,9)                  1.251          estimate D2E/DX2                !
 ! R24   R(8,10)                 1.3537         estimate D2E/DX2                !
 ! R25   R(10,26)                0.9807         estimate D2E/DX2                !
 ! A1    A(2,1,11)             110.3748         estimate D2E/DX2                !
 ! A2    A(2,1,12)             110.3054         estimate D2E/DX2                !
 ! A3    A(2,1,13)             109.9405         estimate D2E/DX2                !
 ! A4    A(11,1,12)            108.8729         estimate D2E/DX2                !
 ! A5    A(11,1,13)            108.6426         estimate D2E/DX2                !
 ! A6    A(12,1,13)            108.6602         estimate D2E/DX2                !
 ! A7    A(1,2,3)              111.9574         estimate D2E/DX2                !
 ! A8    A(1,2,14)             108.7096         estimate D2E/DX2                !
 ! A9    A(1,2,15)             108.6915         estimate D2E/DX2                !
 ! A10   A(3,2,14)             109.6971         estimate D2E/DX2                !
 ! A11   A(3,2,15)             109.5861         estimate D2E/DX2                !
 ! A12   A(14,2,15)            108.1128         estimate D2E/DX2                !
 ! A13   A(2,3,4)              113.3055         estimate D2E/DX2                !
 ! A14   A(2,3,16)             108.7915         estimate D2E/DX2                !
 ! A15   A(2,3,17)             108.7649         estimate D2E/DX2                !
 ! A16   A(4,3,16)             108.8525         estimate D2E/DX2                !
 ! A17   A(4,3,17)             108.9005         estimate D2E/DX2                !
 ! A18   A(16,3,17)            108.1017         estimate D2E/DX2                !
 ! A19   A(3,4,5)              112.3127         estimate D2E/DX2                !
 ! A20   A(3,4,18)             109.0733         estimate D2E/DX2                !
 ! A21   A(3,4,19)             109.0481         estimate D2E/DX2                !
 ! A22   A(5,4,18)             108.9752         estimate D2E/DX2                !
 ! A23   A(5,4,19)             109.1487         estimate D2E/DX2                !
 ! A24   A(18,4,19)            108.1967         estimate D2E/DX2                !
 ! A25   A(4,5,6)              112.8732         estimate D2E/DX2                !
 ! A26   A(4,5,20)             108.9593         estimate D2E/DX2                !
 ! A27   A(4,5,21)             108.8349         estimate D2E/DX2                !
 ! A28   A(6,5,20)             109.0129         estimate D2E/DX2                !
 ! A29   A(6,5,21)             109.0326         estimate D2E/DX2                !
 ! A30   A(20,5,21)            108.0142         estimate D2E/DX2                !
 ! A31   A(5,6,7)              112.6761         estimate D2E/DX2                !
 ! A32   A(5,6,22)             109.098          estimate D2E/DX2                !
 ! A33   A(5,6,23)             108.6779         estimate D2E/DX2                !
 ! A34   A(7,6,22)             109.408          estimate D2E/DX2                !
 ! A35   A(7,6,23)             108.8532         estimate D2E/DX2                !
 ! A36   A(22,6,23)            108.0182         estimate D2E/DX2                !
 ! A37   A(6,7,8)              111.5609         estimate D2E/DX2                !
 ! A38   A(6,7,24)             110.1223         estimate D2E/DX2                !
 ! A39   A(6,7,25)             108.9789         estimate D2E/DX2                !
 ! A40   A(8,7,24)             108.903          estimate D2E/DX2                !
 ! A41   A(8,7,25)             109.2768         estimate D2E/DX2                !
 ! A42   A(24,7,25)            107.9234         estimate D2E/DX2                !
 ! A43   A(7,8,9)              120.8805         estimate D2E/DX2                !
 ! A44   A(7,8,10)             121.0365         estimate D2E/DX2                !
 ! A45   A(9,8,10)             118.0714         estimate D2E/DX2                !
 ! A46   A(8,10,26)            119.7607         estimate D2E/DX2                !
 ! D1    D(11,1,2,3)            60.073          estimate D2E/DX2                !
 ! D2    D(11,1,2,14)          -61.2741         estimate D2E/DX2                !
 ! D3    D(11,1,2,15)         -178.7314         estimate D2E/DX2                !
 ! D4    D(12,1,2,3)           -60.2813         estimate D2E/DX2                !
 ! D5    D(12,1,2,14)          178.3716         estimate D2E/DX2                !
 ! D6    D(12,1,2,15)           60.9143         estimate D2E/DX2                !
 ! D7    D(13,1,2,3)           179.9069         estimate D2E/DX2                !
 ! D8    D(13,1,2,14)           58.5597         estimate D2E/DX2                !
 ! D9    D(13,1,2,15)          -58.8975         estimate D2E/DX2                !
 ! D10   D(1,2,3,4)           -179.7827         estimate D2E/DX2                !
 ! D11   D(1,2,3,16)           -58.5692         estimate D2E/DX2                !
 ! D12   D(1,2,3,17)            58.9616         estimate D2E/DX2                !
 ! D13   D(14,2,3,4)           -59.0066         estimate D2E/DX2                !
 ! D14   D(14,2,3,16)           62.2069         estimate D2E/DX2                !
 ! D15   D(14,2,3,17)          179.7377         estimate D2E/DX2                !
 ! D16   D(15,2,3,4)            59.5397         estimate D2E/DX2                !
 ! D17   D(15,2,3,16)         -179.2468         estimate D2E/DX2                !
 ! D18   D(15,2,3,17)          -61.716          estimate D2E/DX2                !
 ! D19   D(2,3,4,5)            179.7785         estimate D2E/DX2                !
 ! D20   D(2,3,4,18)            58.862          estimate D2E/DX2                !
 ! D21   D(2,3,4,19)           -59.1034         estimate D2E/DX2                !
 ! D22   D(16,3,4,5)            58.5993         estimate D2E/DX2                !
 ! D23   D(16,3,4,18)          -62.3172         estimate D2E/DX2                !
 ! D24   D(16,3,4,19)          179.7174         estimate D2E/DX2                !
 ! D25   D(17,3,4,5)           -59.042          estimate D2E/DX2                !
 ! D26   D(17,3,4,18)         -179.9585         estimate D2E/DX2                !
 ! D27   D(17,3,4,19)           62.076          estimate D2E/DX2                !
 ! D28   D(3,4,5,6)            178.8789         estimate D2E/DX2                !
 ! D29   D(3,4,5,20)           -59.87           estimate D2E/DX2                !
 ! D30   D(3,4,5,21)            57.6898         estimate D2E/DX2                !
 ! D31   D(18,4,5,6)           -60.1482         estimate D2E/DX2                !
 ! D32   D(18,4,5,20)           61.1029         estimate D2E/DX2                !
 ! D33   D(18,4,5,21)          178.6627         estimate D2E/DX2                !
 ! D34   D(19,4,5,6)            57.8186         estimate D2E/DX2                !
 ! D35   D(19,4,5,20)          179.0697         estimate D2E/DX2                !
 ! D36   D(19,4,5,21)          -63.3705         estimate D2E/DX2                !
 ! D37   D(4,5,6,7)           -178.0724         estimate D2E/DX2                !
 ! D38   D(4,5,6,22)            60.2073         estimate D2E/DX2                !
 ! D39   D(4,5,6,23)           -57.3465         estimate D2E/DX2                !
 ! D40   D(20,5,6,7)            60.7069         estimate D2E/DX2                !
 ! D41   D(20,5,6,22)          -61.0135         estimate D2E/DX2                !
 ! D42   D(20,5,6,23)         -178.5673         estimate D2E/DX2                !
 ! D43   D(21,5,6,7)           -56.9956         estimate D2E/DX2                !
 ! D44   D(21,5,6,22)         -178.7159         estimate D2E/DX2                !
 ! D45   D(21,5,6,23)           63.7303         estimate D2E/DX2                !
 ! D46   D(5,6,7,8)            176.8649         estimate D2E/DX2                !
 ! D47   D(5,6,7,24)           -62.0868         estimate D2E/DX2                !
 ! D48   D(5,6,7,25)            56.1163         estimate D2E/DX2                !
 ! D49   D(22,6,7,8)           -61.5906         estimate D2E/DX2                !
 ! D50   D(22,6,7,24)           59.4578         estimate D2E/DX2                !
 ! D51   D(22,6,7,25)          177.6609         estimate D2E/DX2                !
 ! D52   D(23,6,7,8)            56.2394         estimate D2E/DX2                !
 ! D53   D(23,6,7,24)          177.2878         estimate D2E/DX2                !
 ! D54   D(23,6,7,25)          -64.5091         estimate D2E/DX2                !
 ! D55   D(6,7,8,9)             66.8358         estimate D2E/DX2                !
 ! D56   D(6,7,8,10)          -111.9073         estimate D2E/DX2                !
 ! D57   D(24,7,8,9)           -54.9204         estimate D2E/DX2                !
 ! D58   D(24,7,8,10)          126.3365         estimate D2E/DX2                !
 ! D59   D(25,7,8,9)          -172.59           estimate D2E/DX2                !
 ! D60   D(25,7,8,10)            8.6669         estimate D2E/DX2                !
 ! D61   D(7,8,10,26)          177.4823         estimate D2E/DX2                !
 ! D62   D(9,8,10,26)           -1.2952         estimate D2E/DX2                !
 --------------------------------------------------------------------------------
 Trust Radius=3.00D-01 FncErr=1.00D-07 GrdErr=1.00D-06 EigMax=2.50D+02 EigMin=1.00D-04
 Number of steps in this run=    143 maximum allowed number of steps=    156.
 GradGradGradGradGradGradGradGradGradGradGradGradGradGradGradGradGradGrad

 Leave Link  103 at Mon Feb 22 21:25:09 2021, MaxMem=   104857600 cpu:               0.4 elap:               0.0
 (Enter /sw/arch/RedHatEnterpriseServer7/EB_production/2019/software/Gaussian/g16.c01/l202.exe)
                          Input orientation:                          
 ---------------------------------------------------------------------
 Center     Atomic      Atomic             Coordinates (Angstroms)
 Number     Number       Type             X           Y           Z
 ---------------------------------------------------------------------
      1          6           0        0.514420    4.495190   -1.249220
      2          6           0        0.543450    2.963540   -1.037440
      3          6           0        1.937210    2.359480   -1.358120
      4          6           0        1.999930    0.820670   -1.160850
      5          6           0        3.401420    0.240370   -1.492940
      6          6           0        3.486560   -1.292850   -1.273650
      7          6           0        4.901610   -1.860500   -1.560970
      8          6           0        4.974590   -3.305510   -1.273820
      9          8           0        4.332270   -4.130030   -1.961350
     10          8           0        5.717410   -3.775930   -0.244500
     11          1           0        0.751240    4.740230   -2.287330
     12          1           0        1.242500    4.982060   -0.596270
     13          1           0       -0.477380    4.883970   -1.016870
     14          1           0       -0.213170    2.506200   -1.680520
     15          1           0        0.281160    2.748520    0.001880
     16          1           0        2.192430    2.593540   -2.395870
     17          1           0        2.682420    2.830480   -0.710270
     18          1           0        1.256500    0.346880   -1.807820
     19          1           0        1.750000    0.583250   -0.122150
     20          1           0        3.640770    0.464810   -2.535650
     21          1           0        4.146350    0.732980   -0.861270
     22          1           0        2.756950   -1.788650   -1.922510
     23          1           0        3.221150   -1.513600   -0.235320
     24          1           0        5.168560   -1.693420   -2.608660
     25          1           0        5.629460   -1.331990   -0.939990
     26          1           0        5.723250   -4.736610   -0.047560
 ---------------------------------------------------------------------
                    Distance matrix (angstroms):
                    1          2          3          4          5
     1  C    0.000000
     2  C    1.546494   0.000000
     3  C    2.568550   1.552511   0.000000
     4  C    3.964423   2.593927   1.552670   0.000000
     5  C    5.147588   3.973805   2.579286   1.552806   0.000000
     6  C    6.506583   5.180207   3.968266   2.586457   1.551161
     7  C    7.729128   6.522193   5.161109   3.970959   2.582412
     8  C    8.985802   7.680616   6.428444   5.087900   3.885375
     9  O    9.459256   8.094906   6.943626   5.530826   4.492915
    10  O    9.823034   8.533409   7.292004   5.982314   4.801362
    11  H    1.092612   2.182207   2.817433   4.265107   5.282353
    12  H    1.092468   2.181221   2.817971   4.267273   5.286641
    13  H    1.090323   2.174987   3.509950   4.761114   6.069164
    14  H    2.161363   1.093245   2.179358   2.829996   4.270179
    15  H    2.161138   1.093259   2.177947   2.832440   4.273327
    16  H    2.783307   2.168264   1.094005   2.169193   2.795416
    17  H    2.786028   2.167934   1.094024   2.169827   2.799679
    18  H    4.251023   2.819368   2.171671   1.093497   2.170524
    19  H    4.254435   2.821223   2.172018   1.094409   2.173435
    20  H    5.260507   4.252255   2.806861   2.170039   1.093118
    21  H    5.243629   4.241146   2.787949   2.168999   1.093889
    22  H    6.705886   5.316601   4.265852   2.821658   2.171818
    23  H    6.667829   5.278092   4.232013   2.792275   2.165760
    24  H    7.861806   6.748900   5.332117   4.296163   2.847307
    25  H    7.759851   6.657971   5.237795   4.225661   2.782487
    26  H   10.667803   9.332872   8.148997   6.781290   5.678939
                    6          7          8          9         10
     6  C    0.000000
     7  C    1.551498   0.000000
     8  C    2.503005   1.475071   0.000000
     9  O    3.039366   2.373862   1.251042   0.000000
    10  O    3.493069   2.463229   1.353727   2.234183   0.000000
    11  H    6.701312   7.830888   9.143184   9.571392  10.067819
    12  H    6.698443   7.819230   9.114351   9.718040   9.841288
    13  H    7.343832   8.643926   9.841625  10.260457  10.675479
    14  H    5.318489   6.726317   7.800912   8.048568   8.757802
    15  H    5.313590   6.710747   7.765757   8.220719   8.495997
    16  H    4.247138   5.279696   6.618021   7.069237   7.591049
    17  H    4.238619   5.258687   6.574344   7.261949   7.285105
    18  H    2.819081   4.268523   5.239208   5.433844   6.272260
    19  H    2.803809   4.239665   5.181388   5.680298   5.895571
    20  H    2.169284   2.819004   4.193638   4.681938   5.248398
    21  H    2.170108   2.790365   4.143137   4.989350   4.814447
    22  H    1.095065   2.176107   2.763981   2.822269   3.940726
    23  H    1.094213   2.168325   2.713665   3.325579   3.368907
    24  H    2.184452   1.093998   2.101965   2.656211   3.198021
    25  H    2.169074   1.093025   2.105963   3.248831   2.542496
    26  H    4.285506   3.352240   2.027869   2.442408   0.980676
                   11         12         13         14         15
    11  H    0.000000
    12  H    1.777499   0.000000
    13  H    1.773200   1.773278   0.000000
    14  H    2.507827   3.069928   2.482746   0.000000
    15  H    3.070565   2.504128   2.484629   1.770184   0.000000
    16  H    2.587873   3.137826   3.778306   2.511228   3.070208
    17  H    3.140656   2.591459   3.780894   3.070991   2.505978
    18  H    4.448229   4.790923   4.921090   2.615110   3.161357
    19  H    4.792286   4.453299   4.925235   3.159160   2.619402
    20  H    5.166262   5.469775   6.228549   4.444252   4.789715
    21  H    5.442286   5.153373   6.215610   4.777122   4.443774
    22  H    6.839754   7.063638   7.470270   5.227419   5.515317
    23  H    7.030049   6.799922   7.430938   5.481054   5.183191
    24  H    7.810750   8.001606   8.813200   6.889214   7.101579
    25  H    7.904696   7.696154   8.714216   7.029681   6.792790
    26  H   10.933798  10.715911  11.486642   9.506100   9.254510
                   16         17         18         19         20
    16  H    0.000000
    17  H    1.771293   0.000000
    18  H    2.503847   3.066942   0.000000
    19  H    3.067053   2.503065   1.772257   0.000000
    20  H    2.578511   3.137968   2.495674   3.068228   0.000000
    21  H    3.103947   2.562303   3.065332   2.512212   1.769484
    22  H    4.443686   4.776133   2.612469   3.143430   2.497030
    23  H    4.753403   4.403049   3.129535   2.563956   3.062957
    24  H    5.223089   5.500041   4.484237   4.801303   2.645265
    25  H    5.416876   5.105289   4.763876   4.403092   3.119216
    26  H    8.468314   8.182095   6.992299   6.640270   6.130423
                   21         22         23         24         25
    21  H    0.000000
    22  H    3.068433   0.000000
    23  H    2.508970   1.771368   0.000000
    24  H    3.160016   2.509130   3.075302   0.000000
    25  H    2.543602   3.070048   2.515850   1.768480   0.000000
    26  H    5.750231   4.583104   4.084550   4.015958   3.520890
                   26
    26  H    0.000000
 Stoichiometry    C8H16O2
 Framework group  C1[X(C8H16O2)]
 Deg. of freedom    72
 Full point group                 C1      NOp   1
 Largest Abelian subgroup         C1      NOp   1
 Largest concise Abelian subgroup C1      NOp   1
                         Standard orientation:                         
 ---------------------------------------------------------------------
 Center     Atomic      Atomic             Coordinates (Angstroms)
 Number     Number       Type             X           Y           Z
 ---------------------------------------------------------------------
      1          6           0       -5.420361   -0.201451    0.042952
      2          6           0       -4.091098    0.421273   -0.443791
      3          6           0       -2.857785   -0.260358    0.207831
      4          6           0       -1.505139    0.345013   -0.255483
      5          6           0       -0.288295   -0.349505    0.413949
      6          6           0        1.071277    0.226898   -0.060840
      7          6           0        2.284604   -0.501956    0.574578
      8          6           0        3.562824    0.015259    0.050672
      9          8           0        3.933376    1.183760    0.300477
     10          8           0        4.356466   -0.750639   -0.734255
     11          1           0       -5.516223   -0.094889    1.126122
     12          1           0       -5.457609   -1.263012   -0.212368
     13          1           0       -6.262756    0.301508   -0.432658
     14          1           0       -4.093787    1.487320   -0.201465
     15          1           0       -4.034077    0.319966   -1.530851
     16          1           0       -2.934755   -0.163175    1.294789
     17          1           0       -2.872646   -1.325819   -0.040082
     18          1           0       -1.486964    1.410055   -0.008321
     19          1           0       -1.422558    0.244896   -1.342170
     20          1           0       -0.365233   -0.233312    1.498147
     21          1           0       -0.321943   -1.418652    0.185071
     22          1           0        1.115421    1.292298    0.188439
     23          1           0        1.131594    0.131161   -1.149186
     24          1           0        2.271008   -0.378192    1.661468
     25          1           0        2.211308   -1.570549    0.356769
     26          1           0        5.184318   -0.375611   -1.102685
 ---------------------------------------------------------------------
 Rotational constants (GHZ):           5.5600742           0.2998679           0.2961139
 Leave Link  202 at Mon Feb 22 21:25:09 2021, MaxMem=   104857600 cpu:               0.8 elap:               0.1
 (Enter /sw/arch/RedHatEnterpriseServer7/EB_production/2019/software/Gaussian/g16.c01/l301.exe)
 Standard basis: TZVP (5D, 7F)
 Ernie: Thresh=  0.10000D-02 Tol=  0.10000D-05 Strict=F.
 There are   296 symmetry adapted cartesian basis functions of A   symmetry.
 There are   286 symmetry adapted basis functions of A   symmetry.
   286 basis functions,   478 primitive gaussians,   296 cartesian basis functions
    40 alpha electrons       40 beta electrons
       nuclear repulsion energy       509.2332836561 Hartrees.
 IExCor=  404 DFT=T Ex=B Corr=P86 ExCW=0 ScaHFX=  0.000000
 ScaDFX=  1.000000  1.000000  1.000000  1.000000 ScalE2=  1.000000  1.000000
 IRadAn=      5 IRanWt=     -1 IRanGd=            0 ICorTp=0 IEmpDi=131
 NAtoms=   26 NActive=   26 NUniq=   26 SFac= 1.00D+00 NAtFMM=   60 NAOKFM=F Big=F
 Integral buffers will be    131072 words long.
 Raffenetti 2 integral format.
 Two-electron integral symmetry is turned on.
 R6Disp:  Grimme-D3 Dispersion energy=       -0.0223372343 Hartrees.
 Nuclear repulsion after empirical dispersion term =      509.2109464218 Hartrees.
 ------------------------------------------------------------------------------
 Polarizable Continuum Model (PCM)
 =================================
 Model                : PCM.
 Atomic radii         : UFF (Universal Force Field).
 Polarization charges : Total charges.
 Charge compensation  : None.
 Solution method      : On-the-fly selection.
 Cavity type          : Scaled VdW (van der Waals Surface) (Alpha=1.100).
 Cavity algorithm     : GePol (No added spheres)
                        Default sphere list used, NSphG=   26.
                        Lebedev-Laikov grids with approx.  5.0 points / Ang**2.
                        Smoothing algorithm: York/Karplus (Gamma=1.0000).
                        Polarization charges: spherical gaussians, with
                                              point-specific exponents (IZeta= 3).
                        Self-potential: point-specific (ISelfS= 7).
                        Self-field    : sphere-specific E.n sum rule (ISelfD= 2).
 1st derivatives      : Analytical E(r).r(x)/FMM algorithm (CHGder, D1EAlg=3).
                        Cavity 1st derivative terms included.
 Solvent              : Water, Eps=  78.355300 Eps(inf)=   1.777849
 ------------------------------------------------------------------------------
 GePol: Number of generator spheres                  =      26
 GePol: Total number of spheres                      =      26
 GePol: Number of exposed spheres                    =      26 (100.00%)
 GePol: Number of points                             =    1919
 GePol: Average weight of points                     =       0.14
 GePol: Minimum weight of points                     =   0.11D-08
 GePol: Maximum weight of points                     =    0.20577
 GePol: Number of points with low weight             =     130
 GePol: Fraction of low-weight points (<1% of avg)   =       6.77%
 GePol: Cavity surface area                          =    260.173 Ang**2
 GePol: Cavity volume                                =    251.409 Ang**3
 Leave Link  301 at Mon Feb 22 21:25:09 2021, MaxMem=   104857600 cpu:               1.6 elap:               0.1
 (Enter /sw/arch/RedHatEnterpriseServer7/EB_production/2019/software/Gaussian/g16.c01/l302.exe)
 NPDir=0 NMtPBC=     1 NCelOv=     1 NCel=       1 NClECP=     1 NCelD=      1
         NCelK=      1 NCelE2=     1 NClLst=     1 CellRange=     0.0.
 One-electron integrals computed using PRISM.
 One-electron integral symmetry used in STVInt
 PrsmSu:  requested number of processors reduced to:  28 ShMem   1 Linda.
 NBasis=   286 RedAO= T EigKep=  8.30D-05  NBF=   286
 NBsUse=   286 1.00D-06 EigRej= -1.00D+00 NBFU=   286
 Precomputing XC quadrature grid using
 IXCGrd= 4 IRadAn=           5 IRanWt=          -1 IRanGd=           0 AccXCQ= 0.00D+00.
 Generated NRdTot=       0 NPtTot=           0 NUsed=           0 NTot=          32
 NSgBfM=   289   289   289   289   289 MxSgAt=    26 MxSgA2=    26.
 Leave Link  302 at Mon Feb 22 21:25:10 2021, MaxMem=   104857600 cpu:               7.9 elap:               0.3
 (Enter /sw/arch/RedHatEnterpriseServer7/EB_production/2019/software/Gaussian/g16.c01/l303.exe)
 DipDrv:  MaxL=1.
 Leave Link  303 at Mon Feb 22 21:25:10 2021, MaxMem=   104857600 cpu:               2.5 elap:               0.1
 (Enter /sw/arch/RedHatEnterpriseServer7/EB_production/2019/software/Gaussian/g16.c01/l401.exe)
 ExpMin= 9.52D-02 ExpMax= 2.70D+04 ExpMxC= 9.22D+02 IAcc=3 IRadAn=         5 AccDes= 0.00D+00
 Harris functional with IExCor=  404 and IRadAn=       5 diagonalized for initial guess.
 HarFok:  IExCor=  404 AccDes= 0.00D+00 IRadAn=         5 IDoV= 1 UseB2=F ITyADJ=14
 ICtDFT=  3500011 ScaDFX=  1.000000  1.000000  1.000000  1.000000
 FoFCou: FMM=F IPFlag=           0 FMFlag=      100000 FMFlg1=           0
         NFxFlg=           0 DoJE=T BraDBF=F KetDBF=T FulRan=T
         wScrn=  0.000000 ICntrl=       500 IOpCl=  0 I1Cent=   200000004 NGrid=           0
         NMat0=    1 NMatS0=      1 NMatT0=    0 NMatD0=    1 NMtDS0=    0 NMtDT0=    0
 Petite list used in FoFCou.
 Harris En= -465.408073573453    
 JPrj=0 DoOrth=F DoCkMO=F.
 Leave Link  401 at Mon Feb 22 21:25:11 2021, MaxMem=   104857600 cpu:              16.2 elap:               0.6
 (Enter /sw/arch/RedHatEnterpriseServer7/EB_production/2019/software/Gaussian/g16.c01/l502.exe)
 Integral symmetry usage will be decided dynamically.
 Closed shell SCF:
 Using DIIS extrapolation, IDIIS=  1040.
 NGot=   104857600 LenX=   104669110 LenY=   104581053
 Requested convergence on RMS density matrix=1.00D-08 within 128 cycles.
 Requested convergence on MAX density matrix=1.00D-06.
 Requested convergence on             energy=1.00D-06.
 No special actions if energy rises.
 Fock matrices will be formed incrementally for  20 cycles.

 Cycle   1  Pass 1  IDiag  1:
 FoFJK:  IHMeth= 1 ICntrl=     500 DoSepK=F KAlg= 0 I1Cent=           0 FoldK=F
 IRaf= 830000000 NMat=       1 IRICut=       1 DoRegI=T DoRafI=F ISym2E= 0 IDoP0=0 IntGTp=1.
 FoFCou: FMM=F IPFlag=           0 FMFlag=      100000 FMFlg1=           0
         NFxFlg=           0 DoJE=T BraDBF=F KetDBF=F FulRan=T
         wScrn=  0.000000 ICntrl=       500 IOpCl=  0 I1Cent=           0 NGrid=           0
         NMat0=    1 NMatS0=      1 NMatT0=    0 NMatD0=    1 NMtDS0=    0 NMtDT0=    0
 Symmetry not used in FoFCou.
 Inv3:  Mode=1 IEnd=    11047683.
 Iteration    1 A*A^-1 deviation from unit magnitude is 3.11D-15 for    736.
 Iteration    1 A*A^-1 deviation from orthogonality  is 2.09D-15 for   1524    165.
 Iteration    1 A^-1*A deviation from unit magnitude is 3.44D-15 for    631.
 Iteration    1 A^-1*A deviation from orthogonality  is 1.55D-15 for   1657   1272.
 E= -464.775879747595    
 DIIS: error= 3.30D-02 at cycle   1 NSaved=   1.
 NSaved= 1 IEnMin= 1 EnMin= -464.775879747595     IErMin= 1 ErrMin= 3.30D-02
 ErrMax= 3.30D-02  0.00D+00 EMaxC= 1.00D-01 BMatC= 3.81D-01 BMatP= 3.81D-01
 IDIUse=3 WtCom= 6.70D-01 WtEn= 3.30D-01
 Coeff-Com:  0.100D+01
 Coeff-En:   0.100D+01
 Coeff:      0.100D+01
 Gap=     0.064 Goal=   None    Shift=    0.000
 GapD=    0.064 DampG=0.500 DampE=0.500 DampFc=0.2500 IDamp=-1.
 Damping current iteration by 2.50D-01
 RMSDP=6.55D-03 MaxDP=4.50D-01              OVMax= 2.83D-01

 Cycle   2  Pass 1  IDiag  1:
 RMSU=  1.63D-03    CP:  9.88D-01
 E= -464.906869219863     Delta-E=       -0.130989472268 Rises=F Damp=T
 DIIS: error= 1.30D-02 at cycle   2 NSaved=   2.
 NSaved= 2 IEnMin= 2 EnMin= -464.906869219863     IErMin= 2 ErrMin= 1.30D-02
 ErrMax= 1.30D-02  0.00D+00 EMaxC= 1.00D-01 BMatC= 5.43D-02 BMatP= 3.81D-01
 IDIUse=3 WtCom= 8.70D-01 WtEn= 1.30D-01
 Coeff-Com: -0.401D+00 0.140D+01
 Coeff-En:   0.000D+00 0.100D+01
 Coeff:     -0.349D+00 0.135D+01
 Gap=     0.174 Goal=   None    Shift=    0.000
 RMSDP=1.37D-03 MaxDP=2.80D-02 DE=-1.31D-01 OVMax= 1.93D-01

 Cycle   3  Pass 1  IDiag  1:
 RMSU=  1.36D-03    CP:  9.76D-01  1.08D+00
 E= -465.067418889166     Delta-E=       -0.160549669302 Rises=F Damp=F
 DIIS: error= 2.94D-02 at cycle   3 NSaved=   3.
 NSaved= 3 IEnMin= 3 EnMin= -465.067418889166     IErMin= 2 ErrMin= 1.30D-02
 ErrMax= 2.94D-02  0.00D+00 EMaxC= 1.00D-01 BMatC= 9.07D-02 BMatP= 5.43D-02
 IDIUse=2 WtCom= 0.00D+00 WtEn= 1.00D+00
 Coeff-En:   0.000D+00 0.000D+00 0.100D+01
 Coeff:      0.000D+00 0.000D+00 0.100D+01
 Gap=     0.195 Goal=   None    Shift=    0.000
 RMSDP=3.61D-03 MaxDP=1.20D-01 DE=-1.61D-01 OVMax= 4.87D-01

 Cycle   4  Pass 1  IDiag  1:
 RMSU=  1.98D-03    CP:  9.91D-01  1.88D+00 -1.00D+00
 E= -464.416309448476     Delta-E=        0.651109440690 Rises=F Damp=F
 DIIS: error= 7.98D-02 at cycle   4 NSaved=   4.
 NSaved= 4 IEnMin= 3 EnMin= -465.067418889166     IErMin= 2 ErrMin= 1.30D-02
 ErrMax= 7.98D-02  0.00D+00 EMaxC= 1.00D-01 BMatC= 8.94D-01 BMatP= 5.43D-02
 IDIUse=2 WtCom= 0.00D+00 WtEn= 1.00D+00
 Coeff-En:   0.000D+00 0.000D+00 0.847D+00 0.153D+00
 Coeff:      0.000D+00 0.000D+00 0.847D+00 0.153D+00
 Gap=     0.136 Goal=   None    Shift=    0.000
 RMSDP=2.24D-03 MaxDP=1.01D-01 DE= 6.51D-01 OVMax= 2.61D-01

 Cycle   5  Pass 1  IDiag  1:
 RMSU=  4.96D-04    CP:  9.86D-01  1.16D+00  4.19D-02  4.09D-01
 E= -465.068131811824     Delta-E=       -0.651822363349 Rises=F Damp=F
 DIIS: error= 2.76D-02 at cycle   5 NSaved=   5.
 NSaved= 5 IEnMin= 5 EnMin= -465.068131811824     IErMin= 2 ErrMin= 1.30D-02
 ErrMax= 2.76D-02  0.00D+00 EMaxC= 1.00D-01 BMatC= 9.36D-02 BMatP= 5.43D-02
 IDIUse=2 WtCom= 0.00D+00 WtEn= 1.00D+00
 Coeff-En:   0.000D+00 0.000D+00 0.498D+00 0.000D+00 0.502D+00
 Coeff:      0.000D+00 0.000D+00 0.498D+00 0.000D+00 0.502D+00
 Gap=     0.179 Goal=   None    Shift=    0.000
 RMSDP=8.43D-04 MaxDP=3.09D-02 DE=-6.52D-01 OVMax= 1.05D-01

 Cycle   6  Pass 1  IDiag  1:
 RMSU=  1.40D-04    CP:  9.81D-01  1.04D+00  5.14D-01  1.77D-01  6.98D-01
 E= -465.140771978987     Delta-E=       -0.072640167162 Rises=F Damp=F
 DIIS: error= 1.88D-03 at cycle   6 NSaved=   6.
 NSaved= 6 IEnMin= 6 EnMin= -465.140771978987     IErMin= 6 ErrMin= 1.88D-03
 ErrMax= 1.88D-03  0.00D+00 EMaxC= 1.00D-01 BMatC= 5.47D-04 BMatP= 5.43D-02
 IDIUse=3 WtCom= 9.81D-01 WtEn= 1.88D-02
 Coeff-Com: -0.276D-01 0.475D-01 0.221D+00-0.398D-01 0.343D+00 0.456D+00
 Coeff-En:   0.000D+00 0.000D+00 0.000D+00 0.000D+00 0.000D+00 0.100D+01
 Coeff:     -0.271D-01 0.467D-01 0.217D+00-0.391D-01 0.336D+00 0.466D+00
 Gap=     0.179 Goal=   None    Shift=    0.000
 RMSDP=1.13D-04 MaxDP=4.91D-03 DE=-7.26D-02 OVMax= 1.09D-02

 Cycle   7  Pass 1  IDiag  1:
 RMSU=  5.97D-05    CP:  9.81D-01  1.08D+00  4.96D-01  2.01D-01  7.30D-01
                    CP:  6.57D-01
 E= -465.141084921842     Delta-E=       -0.000312942856 Rises=F Damp=F
 DIIS: error= 1.15D-03 at cycle   7 NSaved=   7.
 NSaved= 7 IEnMin= 7 EnMin= -465.141084921842     IErMin= 7 ErrMin= 1.15D-03
 ErrMax= 1.15D-03  0.00D+00 EMaxC= 1.00D-01 BMatC= 1.75D-04 BMatP= 5.47D-04
 IDIUse=3 WtCom= 9.89D-01 WtEn= 1.15D-02
 Coeff-Com: -0.636D-02 0.668D-02 0.561D-01-0.124D-01 0.904D-01 0.340D+00
 Coeff-Com:  0.526D+00
 Coeff-En:   0.000D+00 0.000D+00 0.000D+00 0.000D+00 0.000D+00 0.279D+00
 Coeff-En:   0.721D+00
 Coeff:     -0.628D-02 0.660D-02 0.555D-01-0.123D-01 0.893D-01 0.339D+00
 Coeff:      0.528D+00
 Gap=     0.179 Goal=   None    Shift=    0.000
 RMSDP=3.26D-05 MaxDP=1.22D-03 DE=-3.13D-04 OVMax= 3.25D-03

 Cycle   8  Pass 1  IDiag  1:
 RMSU=  1.81D-05    CP:  9.81D-01  1.07D+00  5.02D-01  1.97D-01  7.18D-01
                    CP:  7.02D-01  6.44D-01
 E= -465.141206211543     Delta-E=       -0.000121289701 Rises=F Damp=F
 DIIS: error= 2.32D-04 at cycle   8 NSaved=   8.
 NSaved= 8 IEnMin= 8 EnMin= -465.141206211543     IErMin= 8 ErrMin= 2.32D-04
 ErrMax= 2.32D-04  0.00D+00 EMaxC= 1.00D-01 BMatC= 1.17D-05 BMatP= 1.75D-04
 IDIUse=3 WtCom= 9.98D-01 WtEn= 2.32D-03
 Coeff-Com:  0.157D-02-0.419D-02 0.743D-02-0.618D-03 0.460D-02 0.148D+00
 Coeff-Com:  0.279D+00 0.564D+00
 Coeff-En:   0.000D+00 0.000D+00 0.000D+00 0.000D+00 0.000D+00 0.000D+00
 Coeff-En:   0.000D+00 0.100D+01
 Coeff:      0.156D-02-0.418D-02 0.741D-02-0.616D-03 0.459D-02 0.148D+00
 Coeff:      0.278D+00 0.565D+00
 Gap=     0.180 Goal=   None    Shift=    0.000
 RMSDP=1.35D-05 MaxDP=6.41D-04 DE=-1.21D-04 OVMax= 7.50D-04

 Cycle   9  Pass 1  IDiag  1:
 RMSU=  5.06D-06    CP:  9.81D-01  1.07D+00  5.05D-01  1.95D-01  7.16D-01
                    CP:  7.35D-01  6.45D-01  6.35D-01
 E= -465.141215722581     Delta-E=       -0.000009511038 Rises=F Damp=F
 DIIS: error= 4.99D-05 at cycle   9 NSaved=   9.
 NSaved= 9 IEnMin= 9 EnMin= -465.141215722581     IErMin= 9 ErrMin= 4.99D-05
 ErrMax= 4.99D-05  0.00D+00 EMaxC= 1.00D-01 BMatC= 2.46D-07 BMatP= 1.17D-05
 IDIUse=1 WtCom= 1.00D+00 WtEn= 0.00D+00
 Coeff-Com:  0.893D-03-0.161D-02 0.133D-02 0.290D-04-0.132D-02 0.448D-01
 Coeff-Com:  0.914D-01 0.232D+00 0.633D+00
 Coeff:      0.893D-03-0.161D-02 0.133D-02 0.290D-04-0.132D-02 0.448D-01
 Coeff:      0.914D-01 0.232D+00 0.633D+00
 Gap=     0.180 Goal=   None    Shift=    0.000
 RMSDP=1.84D-06 MaxDP=4.41D-05 DE=-9.51D-06 OVMax= 1.13D-04

 Cycle  10  Pass 1  IDiag  1:
 RMSU=  1.03D-06    CP:  9.81D-01  1.07D+00  5.06D-01  1.95D-01  7.16D-01
                    CP:  7.35D-01  6.52D-01  6.57D-01  7.27D-01
 E= -465.141215910500     Delta-E=       -0.000000187920 Rises=F Damp=F
 DIIS: error= 7.14D-06 at cycle  10 NSaved=  10.
 NSaved=10 IEnMin=10 EnMin= -465.141215910500     IErMin=10 ErrMin= 7.14D-06
 ErrMax= 7.14D-06  0.00D+00 EMaxC= 1.00D-01 BMatC= 2.88D-08 BMatP= 2.46D-07
 IDIUse=1 WtCom= 1.00D+00 WtEn= 0.00D+00
 Coeff-Com:  0.438D-03-0.651D-03 0.466D-03 0.191D-04-0.891D-03 0.170D-01
 Coeff-Com:  0.367D-01 0.100D+00 0.370D+00 0.477D+00
 Coeff:      0.438D-03-0.651D-03 0.466D-03 0.191D-04-0.891D-03 0.170D-01
 Coeff:      0.367D-01 0.100D+00 0.370D+00 0.477D+00
 Gap=     0.180 Goal=   None    Shift=    0.000
 RMSDP=4.76D-07 MaxDP=1.69D-05 DE=-1.88D-07 OVMax= 3.11D-05

 Cycle  11  Pass 1  IDiag  1:
 RMSU=  3.49D-07    CP:  9.81D-01  1.07D+00  5.06D-01  1.95D-01  7.16D-01
                    CP:  7.36D-01  6.53D-01  6.54D-01  7.26D-01  7.14D-01
 E= -465.141215948203     Delta-E=       -0.000000037702 Rises=F Damp=F
 DIIS: error= 1.40D-06 at cycle  11 NSaved=  11.
 NSaved=11 IEnMin=11 EnMin= -465.141215948203     IErMin=11 ErrMin= 1.40D-06
 ErrMax= 1.40D-06  0.00D+00 EMaxC= 1.00D-01 BMatC= 8.07D-10 BMatP= 2.88D-08
 IDIUse=1 WtCom= 1.00D+00 WtEn= 0.00D+00
 Coeff-Com:  0.115D-03-0.147D-03 0.634D-04 0.980D-05-0.227D-03 0.236D-02
 Coeff-Com:  0.569D-02 0.159D-01 0.839D-01 0.181D+00 0.711D+00
 Coeff:      0.115D-03-0.147D-03 0.634D-04 0.980D-05-0.227D-03 0.236D-02
 Coeff:      0.569D-02 0.159D-01 0.839D-01 0.181D+00 0.711D+00
 Gap=     0.180 Goal=   None    Shift=    0.000
 RMSDP=1.46D-07 MaxDP=4.70D-06 DE=-3.77D-08 OVMax= 4.70D-06

 Cycle  12  Pass 1  IDiag  1:
 RMSU=  7.16D-08    CP:  9.81D-01  1.07D+00  5.06D-01  1.95D-01  7.16D-01
                    CP:  7.35D-01  6.52D-01  6.55D-01  7.37D-01  7.12D-01
                    CP:  7.62D-01
 E= -465.141215948918     Delta-E=       -0.000000000715 Rises=F Damp=F
 DIIS: error= 3.02D-07 at cycle  12 NSaved=  12.
 NSaved=12 IEnMin=12 EnMin= -465.141215948918     IErMin=12 ErrMin= 3.02D-07
 ErrMax= 3.02D-07  0.00D+00 EMaxC= 1.00D-01 BMatC= 3.12D-11 BMatP= 8.07D-10
 IDIUse=1 WtCom= 1.00D+00 WtEn= 0.00D+00
 Coeff-Com:  0.328D-04-0.398D-04 0.148D-04 0.177D-05-0.511D-04 0.410D-03
 Coeff-Com:  0.113D-02 0.300D-02 0.216D-01 0.572D-01 0.291D+00 0.626D+00
 Coeff:      0.328D-04-0.398D-04 0.148D-04 0.177D-05-0.511D-04 0.410D-03
 Coeff:      0.113D-02 0.300D-02 0.216D-01 0.572D-01 0.291D+00 0.626D+00
 Gap=     0.180 Goal=   None    Shift=    0.000
 RMSDP=3.44D-08 MaxDP=1.26D-06 DE=-7.15D-10 OVMax= 1.33D-06

 Cycle  13  Pass 1  IDiag  1:
 RMSU=  1.98D-08    CP:  9.81D-01  1.07D+00  5.06D-01  1.95D-01  7.16D-01
                    CP:  7.35D-01  6.53D-01  6.55D-01  7.36D-01  7.18D-01
                    CP:  7.95D-01  7.31D-01
 E= -465.141215948947     Delta-E=       -0.000000000029 Rises=F Damp=F
 DIIS: error= 1.50D-07 at cycle  13 NSaved=  13.
 NSaved=13 IEnMin=13 EnMin= -465.141215948947     IErMin=13 ErrMin= 1.50D-07
 ErrMax= 1.50D-07  0.00D+00 EMaxC= 1.00D-01 BMatC= 6.47D-12 BMatP= 3.12D-11
 IDIUse=1 WtCom= 1.00D+00 WtEn= 0.00D+00
 Coeff-Com:  0.866D-05-0.914D-05 0.349D-05 0.807D-07-0.903D-05 0.171D-04
 Coeff-Com:  0.136D-03 0.315D-03 0.510D-02 0.170D-01 0.104D+00 0.357D+00
 Coeff-Com:  0.516D+00
 Coeff:      0.866D-05-0.914D-05 0.349D-05 0.807D-07-0.903D-05 0.171D-04
 Coeff:      0.136D-03 0.315D-03 0.510D-02 0.170D-01 0.104D+00 0.357D+00
 Coeff:      0.516D+00
 Gap=     0.180 Goal=   None    Shift=    0.000
 RMSDP=9.97D-09 MaxDP=2.59D-07 DE=-2.89D-11 OVMax= 5.08D-07

 Error on total polarization charges =  0.01525
 SCF Done:  E(RB-P86) =  -465.141215949     A.U. after   13 cycles
            NFock= 13  Conv=0.10D-07     -V/T= 2.0050
 KE= 4.628301046202D+02 PE=-2.102305509993D+03 EE= 6.651232430020D+02
 Leave Link  502 at Mon Feb 22 21:25:27 2021, MaxMem=   104857600 cpu:             510.8 elap:              16.5
 (Enter /sw/arch/RedHatEnterpriseServer7/EB_production/2019/software/Gaussian/g16.c01/l601.exe)
 Copying SCF densities to generalized density rwf, IOpCl= 0 IROHF=0.

 **********************************************************************

            Population analysis using the SCF Density.

 **********************************************************************

 Orbital symmetries:
       Occupied  (A) (A) (A) (A) (A) (A) (A) (A) (A) (A) (A) (A)
                 (A) (A) (A) (A) (A) (A) (A) (A) (A) (A) (A) (A)
                 (A) (A) (A) (A) (A) (A) (A) (A) (A) (A) (A) (A)
                 (A) (A) (A) (A)
       Virtual   (A) (A) (A) (A) (A) (A) (A) (A) (A) (A) (A) (A)
                 (A) (A) (A) (A) (A) (A) (A) (A) (A) (A) (A) (A)
                 (A) (A) (A) (A) (A) (A) (A) (A) (A) (A) (A) (A)
                 (A) (A) (A) (A) (A) (A) (A) (A) (A) (A) (A) (A)
                 (A) (A) (A) (A) (A) (A) (A) (A) (A) (A) (A) (A)
                 (A) (A) (A) (A) (A) (A) (A) (A) (A) (A) (A) (A)
                 (A) (A) (A) (A) (A) (A) (A) (A) (A) (A) (A) (A)
                 (A) (A) (A) (A) (A) (A) (A) (A) (A) (A) (A) (A)
                 (A) (A) (A) (A) (A) (A) (A) (A) (A) (A) (A) (A)
                 (A) (A) (A) (A) (A) (A) (A) (A) (A) (A) (A) (A)
                 (A) (A) (A) (A) (A) (A) (A) (A) (A) (A) (A) (A)
                 (A) (A) (A) (A) (A) (A) (A) (A) (A) (A) (A) (A)
                 (A) (A) (A) (A) (A) (A) (A) (A) (A) (A) (A) (A)
                 (A) (A) (A) (A) (A) (A) (A) (A) (A) (A) (A) (A)
                 (A) (A) (A) (A) (A) (A) (A) (A) (A) (A) (A) (A)
                 (A) (A) (A) (A) (A) (A) (A) (A) (A) (A) (A) (A)
                 (A) (A) (A) (A) (A) (A) (A) (A) (A) (A) (A) (A)
                 (A) (A) (A) (A) (A) (A) (A) (A) (A) (A) (A) (A)
                 (A) (A) (A) (A) (A) (A) (A) (A) (A) (A) (A) (A)
                 (A) (A) (A) (A) (A) (A) (A) (A) (A) (A) (A) (A)
                 (A) (A) (A) (A) (A) (A)
 The electronic state is 1-A.
 Alpha  occ. eigenvalues --  -18.82177 -18.75701 -10.03467  -9.91699  -9.90632
 Alpha  occ. eigenvalues --   -9.89516  -9.89131  -9.88990  -9.88922  -9.88137
 Alpha  occ. eigenvalues --   -1.01686  -0.92201  -0.74367  -0.71988  -0.68329
 Alpha  occ. eigenvalues --   -0.63492  -0.58908  -0.55557  -0.52671  -0.51846
 Alpha  occ. eigenvalues --   -0.45540  -0.44043  -0.42653  -0.41876  -0.40727
 Alpha  occ. eigenvalues --   -0.38347  -0.37889  -0.36549  -0.34714  -0.34284
 Alpha  occ. eigenvalues --   -0.33416  -0.32723  -0.31181  -0.30253  -0.29376
 Alpha  occ. eigenvalues --   -0.28664  -0.28598  -0.28341  -0.27212  -0.23477
 Alpha virt. eigenvalues --   -0.05507   0.01377   0.02272   0.03614   0.05234
 Alpha virt. eigenvalues --    0.05277   0.05968   0.07245   0.07854   0.09129
 Alpha virt. eigenvalues --    0.10319   0.10558   0.11039   0.11197   0.11515
 Alpha virt. eigenvalues --    0.11895   0.12585   0.13250   0.14654   0.15089
 Alpha virt. eigenvalues --    0.15281   0.16137   0.17194   0.18562   0.18763
 Alpha virt. eigenvalues --    0.19969   0.22280   0.23130   0.23631   0.24295
 Alpha virt. eigenvalues --    0.25684   0.26224   0.27402   0.27821   0.27997
 Alpha virt. eigenvalues --    0.28249   0.29051   0.30084   0.31741   0.34003
 Alpha virt. eigenvalues --    0.34450   0.35496   0.36416   0.37543   0.37837
 Alpha virt. eigenvalues --    0.39099   0.39458   0.40304   0.40707   0.41233
 Alpha virt. eigenvalues --    0.42120   0.42626   0.42831   0.43574   0.44005
 Alpha virt. eigenvalues --    0.44511   0.44965   0.45609   0.45986   0.46526
 Alpha virt. eigenvalues --    0.46912   0.47544   0.47987   0.48873   0.49319
 Alpha virt. eigenvalues --    0.50125   0.51597   0.52524   0.53490   0.54783
 Alpha virt. eigenvalues --    0.56386   0.57565   0.59567   0.60739   0.63099
 Alpha virt. eigenvalues --    0.64767   0.64977   0.69682   0.70283   0.73904
 Alpha virt. eigenvalues --    0.78793   0.86587   1.05247   1.06708   1.10211
 Alpha virt. eigenvalues --    1.12676   1.15966   1.17706   1.18648   1.19165
 Alpha virt. eigenvalues --    1.20648   1.21181   1.22620   1.23072   1.24281
 Alpha virt. eigenvalues --    1.24411   1.26159   1.26469   1.28611   1.28995
 Alpha virt. eigenvalues --    1.29605   1.31653   1.31872   1.32982   1.33803
 Alpha virt. eigenvalues --    1.34812   1.35466   1.35909   1.37307   1.38708
 Alpha virt. eigenvalues --    1.40148   1.41839   1.43656   1.44011   1.44754
 Alpha virt. eigenvalues --    1.45485   1.46625   1.47738   1.48315   1.49534
 Alpha virt. eigenvalues --    1.52384   1.54444   1.55074   1.56371   1.58002
 Alpha virt. eigenvalues --    1.59667   1.60145   1.65151   1.65495   1.65867
 Alpha virt. eigenvalues --    1.67788   1.68944   1.71051   1.73097   1.73813
 Alpha virt. eigenvalues --    1.74018   1.74361   1.75974   1.77180   1.77355
 Alpha virt. eigenvalues --    1.77876   1.78309   1.79627   1.80328   1.81096
 Alpha virt. eigenvalues --    1.81721   1.82161   1.82988   1.83313   1.90274
 Alpha virt. eigenvalues --    1.90705   1.96195   1.96750   1.98749   2.04404
 Alpha virt. eigenvalues --    2.07788   2.09113   2.10847   2.11316   2.12852
 Alpha virt. eigenvalues --    2.13880   2.14457   2.17001   2.17378   2.19536
 Alpha virt. eigenvalues --    2.19738   2.23850   2.24916   2.27654   2.31467
 Alpha virt. eigenvalues --    2.32766   2.33269   2.36946   2.38786   2.41535
 Alpha virt. eigenvalues --    2.44505   2.46226   2.47233   2.48049   2.49236
 Alpha virt. eigenvalues --    2.49731   2.50193   2.51335   2.52015   2.52379
 Alpha virt. eigenvalues --    2.52858   2.53314   2.55218   2.55812   2.57011
 Alpha virt. eigenvalues --    2.57055   2.57626   2.59047   2.59433   2.61046
 Alpha virt. eigenvalues --    2.61149   2.63123   2.63525   2.65453   2.66497
 Alpha virt. eigenvalues --    2.67297   2.68922   2.70262   2.72619   2.73839
 Alpha virt. eigenvalues --    2.77246   2.81667   2.84460   2.88991   2.92766
 Alpha virt. eigenvalues --    2.97845   3.00967   3.02906   3.07000   3.07863
 Alpha virt. eigenvalues --    3.09421   3.14014   3.17538   3.20642   3.23796
 Alpha virt. eigenvalues --    3.28052   3.28534   3.28967   3.31113   3.31844
 Alpha virt. eigenvalues --    3.32197   3.33503   3.34117   3.35556   3.40709
 Alpha virt. eigenvalues --    3.41520   3.44881   3.47493   3.83650   4.00564
 Alpha virt. eigenvalues --    4.17989  21.66417  21.74576  21.76466  21.78793
 Alpha virt. eigenvalues --   21.80559  21.82066  21.83862  21.86863  43.04854
 Alpha virt. eigenvalues --   43.11811
          Condensed to atoms (all electrons):
               1          2          3          4          5          6
     1  C    5.067160   0.270180  -0.076014   0.019434  -0.001699   0.000100
     2  C    0.270180   5.130949   0.259693  -0.055948   0.016633  -0.001277
     3  C   -0.076014   0.259693   5.228393   0.230579  -0.039866   0.010422
     4  C    0.019434  -0.055948   0.230579   5.212001   0.220199  -0.039552
     5  C   -0.001699   0.016633  -0.039866   0.220199   5.255986   0.216260
     6  C    0.000100  -0.001277   0.010422  -0.039552   0.216260   5.237832
     7  C   -0.000005   0.000092  -0.001297   0.015632  -0.029003   0.228226
     8  C    0.000000  -0.000005  -0.000052  -0.000967  -0.006686  -0.031895
     9  O    0.000000  -0.000000   0.000000   0.000048  -0.000848  -0.005470
    10  O   -0.000000   0.000000  -0.000002   0.000011  -0.001291  -0.012141
    11  H    0.407843  -0.042055  -0.006938  -0.000543  -0.000028  -0.000002
    12  H    0.407174  -0.041354  -0.007230  -0.000425  -0.000033  -0.000000
    13  H    0.400316  -0.044316   0.014414  -0.000986   0.000067  -0.000003
    14  H   -0.043591   0.416828  -0.044778  -0.006638  -0.000272  -0.000031
    15  H   -0.042682   0.415141  -0.042781  -0.007808  -0.000156  -0.000063
    16  H   -0.003014  -0.043514   0.415321  -0.044540  -0.005097  -0.000239
    17  H   -0.003576  -0.041056   0.411083  -0.040944  -0.006914   0.000059
    18  H   -0.000319  -0.004069  -0.043751   0.417324  -0.044910  -0.003171
    19  H   -0.000207  -0.004724  -0.039884   0.413593  -0.040603  -0.006742
    20  H   -0.000002  -0.000359  -0.004401  -0.042236   0.416118  -0.041509
    21  H   -0.000009  -0.000155  -0.003705  -0.043060   0.416117  -0.043612
    22  H   -0.000001  -0.000018  -0.000179  -0.003068  -0.036591   0.398168
    23  H   -0.000002  -0.000014  -0.000966  -0.002679  -0.056336   0.422829
    24  H   -0.000000   0.000001  -0.000156   0.000431  -0.010117  -0.026713
    25  H   -0.000000  -0.000001  -0.000077  -0.000072  -0.008556  -0.031908
    26  H    0.000000  -0.000000   0.000000  -0.000002   0.000077  -0.000341
               7          8          9         10         11         12
     1  C   -0.000005   0.000000   0.000000  -0.000000   0.407843   0.407174
     2  C    0.000092  -0.000005  -0.000000   0.000000  -0.042055  -0.041354
     3  C   -0.001297  -0.000052   0.000000  -0.000002  -0.006938  -0.007230
     4  C    0.015632  -0.000967   0.000048   0.000011  -0.000543  -0.000425
     5  C   -0.029003  -0.006686  -0.000848  -0.001291  -0.000028  -0.000033
     6  C    0.228226  -0.031895  -0.005470  -0.012141  -0.000002  -0.000000
     7  C    5.539166   0.057836  -0.124728  -0.109381   0.000000   0.000000
     8  C    0.057836   4.874264   0.599138   0.358421  -0.000000   0.000000
     9  O   -0.124728   0.599138   8.015759  -0.129788   0.000000  -0.000000
    10  O   -0.109381   0.358421  -0.129788   7.873332   0.000000   0.000000
    11  H    0.000000  -0.000000   0.000000   0.000000   0.562645  -0.031064
    12  H    0.000000   0.000000  -0.000000   0.000000  -0.031064   0.562899
    13  H    0.000000  -0.000000  -0.000000  -0.000000  -0.025235  -0.025177
    14  H    0.000001   0.000000  -0.000000  -0.000000  -0.006746   0.008627
    15  H   -0.000001  -0.000000   0.000000   0.000000   0.008598  -0.006873
    16  H   -0.000018  -0.000001   0.000000   0.000000   0.006084  -0.000712
    17  H   -0.000006   0.000003  -0.000000   0.000000  -0.000686   0.006117
    18  H   -0.000266  -0.000084  -0.000039  -0.000001   0.000089   0.000012
    19  H   -0.000432  -0.000017   0.000014  -0.000006   0.000010   0.000084
    20  H   -0.004803   0.000817   0.000123   0.000001  -0.000022   0.000017
    21  H   -0.004065  -0.001236  -0.000025   0.000031   0.000018  -0.000022
    22  H   -0.040347  -0.007826   0.013539   0.001765   0.000000  -0.000000
    23  H   -0.046138   0.009035  -0.001369   0.001888  -0.000000   0.000001
    24  H    0.403908  -0.018406  -0.004494   0.000423  -0.000000   0.000000
    25  H    0.347741  -0.018302   0.008866   0.013117   0.000000  -0.000000
    26  H    0.016348  -0.022200   0.002538   0.288528  -0.000000  -0.000000
              13         14         15         16         17         18
     1  C    0.400316  -0.043591  -0.042682  -0.003014  -0.003576  -0.000319
     2  C   -0.044316   0.416828   0.415141  -0.043514  -0.041056  -0.004069
     3  C    0.014414  -0.044778  -0.042781   0.415321   0.411083  -0.043751
     4  C   -0.000986  -0.006638  -0.007808  -0.044540  -0.040944   0.417324
     5  C    0.000067  -0.000272  -0.000156  -0.005097  -0.006914  -0.044910
     6  C   -0.000003  -0.000031  -0.000063  -0.000239   0.000059  -0.003171
     7  C    0.000000   0.000001  -0.000001  -0.000018  -0.000006  -0.000266
     8  C   -0.000000   0.000000  -0.000000  -0.000001   0.000003  -0.000084
     9  O   -0.000000  -0.000000   0.000000   0.000000  -0.000000  -0.000039
    10  O   -0.000000  -0.000000   0.000000   0.000000   0.000000  -0.000001
    11  H   -0.025235  -0.006746   0.008598   0.006084  -0.000686   0.000089
    12  H   -0.025177   0.008627  -0.006873  -0.000712   0.006117   0.000012
    13  H    0.545884  -0.002504  -0.002491  -0.000165  -0.000161   0.000011
    14  H   -0.002504   0.578688  -0.032906  -0.006881   0.008703   0.005002
    15  H   -0.002491  -0.032906   0.578927   0.008726  -0.007034  -0.000153
    16  H   -0.000165  -0.006881   0.008726   0.580248  -0.034980  -0.006476
    17  H   -0.000161   0.008703  -0.007034  -0.034980   0.580242   0.008440
    18  H    0.000011   0.005002  -0.000153  -0.006476   0.008440   0.573646
    19  H    0.000010  -0.000154   0.005050   0.008467  -0.006656  -0.033515
    20  H   -0.000000   0.000159  -0.000037   0.004232   0.000174  -0.006473
    21  H    0.000000  -0.000034   0.000148   0.000040   0.004589   0.008330
    22  H    0.000000  -0.000028   0.000022   0.000177  -0.000056   0.003215
    23  H    0.000000   0.000025  -0.000035  -0.000057   0.000222   0.000198
    24  H   -0.000000   0.000000  -0.000000  -0.000026   0.000023   0.000120
    25  H   -0.000000  -0.000000   0.000001   0.000030  -0.000044  -0.000082
    26  H   -0.000000  -0.000000   0.000000  -0.000000  -0.000000   0.000000
              19         20         21         22         23         24
     1  C   -0.000207  -0.000002  -0.000009  -0.000001  -0.000002  -0.000000
     2  C   -0.004724  -0.000359  -0.000155  -0.000018  -0.000014   0.000001
     3  C   -0.039884  -0.004401  -0.003705  -0.000179  -0.000966  -0.000156
     4  C    0.413593  -0.042236  -0.043060  -0.003068  -0.002679   0.000431
     5  C   -0.040603   0.416118   0.416117  -0.036591  -0.056336  -0.010117
     6  C   -0.006742  -0.041509  -0.043612   0.398168   0.422829  -0.026713
     7  C   -0.000432  -0.004803  -0.004065  -0.040347  -0.046138   0.403908
     8  C   -0.000017   0.000817  -0.001236  -0.007826   0.009035  -0.018406
     9  O    0.000014   0.000123  -0.000025   0.013539  -0.001369  -0.004494
    10  O   -0.000006   0.000001   0.000031   0.001765   0.001888   0.000423
    11  H    0.000010  -0.000022   0.000018   0.000000  -0.000000  -0.000000
    12  H    0.000084   0.000017  -0.000022  -0.000000   0.000001   0.000000
    13  H    0.000010  -0.000000   0.000000   0.000000   0.000000  -0.000000
    14  H   -0.000154   0.000159  -0.000034  -0.000028   0.000025   0.000000
    15  H    0.005050  -0.000037   0.000148   0.000022  -0.000035  -0.000000
    16  H    0.008467   0.004232   0.000040   0.000177  -0.000057  -0.000026
    17  H   -0.006656   0.000174   0.004589  -0.000056   0.000222   0.000023
    18  H   -0.033515  -0.006473   0.008330   0.003215   0.000198   0.000120
    19  H    0.574920   0.008072  -0.006354   0.000134   0.003646  -0.000047
    20  H    0.008072   0.565942  -0.033573  -0.005678   0.007389   0.003612
    21  H   -0.006354  -0.033573   0.570787   0.007381  -0.004802   0.000080
    22  H    0.000134  -0.005678   0.007381   0.549340  -0.025185  -0.004423
    23  H    0.003646   0.007389  -0.004802  -0.025185   0.548467   0.006087
    24  H   -0.000047   0.003612   0.000080  -0.004423   0.006087   0.491972
    25  H    0.000198   0.000328   0.003741   0.008289  -0.003969  -0.021054
    26  H   -0.000000  -0.000002   0.000004  -0.000011  -0.000193  -0.000428
              25         26
     1  C   -0.000000   0.000000
     2  C   -0.000001  -0.000000
     3  C   -0.000077   0.000000
     4  C   -0.000072  -0.000002
     5  C   -0.008556   0.000077
     6  C   -0.031908  -0.000341
     7  C    0.347741   0.016348
     8  C   -0.018302  -0.022200
     9  O    0.008866   0.002538
    10  O    0.013117   0.288528
    11  H    0.000000  -0.000000
    12  H   -0.000000  -0.000000
    13  H   -0.000000  -0.000000
    14  H   -0.000000  -0.000000
    15  H    0.000001   0.000000
    16  H    0.000030  -0.000000
    17  H   -0.000044  -0.000000
    18  H   -0.000082   0.000000
    19  H    0.000198  -0.000000
    20  H    0.000328  -0.000002
    21  H    0.003741   0.000004
    22  H    0.008289  -0.000011
    23  H   -0.003969  -0.000193
    24  H   -0.021054  -0.000428
    25  H    0.555649  -0.000729
    26  H   -0.000729   0.383980
 Mulliken charges:
               1
     1  C   -0.401086
     2  C   -0.230650
     3  C   -0.257829
     4  C   -0.239786
     5  C   -0.252449
     6  C   -0.269230
     7  C   -0.248456
     8  C    0.208163
     9  O   -0.373262
    10  O   -0.284909
    11  H    0.128033
    12  H    0.127963
    13  H    0.140335
    14  H    0.126533
    15  H    0.126407
    16  H    0.122394
    17  H    0.122458
    18  H    0.126923
    19  H    0.125144
    20  H    0.132111
    21  H    0.129387
    22  H    0.141379
    23  H    0.141957
    24  H    0.179206
    25  H    0.146836
    26  H    0.332430
 Sum of Mulliken charges =  -0.00000
 Mulliken charges with hydrogens summed into heavy atoms:
               1
     1  C   -0.004755
     2  C    0.022289
     3  C   -0.012978
     4  C    0.012280
     5  C    0.009048
     6  C    0.014107
     7  C    0.077585
     8  C    0.208163
     9  O   -0.373262
    10  O    0.047522
 Electronic spatial extent (au):  <R**2>=           3656.4673
 Charge=              0.0000 electrons
 Dipole moment (field-independent basis, Debye):
    X=             -1.0862    Y=             -2.1958    Z=             -0.7800  Tot=              2.5710
 Quadrupole moment (field-independent basis, Debye-Ang):
   XX=            -64.6935   YY=            -69.3422   ZZ=            -62.0248
   XY=             -9.0564   XZ=             -5.5568   YZ=             -1.0574
 Traceless Quadrupole moment (field-independent basis, Debye-Ang):
   XX=              0.6600   YY=             -3.9887   ZZ=              3.3287
   XY=             -9.0564   XZ=             -5.5568   YZ=             -1.0574
 Octapole moment (field-independent basis, Debye-Ang**2):
  XXX=             82.1095  YYY=             -4.4982  ZZZ=             -2.1908  XYY=            -10.3340
  XXY=            -31.5385  XXZ=            -40.1844  XZZ=             19.5797  YZZ=             -0.2098
  YYZ=             -1.1079  XYZ=             -8.4619
 Hexadecapole moment (field-independent basis, Debye-Ang**3):
 XXXX=          -4114.9871 YYYY=           -232.8626 ZZZZ=           -170.5171 XXXY=           -176.4656
 XXXZ=           -212.6293 YYYX=            -15.2203 YYYZ=              3.6301 ZZZX=            -21.3212
 ZZZY=              3.8500 XXYY=           -868.1495 XXZZ=           -719.7721 YYZZ=            -73.6637
 XXYZ=            -15.0930 YYXZ=             -3.4888 ZZXY=             -3.2661
 N-N= 5.092109464218D+02 E-N=-2.102305506627D+03  KE= 4.628301046202D+02
 No NMR shielding tensors so no spin-rotation constants.
 Leave Link  601 at Mon Feb 22 21:25:27 2021, MaxMem=   104857600 cpu:               5.9 elap:               0.2
 (Enter /sw/arch/RedHatEnterpriseServer7/EB_production/2019/software/Gaussian/g16.c01/l701.exe)
 ... and contract with generalized density number  0.
 Compute integral first derivatives.
 R6Disp: Adding Grimme-D3 dispersion energy 1st derivatives to the gradient.
 PrsmSu:  requested number of processors reduced to:  28 ShMem   1 Linda.
 D1PCM: PCM CHGder 1st derivatives, ID1Alg=3 FixD1E=F DoIter=F DoCFld=F I1PDM=0.
 GePol: Maximum number of non-zero 1st derivatives   =     225
 CoulSu:  requested number of processors reduced to:  28 ShMem   1 Linda.
 CoulSu:  requested number of processors reduced to:  29 ShMem   1 Linda.
 Leave Link  701 at Mon Feb 22 21:25:28 2021, MaxMem=   104857600 cpu:              28.4 elap:               1.0
 (Enter /sw/arch/RedHatEnterpriseServer7/EB_production/2019/software/Gaussian/g16.c01/l702.exe)
 L702 exits ... SP integral derivatives will be done elsewhere.
 Leave Link  702 at Mon Feb 22 21:25:29 2021, MaxMem=   104857600 cpu:               0.7 elap:               0.0
 (Enter /sw/arch/RedHatEnterpriseServer7/EB_production/2019/software/Gaussian/g16.c01/l703.exe)
 Integral derivatives from FoFJK, PRISM(SPDF).
 Compute integral first derivatives, UseDBF=F ICtDFT=           0.
 Calling FoFJK, ICntrl=      2527 FMM=F ISym2X=0 I1Cent= 0 IOpClX= 0 NMat=1 NMatS=1 NMatT=0.
 FoFJK:  IHMeth= 1 ICntrl=    2527 DoSepK=F KAlg= 0 I1Cent=           0 FoldK=F
 IRaf=         0 NMat=       1 IRICut=       1 DoRegI=T DoRafI=F ISym2E= 0 IDoP0=0 IntGTp=1.
 FoFCou: FMM=F IPFlag=           0 FMFlag=      100000 FMFlg1=         800
         NFxFlg=           0 DoJE=F BraDBF=F KetDBF=F FulRan=T
         wScrn=  0.000000 ICntrl=      2527 IOpCl=  0 I1Cent=           0 NGrid=           0
         NMat0=    1 NMatS0=      1 NMatT0=    0 NMatD0=    1 NMtDS0=    0 NMtDT0=    0
 Symmetry not used in FoFCou.
 Leave Link  703 at Mon Feb 22 21:25:31 2021, MaxMem=   104857600 cpu:              70.9 elap:               2.3
 (Enter /sw/arch/RedHatEnterpriseServer7/EB_production/2019/software/Gaussian/g16.c01/l716.exe)
 Dipole        =-4.27351253D-01-8.63912991D-01-3.06875575D-01
 ***** Axes restored to original set *****
 -------------------------------------------------------------------
 Center     Atomic                   Forces (Hartrees/Bohr)
 Number     Number              X              Y              Z
 -------------------------------------------------------------------
      1        6          -0.000323863   -0.013460084    0.002025993
      2        6           0.014062367    0.008285723   -0.005258328
      3        6          -0.014183169   -0.010749345    0.005424416
      4        6           0.013323639    0.008657072   -0.005081440
      5        6          -0.010364836   -0.008849752    0.005147476
      6        6           0.002611323    0.009355037   -0.003209265
      7        6           0.005058273    0.017430440    0.015172921
      8        6          -0.026388865   -0.070884330   -0.023940481
      9        8           0.008643476    0.018227938    0.008329126
     10        8           0.017743698    0.034699788    0.017576406
     11        1           0.001389859    0.002633932   -0.004674447
     12        1           0.003483186    0.003779600    0.002388006
     13        1          -0.005242417    0.004596078    0.000888659
     14        1          -0.004097212   -0.004588832   -0.002178493
     15        1          -0.002106953   -0.003511512    0.005110954
     16        1           0.002871959    0.002406455   -0.005182159
     17        1           0.004997094    0.003339662    0.002056654
     18        1          -0.005217379   -0.003327870   -0.002056241
     19        1          -0.002600968   -0.002218309    0.004803956
     20        1           0.002910863    0.002263990   -0.005612725
     21        1           0.004818322    0.003203894    0.002085451
     22        1          -0.002240897   -0.003338481   -0.001248819
     23        1          -0.002119046   -0.002141788    0.004419167
     24        1           0.000569091   -0.001735060   -0.003713659
     25        1           0.003738625    0.004506024    0.001771922
     26        1          -0.011336170    0.001419729   -0.015045052
 -------------------------------------------------------------------
 Cartesian Forces:  Max     0.070884330 RMS     0.012129429
 Leave Link  716 at Mon Feb 22 21:25:31 2021, MaxMem=   104857600 cpu:               0.8 elap:               0.1
 (Enter /sw/arch/RedHatEnterpriseServer7/EB_production/2019/software/Gaussian/g16.c01/l103.exe)

 GradGradGradGradGradGradGradGradGradGradGradGradGradGradGradGradGradGrad
 Berny optimization.
 FormGI is forming the generalized inverse of G from B-inverse, IUseBI=4.
 GSVD:  received Info=                   1 from GESDD.
 Internal  Forces:  Max     0.034261944 RMS     0.005849920
 Search for a local minimum.
 Step number   1 out of a maximum of  143
 All quantities printed in internal units (Hartrees-Bohrs-Radians)
 RMS Force = .58499D-02 SwitMx=.10000D-02 MixMth= 1
 Mixed Optimization -- RFO/linear search
 Second derivative matrix not updated -- first step.
 ITU=  0
     Eigenvalues ---    0.00230   0.00230   0.00230   0.00230   0.00230
     Eigenvalues ---    0.00230   0.01096   0.01387   0.02304   0.03427
     Eigenvalues ---    0.03462   0.03478   0.03519   0.03548   0.04312
     Eigenvalues ---    0.04768   0.04774   0.04779   0.04791   0.04793
     Eigenvalues ---    0.05459   0.05550   0.05607   0.08100   0.08152
     Eigenvalues ---    0.08217   0.08249   0.08316   0.09340   0.12044
     Eigenvalues ---    0.12085   0.12134   0.12157   0.12206   0.12761
     Eigenvalues ---    0.16000   0.16000   0.16000   0.16000   0.21953
     Eigenvalues ---    0.21965   0.21967   0.21970   0.21971   0.21985
     Eigenvalues ---    0.24997   0.25000   0.27414   0.27425   0.27439
     Eigenvalues ---    0.27524   0.27553   0.27951   0.34234   0.34308
     Eigenvalues ---    0.34330   0.34352   0.34354   0.34355   0.34367
     Eigenvalues ---    0.34412   0.34439   0.34440   0.34455   0.34465
     Eigenvalues ---    0.34513   0.34529   0.34775   0.35140   0.51254
     Eigenvalues ---    0.54236   0.82853
 RFO step:  Lambda=-1.77774525D-02 EMin= 2.30000000D-03
 Linear search not attempted -- first point.
 Iteration  1 RMS(Cart)=  0.03933441 RMS(Int)=  0.00127122
 Iteration  2 RMS(Cart)=  0.00184397 RMS(Int)=  0.00006352
 Iteration  3 RMS(Cart)=  0.00000031 RMS(Int)=  0.00006352
 ITry= 1 IFail=0 DXMaxC= 2.11D-01 DCOld= 1.00D+10 DXMaxT= 3.00D-01 DXLimC= 3.00D+00 Rises=F
 Variable       Old X    -DE/DX   Delta X   Delta X   Delta X     New X
                                 (Linear)    (Quad)   (Total)
    R1        2.92245  -0.00250   0.00000  -0.00841  -0.00841   2.91404
    R2        2.06474   0.00533   0.00000   0.01470   0.01470   2.07943
    R3        2.06447   0.00543   0.00000   0.01496   0.01496   2.07943
    R4        2.06041   0.00660   0.00000   0.01805   0.01805   2.07846
    R5        2.93382  -0.00767   0.00000  -0.02624  -0.02624   2.90759
    R6        2.06593   0.00604   0.00000   0.01667   0.01667   2.08260
    R7        2.06596   0.00606   0.00000   0.01672   0.01672   2.08268
    R8        2.93412  -0.00731   0.00000  -0.02504  -0.02504   2.90908
    R9        2.06737   0.00610   0.00000   0.01688   0.01688   2.08425
   R10        2.06741   0.00606   0.00000   0.01677   0.01677   2.08418
   R11        2.93438  -0.00766   0.00000  -0.02625  -0.02625   2.90813
   R12        2.06641   0.00621   0.00000   0.01715   0.01715   2.08356
   R13        2.06813   0.00563   0.00000   0.01562   0.01562   2.08375
   R14        2.93127  -0.00764   0.00000  -0.02605  -0.02605   2.90522
   R15        2.06569   0.00646   0.00000   0.01782   0.01782   2.08351
   R16        2.06715   0.00593   0.00000   0.01640   0.01640   2.08355
   R17        2.93191  -0.00317   0.00000  -0.01081  -0.01081   2.92109
   R18        2.06937   0.00374   0.00000   0.01040   0.01040   2.07977
   R19        2.06776   0.00514   0.00000   0.01423   0.01423   2.08200
   R20        2.78748   0.01309   0.00000   0.03547   0.03547   2.82295
   R21        2.06736   0.00343   0.00000   0.00949   0.00949   2.07685
   R22        2.06552   0.00567   0.00000   0.01566   0.01566   2.08118
   R23        2.36413  -0.02103   0.00000  -0.02485  -0.02485   2.33928
   R24        2.55817  -0.00711   0.00000  -0.01269  -0.01269   2.54548
   R25        1.85321  -0.00448   0.00000  -0.00845  -0.00845   1.84476
    A1        1.92640   0.00113   0.00000   0.00553   0.00549   1.93190
    A2        1.92519   0.00132   0.00000   0.00664   0.00660   1.93179
    A3        1.91882   0.00302   0.00000   0.01859   0.01849   1.93731
    A4        1.90019  -0.00176   0.00000  -0.01297  -0.01296   1.88723
    A5        1.89617  -0.00189   0.00000  -0.00916  -0.00925   1.88692
    A6        1.89648  -0.00196   0.00000  -0.00939  -0.00949   1.88699
    A7        1.95402   0.00093   0.00000   0.00740   0.00739   1.96142
    A8        1.89734   0.00097   0.00000   0.01170   0.01173   1.90907
    A9        1.89702   0.00090   0.00000   0.01154   0.01156   1.90858
   A10        1.91458  -0.00106   0.00000  -0.00880  -0.00890   1.90568
   A11        1.91264  -0.00093   0.00000  -0.00753  -0.00763   1.90500
   A12        1.88692  -0.00084   0.00000  -0.01483  -0.01499   1.87194
   A13        1.97755  -0.00166   0.00000  -0.00441  -0.00440   1.97315
   A14        1.89877   0.00065   0.00000   0.00389   0.00389   1.90266
   A15        1.89831   0.00071   0.00000   0.00410   0.00410   1.90241
   A16        1.89983   0.00083   0.00000   0.00547   0.00547   1.90530
   A17        1.90067   0.00073   0.00000   0.00448   0.00448   1.90515
   A18        1.88673  -0.00128   0.00000  -0.01422  -0.01421   1.87252
   A19        1.96023  -0.00038   0.00000   0.00134   0.00133   1.96156
   A20        1.90369   0.00024   0.00000   0.00257   0.00256   1.90625
   A21        1.90325   0.00045   0.00000   0.00346   0.00346   1.90671
   A22        1.90198   0.00053   0.00000   0.00470   0.00469   1.90666
   A23        1.90500   0.00019   0.00000   0.00164   0.00163   1.90664
   A24        1.88839  -0.00107   0.00000  -0.01441  -0.01440   1.87399
   A25        1.97001  -0.00307   0.00000  -0.01106  -0.01104   1.95897
   A26        1.90170   0.00110   0.00000   0.00515   0.00516   1.90685
   A27        1.89953   0.00124   0.00000   0.00722   0.00724   1.90676
   A28        1.90263   0.00107   0.00000   0.00467   0.00468   1.90732
   A29        1.90298   0.00110   0.00000   0.00599   0.00601   1.90899
   A30        1.88520  -0.00140   0.00000  -0.01224  -0.01225   1.87296
   A31        1.96657  -0.00398   0.00000  -0.01584  -0.01581   1.95076
   A32        1.90412   0.00215   0.00000   0.01106   0.01096   1.91507
   A33        1.89679   0.00167   0.00000   0.01242   0.01243   1.90921
   A34        1.90953   0.00018   0.00000  -0.00612  -0.00608   1.90345
   A35        1.89985   0.00139   0.00000   0.00735   0.00742   1.90726
   A36        1.88527  -0.00132   0.00000  -0.00864  -0.00871   1.87657
   A37        1.94710  -0.00236   0.00000  -0.01067  -0.01089   1.93621
   A38        1.92200   0.00121   0.00000  -0.00232  -0.00269   1.91931
   A39        1.90204   0.00026   0.00000   0.00891   0.00885   1.91089
   A40        1.90072  -0.00166   0.00000  -0.02497  -0.02511   1.87560
   A41        1.90724   0.00301   0.00000   0.02917   0.02923   1.93647
   A42        1.88362  -0.00037   0.00000   0.00058   0.00076   1.88438
   A43        2.10976   0.01022   0.00000   0.03816   0.03815   2.14792
   A44        2.11249  -0.03426   0.00000  -0.12797  -0.12797   1.98452
   A45        2.06074   0.02403   0.00000   0.08973   0.08973   2.15046
   A46        2.09022  -0.03401   0.00000  -0.19128  -0.19128   1.89893
    D1        1.04847  -0.00033   0.00000  -0.00420  -0.00422   1.04425
    D2       -1.06944  -0.00025   0.00000  -0.00585  -0.00589  -1.07532
    D3       -3.11945  -0.00029   0.00000  -0.00109  -0.00110  -3.12055
    D4       -1.05211   0.00028   0.00000   0.00410   0.00413  -1.04798
    D5        3.11317   0.00036   0.00000   0.00245   0.00246   3.11563
    D6        1.06316   0.00031   0.00000   0.00721   0.00725   1.07041
    D7        3.13997  -0.00004   0.00000  -0.00024  -0.00024   3.13972
    D8        1.02206   0.00004   0.00000  -0.00189  -0.00191   1.02015
    D9       -1.02796  -0.00000   0.00000   0.00286   0.00288  -1.02508
   D10       -3.13780  -0.00004   0.00000  -0.00074  -0.00074  -3.13854
   D11       -1.02222   0.00039   0.00000   0.00608   0.00608  -1.01614
   D12        1.02907  -0.00038   0.00000  -0.00644  -0.00644   1.02263
[...]

 **********************************************************************

 Orbital symmetries:
       Occupied  (A) (A) (A) (A) (A) (A) (A) (A) (A) (A) (A) (A)
                 (A) (A) (A) (A) (A) (A) (A) (A) (A) (A) (A) (A)
                 (A) (A) (A) (A) (A) (A) (A) (A) (A) (A) (A) (A)
                 (A) (A) (A) (A)
       Virtual   (A) (A) (A) (A) (A) (A) (A) (A) (A) (A) (A) (A)
                 (A) (A) (A) (A) (A) (A) (A) (A) (A) (A) (A) (A)
                 (A) (A) (A) (A) (A) (A) (A) (A) (A) (A) (A) (A)
                 (A) (A) (A) (A) (A) (A) (A) (A) (A) (A) (A) (A)
                 (A) (A) (A) (A) (A) (A) (A) (A) (A) (A) (A) (A)
                 (A) (A) (A) (A) (A) (A) (A) (A) (A) (A) (A) (A)
                 (A) (A) (A) (A) (A) (A) (A) (A) (A) (A) (A) (A)
                 (A) (A) (A) (A) (A) (A) (A) (A) (A) (A) (A) (A)
                 (A) (A) (A) (A) (A) (A) (A) (A) (A) (A) (A) (A)
                 (A) (A) (A) (A) (A) (A) (A) (A) (A) (A) (A) (A)
                 (A) (A) (A) (A) (A) (A) (A) (A) (A) (A) (A) (A)
                 (A) (A) (A) (A) (A) (A) (A) (A) (A) (A) (A) (A)
                 (A) (A) (A) (A) (A) (A) (A) (A) (A) (A) (A) (A)
                 (A) (A) (A) (A) (A) (A) (A) (A) (A) (A) (A) (A)
                 (A) (A) (A) (A) (A) (A) (A) (A) (A) (A) (A) (A)
                 (A) (A) (A) (A) (A) (A) (A) (A) (A) (A) (A) (A)
                 (A) (A) (A) (A) (A) (A) (A) (A) (A) (A) (A) (A)
                 (A) (A) (A) (A) (A) (A) (A) (A) (A) (A) (A) (A)
                 (A) (A) (A) (A) (A) (A) (A) (A) (A) (A) (A) (A)
                 (A) (A) (A) (A) (A) (A) (A) (A) (A) (A) (A) (A)
                 (A) (A) (A) (A) (A) (A)
 The electronic state is 1-A.
 Alpha  occ. eigenvalues --  -18.81848 -18.76989 -10.03211  -9.91013  -9.89451
 Alpha  occ. eigenvalues --   -9.88894  -9.88735  -9.88619  -9.88522  -9.88062
 Alpha  occ. eigenvalues --   -1.02056  -0.93886  -0.73890  -0.71623  -0.67816
 Alpha  occ. eigenvalues --   -0.62953  -0.57841  -0.53470  -0.51598  -0.51140
 Alpha  occ. eigenvalues --   -0.44967  -0.44078  -0.43389  -0.42170  -0.39574
 Alpha  occ. eigenvalues --   -0.38373  -0.37029  -0.36434  -0.35739  -0.33489
 Alpha  occ. eigenvalues --   -0.33007  -0.32598  -0.30080  -0.29912  -0.29219
 Alpha  occ. eigenvalues --   -0.28440  -0.28126  -0.27577  -0.27242  -0.24801
 Alpha virt. eigenvalues --   -0.04544   0.02202   0.02918   0.03847   0.05370
 Alpha virt. eigenvalues --    0.05471   0.05989   0.07609   0.08330   0.09508
 Alpha virt. eigenvalues --    0.10746   0.11394   0.11422   0.12007   0.12265
 Alpha virt. eigenvalues --    0.12475   0.13719   0.13861   0.15047   0.15070
 Alpha virt. eigenvalues --    0.15496   0.16799   0.16954   0.18359   0.19276
 Alpha virt. eigenvalues --    0.20899   0.22138   0.22712   0.23589   0.25250
 Alpha virt. eigenvalues --    0.26468   0.26679   0.27578   0.27881   0.28214
 Alpha virt. eigenvalues --    0.28899   0.29716   0.31542   0.33280   0.33879
 Alpha virt. eigenvalues --    0.34826   0.36846   0.37151   0.37292   0.37596
 Alpha virt. eigenvalues --    0.38104   0.40371   0.40501   0.40791   0.41607
 Alpha virt. eigenvalues --    0.42178   0.42651   0.43220   0.43539   0.44020
 Alpha virt. eigenvalues --    0.44059   0.45262   0.45634   0.46535   0.47214
 Alpha virt. eigenvalues --    0.47342   0.47732   0.47790   0.49147   0.49221
 Alpha virt. eigenvalues --    0.49699   0.50906   0.52741   0.55084   0.55630
 Alpha virt. eigenvalues --    0.57806   0.57821   0.60937   0.61078   0.63518
 Alpha virt. eigenvalues --    0.66986   0.67454   0.69674   0.73607   0.75427
 Alpha virt. eigenvalues --    0.80815   0.90957   1.05424   1.07603   1.11551
 Alpha virt. eigenvalues --    1.11635   1.15917   1.18030   1.18976   1.19489
 Alpha virt. eigenvalues --    1.21046   1.21365   1.23234   1.23347   1.24419
 Alpha virt. eigenvalues --    1.24924   1.25128   1.27249   1.28771   1.30087
 Alpha virt. eigenvalues --    1.30195   1.30992   1.32456   1.32708   1.33400
 Alpha virt. eigenvalues --    1.34276   1.35859   1.37296   1.37435   1.37616
 Alpha virt. eigenvalues --    1.39843   1.41826   1.43524   1.44250   1.45089
 Alpha virt. eigenvalues --    1.46894   1.47692   1.48578   1.49599   1.50836
 Alpha virt. eigenvalues --    1.50911   1.54791   1.55801   1.56303   1.60059
 Alpha virt. eigenvalues --    1.60177   1.65032   1.65207   1.66300   1.66360
 Alpha virt. eigenvalues --    1.67898   1.68968   1.70729   1.72401   1.72979
 Alpha virt. eigenvalues --    1.73339   1.73533   1.75333   1.76154   1.77187
 Alpha virt. eigenvalues --    1.78268   1.79159   1.79576   1.80732   1.80792
 Alpha virt. eigenvalues --    1.81568   1.81735   1.82323   1.83537   1.90003
 Alpha virt. eigenvalues --    1.91867   1.96694   1.98593   2.01216   2.03765
 Alpha virt. eigenvalues --    2.07531   2.09915   2.10054   2.11390   2.12261
 Alpha virt. eigenvalues --    2.15025   2.16192   2.16353   2.19427   2.20070
 Alpha virt. eigenvalues --    2.21793   2.25987   2.26588   2.29480   2.32454
 Alpha virt. eigenvalues --    2.33077   2.35918   2.37480   2.39242   2.42170
 Alpha virt. eigenvalues --    2.44697   2.45638   2.45962   2.47363   2.48807
 Alpha virt. eigenvalues --    2.49125   2.49354   2.50369   2.51733   2.52127
 Alpha virt. eigenvalues --    2.52743   2.54493   2.54976   2.55490   2.56274
 Alpha virt. eigenvalues --    2.57861   2.58402   2.59565   2.59748   2.60049
 Alpha virt. eigenvalues --    2.60243   2.62408   2.64287   2.66594   2.67042
 Alpha virt. eigenvalues --    2.68556   2.68691   2.70066   2.71807   2.75554
 Alpha virt. eigenvalues --    2.80019   2.82818   2.84866   2.85506   2.95965
 Alpha virt. eigenvalues --    3.01188   3.01749   3.02883   3.07042   3.09872
 Alpha virt. eigenvalues --    3.10152   3.16132   3.19824   3.22596   3.22766
 Alpha virt. eigenvalues --    3.25141   3.26689   3.27757   3.29926   3.30652
 Alpha virt. eigenvalues --    3.32035   3.33665   3.33873   3.35527   3.41052
 Alpha virt. eigenvalues --    3.42930   3.43578   3.50128   3.80207   4.08262
 Alpha virt. eigenvalues --    4.18526  21.68591  21.71585  21.73825  21.76921
 Alpha virt. eigenvalues --   21.79703  21.82904  21.85203  21.87941  43.05842
 Alpha virt. eigenvalues --   43.16387
          Condensed to atoms (all electrons):
               1          2          3          4          5          6
     1  C    5.084419   0.267558  -0.074118   0.019393  -0.001696   0.000129
     2  C    0.267558   5.135637   0.254201  -0.056729   0.016836  -0.001394
     3  C   -0.074118   0.254201   5.240005   0.232249  -0.039487   0.012671
     4  C    0.019393  -0.056729   0.232249   5.242862   0.195443  -0.025771
     5  C   -0.001696   0.016836  -0.039487   0.195443   5.300553   0.129538
     6  C    0.000129  -0.001394   0.012671  -0.025771   0.129538   5.379641
     7  C   -0.000005   0.000085  -0.000390   0.005018   0.021008   0.006607
     8  C    0.000000  -0.000005   0.000053   0.000644  -0.005492   0.055503
     9  O    0.000000  -0.000000   0.000001   0.000160  -0.000453   0.035696
    10  O   -0.000000   0.000000  -0.000000   0.000022  -0.000548   0.015935
    11  H    0.407452  -0.041955  -0.007231  -0.000520  -0.000031  -0.000002
    12  H    0.407420  -0.041932  -0.007235  -0.000520  -0.000031  -0.000002
    13  H    0.397302  -0.040988   0.014032  -0.000875   0.000063  -0.000002
    14  H   -0.041101   0.416761  -0.046532  -0.007550  -0.000231  -0.000061
    15  H   -0.041105   0.416786  -0.046559  -0.007544  -0.000233  -0.000060
    16  H   -0.003218  -0.042974   0.413885  -0.044265  -0.006290  -0.000124
    17  H   -0.003219  -0.042977   0.413873  -0.044245  -0.006296  -0.000126
    18  H   -0.000201  -0.005012  -0.043688   0.416642  -0.043525  -0.006148
    19  H   -0.000201  -0.005018  -0.043676   0.416670  -0.043572  -0.006131
    20  H   -0.000006  -0.000285  -0.004328  -0.044787   0.417125  -0.040233
    21  H   -0.000006  -0.000286  -0.004323  -0.044805   0.417126  -0.040213
    22  H   -0.000001  -0.000024  -0.000119  -0.005609  -0.037908   0.409421
    23  H   -0.000001  -0.000024  -0.000120  -0.005622  -0.037867   0.409379
    24  H    0.000000  -0.000001  -0.000034  -0.000161  -0.002891  -0.035301
    25  H    0.000000  -0.000001  -0.000034  -0.000160  -0.002898  -0.035287
    26  H    0.000000  -0.000000   0.000000  -0.000004   0.000086  -0.001874
               7          8          9         10         11         12
     1  C   -0.000005   0.000000   0.000000  -0.000000   0.407452   0.407420
     2  C    0.000085  -0.000005  -0.000000   0.000000  -0.041955  -0.041932
     3  C   -0.000390   0.000053   0.000001  -0.000000  -0.007231  -0.007235
     4  C    0.005018   0.000644   0.000160   0.000022  -0.000520  -0.000520
     5  C    0.021008  -0.005492  -0.000453  -0.000548  -0.000031  -0.000031
     6  C    0.006607   0.055503   0.035696   0.015935  -0.000002  -0.000002
     7  C    5.903282  -0.029881  -0.168963  -0.179804   0.000000   0.000000
     8  C   -0.029881   4.853689   0.621381   0.357916  -0.000000  -0.000000
     9  O   -0.168963   0.621381   7.969262  -0.105680   0.000000   0.000000
    10  O   -0.179804   0.357916  -0.105680   7.905034   0.000000   0.000000
    11  H    0.000000  -0.000000   0.000000   0.000000   0.561228  -0.032405
    12  H    0.000000  -0.000000   0.000000   0.000000  -0.032405   0.561246
    13  H    0.000000  -0.000000  -0.000000   0.000000  -0.025316  -0.025309
    14  H    0.000000  -0.000000   0.000000  -0.000000  -0.007039   0.008454
    15  H    0.000000  -0.000000   0.000000  -0.000000   0.008454  -0.007041
    16  H   -0.000046  -0.000001  -0.000000   0.000000   0.006195  -0.000718
    17  H   -0.000046  -0.000001  -0.000000   0.000000  -0.000718   0.006195
    18  H    0.000147  -0.000089  -0.000021  -0.000000   0.000094   0.000006
    19  H    0.000145  -0.000089  -0.000021  -0.000000   0.000006   0.000094
    20  H   -0.007307   0.000177   0.000050   0.000000  -0.000026   0.000019
    21  H   -0.007317   0.000179   0.000050   0.000000   0.000019  -0.000026
    22  H   -0.029170  -0.009547   0.003154   0.000149   0.000001  -0.000000
    23  H   -0.029154  -0.009563   0.003164   0.000150  -0.000000   0.000001
    24  H    0.381416  -0.010556   0.002016   0.005618  -0.000000   0.000000
    25  H    0.381427  -0.010536   0.002011   0.005605   0.000000  -0.000000
    26  H    0.019703  -0.016999   0.002430   0.282425  -0.000000  -0.000000
              13         14         15         16         17         18
     1  C    0.397302  -0.041101  -0.041105  -0.003218  -0.003219  -0.000201
     2  C   -0.040988   0.416761   0.416786  -0.042974  -0.042977  -0.005012
     3  C    0.014032  -0.046532  -0.046559   0.413885   0.413873  -0.043688
     4  C   -0.000875  -0.007550  -0.007544  -0.044265  -0.044245   0.416642
     5  C    0.000063  -0.000231  -0.000233  -0.006290  -0.006296  -0.043525
     6  C   -0.000002  -0.000061  -0.000060  -0.000124  -0.000126  -0.006148
     7  C    0.000000   0.000000   0.000000  -0.000046  -0.000046   0.000147
     8  C   -0.000000  -0.000000  -0.000000  -0.000001  -0.000001  -0.000089
     9  O   -0.000000   0.000000   0.000000  -0.000000  -0.000000  -0.000021
    10  O    0.000000  -0.000000  -0.000000   0.000000   0.000000  -0.000000
    11  H   -0.025316  -0.007039   0.008454   0.006195  -0.000718   0.000094
    12  H   -0.025309   0.008454  -0.007041  -0.000718   0.006195   0.000006
    13  H    0.542024  -0.002630  -0.002632  -0.000166  -0.000166   0.000006
    14  H   -0.002630   0.582668  -0.036695  -0.007861   0.009243   0.005817
    15  H   -0.002632  -0.036695   0.582678   0.009243  -0.007858  -0.000340
    16  H   -0.000166  -0.007861   0.009243   0.585124  -0.038950  -0.007482
    17  H   -0.000166   0.009243  -0.007858  -0.038950   0.585133   0.008954
    18  H    0.000006   0.005817  -0.000340  -0.007482   0.008954   0.581441
    19  H    0.000006  -0.000340   0.005817   0.008954  -0.007485  -0.038573
    20  H   -0.000000   0.000163  -0.000040   0.005016  -0.000092  -0.007473
    21  H   -0.000000  -0.000040   0.000163  -0.000092   0.005016   0.008799
    22  H    0.000000  -0.000041   0.000029   0.000184  -0.000056   0.004478
    23  H    0.000000   0.000029  -0.000041  -0.000056   0.000184   0.000072
    24  H   -0.000000   0.000001  -0.000000  -0.000039   0.000025   0.000165
    25  H   -0.000000  -0.000000   0.000001   0.000025  -0.000039  -0.000062
    26  H   -0.000000  -0.000000  -0.000000   0.000000   0.000000   0.000000
              19         20         21         22         23         24
     1  C   -0.000201  -0.000006  -0.000006  -0.000001  -0.000001   0.000000
     2  C   -0.005018  -0.000285  -0.000286  -0.000024  -0.000024  -0.000001
     3  C   -0.043676  -0.004328  -0.004323  -0.000119  -0.000120  -0.000034
     4  C    0.416670  -0.044787  -0.044805  -0.005609  -0.005622  -0.000161
     5  C   -0.043572   0.417125   0.417126  -0.037908  -0.037867  -0.002891
     6  C   -0.006131  -0.040233  -0.040213   0.409421   0.409379  -0.035301
     7  C    0.000145  -0.007307  -0.007317  -0.029170  -0.029154   0.381416
     8  C   -0.000089   0.000177   0.000179  -0.009547  -0.009563  -0.010556
     9  O   -0.000021   0.000050   0.000050   0.003154   0.003164   0.002016
    10  O   -0.000000   0.000000   0.000000   0.000149   0.000150   0.005618
    11  H    0.000006  -0.000026   0.000019   0.000001  -0.000000  -0.000000
    12  H    0.000094   0.000019  -0.000026  -0.000000   0.000001   0.000000
    13  H    0.000006  -0.000000  -0.000000   0.000000   0.000000  -0.000000
    14  H   -0.000340   0.000163  -0.000040  -0.000041   0.000029   0.000001
    15  H    0.005817  -0.000040   0.000163   0.000029  -0.000041  -0.000000
    16  H    0.008954   0.005016  -0.000092   0.000184  -0.000056  -0.000039
    17  H   -0.007485  -0.000092   0.005016  -0.000056   0.000184   0.000025
    18  H   -0.038573  -0.007473   0.008799   0.004478   0.000072   0.000165
    19  H    0.581441   0.008799  -0.007471   0.000071   0.004477  -0.000062
    20  H    0.008799   0.575910  -0.038419  -0.006379   0.007717   0.002846
    21  H   -0.007471  -0.038419   0.575913   0.007718  -0.006381   0.000619
    22  H    0.000071  -0.006379   0.007718   0.551860  -0.029276  -0.003056
    23  H    0.004477   0.007717  -0.006381  -0.029276   0.551878   0.005723
    24  H   -0.000062   0.002846   0.000619  -0.003056   0.005723   0.486854
    25  H    0.000165   0.000619   0.002850   0.005722  -0.003054  -0.015222
    26  H    0.000000  -0.000001  -0.000001   0.000004   0.000004  -0.000389
              25         26
     1  C    0.000000   0.000000
     2  C   -0.000001  -0.000000
     3  C   -0.000034   0.000000
     4  C   -0.000160  -0.000004
     5  C   -0.002898   0.000086
     6  C   -0.035287  -0.001874
     7  C    0.381427   0.019703
     8  C   -0.010536  -0.016999
     9  O    0.002011   0.002430
    10  O    0.005605   0.282425
    11  H    0.000000  -0.000000
    12  H   -0.000000  -0.000000
    13  H   -0.000000  -0.000000
    14  H   -0.000000  -0.000000
    15  H    0.000001  -0.000000
    16  H    0.000025   0.000000
    17  H   -0.000039   0.000000
    18  H   -0.000062   0.000000
    19  H    0.000165   0.000000
    20  H    0.000619  -0.000001
    21  H    0.002850  -0.000001
    22  H    0.005722   0.000004
    23  H   -0.003054   0.000004
    24  H   -0.015222  -0.000389
    25  H    0.486795  -0.000389
    26  H   -0.000389   0.385211
 Mulliken charges:
               1
     1  C   -0.418797
     2  C   -0.228261
     3  C   -0.263094
     4  C   -0.239937
     5  C   -0.268330
     6  C   -0.261792
     7  C   -0.266754
     8  C    0.203215
     9  O   -0.364236
    10  O   -0.286823
    11  H    0.131794
    12  H    0.131784
    13  H    0.144652
    14  H    0.126984
    15  H    0.126976
    16  H    0.123656
    17  H    0.123649
    18  H    0.125994
    19  H    0.125994
    20  H    0.130936
    21  H    0.130929
    22  H    0.138395
    23  H    0.138381
    24  H    0.182428
    25  H    0.182463
    26  H    0.329795
 Sum of Mulliken charges =  -0.00000
 Mulliken charges with hydrogens summed into heavy atoms:
               1
     1  C   -0.010567
     2  C    0.025700
     3  C   -0.015789
     4  C    0.012051
     5  C   -0.006465
     6  C    0.014984
     7  C    0.098136
     8  C    0.203215
     9  O   -0.364236
    10  O    0.042972
 Electronic spatial extent (au):  <R**2>=           3660.0407
 Charge=             -0.0000 electrons
 Dipole moment (field-independent basis, Debye):
    X=             -0.2545    Y=             -2.2028    Z=             -0.0001  Tot=              2.2174
 Quadrupole moment (field-independent basis, Debye-Ang):
   XX=            -60.2200   YY=            -70.7462   ZZ=            -62.5814
   XY=             -6.8225   XZ=              0.0008   YZ=              0.0009
 Traceless Quadrupole moment (field-independent basis, Debye-Ang):
   XX=              4.2959   YY=             -6.2304   ZZ=              1.9345
   XY=             -6.8225   XZ=              0.0008   YZ=              0.0009
 Octapole moment (field-independent basis, Debye-Ang**2):
  XXX=            115.7566  YYY=             -5.5781  ZZZ=             -0.0013  XYY=            -10.7111
  XXY=            -14.6381  XXZ=              0.0042  XZZ=             12.5856  YZZ=             -0.7352
  YYZ=              0.0008  XYZ=              0.0049
 Hexadecapole moment (field-independent basis, Debye-Ang**3):
 XXXX=          -3917.3401 YYYY=           -291.5966 ZZZZ=           -115.1419 XXXY=            -75.4775
 XXXZ=              0.0265 YYYX=            -21.2072 YYYZ=             -0.0043 ZZZX=             -0.0003
 ZZZY=              0.0025 XXYY=           -894.6391 XXZZ=           -754.6690 YYZZ=            -60.1687
 XXYZ=              0.0149 YYXZ=              0.0008 ZZXY=              0.8560
 N-N= 5.104758218921D+02 E-N=-2.104789069572D+03  KE= 4.628112642467D+02
 Unable to Open any file for archive entry.
 1\1\GINC-TCN1745\SP\RBP86\TZVP\C8H16O2\ELENAA\22-Feb-2021\0\\# BP86/TZ
 VP SCRF=COSMORS geom=CHECKPOINT guess=CHECKPOINT\\COSMO-file for #WWZK
 QHOCKIZLMA-UHFFFAOYSA-N\\0,1\C,0,0.5255228606,4.4927347295,-1.35919179
 13\C,0,0.5502764213,2.9722963041,-1.1591394352\C,0,1.9477581404,2.3652
 786768,-1.3438927825\C,0,1.9859172656,0.8444651048,-1.1463394385\C,0,3
 .3841914977,0.2411848593,-1.3317452508\C,0,3.4140903857,-1.2794110202,
 -1.1325764147\C,0,4.8154437759,-1.8624724917,-1.3212849549\C,0,4.88357
 04592,-3.3603889421,-1.1323504694\O,0,3.9480809717,-4.0948185785,-0.85
 455675\O,0,6.1540479752,-3.8277537199,-1.3120816935\H,0,0.8633735443,4
 .7631742542,-2.372813956\H,0,1.1934893468,4.9963266095,-0.6416077737\H
 ,0,-0.4862184403,4.9045112037,-1.2217239056\H,0,-0.1484685577,2.493073
 8625,-1.8677434306\H,0,0.1793712224,2.7246013876,-0.1486463431\H,0,2.3
 204869612,2.6117301373,-2.3551961271\H,0,2.648556868,2.8434237673,-0.6
 34907062\H,0,1.2857200259,0.3664785856,-1.8555919602\H,0,1.6138575857,
 0.5982173645,-0.1350427642\H,0,3.7565329417,0.4865246437,-2.3429892976
 \H,0,4.0846670491,0.7183220709,-0.6224335083\H,0,2.7199386613,-1.76123
 90803,-1.8410363079\H,0,3.047580951,-1.5297946065,-0.1231735172\H,0,5.
 2075875679,-1.6371099895,-2.3278843936\H,0,5.5336194113,-1.4066408265,
 -0.6182535312\H,0,6.1320651079,-4.799634306,-1.176837141\\Version=ES64
 L-G16RevC.01\State=1-A\HF=-465.1360001\RMSD=3.809e-09\Dipole=0.6718314
 ,0.5199951,-0.1983425\Quadrupole=2.0632512,-3.150917,1.0876658,-5.6241
 928,0.6393156,1.6934327\PG=C01 [X(C8H16O2)]\\@
 The archive entry for this job was punched.


 TO DRY ONE'S EYES AND LAUGH AT A FALL
 AND BAFFLED, GET UP AND BEGIN AGAIN.
           R. BROWNING
 Job cpu time:       0 days  0 hours  6 minutes 45.9 seconds.
 Elapsed time:       0 days  0 hours  0 minutes 13.3 seconds.
 File lengths (MBytes):  RWF=     73 Int=      0 D2E=      0 Chk=     11 Scr=      1
 Normal termination of Gaussian 16 at Mon Feb 22 21:30:46 2021.
