 Entering Gaussian System, Link 0=g16
 Input=XMGQYMWWDOXHJM-SNVBAGLBSA-N.gjf
 Output=XMGQYMWWDOXHJM-SNVBAGLBSA-N.log
 Initial command:
 /sw/arch/RedHatEnterpriseServer7/EB_production/2019/software/Gaussian/g16.c01/l1.exe "/scratch-local/elenaa.9715298/Gau-14907.inp" -scrdir="/scratch-local/elenaa.9715298/"
 Entering Link 1 = /sw/arch/RedHatEnterpriseServer7/EB_production/2019/software/Gaussian/g16.c01/l1.exe PID=     14910.
  
 Copyright (c) 1988-2019, Gaussian, Inc.  All Rights Reserved.
  
 This is part of the Gaussian(R) 16 program.  It is based on
 the Gaussian(R) 09 system (copyright 2009, Gaussian, Inc.),
 the Gaussian(R) 03 system (copyright 2003, Gaussian, Inc.),
 the Gaussian(R) 98 system (copyright 1998, Gaussian, Inc.),
 the Gaussian(R) 94 system (copyright 1995, Gaussian, Inc.),
 the Gaussian 92(TM) system (copyright 1992, Gaussian, Inc.),
 the Gaussian 90(TM) system (copyright 1990, Gaussian, Inc.),
 the Gaussian 88(TM) system (copyright 1988, Gaussian, Inc.),
 the Gaussian 86(TM) system (copyright 1986, Carnegie Mellon
 University), and the Gaussian 82(TM) system (copyright 1983,
 Carnegie Mellon University). Gaussian is a federally registered
 trademark of Gaussian, Inc.
  
 This software contains proprietary and confidential information,
 including trade secrets, belonging to Gaussian, Inc.
  
 This software is provided under written license and may be
 used, copied, transmitted, or stored only in accord with that
 written license.
  
 The following legend is applicable only to US Government
 contracts under FAR:
  
                    RESTRICTED RIGHTS LEGEND
  
 Use, reproduction and disclosure by the US Government is
 subject to restrictions as set forth in subparagraphs (a)
 and (c) of the Commercial Computer Software - Restricted
 Rights clause in FAR 52.227-19.
  
 Gaussian, Inc.
 340 Quinnipiac St., Bldg. 40, Wallingford CT 06492
  
  
 ---------------------------------------------------------------
 Warning -- This program may not be used in any manner that
 competes with the business of Gaussian, Inc. or will provide
 assistance to any competitor of Gaussian, Inc.  The licensee
 of this program is prohibited from giving any competitor of
 Gaussian, Inc. access to this program.  By using this program,
 the user acknowledges that Gaussian, Inc. is engaged in the
 business of creating and licensing software in the field of
 computational chemistry and represents and warrants to the
 licensee that it is not a competitor of Gaussian, Inc. and that
 it will not use this program in any manner prohibited above.
 ---------------------------------------------------------------
  

 Cite this work as:
 Gaussian 16, Revision C.01,
 M. J. Frisch, G. W. Trucks, H. B. Schlegel, G. E. Scuseria, 
 M. A. Robb, J. R. Cheeseman, G. Scalmani, V. Barone, 
 G. A. Petersson, H. Nakatsuji, X. Li, M. Caricato, A. V. Marenich, 
 J. Bloino, B. G. Janesko, R. Gomperts, B. Mennucci, H. P. Hratchian, 
 J. V. Ortiz, A. F. Izmaylov, J. L. Sonnenberg, D. Williams-Young, 
 F. Ding, F. Lipparini, F. Egidi, J. Goings, B. Peng, A. Petrone, 
 T. Henderson, D. Ranasinghe, V. G. Zakrzewski, J. Gao, N. Rega, 
 G. Zheng, W. Liang, M. Hada, M. Ehara, K. Toyota, R. Fukuda, 
 J. Hasegawa, M. Ishida, T. Nakajima, Y. Honda, O. Kitao, H. Nakai, 
 T. Vreven, K. Throssell, J. A. Montgomery, Jr., J. E. Peralta, 
 F. Ogliaro, M. J. Bearpark, J. J. Heyd, E. N. Brothers, K. N. Kudin, 
 V. N. Staroverov, T. A. Keith, R. Kobayashi, J. Normand, 
 K. Raghavachari, A. P. Rendell, J. C. Burant, S. S. Iyengar, 
 J. Tomasi, M. Cossi, J. M. Millam, M. Klene, C. Adamo, R. Cammi, 
 J. W. Ochterski, R. L. Martin, K. Morokuma, O. Farkas, 
 J. B. Foresman, and D. J. Fox, Gaussian, Inc., Wallingford CT, 2019.
 
 ******************************************
 Gaussian 16:  ES64L-G16RevC.01  3-Jul-2019
                22-Feb-2021 
 ******************************************
 %chk=XMGQYMWWDOXHJM-SNVBAGLBSA-N.chk
 %NProcShared=32
 Will use up to   32 processors via shared memory.
 -------------------------------------------------------------
 #P BP86/TZVP EmpiricalDispersion=GD3 SCRF=(Solvent=Water) Opt
 -------------------------------------------------------------
 1/18=20,19=15,26=3,38=1/1,3;
 2/9=110,12=2,17=6,18=5,40=1/2;
 3/5=19,7=101,11=2,25=1,30=1,70=2201,71=1,72=1,74=404,124=31/1,2,3;
 4//1;
 5/5=2,38=5,53=1/2;
 6/7=2,8=2,9=2,10=2,28=1/1;
 7//1,2,3,16;
 1/18=20,19=15,26=3/3(2);
 2/9=110/2;
 99//99;
 2/9=110/2;
 3/5=19,7=101,11=2,25=1,30=1,70=2205,71=1,72=1,74=404,124=31/1,2,3;
 4/5=5,16=3,69=1/1;
 5/5=2,38=5,53=1/2;
 7//1,2,3,16;
 1/18=20,19=15,26=3/3(-5);
 2/9=110/2;
 6/7=2,8=2,9=2,10=2,19=2,28=1/1;
 99/9=1/99;
 Leave Link    1 at Mon Feb 22 21:28:49 2021, MaxMem=           0 cpu:               1.7 elap:               0.1
 (Enter /sw/arch/RedHatEnterpriseServer7/EB_production/2019/software/Gaussian/g16.c01/l101.exe)
 -------------------------------------
 Particle #XMGQYMWWDOXHJM-SNVBAGLBSA-N
 -------------------------------------
 Symbolic Z-matrix:
 Charge =  0 Multiplicity = 1
 C                     3.35245   1.98081  -2.15992 
 C                     2.67212   2.44375  -1.09254 
 C                     3.28778   3.42134  -0.19663 
 C                     1.30223   1.97906  -0.78974 
 C                     1.23522   0.46493  -0.41587 
 C                    -0.12003  -0.05114  -0.2787 
 C                    -1.22446   0.56559  -0.75549 
 C                    -2.55321  -0.00713  -0.54624 
 C                    -1.15148   1.84298  -1.47623 
 C                     0.27425   2.27331  -1.92104 
 H                     4.27059   2.29778  -2.3653 
 H                     2.95678   1.30914  -2.77394 
 H                     2.73687   4.36159  -0.25805 
 H                     4.33513   3.62628  -0.43023 
 H                     3.24496   3.05773   0.83162 
 H                     0.93575   2.52301   0.09123 
 H                     1.76037   0.31815   0.53242 
 H                     1.7364   -0.14303  -1.17345 
 H                    -0.21409  -0.91887   0.19795 
 H                    -3.1975    0.72423  -0.0522 
 H                    -2.53873  -0.9062    0.07483 
 H                    -2.99591  -0.26955  -1.50845 
 H                    -1.78099   1.80147  -2.37003 
 H                    -1.56217   2.61766  -0.82292 
 H                     0.26987   3.33992  -2.16585 
 H                     0.53852   1.71696  -2.82562 
 
 ITRead=  0  0  0  0  0  0  0  0  0  0  0  0  0  0  0  0  0  0  0  0
 ITRead=  0  0  0  0  0  0
 MicOpt= -1 -1 -1 -1 -1 -1 -1 -1 -1 -1 -1 -1 -1 -1 -1 -1 -1 -1 -1 -1
 MicOpt= -1 -1 -1 -1 -1 -1
 NAtoms=     26 NQM=       26 NQMF=       0 NMMI=      0 NMMIF=      0
                NMic=       0 NMicF=      0.
                    Isotopes and Nuclear Properties:
 (Nuclear quadrupole moments (NQMom) in fm**2, nuclear magnetic moments (NMagM)
  in nuclear magnetons)

  Atom         1           2           3           4           5           6           7           8           9          10
 IAtWgt=          12          12          12          12          12          12          12          12          12          12
 AtmWgt=  12.0000000  12.0000000  12.0000000  12.0000000  12.0000000  12.0000000  12.0000000  12.0000000  12.0000000  12.0000000
 NucSpn=           0           0           0           0           0           0           0           0           0           0
 AtZEff=  -0.0000000  -0.0000000  -0.0000000  -0.0000000  -0.0000000  -0.0000000  -0.0000000  -0.0000000  -0.0000000  -0.0000000
 NQMom=    0.0000000   0.0000000   0.0000000   0.0000000   0.0000000   0.0000000   0.0000000   0.0000000   0.0000000   0.0000000
 NMagM=    0.0000000   0.0000000   0.0000000   0.0000000   0.0000000   0.0000000   0.0000000   0.0000000   0.0000000   0.0000000
 AtZNuc=   6.0000000   6.0000000   6.0000000   6.0000000   6.0000000   6.0000000   6.0000000   6.0000000   6.0000000   6.0000000

  Atom        11          12          13          14          15          16          17          18          19          20
 IAtWgt=           1           1           1           1           1           1           1           1           1           1
 AtmWgt=   1.0078250   1.0078250   1.0078250   1.0078250   1.0078250   1.0078250   1.0078250   1.0078250   1.0078250   1.0078250
 NucSpn=           1           1           1           1           1           1           1           1           1           1
 AtZEff=  -0.0000000  -0.0000000  -0.0000000  -0.0000000  -0.0000000  -0.0000000  -0.0000000  -0.0000000  -0.0000000  -0.0000000
 NQMom=    0.0000000   0.0000000   0.0000000   0.0000000   0.0000000   0.0000000   0.0000000   0.0000000   0.0000000   0.0000000
 NMagM=    2.7928460   2.7928460   2.7928460   2.7928460   2.7928460   2.7928460   2.7928460   2.7928460   2.7928460   2.7928460
 AtZNuc=   1.0000000   1.0000000   1.0000000   1.0000000   1.0000000   1.0000000   1.0000000   1.0000000   1.0000000   1.0000000

  Atom        21          22          23          24          25          26
 IAtWgt=           1           1           1           1           1           1
 AtmWgt=   1.0078250   1.0078250   1.0078250   1.0078250   1.0078250   1.0078250
 NucSpn=           1           1           1           1           1           1
 AtZEff=  -0.0000000  -0.0000000  -0.0000000  -0.0000000  -0.0000000  -0.0000000
 NQMom=    0.0000000   0.0000000   0.0000000   0.0000000   0.0000000   0.0000000
 NMagM=    2.7928460   2.7928460   2.7928460   2.7928460   2.7928460   2.7928460
 AtZNuc=   1.0000000   1.0000000   1.0000000   1.0000000   1.0000000   1.0000000
 Leave Link  101 at Mon Feb 22 21:28:50 2021, MaxMem=   104857600 cpu:               3.1 elap:               0.1
 (Enter /sw/arch/RedHatEnterpriseServer7/EB_production/2019/software/Gaussian/g16.c01/l103.exe)

 GradGradGradGradGradGradGradGradGradGradGradGradGradGradGradGradGradGrad
 Berny optimization.
 Initialization pass.
                           ----------------------------
                           !    Initial Parameters    !
                           ! (Angstroms and Degrees)  !
 --------------------------                            --------------------------
 ! Name  Definition              Value          Derivative Info.                !
 --------------------------------------------------------------------------------
 ! R1    R(1,2)                  1.3478         estimate D2E/DX2                !
 ! R2    R(1,11)                 0.9928         estimate D2E/DX2                !
 ! R3    R(1,12)                 0.9923         estimate D2E/DX2                !
 ! R4    R(2,3)                  1.462          estimate D2E/DX2                !
 ! R5    R(2,4)                  1.4779         estimate D2E/DX2                !
 ! R6    R(3,13)                 1.0915         estimate D2E/DX2                !
 ! R7    R(3,14)                 1.0925         estimate D2E/DX2                !
 ! R8    R(3,15)                 1.0915         estimate D2E/DX2                !
 ! R9    R(4,5)                  1.561          estimate D2E/DX2                !
 ! R10   R(4,10)                 1.5567         estimate D2E/DX2                !
 ! R11   R(4,16)                 1.0983         estimate D2E/DX2                !
 ! R12   R(5,6)                  1.4567         estimate D2E/DX2                !
 ! R13   R(5,17)                 1.0939         estimate D2E/DX2                !
 ! R14   R(5,18)                 1.093          estimate D2E/DX2                !
 ! R15   R(6,7)                  1.3518         estimate D2E/DX2                !
 ! R16   R(6,19)                 0.9945         estimate D2E/DX2                !
 ! R17   R(7,8)                  1.462          estimate D2E/DX2                !
 ! R18   R(7,9)                  1.4685         estimate D2E/DX2                !
 ! R19   R(8,20)                 1.0927         estimate D2E/DX2                !
 ! R20   R(8,21)                 1.0928         estimate D2E/DX2                !
 ! R21   R(8,22)                 1.0912         estimate D2E/DX2                !
 ! R22   R(9,10)                 1.5543         estimate D2E/DX2                !
 ! R23   R(9,23)                 1.094          estimate D2E/DX2                !
 ! R24   R(9,24)                 1.0934         estimate D2E/DX2                !
 ! R25   R(10,25)                1.0944         estimate D2E/DX2                !
 ! R26   R(10,26)                1.0944         estimate D2E/DX2                !
 ! A1    A(2,1,11)             121.3992         estimate D2E/DX2                !
 ! A2    A(2,1,12)             121.417          estimate D2E/DX2                !
 ! A3    A(11,1,12)            117.1837         estimate D2E/DX2                !
 ! A4    A(1,2,3)              120.161          estimate D2E/DX2                !
 ! A5    A(1,2,4)              121.4766         estimate D2E/DX2                !
 ! A6    A(3,2,4)              118.3612         estimate D2E/DX2                !
 ! A7    A(2,3,13)             109.2075         estimate D2E/DX2                !
 ! A8    A(2,3,14)             113.4609         estimate D2E/DX2                !
 ! A9    A(2,3,15)             109.7566         estimate D2E/DX2                !
 ! A10   A(13,3,14)            108.0744         estimate D2E/DX2                !
 ! A11   A(13,3,15)            108.6741         estimate D2E/DX2                !
 ! A12   A(14,3,15)            107.5501         estimate D2E/DX2                !
 ! A13   A(2,4,5)              113.1932         estimate D2E/DX2                !
 ! A14   A(2,4,10)             113.8145         estimate D2E/DX2                !
 ! A15   A(2,4,16)             108.5362         estimate D2E/DX2                !
 ! A16   A(5,4,10)             109.2115         estimate D2E/DX2                !
 ! A17   A(5,4,16)             105.8992         estimate D2E/DX2                !
 ! A18   A(10,4,16)            105.6027         estimate D2E/DX2                !
 ! A19   A(4,5,6)              113.9618         estimate D2E/DX2                !
 ! A20   A(4,5,17)             108.4916         estimate D2E/DX2                !
 ! A21   A(4,5,18)             110.721          estimate D2E/DX2                !
 ! A22   A(6,5,17)             108.5109         estimate D2E/DX2                !
 ! A23   A(6,5,18)             107.1462         estimate D2E/DX2                !
 ! A24   A(17,5,18)            107.8236         estimate D2E/DX2                !
 ! A25   A(5,6,7)              124.421          estimate D2E/DX2                !
 ! A26   A(5,6,19)             116.2481         estimate D2E/DX2                !
 ! A27   A(7,6,19)             119.3303         estimate D2E/DX2                !
 ! A28   A(6,7,8)              120.8863         estimate D2E/DX2                !
 ! A29   A(6,7,9)              121.9613         estimate D2E/DX2                !
 ! A30   A(8,7,9)              117.1406         estimate D2E/DX2                !
 ! A31   A(7,8,20)             109.7795         estimate D2E/DX2                !
 ! A32   A(7,8,21)             113.0534         estimate D2E/DX2                !
 ! A33   A(7,8,22)             109.678          estimate D2E/DX2                !
 ! A34   A(20,8,21)            107.5476         estimate D2E/DX2                !
 ! A35   A(20,8,22)            108.6885         estimate D2E/DX2                !
 ! A36   A(21,8,22)            107.9788         estimate D2E/DX2                !
 ! A37   A(7,9,10)             115.2699         estimate D2E/DX2                !
 ! A38   A(7,9,23)             109.8387         estimate D2E/DX2                !
 ! A39   A(7,9,24)             107.7201         estimate D2E/DX2                !
 ! A40   A(10,9,23)            107.7292         estimate D2E/DX2                !
 ! A41   A(10,9,24)            108.6247         estimate D2E/DX2                !
 ! A42   A(23,9,24)            107.3912         estimate D2E/DX2                !
 ! A43   A(4,10,9)             110.2089         estimate D2E/DX2                !
 ! A44   A(4,10,25)            110.454          estimate D2E/DX2                !
 ! A45   A(4,10,26)            110.1911         estimate D2E/DX2                !
 ! A46   A(9,10,25)            109.2809         estimate D2E/DX2                !
 ! A47   A(9,10,26)            108.5006         estimate D2E/DX2                !
 ! A48   A(25,10,26)           108.1526         estimate D2E/DX2                !
 ! D1    D(11,1,2,3)            -0.7692         estimate D2E/DX2                !
 ! D2    D(11,1,2,4)           179.6319         estimate D2E/DX2                !
 ! D3    D(12,1,2,3)           179.2599         estimate D2E/DX2                !
 ! D4    D(12,1,2,4)            -0.339          estimate D2E/DX2                !
 ! D5    D(1,2,3,13)           114.6716         estimate D2E/DX2                !
 ! D6    D(1,2,3,14)            -5.9487         estimate D2E/DX2                !
 ! D7    D(1,2,3,15)          -126.2902         estimate D2E/DX2                !
 ! D8    D(4,2,3,13)           -65.7171         estimate D2E/DX2                !
 ! D9    D(4,2,3,14)           173.6625         estimate D2E/DX2                !
 ! D10   D(4,2,3,15)            53.321          estimate D2E/DX2                !
 ! D11   D(1,2,4,5)             65.3094         estimate D2E/DX2                !
 ! D12   D(1,2,4,10)           -60.1698         estimate D2E/DX2                !
 ! D13   D(1,2,4,16)          -177.4324         estimate D2E/DX2                !
 ! D14   D(3,2,4,5)           -114.2965         estimate D2E/DX2                !
 ! D15   D(3,2,4,10)           120.2243         estimate D2E/DX2                !
 ! D16   D(3,2,4,16)             2.9617         estimate D2E/DX2                !
 ! D17   D(2,4,5,6)           -172.6833         estimate D2E/DX2                !
 ! D18   D(2,4,5,17)            66.321          estimate D2E/DX2                !
 ! D19   D(2,4,5,18)           -51.8161         estimate D2E/DX2                !
 ! D20   D(10,4,5,6)           -44.7687         estimate D2E/DX2                !
 ! D21   D(10,4,5,17)         -165.7644         estimate D2E/DX2                !
 ! D22   D(10,4,5,18)           76.0985         estimate D2E/DX2                !
 ! D23   D(16,4,5,6)            68.5231         estimate D2E/DX2                !
 ! D24   D(16,4,5,17)          -52.4726         estimate D2E/DX2                !
 ! D25   D(16,4,5,18)         -170.6097         estimate D2E/DX2                !
 ! D26   D(2,4,10,9)          -176.0139         estimate D2E/DX2                !
 ! D27   D(2,4,10,25)          -55.1614         estimate D2E/DX2                !
 ! D28   D(2,4,10,26)           64.2742         estimate D2E/DX2                !
 ! D29   D(5,4,10,9)            56.4207         estimate D2E/DX2                !
 ! D30   D(5,4,10,25)          177.2731         estimate D2E/DX2                !
 ! D31   D(5,4,10,26)          -63.2913         estimate D2E/DX2                !
 ! D32   D(16,4,10,9)          -57.0645         estimate D2E/DX2                !
 ! D33   D(16,4,10,25)          63.788          estimate D2E/DX2                !
 ! D34   D(16,4,10,26)        -176.7764         estimate D2E/DX2                !
 ! D35   D(4,5,6,7)             16.8421         estimate D2E/DX2                !
 ! D36   D(4,5,6,19)          -163.4309         estimate D2E/DX2                !
 ! D37   D(17,5,6,7)           137.827          estimate D2E/DX2                !
 ! D38   D(17,5,6,19)          -42.446          estimate D2E/DX2                !
 ! D39   D(18,5,6,7)          -105.9991         estimate D2E/DX2                !
 ! D40   D(18,5,6,19)           73.7279         estimate D2E/DX2                !
 ! D41   D(5,6,7,8)           -178.5418         estimate D2E/DX2                !
 ! D42   D(5,6,7,9)              0.1716         estimate D2E/DX2                !
 ! D43   D(19,6,7,8)             1.739          estimate D2E/DX2                !
 ! D44   D(19,6,7,9)          -179.5476         estimate D2E/DX2                !
 ! D45   D(6,7,8,20)           124.1967         estimate D2E/DX2                !
 ! D46   D(6,7,8,21)             4.1137         estimate D2E/DX2                !
 ! D47   D(6,7,8,22)          -116.4471         estimate D2E/DX2                !
 ! D48   D(9,7,8,20)           -54.5767         estimate D2E/DX2                !
 ! D49   D(9,7,8,21)          -174.6597         estimate D2E/DX2                !
 ! D50   D(9,7,8,22)            64.7795         estimate D2E/DX2                !
 ! D51   D(6,7,9,10)            12.8042         estimate D2E/DX2                !
 ! D52   D(6,7,9,23)           134.6948         estimate D2E/DX2                !
 ! D53   D(6,7,9,24)          -108.6346         estimate D2E/DX2                !
 ! D54   D(8,7,9,10)          -168.4366         estimate D2E/DX2                !
 ! D55   D(8,7,9,23)           -46.546          estimate D2E/DX2                !
 ! D56   D(8,7,9,24)            70.1246         estimate D2E/DX2                !
 ! D57   D(7,9,10,4)           -41.4829         estimate D2E/DX2                !
 ! D58   D(7,9,10,25)         -163.0352         estimate D2E/DX2                !
 ! D59   D(7,9,10,26)           79.248          estimate D2E/DX2                !
 ! D60   D(23,9,10,4)         -164.5018         estimate D2E/DX2                !
 ! D61   D(23,9,10,25)          73.9459         estimate D2E/DX2                !
 ! D62   D(23,9,10,26)         -43.7708         estimate D2E/DX2                !
 ! D63   D(24,9,10,4)           79.4655         estimate D2E/DX2                !
 ! D64   D(24,9,10,25)         -42.0868         estimate D2E/DX2                !
 ! D65   D(24,9,10,26)        -159.8036         estimate D2E/DX2                !
 --------------------------------------------------------------------------------
 Trust Radius=3.00D-01 FncErr=1.00D-07 GrdErr=1.00D-06 EigMax=2.50D+02 EigMin=1.00D-04
 Number of steps in this run=    149 maximum allowed number of steps=    156.
 GradGradGradGradGradGradGradGradGradGradGradGradGradGradGradGradGradGrad

 Leave Link  103 at Mon Feb 22 21:28:50 2021, MaxMem=   104857600 cpu:               0.4 elap:               0.0
 (Enter /sw/arch/RedHatEnterpriseServer7/EB_production/2019/software/Gaussian/g16.c01/l202.exe)
                          Input orientation:                          
 ---------------------------------------------------------------------
 Center     Atomic      Atomic             Coordinates (Angstroms)
 Number     Number       Type             X           Y           Z
 ---------------------------------------------------------------------
      1          6           0        3.352450    1.980810   -2.159920
      2          6           0        2.672120    2.443750   -1.092540
      3          6           0        3.287780    3.421340   -0.196630
      4          6           0        1.302230    1.979060   -0.789740
      5          6           0        1.235220    0.464930   -0.415870
      6          6           0       -0.120030   -0.051140   -0.278700
      7          6           0       -1.224460    0.565590   -0.755490
      8          6           0       -2.553210   -0.007130   -0.546240
      9          6           0       -1.151480    1.842980   -1.476230
     10          6           0        0.274250    2.273310   -1.921040
     11          1           0        4.270590    2.297780   -2.365300
     12          1           0        2.956780    1.309140   -2.773940
     13          1           0        2.736870    4.361590   -0.258050
     14          1           0        4.335130    3.626280   -0.430230
     15          1           0        3.244960    3.057730    0.831620
     16          1           0        0.935750    2.523010    0.091230
     17          1           0        1.760370    0.318150    0.532420
     18          1           0        1.736400   -0.143030   -1.173450
     19          1           0       -0.214090   -0.918870    0.197950
     20          1           0       -3.197500    0.724230   -0.052200
     21          1           0       -2.538730   -0.906200    0.074830
     22          1           0       -2.995910   -0.269550   -1.508450
     23          1           0       -1.780990    1.801470   -2.370030
     24          1           0       -1.562170    2.617660   -0.822920
     25          1           0        0.269870    3.339920   -2.165850
     26          1           0        0.538520    1.716960   -2.825620
 ---------------------------------------------------------------------
                    Distance matrix (angstroms):
                    1          2          3          4          5
     1  C    0.000000
     2  C    1.347762   0.000000
     3  C    2.435943   1.461976   0.000000
     4  C    2.465927   1.477912   2.524749   0.000000
     5  C    3.134049   2.537379   3.605749   1.561044   0.000000
     6  C    4.441388   3.831829   4.866007   2.530948   1.456656
     7  C    4.992332   4.338712   5.369166   2.895381   2.485055
     8  C    6.436823   5.797355   6.781873   4.343807   3.819953
     9  C    4.557611   3.889481   4.882174   2.551564   2.952918
    10  C    3.101280   2.542684   3.656901   1.556652   2.541503
    11  H    0.992790   2.048495   2.632761   3.375668   4.046367
    12  H    0.992329   2.048286   3.348653   2.668966   3.039236
    13  H    3.108723   2.092529   1.091487   2.831490   4.178973
    14  H    2.581678   2.145375   1.092479   3.470024   4.427616
    15  H    3.181293   2.099407   1.091487   2.750734   3.509686
    16  H    3.346953   2.102992   2.534148   1.098316   2.140684
    17  H    3.542295   2.826651   3.534725   2.171778   1.093883
    18  H    2.845248   2.752008   4.008203   2.199773   1.093034
    19  H    5.166034   4.615494   5.590725   3.416542   2.095752
    20  H    6.994521   6.204151   7.025249   4.729285   4.455165
    21  H    6.930724   6.303798   7.262886   4.881104   4.045180
    22  H    6.766846   6.297741   7.404613   4.903754   4.431213
    23  H    5.140867   4.677039   5.748050   3.469164   3.834397
    24  H    5.132897   4.246428   4.955820   2.934910   3.553214
    25  H    3.368904   2.779554   3.604475   2.193487   3.501414
    26  H    2.903614   2.843244   4.168325   2.190150   2.803545
                    6          7          8          9         10
     6  C    0.000000
     7  C    1.351832   0.000000
     8  C    2.448240   1.461975   0.000000
     9  C    2.466913   1.468509   2.500527   0.000000
    10  C    2.873292   2.553614   3.883943   1.554267   0.000000
    11  H    5.398969   5.982269   7.428717   5.513269   4.021032
    12  H    4.188478   4.702103   6.087299   4.341294   2.975404
    13  H    5.256852   5.509011   6.866856   4.790264   3.631934
    14  H    5.778826   6.354735   7.788733   5.863204   4.532526
    15  H    4.713920   5.357742   6.701540   5.111798   4.125236
    16  H    2.806736   3.035611   4.356698   2.697388   2.132877
    17  H    2.080912   3.260238   4.458283   3.852097   3.471407
    18  H    2.062851   3.073032   4.337351   3.517920   2.921553
    19  H    0.994484   2.033105   2.618505   3.362944   3.862461
    20  H    3.181717   2.100636   1.092736   2.732336   4.236185
    21  H    2.589637   2.140772   1.092824   3.447933   4.691017
    22  H    3.135391   2.098200   1.091190   2.804593   4.162969
    23  H    3.250325   2.108048   2.682083   1.094022   2.155977
    24  H    3.081953   2.080766   2.819261   1.093439   2.167229
    25  H    3.900339   3.452397   4.668582   2.176383   1.094353
    26  H    3.169648   2.952827   4.210327   2.166295   1.094362
                   11         12         13         14         15
    11  H    0.000000
    12  H    1.694253   0.000000
    13  H    3.324472   3.961756   0.000000
    14  H    2.348100   3.572389   1.767700   0.000000
    15  H    3.442345   4.017546   1.773580   1.761813   0.000000
    16  H    4.148063   3.710423   2.597384   3.611774   2.483255
    17  H    4.314733   3.653146   4.234124   4.301140   3.130308
    18  H    3.714859   2.481873   4.704306   4.638262   4.067053
    19  H    6.085182   4.883705   6.066248   6.461300   5.308475
    20  H    7.974889   6.754639   6.963441   8.081170   6.908810
    21  H    7.911167   6.574485   7.462732   8.249146   7.052414
    22  H    7.754186   6.287149   7.475007   8.371631   7.449509
    23  H    6.071900   4.780376   5.605866   6.670808   6.090068
    24  H    6.041717   5.093095   4.673555   5.995804   5.102907
    25  H    4.139033   3.422474   3.281707   4.429528   4.232685
    26  H    3.804943   2.452951   4.291763   4.878283   4.743194
                   16         17         18         19         20
    16  H    0.000000
    17  H    2.395006   0.000000
    18  H    3.057487   1.767273   0.000000
    19  H    3.630435   2.353844   2.507404   0.000000
    20  H    4.509982   5.008708   5.133489   3.415126   0.000000
    21  H    4.881779   4.493404   4.518558   2.327933   1.763070
    22  H    5.080878   5.208910   4.745839   3.327452   1.774514
    23  H    3.736187   4.813074   4.193437   4.055853   2.922205
    24  H    2.661622   4.261920   4.315651   3.920018   2.617898
    25  H    2.491013   4.316636   3.907238   4.894799   4.830321
    26  H    3.052134   3.837450   2.761185   4.081176   4.757648
                   21         22         23         24         25
    21  H    0.000000
    22  H    1.766667   0.000000
    23  H    3.725988   2.550975   0.000000
    24  H    3.765264   3.295686   1.762838   0.000000
    25  H    5.562231   4.911799   2.571876   2.383588   0.000000
    26  H    4.976248   4.263022   2.365339   3.038909   1.772419
                   26
    26  H    0.000000
 Stoichiometry    C10H16
 Framework group  C1[X(C10H16)]
 Deg. of freedom    72
 Full point group                 C1      NOp   1
 Largest Abelian subgroup         C1      NOp   1
 Largest concise Abelian subgroup C1      NOp   1
                         Standard orientation:                         
 ---------------------------------------------------------------------
 Center     Atomic      Atomic             Coordinates (Angstroms)
 Number     Number       Type             X           Y           Z
 ---------------------------------------------------------------------
      1          6           0       -2.669444   -0.061833    1.259955
      2          6           0       -2.188175   -0.002687    0.002440
      3          6           0       -3.106352    0.025377   -1.134898
      4          6           0       -0.735372    0.026521   -0.267250
      5          6           0       -0.005311   -1.287356    0.154173
      6          6           0        1.446103   -1.216088    0.053351
      7          6           0        2.149838   -0.065910   -0.043074
      8          6           0        3.605951   -0.085607   -0.172365
      9          6           0        1.494300    1.248138   -0.051162
     10          6           0       -0.002885    1.245288    0.366180
     11          1           0       -3.645662   -0.075961    1.440041
     12          1           0       -2.063155   -0.092667    2.044927
     13          1           0       -3.014743    0.985039   -1.646759
     14          1           0       -4.153005   -0.109509   -0.852349
     15          1           0       -2.849530   -0.770646   -1.836135
     16          1           0       -0.583234    0.120968   -1.350870
     17          1           0       -0.358369   -2.101071   -0.485981
     18          1           0       -0.244076   -1.547743    1.188540
     19          1           0        1.930748   -2.084445    0.061966
     20          1           0        3.904993    0.462254   -1.069302
     21          1           0        4.014899   -1.095918   -0.251722
     22          1           0        4.058565    0.393616    0.697222
     23          1           0        2.025262    1.932059    0.617580
     24          1           0        1.573844    1.653515   -1.063561
     25          1           0       -0.469498    2.181416    0.044396
     26          1           0       -0.058965    1.194031    1.457902
 ---------------------------------------------------------------------
 Rotational constants (GHZ):           3.1186293           0.7218132           0.6804256
 Leave Link  202 at Mon Feb 22 21:28:50 2021, MaxMem=   104857600 cpu:               0.8 elap:               0.1
 (Enter /sw/arch/RedHatEnterpriseServer7/EB_production/2019/software/Gaussian/g16.c01/l301.exe)
 Standard basis: TZVP (5D, 7F)
 Ernie: Thresh=  0.10000D-02 Tol=  0.10000D-05 Strict=F.
 There are   296 symmetry adapted cartesian basis functions of A   symmetry.
 There are   286 symmetry adapted basis functions of A   symmetry.
   286 basis functions,   478 primitive gaussians,   296 cartesian basis functions
    38 alpha electrons       38 beta electrons
       nuclear repulsion energy       532.5305843401 Hartrees.
 IExCor=  404 DFT=T Ex=B Corr=P86 ExCW=0 ScaHFX=  0.000000
 ScaDFX=  1.000000  1.000000  1.000000  1.000000 ScalE2=  1.000000  1.000000
 IRadAn=      5 IRanWt=     -1 IRanGd=            0 ICorTp=0 IEmpDi=131
 NAtoms=   26 NActive=   26 NUniq=   26 SFac= 1.00D+00 NAtFMM=   60 NAOKFM=F Big=F
 Integral buffers will be    131072 words long.
 Raffenetti 2 integral format.
 Two-electron integral symmetry is turned on.
 R6Disp:  Grimme-D3 Dispersion energy=       -0.0252058366 Hartrees.
 Nuclear repulsion after empirical dispersion term =      532.5053785035 Hartrees.
 ------------------------------------------------------------------------------
 Polarizable Continuum Model (PCM)
 =================================
 Model                : PCM.
 Atomic radii         : UFF (Universal Force Field).
 Polarization charges : Total charges.
 Charge compensation  : None.
 Solution method      : On-the-fly selection.
 Cavity type          : Scaled VdW (van der Waals Surface) (Alpha=1.100).
 Cavity algorithm     : GePol (No added spheres)
                        Default sphere list used, NSphG=   26.
                        Lebedev-Laikov grids with approx.  5.0 points / Ang**2.
                        Smoothing algorithm: York/Karplus (Gamma=1.0000).
                        Polarization charges: spherical gaussians, with
                                              point-specific exponents (IZeta= 3).
                        Self-potential: point-specific (ISelfS= 7).
                        Self-field    : sphere-specific E.n sum rule (ISelfD= 2).
 1st derivatives      : Analytical E(r).r(x)/FMM algorithm (CHGder, D1EAlg=3).
                        Cavity 1st derivative terms included.
 Solvent              : Water, Eps=  78.355300 Eps(inf)=   1.777849
 ------------------------------------------------------------------------------
 GePol: Number of generator spheres                  =      26
 GePol: Total number of spheres                      =      26
 GePol: Number of exposed spheres                    =      26 (100.00%)
 GePol: Number of points                             =    1798
 GePol: Average weight of points                     =       0.13
 GePol: Minimum weight of points                     =   0.82D-10
 GePol: Maximum weight of points                     =    0.20577
 GePol: Number of points with low weight             =     132
 GePol: Fraction of low-weight points (<1% of avg)   =       7.34%
 GePol: Cavity surface area                          =    235.849 Ang**2
 GePol: Cavity volume                                =    240.333 Ang**3
 Leave Link  301 at Mon Feb 22 21:28:50 2021, MaxMem=   104857600 cpu:               1.7 elap:               0.1
 (Enter /sw/arch/RedHatEnterpriseServer7/EB_production/2019/software/Gaussian/g16.c01/l302.exe)
 NPDir=0 NMtPBC=     1 NCelOv=     1 NCel=       1 NClECP=     1 NCelD=      1
         NCelK=      1 NCelE2=     1 NClLst=     1 CellRange=     0.0.
 One-electron integrals computed using PRISM.
 One-electron integral symmetry used in STVInt
 PrsmSu:  requested number of processors reduced to:  28 ShMem   1 Linda.
 NBasis=   286 RedAO= T EigKep=  4.12D-05  NBF=   286
 NBsUse=   286 1.00D-06 EigRej= -1.00D+00 NBFU=   286
 Precomputing XC quadrature grid using
 IXCGrd= 4 IRadAn=           5 IRanWt=          -1 IRanGd=           0 AccXCQ= 0.00D+00.
 Generated NRdTot=       0 NPtTot=           0 NUsed=           0 NTot=          32
 NSgBfM=   294   294   294   294   294 MxSgAt=    26 MxSgA2=    26.
 Leave Link  302 at Mon Feb 22 21:28:51 2021, MaxMem=   104857600 cpu:               9.3 elap:               0.3
 (Enter /sw/arch/RedHatEnterpriseServer7/EB_production/2019/software/Gaussian/g16.c01/l303.exe)
 DipDrv:  MaxL=1.
 Leave Link  303 at Mon Feb 22 21:28:51 2021, MaxMem=   104857600 cpu:               1.2 elap:               0.1
 (Enter /sw/arch/RedHatEnterpriseServer7/EB_production/2019/software/Gaussian/g16.c01/l401.exe)
 ExpMin= 9.52D-02 ExpMax= 1.36D+04 ExpMxC= 4.63D+02 IAcc=3 IRadAn=         5 AccDes= 0.00D+00
 Harris functional with IExCor=  404 and IRadAn=       5 diagonalized for initial guess.
 HarFok:  IExCor=  404 AccDes= 0.00D+00 IRadAn=         5 IDoV= 1 UseB2=F ITyADJ=14
 ICtDFT=  3500011 ScaDFX=  1.000000  1.000000  1.000000  1.000000
 FoFCou: FMM=F IPFlag=           0 FMFlag=      100000 FMFlg1=           0
         NFxFlg=           0 DoJE=T BraDBF=F KetDBF=T FulRan=T
         wScrn=  0.000000 ICntrl=       500 IOpCl=  0 I1Cent=   200000004 NGrid=           0
         NMat0=    1 NMatS0=      1 NMatT0=    0 NMatD0=    1 NMtDS0=    0 NMtDT0=    0
 Petite list used in FoFCou.
 Harris En= -391.108394049300    
 JPrj=0 DoOrth=F DoCkMO=F.
 Leave Link  401 at Mon Feb 22 21:28:52 2021, MaxMem=   104857600 cpu:              18.6 elap:               0.7
 (Enter /sw/arch/RedHatEnterpriseServer7/EB_production/2019/software/Gaussian/g16.c01/l502.exe)
 Integral symmetry usage will be decided dynamically.
 Closed shell SCF:
 Using DIIS extrapolation, IDIIS=  1040.
 NGot=   104857600 LenX=   104669110 LenY=   104581053
 Requested convergence on RMS density matrix=1.00D-08 within 128 cycles.
 Requested convergence on MAX density matrix=1.00D-06.
 Requested convergence on             energy=1.00D-06.
 No special actions if energy rises.
 Fock matrices will be formed incrementally for  20 cycles.

 Cycle   1  Pass 1  IDiag  1:
 FoFJK:  IHMeth= 1 ICntrl=     500 DoSepK=F KAlg= 0 I1Cent=           0 FoldK=F
 IRaf= 910000000 NMat=       1 IRICut=       1 DoRegI=T DoRafI=F ISym2E= 0 IDoP0=0 IntGTp=1.
 FoFCou: FMM=F IPFlag=           0 FMFlag=      100000 FMFlg1=           0
         NFxFlg=           0 DoJE=T BraDBF=F KetDBF=F FulRan=T
         wScrn=  0.000000 ICntrl=       500 IOpCl=  0 I1Cent=           0 NGrid=           0
         NMat0=    1 NMatS0=      1 NMatT0=    0 NMatD0=    1 NMtDS0=    0 NMtDT0=    0
 Symmetry not used in FoFCou.
 Inv3:  Mode=1 IEnd=     9698412.
 Iteration    1 A*A^-1 deviation from unit magnitude is 3.11D-15 for    212.
 Iteration    1 A*A^-1 deviation from orthogonality  is 2.74D-15 for   1170    425.
 Iteration    1 A^-1*A deviation from unit magnitude is 3.11D-15 for    212.
 Iteration    1 A^-1*A deviation from orthogonality  is 5.62D-15 for   1288   1255.
 E= -390.412331612343    
 DIIS: error= 3.43D-02 at cycle   1 NSaved=   1.
 NSaved= 1 IEnMin= 1 EnMin= -390.412331612343     IErMin= 1 ErrMin= 3.43D-02
 ErrMax= 3.43D-02  0.00D+00 EMaxC= 1.00D-01 BMatC= 3.41D-01 BMatP= 3.41D-01
 IDIUse=3 WtCom= 6.57D-01 WtEn= 3.43D-01
 Coeff-Com:  0.100D+01
 Coeff-En:   0.100D+01
 Coeff:      0.100D+01
 Gap=     0.168 Goal=   None    Shift=    0.000
 GapD=    0.168 DampG=1.000 DampE=0.500 DampFc=0.5000 IDamp=-1.
 Damping current iteration by 5.00D-01
 RMSDP=6.41D-03 MaxDP=1.67D-01              OVMax= 2.45D-01

 Cycle   2  Pass 1  IDiag  1:
 RMSU=  3.10D-03    CP:  9.25D-01
 E= -390.541450407710     Delta-E=       -0.129118795367 Rises=F Damp=T
 DIIS: error= 6.77D-03 at cycle   2 NSaved=   2.
 NSaved= 2 IEnMin= 2 EnMin= -390.541450407710     IErMin= 2 ErrMin= 6.77D-03
 ErrMax= 6.77D-03  0.00D+00 EMaxC= 1.00D-01 BMatC= 2.28D-02 BMatP= 3.41D-01
 IDIUse=3 WtCom= 9.32D-01 WtEn= 6.77D-02
 Coeff-Com:  0.156D+00 0.844D+00
 Coeff-En:   0.280D+00 0.720D+00
 Coeff:      0.165D+00 0.835D+00
 Gap=     0.211 Goal=   None    Shift=    0.000
 RMSDP=2.36D-03 MaxDP=9.71D-02 DE=-1.29D-01 OVMax= 1.50D-01

 Cycle   3  Pass 1  IDiag  1:
 RMSU=  1.54D-03    CP:  9.62D-01  4.35D-01
 E= -390.774283279717     Delta-E=       -0.232832872008 Rises=F Damp=F
 DIIS: error= 3.54D-03 at cycle   3 NSaved=   3.
 NSaved= 3 IEnMin= 3 EnMin= -390.774283279717     IErMin= 3 ErrMin= 3.54D-03
 ErrMax= 3.54D-03  0.00D+00 EMaxC= 1.00D-01 BMatC= 4.83D-03 BMatP= 2.28D-02
 IDIUse=3 WtCom= 9.65D-01 WtEn= 3.54D-02
 Coeff-Com:  0.346D-01 0.319D+00 0.647D+00
 Coeff-En:   0.000D+00 0.000D+00 0.100D+01
 Coeff:      0.334D-01 0.307D+00 0.659D+00
 Gap=     0.167 Goal=   None    Shift=    0.000
 RMSDP=8.40D-04 MaxDP=4.02D-02 DE=-2.33D-01 OVMax= 1.88D-02

 Cycle   4  Pass 1  IDiag  1:
 RMSU=  6.63D-04    CP:  9.48D-01  5.23D-01  7.34D-01
 E= -390.777357922177     Delta-E=       -0.003074642460 Rises=F Damp=F
 DIIS: error= 1.84D-03 at cycle   4 NSaved=   4.
 NSaved= 4 IEnMin= 4 EnMin= -390.777357922177     IErMin= 4 ErrMin= 1.84D-03
 ErrMax= 1.84D-03  0.00D+00 EMaxC= 1.00D-01 BMatC= 1.85D-03 BMatP= 4.83D-03
 IDIUse=3 WtCom= 9.82D-01 WtEn= 1.84D-02
 Coeff-Com:  0.221D-02 0.949D-01 0.396D+00 0.507D+00
 Coeff-En:   0.000D+00 0.000D+00 0.280D+00 0.720D+00
 Coeff:      0.217D-02 0.931D-01 0.394D+00 0.510D+00
 Gap=     0.172 Goal=   None    Shift=    0.000
 RMSDP=2.45D-04 MaxDP=8.87D-03 DE=-3.07D-03 OVMax= 1.18D-02

 Cycle   5  Pass 1  IDiag  1:
 RMSU=  1.49D-04    CP:  9.50D-01  5.11D-01  8.01D-01  7.59D-01
 E= -390.779082395746     Delta-E=       -0.001724473569 Rises=F Damp=F
 DIIS: error= 6.70D-04 at cycle   5 NSaved=   5.
 NSaved= 5 IEnMin= 5 EnMin= -390.779082395746     IErMin= 5 ErrMin= 6.70D-04
 ErrMax= 6.70D-04  0.00D+00 EMaxC= 1.00D-01 BMatC= 1.11D-04 BMatP= 1.85D-03
 IDIUse=3 WtCom= 9.93D-01 WtEn= 6.70D-03
 Coeff-Com: -0.105D-02 0.279D-01 0.162D+00 0.276D+00 0.535D+00
 Coeff-En:   0.000D+00 0.000D+00 0.000D+00 0.000D+00 0.100D+01
 Coeff:     -0.105D-02 0.277D-01 0.161D+00 0.274D+00 0.538D+00
 Gap=     0.171 Goal=   None    Shift=    0.000
 RMSDP=6.41D-05 MaxDP=2.23D-03 DE=-1.72D-03 OVMax= 8.27D-03

 Cycle   6  Pass 1  IDiag  1:
 RMSU=  4.32D-05    CP:  9.50D-01  5.08D-01  8.13D-01  7.39D-01  7.36D-01
 E= -390.779156959914     Delta-E=       -0.000074564168 Rises=F Damp=F
 DIIS: error= 4.82D-04 at cycle   6 NSaved=   6.
 NSaved= 6 IEnMin= 6 EnMin= -390.779156959914     IErMin= 6 ErrMin= 4.82D-04
 ErrMax= 4.82D-04  0.00D+00 EMaxC= 1.00D-01 BMatC= 3.86D-05 BMatP= 1.11D-04
 IDIUse=3 WtCom= 9.95D-01 WtEn= 4.82D-03
 Coeff-Com: -0.900D-03 0.106D-01 0.788D-01 0.153D+00 0.398D+00 0.361D+00
 Coeff-En:   0.000D+00 0.000D+00 0.000D+00 0.000D+00 0.275D+00 0.725D+00
 Coeff:     -0.896D-03 0.105D-01 0.785D-01 0.152D+00 0.397D+00 0.363D+00
 Gap=     0.171 Goal=   None    Shift=    0.000
 RMSDP=2.26D-05 MaxDP=1.03D-03 DE=-7.46D-05 OVMax= 3.92D-03

 Cycle   7  Pass 1  IDiag  1:
 RMSU=  1.57D-05    CP:  9.51D-01  5.07D-01  8.14D-01  7.44D-01  7.45D-01
                    CP:  6.34D-01
 E= -390.779196623411     Delta-E=       -0.000039663497 Rises=F Damp=F
 DIIS: error= 3.16D-05 at cycle   7 NSaved=   7.
 NSaved= 7 IEnMin= 7 EnMin= -390.779196623411     IErMin= 7 ErrMin= 3.16D-05
 ErrMax= 3.16D-05  0.00D+00 EMaxC= 1.00D-01 BMatC= 4.45D-07 BMatP= 3.86D-05
 IDIUse=1 WtCom= 1.00D+00 WtEn= 0.00D+00
 Coeff-Com: -0.211D-03 0.189D-02 0.189D-01 0.401D-01 0.121D+00 0.151D+00
 Coeff-Com:  0.667D+00
 Coeff:     -0.211D-03 0.189D-02 0.189D-01 0.401D-01 0.121D+00 0.151D+00
 Coeff:      0.667D+00
 Gap=     0.171 Goal=   None    Shift=    0.000
 RMSDP=4.27D-06 MaxDP=8.84D-05 DE=-3.97D-05 OVMax= 2.93D-04

 Cycle   8  Pass 1  IDiag  1:
 RMSU=  3.71D-06    CP:  9.51D-01  5.07D-01  8.14D-01  7.45D-01  7.49D-01
                    CP:  6.50D-01  9.06D-01
 E= -390.779197033392     Delta-E=       -0.000000409981 Rises=F Damp=F
 DIIS: error= 1.40D-05 at cycle   8 NSaved=   8.
 NSaved= 8 IEnMin= 8 EnMin= -390.779197033392     IErMin= 8 ErrMin= 1.40D-05
 ErrMax= 1.40D-05  0.00D+00 EMaxC= 1.00D-01 BMatC= 7.54D-08 BMatP= 4.45D-07
 IDIUse=1 WtCom= 1.00D+00 WtEn= 0.00D+00
 Coeff-Com: -0.232D-04 0.306D-03 0.433D-02 0.101D-01 0.345D-01 0.528D-01
 Coeff-Com:  0.358D+00 0.540D+00
 Coeff:     -0.232D-04 0.306D-03 0.433D-02 0.101D-01 0.345D-01 0.528D-01
 Coeff:      0.358D+00 0.540D+00
 Gap=     0.171 Goal=   None    Shift=    0.000
 RMSDP=1.61D-06 MaxDP=3.98D-05 DE=-4.10D-07 OVMax= 1.20D-04

 Cycle   9  Pass 1  IDiag  1:
 RMSU=  1.49D-06    CP:  9.51D-01  5.07D-01  8.14D-01  7.45D-01  7.49D-01
                    CP:  6.50D-01  9.29D-01  9.40D-01
 E= -390.779197069969     Delta-E=       -0.000000036576 Rises=F Damp=F
 DIIS: error= 6.63D-06 at cycle   9 NSaved=   9.
 NSaved= 9 IEnMin= 9 EnMin= -390.779197069969     IErMin= 9 ErrMin= 6.63D-06
 ErrMax= 6.63D-06  0.00D+00 EMaxC= 1.00D-01 BMatC= 1.05D-08 BMatP= 7.54D-08
 IDIUse=1 WtCom= 1.00D+00 WtEn= 0.00D+00
 Coeff-Com:  0.115D-04-0.453D-04 0.284D-03 0.112D-02 0.529D-02 0.115D-01
 Coeff-Com:  0.116D+00 0.312D+00 0.554D+00
 Coeff:      0.115D-04-0.453D-04 0.284D-03 0.112D-02 0.529D-02 0.115D-01
 Coeff:      0.116D+00 0.312D+00 0.554D+00
 Gap=     0.171 Goal=   None    Shift=    0.000
 RMSDP=5.72D-07 MaxDP=2.03D-05 DE=-3.66D-08 OVMax= 8.42D-05

 Cycle  10  Pass 1  IDiag  1:
 RMSU=  3.87D-07    CP:  9.51D-01  5.07D-01  8.14D-01  7.46D-01  7.49D-01
                    CP:  6.54D-01  9.41D-01  9.26D-01  7.84D-01
 E= -390.779197076141     Delta-E=       -0.000000006172 Rises=F Damp=F
 DIIS: error= 4.16D-06 at cycle  10 NSaved=  10.
 NSaved=10 IEnMin=10 EnMin= -390.779197076141     IErMin=10 ErrMin= 4.16D-06
 ErrMax= 4.16D-06  0.00D+00 EMaxC= 1.00D-01 BMatC= 3.50D-09 BMatP= 1.05D-08
 IDIUse=1 WtCom= 1.00D+00 WtEn= 0.00D+00
 Coeff-Com:  0.883D-05-0.503D-04-0.183D-03-0.126D-03 0.504D-03 0.315D-02
 Coeff-Com:  0.478D-01 0.173D+00 0.405D+00 0.372D+00
 Coeff:      0.883D-05-0.503D-04-0.183D-03-0.126D-03 0.504D-03 0.315D-02
 Coeff:      0.478D-01 0.173D+00 0.405D+00 0.372D+00
 Gap=     0.171 Goal=   None    Shift=    0.000
 RMSDP=2.15D-07 MaxDP=8.65D-06 DE=-6.17D-09 OVMax= 3.57D-05

 Cycle  11  Pass 1  IDiag  1:
 RMSU=  1.45D-07    CP:  9.51D-01  5.07D-01  8.14D-01  7.46D-01  7.49D-01
                    CP:  6.54D-01  9.42D-01  9.40D-01  7.74D-01  6.45D-01
 E= -390.779197081180     Delta-E=       -0.000000005039 Rises=F Damp=F
 DIIS: error= 2.76D-07 at cycle  11 NSaved=  11.
 NSaved=11 IEnMin=11 EnMin= -390.779197081180     IErMin=11 ErrMin= 2.76D-07
 ErrMax= 2.76D-07  0.00D+00 EMaxC= 1.00D-01 BMatC= 3.68D-11 BMatP= 3.50D-09
 IDIUse=1 WtCom= 1.00D+00 WtEn= 0.00D+00
 Coeff-Com:  0.106D-05-0.125D-04-0.824D-04-0.123D-03-0.173D-03 0.278D-03
 Coeff-Com:  0.820D-02 0.381D-01 0.103D+00 0.143D+00 0.709D+00
 Coeff:      0.106D-05-0.125D-04-0.824D-04-0.123D-03-0.173D-03 0.278D-03
 Coeff:      0.820D-02 0.381D-01 0.103D+00 0.143D+00 0.709D+00
 Gap=     0.171 Goal=   None    Shift=    0.000
 RMSDP=4.81D-08 MaxDP=1.03D-06 DE=-5.04D-09 OVMax= 2.58D-06

 Cycle  12  Pass 1  IDiag  1:
 RMSU=  2.85D-08    CP:  9.51D-01  5.07D-01  8.14D-01  7.46D-01  7.49D-01
                    CP:  6.54D-01  9.42D-01  9.42D-01  7.86D-01  6.54D-01
                    CP:  8.28D-01
 E= -390.779197081219     Delta-E=       -0.000000000039 Rises=F Damp=F
 DIIS: error= 9.34D-08 at cycle  12 NSaved=  12.
 NSaved=12 IEnMin=12 EnMin= -390.779197081219     IErMin=12 ErrMin= 9.34D-08
 ErrMax= 9.34D-08  0.00D+00 EMaxC= 1.00D-01 BMatC= 4.73D-12 BMatP= 3.68D-11
 IDIUse=1 WtCom= 1.00D+00 WtEn= 0.00D+00
 Coeff-Com:  0.651D-07-0.442D-05-0.376D-04-0.625D-04-0.111D-03 0.411D-04
 Coeff-Com:  0.261D-02 0.136D-01 0.392D-01 0.615D-01 0.385D+00 0.498D+00
 Coeff:      0.651D-07-0.442D-05-0.376D-04-0.625D-04-0.111D-03 0.411D-04
 Coeff:      0.261D-02 0.136D-01 0.392D-01 0.615D-01 0.385D+00 0.498D+00
 Gap=     0.171 Goal=   None    Shift=    0.000
 RMSDP=1.23D-08 MaxDP=2.57D-07 DE=-3.88D-11 OVMax= 4.69D-07

 Cycle  13  Pass 1  IDiag  1:
 RMSU=  7.23D-09    CP:  9.51D-01  5.07D-01  8.14D-01  7.46D-01  7.49D-01
                    CP:  6.54D-01  9.42D-01  9.43D-01  7.86D-01  6.58D-01
                    CP:  8.39D-01  7.62D-01
 E= -390.779197081220     Delta-E=       -0.000000000001 Rises=F Damp=F
 DIIS: error= 1.76D-08 at cycle  13 NSaved=  13.
 NSaved=13 IEnMin=13 EnMin= -390.779197081220     IErMin=13 ErrMin= 1.76D-08
 ErrMax= 1.76D-08  0.00D+00 EMaxC= 1.00D-01 BMatC= 2.55D-13 BMatP= 4.73D-12
 IDIUse=1 WtCom= 1.00D+00 WtEn= 0.00D+00
 Coeff-Com: -0.157D-06-0.786D-06-0.943D-05-0.178D-04-0.377D-04-0.928D-05
 Coeff-Com:  0.310D-03 0.200D-02 0.693D-02 0.121D-01 0.999D-01 0.224D+00
 Coeff-Com:  0.655D+00
 Coeff:     -0.157D-06-0.786D-06-0.943D-05-0.178D-04-0.377D-04-0.928D-05
 Coeff:      0.310D-03 0.200D-02 0.693D-02 0.121D-01 0.999D-01 0.224D+00
 Coeff:      0.655D+00
 Gap=     0.171 Goal=   None    Shift=    0.000
 RMSDP=3.56D-09 MaxDP=6.70D-08 DE=-9.09D-13 OVMax= 1.05D-07

 Error on total polarization charges =  0.01648
 SCF Done:  E(RB-P86) =  -390.779197081     A.U. after   13 cycles
            NFock= 13  Conv=0.36D-08     -V/T= 2.0030
 KE= 3.896201876177D+02 PE=-1.970741639259D+03 EE= 6.578368760567D+02
 Leave Link  502 at Mon Feb 22 21:29:12 2021, MaxMem=   104857600 cpu:             604.1 elap:              19.3
 (Enter /sw/arch/RedHatEnterpriseServer7/EB_production/2019/software/Gaussian/g16.c01/l601.exe)
 Copying SCF densities to generalized density rwf, IOpCl= 0 IROHF=0.

 **********************************************************************

            Population analysis using the SCF Density.

 **********************************************************************

 Orbital symmetries:
       Occupied  (A) (A) (A) (A) (A) (A) (A) (A) (A) (A) (A) (A)
                 (A) (A) (A) (A) (A) (A) (A) (A) (A) (A) (A) (A)
                 (A) (A) (A) (A) (A) (A) (A) (A) (A) (A) (A) (A)
                 (A) (A)
       Virtual   (A) (A) (A) (A) (A) (A) (A) (A) (A) (A) (A) (A)
                 (A) (A) (A) (A) (A) (A) (A) (A) (A) (A) (A) (A)
                 (A) (A) (A) (A) (A) (A) (A) (A) (A) (A) (A) (A)
                 (A) (A) (A) (A) (A) (A) (A) (A) (A) (A) (A) (A)
                 (A) (A) (A) (A) (A) (A) (A) (A) (A) (A) (A) (A)
                 (A) (A) (A) (A) (A) (A) (A) (A) (A) (A) (A) (A)
                 (A) (A) (A) (A) (A) (A) (A) (A) (A) (A) (A) (A)
                 (A) (A) (A) (A) (A) (A) (A) (A) (A) (A) (A) (A)
                 (A) (A) (A) (A) (A) (A) (A) (A) (A) (A) (A) (A)
                 (A) (A) (A) (A) (A) (A) (A) (A) (A) (A) (A) (A)
                 (A) (A) (A) (A) (A) (A) (A) (A) (A) (A) (A) (A)
                 (A) (A) (A) (A) (A) (A) (A) (A) (A) (A) (A) (A)
                 (A) (A) (A) (A) (A) (A) (A) (A) (A) (A) (A) (A)
                 (A) (A) (A) (A) (A) (A) (A) (A) (A) (A) (A) (A)
                 (A) (A) (A) (A) (A) (A) (A) (A) (A) (A) (A) (A)
                 (A) (A) (A) (A) (A) (A) (A) (A) (A) (A) (A) (A)
                 (A) (A) (A) (A) (A) (A) (A) (A) (A) (A) (A) (A)
                 (A) (A) (A) (A) (A) (A) (A) (A) (A) (A) (A) (A)
                 (A) (A) (A) (A) (A) (A) (A) (A) (A) (A) (A) (A)
                 (A) (A) (A) (A) (A) (A) (A) (A) (A) (A) (A) (A)
                 (A) (A) (A) (A) (A) (A) (A) (A)
 The electronic state is 1-A.
 Alpha  occ. eigenvalues --   -9.89999  -9.89932  -9.89331  -9.89091  -9.89004
 Alpha  occ. eigenvalues --   -9.88966  -9.88453  -9.88217  -9.86943  -9.85659
 Alpha  occ. eigenvalues --   -0.77655  -0.74129  -0.68800  -0.67827  -0.62666
 Alpha  occ. eigenvalues --   -0.61639  -0.56101  -0.54729  -0.48501  -0.46155
 Alpha  occ. eigenvalues --   -0.43444  -0.41008  -0.40404  -0.39781  -0.38467
 Alpha  occ. eigenvalues --   -0.37724  -0.37005  -0.36647  -0.34242  -0.32754
 Alpha  occ. eigenvalues --   -0.32292  -0.32204  -0.31938  -0.28530  -0.27989
 Alpha  occ. eigenvalues --   -0.27349  -0.21325  -0.20078
 Alpha virt. eigenvalues --   -0.02991  -0.01178   0.02033   0.03711   0.05265
 Alpha virt. eigenvalues --    0.05595   0.06752   0.07858   0.08629   0.09037
 Alpha virt. eigenvalues --    0.09356   0.10587   0.11046   0.11575   0.11632
 Alpha virt. eigenvalues --    0.12002   0.12950   0.13371   0.13839   0.14750
 Alpha virt. eigenvalues --    0.15502   0.16600   0.17228   0.18087   0.19442
 Alpha virt. eigenvalues --    0.19926   0.20373   0.21093   0.21482   0.22255
 Alpha virt. eigenvalues --    0.24266   0.25381   0.26473   0.27035   0.28237
 Alpha virt. eigenvalues --    0.28879   0.30321   0.31200   0.31781   0.32805
 Alpha virt. eigenvalues --    0.33841   0.34728   0.35435   0.35997   0.36360
 Alpha virt. eigenvalues --    0.37258   0.37938   0.38669   0.39000   0.40353
 Alpha virt. eigenvalues --    0.41111   0.41340   0.41851   0.42104   0.42240
 Alpha virt. eigenvalues --    0.43398   0.43841   0.44200   0.44671   0.45914
 Alpha virt. eigenvalues --    0.46033   0.46779   0.47414   0.47956   0.49377
 Alpha virt. eigenvalues --    0.50228   0.50559   0.51548   0.52002   0.53192
 Alpha virt. eigenvalues --    0.54752   0.55659   0.55944   0.57582   0.60145
 Alpha virt. eigenvalues --    0.61176   0.62078   0.64935   0.66965   0.68183
 Alpha virt. eigenvalues --    0.70613   0.70802   0.75754   0.79401   1.09299
 Alpha virt. eigenvalues --    1.11092   1.12661   1.13962   1.17888   1.18712
 Alpha virt. eigenvalues --    1.20758   1.21373   1.21654   1.22737   1.23578
 Alpha virt. eigenvalues --    1.24459   1.25574   1.25734   1.26543   1.27477
 Alpha virt. eigenvalues --    1.28385   1.28867   1.29731   1.31050   1.32226
 Alpha virt. eigenvalues --    1.33078   1.33702   1.34518   1.36279   1.36946
 Alpha virt. eigenvalues --    1.37756   1.38886   1.40416   1.40922   1.41447
 Alpha virt. eigenvalues --    1.41822   1.43843   1.44751   1.46137   1.47506
 Alpha virt. eigenvalues --    1.48623   1.48842   1.50118   1.50913   1.51170
 Alpha virt. eigenvalues --    1.52762   1.53561   1.54568   1.56102   1.56352
 Alpha virt. eigenvalues --    1.57922   1.58080   1.59923   1.61884   1.63570
 Alpha virt. eigenvalues --    1.63827   1.64705   1.67102   1.68263   1.72311
 Alpha virt. eigenvalues --    1.72860   1.73435   1.73916   1.74158   1.74700
 Alpha virt. eigenvalues --    1.75461   1.76687   1.78064   1.78907   1.80756
 Alpha virt. eigenvalues --    1.82251   1.83359   1.85185   1.86208   1.87767
 Alpha virt. eigenvalues --    1.88670   1.91077   1.91401   1.92719   1.96474
 Alpha virt. eigenvalues --    1.97525   1.99052   2.03149   2.05236   2.07232
 Alpha virt. eigenvalues --    2.09389   2.10686   2.11641   2.13727   2.17642
 Alpha virt. eigenvalues --    2.18507   2.18534   2.20291   2.22053   2.25101
 Alpha virt. eigenvalues --    2.25804   2.28449   2.28906   2.30457   2.31525
 Alpha virt. eigenvalues --    2.33178   2.35172   2.37945   2.38691   2.39619
 Alpha virt. eigenvalues --    2.41217   2.42421   2.43210   2.44454   2.47592
 Alpha virt. eigenvalues --    2.50337   2.51335   2.52997   2.53538   2.54654
 Alpha virt. eigenvalues --    2.56905   2.59167   2.59383   2.59870   2.61194
 Alpha virt. eigenvalues --    2.62577   2.63040   2.63953   2.64656   2.66602
 Alpha virt. eigenvalues --    2.66826   2.69732   2.70829   2.74724   2.76729
 Alpha virt. eigenvalues --    2.80948   2.85468   2.88746   2.94212   2.97787
 Alpha virt. eigenvalues --    2.99327   3.02564   3.06222   3.07342   3.11582
 Alpha virt. eigenvalues --    3.19168   3.20367   3.21338   3.25012   3.25754
 Alpha virt. eigenvalues --    3.26198   3.27080   3.29833   3.31400   3.32456
 Alpha virt. eigenvalues --    3.34620   3.36591   3.37869   3.40285   3.41924
 Alpha virt. eigenvalues --    3.42017   3.55825   3.60434  21.36089  21.58073
 Alpha virt. eigenvalues --   21.79077  21.84738  21.86551  21.88494  21.91574
 Alpha virt. eigenvalues --   21.93475  21.99502  22.02113
          Condensed to atoms (all electrons):
               1          2          3          4          5          6
     1  C    5.036322   0.568109  -0.057995  -0.039292  -0.019009   0.000163
     2  C    0.568109   5.489072   0.281243   0.015197  -0.002778   0.000051
     3  C   -0.057995   0.281243   5.077085  -0.061587  -0.010459   0.000672
     4  C   -0.039292   0.015197  -0.061587   5.670633   0.203843  -0.024914
     5  C   -0.019009  -0.002778  -0.010459   0.203843   5.335451   0.168662
     6  C    0.000163   0.000051   0.000672  -0.024914   0.168662   5.273608
     7  C   -0.000771   0.017249   0.000211  -0.038571  -0.035170   0.547154
     8  C   -0.000040   0.000724  -0.000009  -0.000351   0.023970  -0.084117
     9  C    0.000937   0.012161  -0.000230  -0.014850  -0.041671  -0.094273
    10  C   -0.016276  -0.047313  -0.010815   0.085852  -0.043531  -0.009596
    11  H    0.422417  -0.036999  -0.019409   0.012894   0.001424   0.000023
    12  H    0.450634  -0.060993   0.011373  -0.005711  -0.005848   0.000115
    13  H   -0.002373  -0.051696   0.414962  -0.009765   0.003009  -0.000483
    14  H   -0.012566  -0.047924   0.411929   0.017569  -0.000791   0.000131
    15  H    0.000666  -0.055040   0.412568  -0.000027  -0.004251   0.000234
    16  H    0.007872  -0.098384   0.007270   0.511138  -0.067542   0.018237
    17  H    0.000791   0.003897  -0.001284  -0.060587   0.420932  -0.048916
    18  H    0.005246  -0.013458   0.002034  -0.010364   0.391131  -0.037236
    19  H   -0.000131  -0.001572  -0.000007   0.006119  -0.025484   0.405446
    20  H    0.000001  -0.000066  -0.000004  -0.001973  -0.000453   0.001013
    21  H   -0.000001   0.000001   0.000000   0.000085   0.002470  -0.004990
    22  H    0.000002   0.000011   0.000002   0.001890  -0.002490  -0.001404
    23  H   -0.000103  -0.000587   0.000026   0.019631  -0.003176   0.010621
    24  H    0.000071  -0.003137  -0.000066  -0.017773  -0.000918   0.007461
    25  H    0.000178   0.010861   0.000156  -0.062652   0.013790  -0.001718
    26  H    0.008135  -0.032124   0.000017  -0.007588  -0.019090   0.016487
               7          8          9         10         11         12
     1  C   -0.000771  -0.000040   0.000937  -0.016276   0.422417   0.450634
     2  C    0.017249   0.000724   0.012161  -0.047313  -0.036999  -0.060993
     3  C    0.000211  -0.000009  -0.000230  -0.010815  -0.019409   0.011373
     4  C   -0.038571  -0.000351  -0.014850   0.085852   0.012894  -0.005711
     5  C   -0.035170   0.023970  -0.041671  -0.043531   0.001424  -0.005848
     6  C    0.547154  -0.084117  -0.094273  -0.009596   0.000023   0.000115
     7  C    5.486810   0.264233   0.153622   0.011963  -0.000018   0.000005
     8  C    0.264233   5.119984  -0.088114   0.012546   0.000000  -0.000009
     9  C    0.153622  -0.088114   5.284611   0.174047   0.000085  -0.000105
    10  C    0.011963   0.012546   0.174047   5.481164   0.000967  -0.006158
    11  H   -0.000018   0.000000   0.000085   0.000967   0.512289  -0.033122
    12  H    0.000005  -0.000009  -0.000105  -0.006158  -0.033122   0.499213
    13  H    0.000290   0.000002  -0.000916  -0.000217   0.000223  -0.000500
    14  H   -0.000019  -0.000000   0.000107  -0.000978   0.003879   0.000290
    15  H   -0.000320  -0.000006   0.000059   0.002521   0.000058  -0.000386
    16  H   -0.021340  -0.001921   0.020260  -0.070393  -0.000281   0.000327
    17  H    0.009318  -0.000717  -0.002350   0.019318  -0.000142   0.000258
    18  H   -0.009004  -0.001740   0.009053  -0.027713  -0.000027   0.001243
    19  H   -0.036105  -0.017659   0.014458  -0.001538  -0.000000  -0.000001
    20  H   -0.049664   0.400096  -0.005301   0.004216  -0.000000  -0.000000
    21  H   -0.058229   0.419068   0.011026  -0.001125  -0.000000   0.000000
    22  H   -0.059948   0.410387   0.004496  -0.004618   0.000000   0.000000
    23  H   -0.061587  -0.003024   0.441104  -0.065943  -0.000001   0.000022
    24  H   -0.057787  -0.015725   0.418233  -0.013403  -0.000000  -0.000020
    25  H    0.015405  -0.000339  -0.050023   0.425162  -0.000181   0.000572
    26  H   -0.027035  -0.002352  -0.017078   0.396947   0.000024   0.000347
              13         14         15         16         17         18
     1  C   -0.002373  -0.012566   0.000666   0.007872   0.000791   0.005246
     2  C   -0.051696  -0.047924  -0.055040  -0.098384   0.003897  -0.013458
     3  C    0.414962   0.411929   0.412568   0.007270  -0.001284   0.002034
     4  C   -0.009765   0.017569  -0.000027   0.511138  -0.060587  -0.010364
     5  C    0.003009  -0.000791  -0.004251  -0.067542   0.420932   0.391131
     6  C   -0.000483   0.000131   0.000234   0.018237  -0.048916  -0.037236
     7  C    0.000290  -0.000019  -0.000320  -0.021340   0.009318  -0.009004
     8  C    0.000002  -0.000000  -0.000006  -0.001921  -0.000717  -0.001740
     9  C   -0.000916   0.000107   0.000059   0.020260  -0.002350   0.009053
    10  C   -0.000217  -0.000978   0.002521  -0.070393   0.019318  -0.027713
    11  H    0.000223   0.003879   0.000058  -0.000281  -0.000142  -0.000027
    12  H   -0.000500   0.000290  -0.000386   0.000327   0.000258   0.001243
    13  H    0.549068  -0.023526  -0.033824   0.000394   0.000182  -0.000066
    14  H   -0.023526   0.534454  -0.026059   0.000437  -0.000088   0.000037
    15  H   -0.033824  -0.026059   0.551019  -0.000684   0.000622  -0.000014
    16  H    0.000394   0.000437  -0.000684   0.505937  -0.002583   0.005396
    17  H    0.000182  -0.000088   0.000622  -0.002583   0.546313  -0.020563
    18  H   -0.000066   0.000037  -0.000014   0.005396  -0.020563   0.549001
    19  H   -0.000007  -0.000000   0.000038   0.000535  -0.004379  -0.001025
    20  H    0.000000  -0.000000   0.000000   0.000073   0.000099  -0.000082
    21  H    0.000000  -0.000000  -0.000000   0.000024  -0.000041   0.000022
    22  H   -0.000000   0.000000  -0.000000   0.000024  -0.000024   0.000324
    23  H    0.000000  -0.000001   0.000001   0.000067   0.000060   0.000416
    24  H    0.000097  -0.000002  -0.000002   0.003697   0.000225  -0.000214
    25  H    0.000087  -0.000042   0.000127  -0.002525  -0.000315  -0.000462
    26  H    0.000094   0.000035  -0.000050   0.007260  -0.000353   0.004970
              19         20         21         22         23         24
     1  C   -0.000131   0.000001  -0.000001   0.000002  -0.000103   0.000071
     2  C   -0.001572  -0.000066   0.000001   0.000011  -0.000587  -0.003137
     3  C   -0.000007  -0.000004   0.000000   0.000002   0.000026  -0.000066
     4  C    0.006119  -0.001973   0.000085   0.001890   0.019631  -0.017773
     5  C   -0.025484  -0.000453   0.002470  -0.002490  -0.003176  -0.000918
     6  C    0.405446   0.001013  -0.004990  -0.001404   0.010621   0.007461
     7  C   -0.036105  -0.049664  -0.058229  -0.059948  -0.061587  -0.057787
     8  C   -0.017659   0.400096   0.419068   0.410387  -0.003024  -0.015725
     9  C    0.014458  -0.005301   0.011026   0.004496   0.441104   0.418233
    10  C   -0.001538   0.004216  -0.001125  -0.004618  -0.065943  -0.013403
    11  H   -0.000000  -0.000000  -0.000000   0.000000  -0.000001  -0.000000
    12  H   -0.000001  -0.000000   0.000000   0.000000   0.000022  -0.000020
    13  H   -0.000007   0.000000   0.000000  -0.000000   0.000000   0.000097
    14  H   -0.000000  -0.000000  -0.000000   0.000000  -0.000001  -0.000002
    15  H    0.000038   0.000000  -0.000000  -0.000000   0.000001  -0.000002
    16  H    0.000535   0.000073   0.000024   0.000024   0.000067   0.003697
    17  H   -0.004379   0.000099  -0.000041  -0.000024   0.000060   0.000225
    18  H   -0.001025  -0.000082   0.000022   0.000324   0.000416  -0.000214
    19  H    0.505201   0.000767   0.003201  -0.000108  -0.000298  -0.000155
    20  H    0.000767   0.574281  -0.027277  -0.039033  -0.001295   0.006261
    21  H    0.003201  -0.027277   0.534387  -0.023039   0.000176  -0.000244
    22  H   -0.000108  -0.039033  -0.023039   0.565691   0.003907  -0.000448
    23  H   -0.000298  -0.001295   0.000176   0.003907   0.538821  -0.023588
    24  H   -0.000155   0.006261  -0.000244  -0.000448  -0.023588   0.541176
    25  H    0.000057   0.000061   0.000019  -0.000083  -0.001259  -0.003774
    26  H    0.000309  -0.000060   0.000024   0.000432  -0.002324   0.005658
              25         26
     1  C    0.000178   0.008135
     2  C    0.010861  -0.032124
     3  C    0.000156   0.000017
     4  C   -0.062652  -0.007588
     5  C    0.013790  -0.019090
     6  C   -0.001718   0.016487
     7  C    0.015405  -0.027035
     8  C   -0.000339  -0.002352
     9  C   -0.050023  -0.017078
    10  C    0.425162   0.396947
    11  H   -0.000181   0.000024
    12  H    0.000572   0.000347
    13  H    0.000087   0.000094
    14  H   -0.000042   0.000035
    15  H    0.000127  -0.000050
    16  H   -0.002525   0.007260
    17  H   -0.000315  -0.000353
    18  H   -0.000462   0.004970
    19  H    0.000057   0.000309
    20  H    0.000061  -0.000060
    21  H    0.000019   0.000024
    22  H   -0.000083   0.000432
    23  H   -0.001259  -0.002324
    24  H   -0.003774   0.005658
    25  H    0.534798  -0.018983
    26  H   -0.018983   0.534064
 Mulliken charges:
               1
     1  C   -0.352987
     2  C    0.053493
     3  C   -0.457685
     4  C   -0.188846
     5  C   -0.282023
     6  C   -0.142433
     7  C   -0.050692
     8  C   -0.434886
     9  C   -0.229349
    10  C   -0.295086
    11  H    0.135899
    12  H    0.148453
    13  H    0.154963
    14  H    0.143127
    15  H    0.152749
    16  H    0.176704
    17  H    0.140326
    18  H    0.153094
    19  H    0.152338
    20  H    0.138340
    21  H    0.144442
    22  H    0.144031
    23  H    0.148334
    24  H    0.154376
    25  H    0.141084
    26  H    0.152233
 Sum of Mulliken charges =  -0.00000
 Mulliken charges with hydrogens summed into heavy atoms:
               1
     1  C   -0.068634
     2  C    0.053493
     3  C   -0.006846
     4  C   -0.012142
     5  C    0.011397
     6  C    0.009905
     7  C   -0.050692
     8  C   -0.008073
     9  C    0.073361
    10  C   -0.001769
 Electronic spatial extent (au):  <R**2>=           1857.2825
 Charge=             -0.0000 electrons
 Dipole moment (field-independent basis, Debye):
    X=              0.4369    Y=              0.3621    Z=             -0.7576  Tot=              0.9466
 Quadrupole moment (field-independent basis, Debye-Ang):
   XX=            -63.0275   YY=            -63.5158   ZZ=            -63.6361
   XY=              0.4693   XZ=              1.8607   YZ=             -0.1560
 Traceless Quadrupole moment (field-independent basis, Debye-Ang):
   XX=              0.3656   YY=             -0.1227   ZZ=             -0.2430
   XY=              0.4693   XZ=              1.8607   YZ=             -0.1560
 Octapole moment (field-independent basis, Debye-Ang**2):
  XXX=             -1.7679  YYY=             -1.9463  ZZZ=              0.9750  XYY=              6.1404
  XXY=              0.3291  XXZ=             -4.0167  XZZ=             -1.4282  YZZ=              1.5940
  YYZ=             -3.3238  XYZ=              0.6631
 Hexadecapole moment (field-independent basis, Debye-Ang**3):
 XXXX=          -1910.1036 YYYY=           -384.0934 ZZZZ=           -268.2059 XXXY=             -2.1018
 XXXZ=              5.8703 YYYX=             -9.7799 YYYZ=              0.7365 ZZZX=             -2.2494
 ZZZY=             -1.1882 XXYY=           -397.3840 XXZZ=           -371.9351 YYZZ=           -110.7985
 XXYZ=              1.1459 YYXZ=              9.3487 ZZXY=              6.9332
 N-N= 5.325053785035D+02 E-N=-1.970741637058D+03  KE= 3.896201876177D+02
 No NMR shielding tensors so no spin-rotation constants.
 Leave Link  601 at Mon Feb 22 21:29:12 2021, MaxMem=   104857600 cpu:               6.2 elap:               0.2
 (Enter /sw/arch/RedHatEnterpriseServer7/EB_production/2019/software/Gaussian/g16.c01/l701.exe)
 ... and contract with generalized density number  0.
 Compute integral first derivatives.
 R6Disp: Adding Grimme-D3 dispersion energy 1st derivatives to the gradient.
 PrsmSu:  requested number of processors reduced to:  28 ShMem   1 Linda.
 D1PCM: PCM CHGder 1st derivatives, ID1Alg=3 FixD1E=F DoIter=F DoCFld=F I1PDM=0.
 GePol: Maximum number of non-zero 1st derivatives   =     212
 CoulSu:  requested number of processors reduced to:  28 ShMem   1 Linda.
 CoulSu:  requested number of processors reduced to:  29 ShMem   1 Linda.
 Leave Link  701 at Mon Feb 22 21:29:13 2021, MaxMem=   104857600 cpu:              26.8 elap:               0.9
 (Enter /sw/arch/RedHatEnterpriseServer7/EB_production/2019/software/Gaussian/g16.c01/l702.exe)
 L702 exits ... SP integral derivatives will be done elsewhere.
 Leave Link  702 at Mon Feb 22 21:29:14 2021, MaxMem=   104857600 cpu:               0.6 elap:               0.0
 (Enter /sw/arch/RedHatEnterpriseServer7/EB_production/2019/software/Gaussian/g16.c01/l703.exe)
 Integral derivatives from FoFJK, PRISM(SPDF).
 Compute integral first derivatives, UseDBF=F ICtDFT=           0.
 Calling FoFJK, ICntrl=      2527 FMM=F ISym2X=0 I1Cent= 0 IOpClX= 0 NMat=1 NMatS=1 NMatT=0.
 FoFJK:  IHMeth= 1 ICntrl=    2527 DoSepK=F KAlg= 0 I1Cent=           0 FoldK=F
 IRaf=         0 NMat=       1 IRICut=       1 DoRegI=T DoRafI=F ISym2E= 0 IDoP0=0 IntGTp=1.
 FoFCou: FMM=F IPFlag=           0 FMFlag=      100000 FMFlg1=         800
         NFxFlg=           0 DoJE=F BraDBF=F KetDBF=F FulRan=T
         wScrn=  0.000000 ICntrl=      2527 IOpCl=  0 I1Cent=           0 NGrid=           0
         NMat0=    1 NMatS0=      1 NMatT0=    0 NMatD0=    1 NMtDS0=    0 NMtDT0=    0
 Symmetry not used in FoFCou.
 Leave Link  703 at Mon Feb 22 21:29:17 2021, MaxMem=   104857600 cpu:              92.7 elap:               2.9
 (Enter /sw/arch/RedHatEnterpriseServer7/EB_production/2019/software/Gaussian/g16.c01/l716.exe)
 Dipole        = 1.71895743D-01 1.42467354D-01-2.98073724D-01
 ***** Axes restored to original set *****
 -------------------------------------------------------------------
 Center     Atomic                   Forces (Hartrees/Bohr)
 Number     Number              X              Y              Z
 -------------------------------------------------------------------
      1        6          -0.044790673    0.027644293    0.066345569
      2        6           0.016676208   -0.013746008   -0.025874422
      3        6           0.006492012    0.010838132    0.010991456
      4        6          -0.024342706   -0.010136694   -0.000174577
      5        6           0.015857482    0.017261592   -0.003400033
      6        6          -0.019962123    0.069273419   -0.039248792
      7        6           0.028964064   -0.016910991    0.011804284
      8        6          -0.014657021   -0.006978207    0.003325933
      9        6           0.014205756    0.018078107   -0.011607466
     10        6          -0.005358537   -0.008797409    0.012042740
     11        1           0.079727192    0.027856791   -0.016293831
     12        1          -0.035596162   -0.058572837   -0.053920274
     13        1          -0.003659881    0.008146714    0.004665821
     14        1           0.004020026    0.000777345   -0.002561836
     15        1          -0.001538714    0.001321865    0.009061367
     16        1          -0.001477356    0.002165012    0.004386821
     17        1           0.007814671   -0.001677698    0.003374926
     18        1           0.010589179   -0.001108349   -0.004784879
     19        1          -0.010237107   -0.074952400    0.041265443
     20        1          -0.008128690    0.003818250    0.000968751
     21        1           0.000852924   -0.004055914    0.002354894
     22        1          -0.008097599   -0.000879592   -0.005916362
     23        1          -0.006844967    0.001585972   -0.003717075
     24        1          -0.006161669    0.007510601    0.002278639
     25        1           0.001708152    0.003473834   -0.001826677
     26        1           0.003945541   -0.001935829   -0.003540418
 -------------------------------------------------------------------
 Cartesian Forces:  Max     0.079727192 RMS     0.023296445
 Leave Link  716 at Mon Feb 22 21:29:17 2021, MaxMem=   104857600 cpu:               1.0 elap:               0.1
 (Enter /sw/arch/RedHatEnterpriseServer7/EB_production/2019/software/Gaussian/g16.c01/l103.exe)

 GradGradGradGradGradGradGradGradGradGradGradGradGradGradGradGradGradGrad
 Berny optimization.
 FormGI is forming the generalized inverse of G from B-inverse, IUseBI=4.
 Internal  Forces:  Max     0.087203443 RMS     0.014127822
 Search for a local minimum.
 Step number   1 out of a maximum of  149
 All quantities printed in internal units (Hartrees-Bohrs-Radians)
 RMS Force = .14128D-01 SwitMx=.10000D-02 MixMth= 1
 Mixed Optimization -- RFO/linear search
 Second derivative matrix not updated -- first step.
 ITU=  0
     Eigenvalues ---    0.00511   0.00646   0.01058   0.01269   0.01269
     Eigenvalues ---    0.01468   0.01581   0.01582   0.01946   0.02780
     Eigenvalues ---    0.02780   0.02912   0.03149   0.03900   0.04136
     Eigenvalues ---    0.04971   0.05341   0.05470   0.05778   0.06035
     Eigenvalues ---    0.07341   0.07379   0.07724   0.07767   0.07820
     Eigenvalues ---    0.08254   0.09827   0.09879   0.10297   0.12062
     Eigenvalues ---    0.14933   0.16000   0.16000   0.16000   0.16000
     Eigenvalues ---    0.16000   0.16000   0.16000   0.16000   0.16000
     Eigenvalues ---    0.18690   0.19773   0.23210   0.24993   0.24999
     Eigenvalues ---    0.25000   0.26121   0.26452   0.26748   0.33869
     Eigenvalues ---    0.34313   0.34314   0.34352   0.34368   0.34418
     Eigenvalues ---    0.34464   0.34488   0.34498   0.34528   0.34641
     Eigenvalues ---    0.34641   0.34675   0.34810   0.34977   0.36438
     Eigenvalues ---    0.36718   0.36718   0.48671   0.48979   0.49063
     Eigenvalues ---    0.52586   0.55500
 RFO step:  Lambda=-5.55911388D-02 EMin= 5.10986927D-03
 Linear search not attempted -- first point.
 Maximum step size (   0.300) exceeded in Quadratic search.
    -- Step size scaled by   0.889
 Iteration  1 RMS(Cart)=  0.04011744 RMS(Int)=  0.00022531
 Iteration  2 RMS(Cart)=  0.00037210 RMS(Int)=  0.00006318
 Iteration  3 RMS(Cart)=  0.00000009 RMS(Int)=  0.00006318
 ITry= 1 IFail=0 DXMaxC= 1.64D-01 DCOld= 1.00D+10 DXMaxT= 3.00D-01 DXLimC= 3.00D+00 Rises=F
 Variable       Old X    -DE/DX   Delta X   Delta X   Delta X     New X
                                 (Linear)    (Quad)   (Total)
    R1        2.54690   0.00379   0.00000   0.00551   0.00551   2.55241
    R2        1.87610   0.08600   0.00000   0.14010   0.14010   2.01620
    R3        1.87523   0.08720   0.00000   0.14185   0.14185   2.01708
    R4        2.76273   0.02991   0.00000   0.06287   0.06287   2.82560
    R5        2.79285   0.02267   0.00000   0.04989   0.04989   2.84274
    R6        2.06261   0.00860   0.00000   0.01901   0.01901   2.08163
    R7        2.06449   0.00455   0.00000   0.01008   0.01008   2.07457
    R8        2.06261   0.00816   0.00000   0.01803   0.01803   2.08064
    R9        2.94995  -0.00527   0.00000  -0.01627  -0.01627   2.93368
   R10        2.94165  -0.00430   0.00000  -0.01390  -0.01389   2.92776
   R11        2.07552   0.00508   0.00000   0.01146   0.01146   2.08697
   R12        2.75268   0.03208   0.00000   0.06850   0.06846   2.82114
   R13        2.06714   0.00690   0.00000   0.01536   0.01536   2.08250
   R14        2.06554   0.00879   0.00000   0.01951   0.01951   2.08504
   R15        2.55459  -0.00197   0.00000  -0.00089  -0.00091   2.55368
   R16        1.87930   0.08615   0.00000   0.14114   0.14114   2.02044
   R17        2.76273   0.03057   0.00000   0.06425   0.06425   2.82698
   R18        2.77508   0.02394   0.00000   0.05226   0.05227   2.82735
   R19        2.06497   0.00779   0.00000   0.01727   0.01727   2.08224
   R20        2.06514   0.00469   0.00000   0.01040   0.01040   2.07553
   R21        2.06205   0.00871   0.00000   0.01924   0.01924   2.08129
   R22        2.93714  -0.00257   0.00000  -0.01005  -0.01001   2.92713
   R23        2.06740   0.00692   0.00000   0.01540   0.01540   2.08280
   R24        2.06630   0.00900   0.00000   0.01999   0.01999   2.08629
   R25        2.06803   0.00379   0.00000   0.00844   0.00844   2.07647
   R26        2.06805   0.00486   0.00000   0.01084   0.01084   2.07889
    A1        2.11882  -0.00135   0.00000  -0.00557  -0.00557   2.11325
    A2        2.11913   0.00001   0.00000   0.00006   0.00006   2.11918
    A3        2.04524   0.00134   0.00000   0.00551   0.00551   2.05075
    A4        2.09721   0.00765   0.00000   0.02225   0.02225   2.11945
    A5        2.12017   0.00077   0.00000   0.00223   0.00223   2.12240
    A6        2.06579  -0.00841   0.00000  -0.02446  -0.02446   2.04133
    A7        1.90603   0.00521   0.00000   0.02061   0.02059   1.92662
    A8        1.98027  -0.00300   0.00000  -0.01105  -0.01101   1.96926
    A9        1.91561   0.00391   0.00000   0.01571   0.01569   1.93130
   A10        1.88625  -0.00091   0.00000  -0.00290  -0.00286   1.88340
   A11        1.89672  -0.00580   0.00000  -0.02661  -0.02669   1.87003
   A12        1.87710   0.00020   0.00000   0.00246   0.00249   1.87960
   A13        1.97559  -0.00344   0.00000  -0.00829  -0.00832   1.96727
   A14        1.98644  -0.00054   0.00000  -0.00414  -0.00410   1.98234
   A15        1.89431   0.00082   0.00000   0.00146   0.00148   1.89580
   A16        1.90610   0.00327   0.00000   0.00480   0.00478   1.91088
   A17        1.84829   0.00099   0.00000   0.00449   0.00450   1.85278
   A18        1.84312  -0.00087   0.00000   0.00307   0.00301   1.84612
   A19        1.98901  -0.00286   0.00000  -0.01085  -0.01077   1.97824
   A20        1.89353   0.00012   0.00000  -0.00122  -0.00125   1.89229
   A21        1.93245  -0.00323   0.00000  -0.01966  -0.01961   1.91284
   A22        1.89387   0.00345   0.00000   0.01865   0.01863   1.91251
   A23        1.87005   0.00504   0.00000   0.03150   0.03137   1.90143
   A24        1.88188  -0.00243   0.00000  -0.01837  -0.01881   1.86307
   A25        2.17156  -0.00159   0.00000  -0.00125  -0.00133   2.17023
   A26        2.02891   0.00275   0.00000   0.00868   0.00872   2.03763
   A27        2.08271  -0.00116   0.00000  -0.00743  -0.00740   2.07531
   A28        2.10986   0.00633   0.00000   0.01742   0.01743   2.12729
   A29        2.12863  -0.00309   0.00000  -0.00699  -0.00702   2.12161
   A30        2.04449  -0.00323   0.00000  -0.01035  -0.01034   2.03415
   A31        1.91601   0.00427   0.00000   0.01711   0.01707   1.93309
   A32        1.97315  -0.00237   0.00000  -0.00861  -0.00859   1.96456
   A33        1.91424   0.00508   0.00000   0.02031   0.02027   1.93451
   A34        1.87706  -0.00051   0.00000  -0.00085  -0.00083   1.87623
   A35        1.89697  -0.00581   0.00000  -0.02628  -0.02638   1.87059
   A36        1.88459  -0.00109   0.00000  -0.00352  -0.00350   1.88108
   A37        2.01184  -0.00201   0.00000  -0.01159  -0.01150   2.00034
   A38        1.91705  -0.00021   0.00000  -0.00149  -0.00148   1.91557
   A39        1.88007   0.00172   0.00000   0.01257   0.01258   1.89265
   A40        1.88023   0.00247   0.00000   0.01102   0.01102   1.89125
   A41        1.89586   0.00061   0.00000   0.00677   0.00675   1.90261
   A42        1.87433  -0.00273   0.00000  -0.01829  -0.01828   1.85605
   A43        1.92351   0.00592   0.00000   0.01553   0.01549   1.93899
   A44        1.92779  -0.00189   0.00000  -0.00908  -0.00911   1.91867
   A45        1.92320  -0.00362   0.00000  -0.01247  -0.01265   1.91054
   A46        1.90731  -0.00279   0.00000  -0.00306  -0.00301   1.90430
   A47        1.89369   0.00188   0.00000   0.01334   0.01343   1.90712
   A48        1.88762   0.00045   0.00000  -0.00420  -0.00432   1.88330
    D1       -0.01343   0.00063   0.00000   0.00715   0.00718  -0.00625
    D2        3.13517   0.00036   0.00000   0.00345   0.00342   3.13858
    D3        3.12867   0.00063   0.00000   0.00716   0.00718   3.13586
[...]

 Orbital symmetries:
       Occupied  (A) (A) (A) (A) (A) (A) (A) (A) (A) (A) (A) (A)
                 (A) (A) (A) (A) (A) (A) (A) (A) (A) (A) (A) (A)
                 (A) (A) (A) (A) (A) (A) (A) (A) (A) (A) (A) (A)
                 (A) (A)
       Virtual   (A) (A) (A) (A) (A) (A) (A) (A) (A) (A) (A) (A)
                 (A) (A) (A) (A) (A) (A) (A) (A) (A) (A) (A) (A)
                 (A) (A) (A) (A) (A) (A) (A) (A) (A) (A) (A) (A)
                 (A) (A) (A) (A) (A) (A) (A) (A) (A) (A) (A) (A)
                 (A) (A) (A) (A) (A) (A) (A) (A) (A) (A) (A) (A)
                 (A) (A) (A) (A) (A) (A) (A) (A) (A) (A) (A) (A)
                 (A) (A) (A) (A) (A) (A) (A) (A) (A) (A) (A) (A)
                 (A) (A) (A) (A) (A) (A) (A) (A) (A) (A) (A) (A)
                 (A) (A) (A) (A) (A) (A) (A) (A) (A) (A) (A) (A)
                 (A) (A) (A) (A) (A) (A) (A) (A) (A) (A) (A) (A)
                 (A) (A) (A) (A) (A) (A) (A) (A) (A) (A) (A) (A)
                 (A) (A) (A) (A) (A) (A) (A) (A) (A) (A) (A) (A)
                 (A) (A) (A) (A) (A) (A) (A) (A) (A) (A) (A) (A)
                 (A) (A) (A) (A) (A) (A) (A) (A) (A) (A) (A) (A)
                 (A) (A) (A) (A) (A) (A) (A) (A) (A) (A) (A) (A)
                 (A) (A) (A) (A) (A) (A) (A) (A) (A) (A) (A) (A)
                 (A) (A) (A) (A) (A) (A) (A) (A) (A) (A) (A) (A)
                 (A) (A) (A) (A) (A) (A) (A) (A) (A) (A) (A) (A)
                 (A) (A) (A) (A) (A) (A) (A) (A) (A) (A) (A) (A)
                 (A) (A) (A) (A) (A) (A) (A) (A) (A) (A) (A) (A)
                 (A) (A) (A) (A) (A) (A) (A) (A)
 The electronic state is 1-A.
 Alpha  occ. eigenvalues --   -9.90682  -9.90152  -9.89777  -9.89485  -9.89210
 Alpha  occ. eigenvalues --   -9.88862  -9.88719  -9.88629  -9.88482  -9.87964
 Alpha  occ. eigenvalues --   -0.76922  -0.72886  -0.67845  -0.66969  -0.61677
 Alpha  occ. eigenvalues --   -0.60878  -0.55469  -0.53931  -0.47148  -0.45469
 Alpha  occ. eigenvalues --   -0.42768  -0.39926  -0.39538  -0.38643  -0.37767
 Alpha  occ. eigenvalues --   -0.36456  -0.36283  -0.35589  -0.34062  -0.32481
 Alpha  occ. eigenvalues --   -0.32038  -0.31723  -0.30866  -0.28433  -0.27224
 Alpha  occ. eigenvalues --   -0.26669  -0.22116  -0.20555
 Alpha virt. eigenvalues --   -0.02389  -0.01475   0.02355   0.03888   0.05387
 Alpha virt. eigenvalues --    0.05841   0.06793   0.08007   0.08208   0.08679
 Alpha virt. eigenvalues --    0.09530   0.09605   0.10905   0.11425   0.11492
 Alpha virt. eigenvalues --    0.12464   0.12609   0.13115   0.13978   0.14408
 Alpha virt. eigenvalues --    0.15919   0.17404   0.18108   0.18181   0.18813
 Alpha virt. eigenvalues --    0.19324   0.19792   0.21361   0.21967   0.22460
 Alpha virt. eigenvalues --    0.23258   0.24444   0.25465   0.26428   0.27989
 Alpha virt. eigenvalues --    0.29045   0.29217   0.29613   0.31725   0.32104
 Alpha virt. eigenvalues --    0.32674   0.34174   0.35418   0.35577   0.36474
 Alpha virt. eigenvalues --    0.36994   0.38218   0.39040   0.39526   0.40447
 Alpha virt. eigenvalues --    0.40721   0.41106   0.41466   0.41990   0.43059
 Alpha virt. eigenvalues --    0.43195   0.43695   0.44098   0.44407   0.45072
 Alpha virt. eigenvalues --    0.45226   0.45756   0.46571   0.47766   0.48243
 Alpha virt. eigenvalues --    0.48667   0.49467   0.50631   0.51302   0.51858
 Alpha virt. eigenvalues --    0.53358   0.54532   0.56650   0.57428   0.60429
 Alpha virt. eigenvalues --    0.61548   0.62841   0.63733   0.64293   0.66841
 Alpha virt. eigenvalues --    0.68200   0.71951   0.75600   0.78450   1.08255
 Alpha virt. eigenvalues --    1.10616   1.13941   1.14592   1.16739   1.18469
 Alpha virt. eigenvalues --    1.19202   1.20803   1.21410   1.23844   1.24546
 Alpha virt. eigenvalues --    1.25182   1.25704   1.26077   1.26778   1.27928
 Alpha virt. eigenvalues --    1.28942   1.29692   1.30667   1.31271   1.32033
 Alpha virt. eigenvalues --    1.32309   1.33171   1.33688   1.34591   1.36525
 Alpha virt. eigenvalues --    1.36874   1.37544   1.38604   1.40392   1.41516
 Alpha virt. eigenvalues --    1.42016   1.42293   1.44055   1.44793   1.47233
 Alpha virt. eigenvalues --    1.47760   1.48643   1.48974   1.49972   1.50592
 Alpha virt. eigenvalues --    1.52330   1.52939   1.54449   1.56443   1.57397
 Alpha virt. eigenvalues --    1.57529   1.57742   1.59693   1.61261   1.63658
 Alpha virt. eigenvalues --    1.64230   1.66238   1.67447   1.67743   1.70365
 Alpha virt. eigenvalues --    1.71240   1.71287   1.73002   1.73310   1.74153
 Alpha virt. eigenvalues --    1.74555   1.75757   1.76597   1.77041   1.77745
 Alpha virt. eigenvalues --    1.78446   1.80342   1.80896   1.82212   1.85783
 Alpha virt. eigenvalues --    1.85826   1.87260   1.91023   1.94025   1.95472
 Alpha virt. eigenvalues --    1.96241   1.97352   2.00848   2.02934   2.04660
 Alpha virt. eigenvalues --    2.06164   2.07550   2.08860   2.11617   2.14058
 Alpha virt. eigenvalues --    2.15177   2.17920   2.19141   2.21161   2.21592
 Alpha virt. eigenvalues --    2.24111   2.27696   2.28320   2.28648   2.30076
 Alpha virt. eigenvalues --    2.31190   2.31732   2.34881   2.36494   2.37164
 Alpha virt. eigenvalues --    2.39256   2.39880   2.40559   2.41281   2.43780
 Alpha virt. eigenvalues --    2.46650   2.48660   2.50645   2.51625   2.53442
 Alpha virt. eigenvalues --    2.54181   2.54573   2.56444   2.57691   2.58422
 Alpha virt. eigenvalues --    2.59670   2.60583   2.61200   2.62757   2.63941
 Alpha virt. eigenvalues --    2.65740   2.67104   2.67917   2.71318   2.72912
 Alpha virt. eigenvalues --    2.73768   2.78855   2.86181   2.91040   2.94659
 Alpha virt. eigenvalues --    2.97964   3.01491   3.03208   3.06961   3.09805
 Alpha virt. eigenvalues --    3.11075   3.14408   3.18225   3.20393   3.23233
 Alpha virt. eigenvalues --    3.23865   3.24576   3.26441   3.27527   3.29830
 Alpha virt. eigenvalues --    3.30423   3.31843   3.35274   3.38446   3.39912
 Alpha virt. eigenvalues --    3.43238   3.49073   3.49946  21.30180  21.40621
 Alpha virt. eigenvalues --   21.75634  21.80550  21.82331  21.83075  21.89855
 Alpha virt. eigenvalues --   21.91575  21.92459  21.92721
          Condensed to atoms (all electrons):
               1          2          3          4          5          6
     1  C    5.035098   0.608797  -0.072360  -0.060082  -0.023109   0.001645
     2  C    0.608797   5.414318   0.301132   0.087330  -0.066482   0.015521
     3  C   -0.072360   0.301132   5.135277  -0.116441   0.022236  -0.000711
     4  C   -0.060082   0.087330  -0.116441   5.738172   0.109498  -0.010280
     5  C   -0.023109  -0.066482   0.022236   0.109498   5.501076   0.162306
     6  C    0.001645   0.015521  -0.000711  -0.010280   0.162306   5.198576
     7  C   -0.001350   0.009060   0.000677  -0.057821  -0.018285   0.585085
     8  C   -0.000029   0.000411   0.000018  -0.001333   0.024439  -0.070147
     9  C    0.002883   0.011785  -0.001858   0.002749  -0.058792  -0.089055
    10  C   -0.006104  -0.049310   0.017349   0.041215   0.015374  -0.016052
    11  H    0.401961  -0.037539  -0.018271   0.019890  -0.000301   0.000027
    12  H    0.423078  -0.041975   0.009507  -0.029876  -0.000762   0.000159
    13  H    0.002004  -0.039930   0.391660   0.008074  -0.012140   0.000408
    14  H   -0.010297  -0.041764   0.398446   0.016495   0.000196   0.000030
    15  H   -0.002315  -0.048933   0.421417  -0.022845   0.016020  -0.000288
    16  H    0.003582  -0.058371  -0.015264   0.505144  -0.102441   0.021568
    17  H    0.000357  -0.016458   0.005638  -0.049081   0.413468  -0.021612
    18  H    0.005993   0.007965  -0.005393  -0.001688   0.341887  -0.013877
    19  H    0.000015  -0.000859  -0.000069   0.005624  -0.031670   0.391380
    20  H    0.000001  -0.000056   0.000001  -0.001585  -0.000224  -0.003478
    21  H   -0.000000   0.000002   0.000001   0.000035   0.001614  -0.000153
    22  H    0.000001   0.000014  -0.000001   0.001621  -0.001901  -0.000197
    23  H   -0.000078  -0.000621   0.000047   0.019012  -0.003086   0.011264
    24  H    0.000175  -0.002556  -0.000091  -0.019941   0.001939   0.000138
    25  H   -0.005382   0.007127   0.000655  -0.073799   0.016917  -0.002253
    26  H    0.005860  -0.029140  -0.001858  -0.002808  -0.027005   0.013659
               7          8          9         10         11         12
     1  C   -0.001350  -0.000029   0.002883  -0.006104   0.401961   0.423078
     2  C    0.009060   0.000411   0.011785  -0.049310  -0.037539  -0.041975
     3  C    0.000677   0.000018  -0.001858   0.017349  -0.018271   0.009507
     4  C   -0.057821  -0.001333   0.002749   0.041215   0.019890  -0.029876
     5  C   -0.018285   0.024439  -0.058792   0.015374  -0.000301  -0.000762
     6  C    0.585085  -0.070147  -0.089055  -0.016052   0.000027   0.000159
     7  C    5.406751   0.264111   0.163580   0.024124   0.000017  -0.000110
     8  C    0.264111   5.135873  -0.083992   0.012078   0.000000  -0.000000
     9  C    0.163580  -0.083992   5.269496   0.174830  -0.000038   0.001089
    10  C    0.024124   0.012078   0.174830   5.461221  -0.001183   0.008707
    11  H    0.000017   0.000000  -0.000038  -0.001183   0.536743  -0.037165
    12  H   -0.000110  -0.000000   0.001089   0.008707  -0.037165   0.516159
    13  H   -0.000265  -0.000007  -0.000017  -0.000796   0.000264  -0.000308
    14  H    0.000002   0.000000   0.000056  -0.000700   0.005115   0.000026
    15  H    0.000162   0.000000  -0.000041   0.001040   0.000216  -0.000363
    16  H   -0.022743  -0.001915   0.018959  -0.073415  -0.000284   0.000114
    17  H    0.006144  -0.000640   0.000254   0.014212   0.000019  -0.000040
    18  H   -0.017535  -0.001614   0.007510  -0.026098  -0.000123   0.000295
    19  H   -0.034485  -0.017272   0.015446  -0.002900  -0.000001   0.000003
    20  H   -0.036063   0.395712  -0.005323   0.004009   0.000000   0.000000
    21  H   -0.059500   0.414743   0.010061  -0.001104  -0.000000   0.000000
    22  H   -0.052739   0.405029   0.006264  -0.004648  -0.000000  -0.000000
    23  H   -0.058506  -0.002702   0.443497  -0.068234  -0.000002   0.000004
    24  H   -0.046006  -0.010744   0.413971  -0.013746   0.000002  -0.000033
    25  H    0.014684  -0.000170  -0.036528   0.430643  -0.000093  -0.000088
    26  H   -0.025677  -0.002145  -0.024148   0.400322   0.000209  -0.002694
              13         14         15         16         17         18
     1  C    0.002004  -0.010297  -0.002315   0.003582   0.000357   0.005993
     2  C   -0.039930  -0.041764  -0.048933  -0.058371  -0.016458   0.007965
     3  C    0.391660   0.398446   0.421417  -0.015264   0.005638  -0.005393
     4  C    0.008074   0.016495  -0.022845   0.505144  -0.049081  -0.001688
     5  C   -0.012140   0.000196   0.016020  -0.102441   0.413468   0.341887
     6  C    0.000408   0.000030  -0.000288   0.021568  -0.021612  -0.013877
     7  C   -0.000265   0.000002   0.000162  -0.022743   0.006144  -0.017535
     8  C   -0.000007   0.000000   0.000000  -0.001915  -0.000640  -0.001614
     9  C   -0.000017   0.000056  -0.000041   0.018959   0.000254   0.007510
    10  C   -0.000796  -0.000700   0.001040  -0.073415   0.014212  -0.026098
    11  H    0.000264   0.005115   0.000216  -0.000284   0.000019  -0.000123
    12  H   -0.000308   0.000026  -0.000363   0.000114  -0.000040   0.000295
    13  H    0.546576  -0.021845  -0.033980   0.006004   0.000391   0.000749
    14  H   -0.021845   0.522257  -0.022770   0.000086   0.000097  -0.000075
    15  H   -0.033980  -0.022770   0.526988  -0.000073  -0.002417  -0.001231
    16  H    0.006004   0.000086  -0.000073   0.529921  -0.002806   0.008535
    17  H    0.000391   0.000097  -0.002417  -0.002806   0.520667  -0.024377
    18  H    0.000749  -0.000075  -0.001231   0.008535  -0.024377   0.562014
    19  H    0.000007  -0.000000  -0.000002   0.000413  -0.003869   0.000819
    20  H   -0.000000   0.000000   0.000000   0.000035   0.000052  -0.000044
    21  H    0.000000  -0.000000  -0.000000   0.000017  -0.000020   0.000014
    22  H    0.000000  -0.000000  -0.000000   0.000032  -0.000004   0.000184
    23  H    0.000003  -0.000001  -0.000002   0.000231   0.000051   0.000264
    24  H   -0.000015   0.000001   0.000014   0.003905   0.000085  -0.000167
    25  H    0.000040  -0.000026  -0.000029  -0.004189  -0.000307  -0.000688
    26  H    0.000051   0.000026   0.000048   0.009172  -0.000063   0.007564
              19         20         21         22         23         24
     1  C    0.000015   0.000001  -0.000000   0.000001  -0.000078   0.000175
     2  C   -0.000859  -0.000056   0.000002   0.000014  -0.000621  -0.002556
     3  C   -0.000069   0.000001   0.000001  -0.000001   0.000047  -0.000091
     4  C    0.005624  -0.001585   0.000035   0.001621   0.019012  -0.019941
     5  C   -0.031670  -0.000224   0.001614  -0.001901  -0.003086   0.001939
     6  C    0.391380  -0.003478  -0.000153  -0.000197   0.011264   0.000138
     7  C   -0.034485  -0.036063  -0.059500  -0.052739  -0.058506  -0.046006
     8  C   -0.017272   0.395712   0.414743   0.405029  -0.002702  -0.010744
     9  C    0.015446  -0.005323   0.010061   0.006264   0.443497   0.413971
    10  C   -0.002900   0.004009  -0.001104  -0.004648  -0.068234  -0.013746
    11  H   -0.000001   0.000000  -0.000000  -0.000000  -0.000002   0.000002
    12  H    0.000003   0.000000   0.000000  -0.000000   0.000004  -0.000033
    13  H    0.000007  -0.000000   0.000000   0.000000   0.000003  -0.000015
    14  H   -0.000000   0.000000  -0.000000  -0.000000  -0.000001   0.000001
    15  H   -0.000002   0.000000  -0.000000  -0.000000  -0.000002   0.000014
    16  H    0.000413   0.000035   0.000017   0.000032   0.000231   0.003905
    17  H   -0.003869   0.000052  -0.000020  -0.000004   0.000051   0.000085
    18  H    0.000819  -0.000044   0.000014   0.000184   0.000264  -0.000167
    19  H    0.534873   0.000348   0.004179   0.000383  -0.000267  -0.000335
    20  H    0.000348   0.558258  -0.024421  -0.038341  -0.000734   0.004225
    21  H    0.004179  -0.024421   0.524023  -0.021986   0.000162  -0.000260
    22  H    0.000383  -0.038341  -0.021986   0.552066   0.002535  -0.000219
    23  H   -0.000267  -0.000734   0.000162   0.002535   0.532161  -0.026685
    24  H   -0.000335   0.004225  -0.000260  -0.000219  -0.026685   0.535134
    25  H    0.000056   0.000049   0.000018  -0.000087  -0.001981  -0.004167
    26  H    0.000126  -0.000053   0.000005   0.000448  -0.001941   0.005965
              25         26
     1  C   -0.005382   0.005860
     2  C    0.007127  -0.029140
     3  C    0.000655  -0.001858
     4  C   -0.073799  -0.002808
     5  C    0.016917  -0.027005
     6  C   -0.002253   0.013659
     7  C    0.014684  -0.025677
     8  C   -0.000170  -0.002145
     9  C   -0.036528  -0.024148
    10  C    0.430643   0.400322
    11  H   -0.000093   0.000209
    12  H   -0.000088  -0.002694
    13  H    0.000040   0.000051
    14  H   -0.000026   0.000026
    15  H   -0.000029   0.000048
    16  H   -0.004189   0.009172
    17  H   -0.000307  -0.000063
    18  H   -0.000688   0.007564
    19  H    0.000056   0.000126
    20  H    0.000049  -0.000053
    21  H    0.000018   0.000005
    22  H   -0.000087   0.000448
    23  H   -0.001981  -0.001941
    24  H   -0.004167   0.005965
    25  H    0.530860  -0.028178
    26  H   -0.028178   0.549315
 Mulliken charges:
               1
     1  C   -0.310342
     2  C   -0.029467
     3  C   -0.471744
     4  C   -0.107278
     5  C   -0.280770
     6  C   -0.173663
     7  C   -0.043313
     8  C   -0.459703
     9  C   -0.242639
    10  C   -0.340834
    11  H    0.130538
    12  H    0.154274
    13  H    0.153072
    14  H    0.154644
    15  H    0.169383
    16  H    0.173784
    17  H    0.160259
    18  H    0.149116
    19  H    0.138058
    20  H    0.147632
    21  H    0.152571
    22  H    0.151547
    23  H    0.155609
    24  H    0.159414
    25  H    0.156915
    26  H    0.152941
 Sum of Mulliken charges =  -0.00000
 Mulliken charges with hydrogens summed into heavy atoms:
               1
     1  C   -0.025530
     2  C   -0.029467
     3  C    0.005356
     4  C    0.066505
     5  C    0.028604
     6  C   -0.035606
     7  C   -0.043313
     8  C   -0.007954
     9  C    0.072383
    10  C   -0.030978
 Electronic spatial extent (au):  <R**2>=           1898.3174
 Charge=             -0.0000 electrons
 Dipole moment (field-independent basis, Debye):
    X=              0.4970    Y=             -0.2992    Z=             -0.5823  Tot=              0.8219
 Quadrupole moment (field-independent basis, Debye-Ang):
   XX=            -62.7672   YY=            -62.2981   ZZ=            -65.4257
   XY=              2.9241   XZ=              0.1575   YZ=              0.2864
 Traceless Quadrupole moment (field-independent basis, Debye-Ang):
   XX=              0.7298   YY=              1.1989   ZZ=             -1.9287
   XY=              2.9241   XZ=              0.1575   YZ=              0.2864
 Octapole moment (field-independent basis, Debye-Ang**2):
  XXX=              3.5416  YYY=             -3.2877  ZZZ=             -5.8656  XYY=              3.0217
  XXY=             -3.3039  XXZ=             -1.1930  XZZ=              1.8734  YZZ=              0.8128
  YYZ=              3.5142  XYZ=             -3.8044
 Hexadecapole moment (field-independent basis, Debye-Ang**3):
 XXXX=          -1940.8786 YYYY=           -484.9674 ZZZZ=           -185.2208 XXXY=             14.4090
 XXXZ=             -4.2508 YYYX=              4.1243 YYYZ=             -0.6527 ZZZX=              1.9209
 ZZZY=              0.5114 XXYY=           -414.7158 XXZZ=           -377.0955 YYZZ=           -113.8007
 XXYZ=              6.6675 YYXZ=              1.3170 ZZXY=              5.9952
 N-N= 5.265008378872D+02 E-N=-1.958019701372D+03  KE= 3.886530000934D+02
 Unable to Open any file for archive entry.
 1\1\GINC-TCN1744\SP\RBP86\TZVP\C10H16\ELENAA\22-Feb-2021\0\\# BP86/TZV
 P SCRF=COSMORS geom=CHECKPOINT guess=CHECKPOINT\\COSMO-file for #XMGQY
 MWWDOXHJM-SNVBAGLBSA-N\\0,1\C,0,3.163637956,2.6428742275,-2.4360889377
 \C,0,2.6534850785,2.5458963266,-1.1964699089\C,0,3.48571924,2.87832905
 81,0.0205536337\C,0,1.2317488352,2.0907558269,-0.910653705\C,0,1.22349
 35637,0.7368142134,-0.1554527371\C,0,-0.1609493689,0.1558310982,-0.012
 7013888\C,0,-1.2413640393,0.5863171283,-0.6884173235\C,0,-2.61677711,0
 .0093101947,-0.4772914897\C,0,-1.1338016826,1.6969650595,-1.7113092821
 \C,0,0.3129512148,1.9847255386,-2.1362491545\H,0,4.1950092788,2.968549
 8748,-2.595941544\H,0,2.5837630295,2.4045503867,-3.329563766\H,0,2.965
 5798027,3.6087837754,0.663030467\H,0,4.4650305466,3.2931489198,-0.2570
 673344\H,0,3.6613015864,1.9846330765,0.6420422684\H,0,0.7852828164,2.8
 399773801,-0.2262202095\H,0,1.6689420342,0.857968281,0.8459966751\H,0,
 1.8822928856,0.024111906,-0.6892496846\H,0,-0.2738844462,-0.6656754025
 ,0.704731421\H,0,-3.3326549188,0.7993691262,-0.1899664515\H,0,-2.62520
 60024,-0.762856807,0.3059873047\H,0,-3.0049343138,-0.4373832944,-1.409
 2266237\H,0,-1.7417291479,1.4358025001,-2.5956450812\H,0,-1.5992627944
 ,2.6122045771,-1.2971797568\H,0,0.3534754487,2.9113014515,-2.730421547
 7\H,0,0.6695705071,1.167465577,-2.7876158432\\Version=ES64L-G16RevC.01
 \State=1-A\HF=-390.78945\RMSD=1.018e-09\Dipole=-0.225557,0.0620777,0.2
 232482\Quadrupole=1.2171525,-1.4981301,0.2809776,0.1342054,2.1015638,0
 .1446159\PG=C01 [X(C10H16)]\\@
 The archive entry for this job was punched.


 The theorems and results in mathematical physics are
 not theorems and results about Nature, but about our
 description of it.
                   --Gerard 't Hooft
 Job cpu time:       0 days  0 hours  8 minutes 23.7 seconds.
 Elapsed time:       0 days  0 hours  0 minutes 16.3 seconds.
 File lengths (MBytes):  RWF=     69 Int=      0 D2E=      0 Chk=     11 Scr=      1
 Normal termination of Gaussian 16 at Mon Feb 22 21:36:43 2021.
