 Entering Gaussian System, Link 0=g16
 Input=XMIIGOLPHOKFCH-UHFFFAOYSA-N.gjf
 Output=XMIIGOLPHOKFCH-UHFFFAOYSA-N.log
 Initial command:
 /sw/arch/RedHatEnterpriseServer7/EB_production/2019/software/Gaussian/g16.c01/l1.exe "/scratch-local/elenaa.9715299/Gau-14031.inp" -scrdir="/scratch-local/elenaa.9715299/"
 Entering Link 1 = /sw/arch/RedHatEnterpriseServer7/EB_production/2019/software/Gaussian/g16.c01/l1.exe PID=     14033.
  
 Copyright (c) 1988-2019, Gaussian, Inc.  All Rights Reserved.
  
 This is part of the Gaussian(R) 16 program.  It is based on
 the Gaussian(R) 09 system (copyright 2009, Gaussian, Inc.),
 the Gaussian(R) 03 system (copyright 2003, Gaussian, Inc.),
 the Gaussian(R) 98 system (copyright 1998, Gaussian, Inc.),
 the Gaussian(R) 94 system (copyright 1995, Gaussian, Inc.),
 the Gaussian 92(TM) system (copyright 1992, Gaussian, Inc.),
 the Gaussian 90(TM) system (copyright 1990, Gaussian, Inc.),
 the Gaussian 88(TM) system (copyright 1988, Gaussian, Inc.),
 the Gaussian 86(TM) system (copyright 1986, Carnegie Mellon
 University), and the Gaussian 82(TM) system (copyright 1983,
 Carnegie Mellon University). Gaussian is a federally registered
 trademark of Gaussian, Inc.
  
 This software contains proprietary and confidential information,
 including trade secrets, belonging to Gaussian, Inc.
  
 This software is provided under written license and may be
 used, copied, transmitted, or stored only in accord with that
 written license.
  
 The following legend is applicable only to US Government
 contracts under FAR:
  
                    RESTRICTED RIGHTS LEGEND
  
 Use, reproduction and disclosure by the US Government is
 subject to restrictions as set forth in subparagraphs (a)
 and (c) of the Commercial Computer Software - Restricted
 Rights clause in FAR 52.227-19.
  
 Gaussian, Inc.
 340 Quinnipiac St., Bldg. 40, Wallingford CT 06492
  
  
 ---------------------------------------------------------------
 Warning -- This program may not be used in any manner that
 competes with the business of Gaussian, Inc. or will provide
 assistance to any competitor of Gaussian, Inc.  The licensee
 of this program is prohibited from giving any competitor of
 Gaussian, Inc. access to this program.  By using this program,
 the user acknowledges that Gaussian, Inc. is engaged in the
 business of creating and licensing software in the field of
 computational chemistry and represents and warrants to the
 licensee that it is not a competitor of Gaussian, Inc. and that
 it will not use this program in any manner prohibited above.
 ---------------------------------------------------------------
  

 Cite this work as:
 Gaussian 16, Revision C.01,
 M. J. Frisch, G. W. Trucks, H. B. Schlegel, G. E. Scuseria, 
 M. A. Robb, J. R. Cheeseman, G. Scalmani, V. Barone, 
 G. A. Petersson, H. Nakatsuji, X. Li, M. Caricato, A. V. Marenich, 
 J. Bloino, B. G. Janesko, R. Gomperts, B. Mennucci, H. P. Hratchian, 
 J. V. Ortiz, A. F. Izmaylov, J. L. Sonnenberg, D. Williams-Young, 
 F. Ding, F. Lipparini, F. Egidi, J. Goings, B. Peng, A. Petrone, 
 T. Henderson, D. Ranasinghe, V. G. Zakrzewski, J. Gao, N. Rega, 
 G. Zheng, W. Liang, M. Hada, M. Ehara, K. Toyota, R. Fukuda, 
 J. Hasegawa, M. Ishida, T. Nakajima, Y. Honda, O. Kitao, H. Nakai, 
 T. Vreven, K. Throssell, J. A. Montgomery, Jr., J. E. Peralta, 
 F. Ogliaro, M. J. Bearpark, J. J. Heyd, E. N. Brothers, K. N. Kudin, 
 V. N. Staroverov, T. A. Keith, R. Kobayashi, J. Normand, 
 K. Raghavachari, A. P. Rendell, J. C. Burant, S. S. Iyengar, 
 J. Tomasi, M. Cossi, J. M. Millam, M. Klene, C. Adamo, R. Cammi, 
 J. W. Ochterski, R. L. Martin, K. Morokuma, O. Farkas, 
 J. B. Foresman, and D. J. Fox, Gaussian, Inc., Wallingford CT, 2019.
 
 ******************************************
 Gaussian 16:  ES64L-G16RevC.01  3-Jul-2019
                22-Feb-2021 
 ******************************************
 %chk=XMIIGOLPHOKFCH-UHFFFAOYSA-N.chk
 %NProcShared=32
 Will use up to   32 processors via shared memory.
 -------------------------------------------------------------
 #P BP86/TZVP EmpiricalDispersion=GD3 SCRF=(Solvent=Water) Opt
 -------------------------------------------------------------
 1/18=20,19=15,26=3,38=1/1,3;
 2/9=110,12=2,17=6,18=5,40=1/2;
 3/5=19,7=101,11=2,25=1,30=1,70=2201,71=1,72=1,74=404,124=31/1,2,3;
 4//1;
 5/5=2,38=5,53=1/2;
 6/7=2,8=2,9=2,10=2,28=1/1;
 7//1,2,3,16;
 1/18=20,19=15,26=3/3(2);
 2/9=110/2;
 99//99;
 2/9=110/2;
 3/5=19,7=101,11=2,25=1,30=1,70=2205,71=1,72=1,74=404,124=31/1,2,3;
 4/5=5,16=3,69=1/1;
 5/5=2,38=5,53=1/2;
 7//1,2,3,16;
 1/18=20,19=15,26=3/3(-5);
 2/9=110/2;
 6/7=2,8=2,9=2,10=2,19=2,28=1/1;
 99/9=1/99;
 Leave Link    1 at Mon Feb 22 21:28:54 2021, MaxMem=           0 cpu:               2.1 elap:               0.1
 (Enter /sw/arch/RedHatEnterpriseServer7/EB_production/2019/software/Gaussian/g16.c01/l101.exe)
 -------------------------------------
 Particle #XMIIGOLPHOKFCH-UHFFFAOYSA-N
 -------------------------------------
 Symbolic Z-matrix:
 Charge =  0 Multiplicity = 1
 O                     0.64699  -1.6672   -2.48176 
 C                     0.82907  -0.73269  -1.66875 
 O                     1.1131    0.49691  -2.15595 
 C                     0.75511  -0.96612  -0.21149 
 C                    -0.53799  -0.39812   0.43437 
 C                    -0.63114   1.09168   0.43918 
 C                    -1.53777   1.76374  -0.41548 
 C                    -1.65922   3.16595  -0.38005 
 C                    -0.87605   3.9186    0.51165 
 C                     0.04411   3.2694    1.35454 
 C                     0.16794   1.86662   1.31586 
 H                     1.19177   0.62639  -3.12497 
 H                     0.77379  -2.04447  -0.02806 
 H                     1.64519  -0.54415   0.2645 
 H                    -0.59375  -0.74912   1.46842 
 H                    -1.39964  -0.83944  -0.07796 
 H                    -2.11685   1.23583  -1.07335 
 H                    -2.31908   3.63882  -1.00187 
 H                    -0.97284   4.9359    0.54685 
 H                     0.61993   3.8217    1.99647 
 H                     0.84113   1.41419   1.94035 
 
 ITRead=  0  0  0  0  0  0  0  0  0  0  0  0  0  0  0  0  0  0  0  0
 ITRead=  0
 MicOpt= -1 -1 -1 -1 -1 -1 -1 -1 -1 -1 -1 -1 -1 -1 -1 -1 -1 -1 -1 -1
 MicOpt= -1
 NAtoms=     21 NQM=       21 NQMF=       0 NMMI=      0 NMMIF=      0
                NMic=       0 NMicF=      0.
                    Isotopes and Nuclear Properties:
 (Nuclear quadrupole moments (NQMom) in fm**2, nuclear magnetic moments (NMagM)
  in nuclear magnetons)

  Atom         1           2           3           4           5           6           7           8           9          10
 IAtWgt=          16          12          16          12          12          12          12          12          12          12
 AtmWgt=  15.9949146  12.0000000  15.9949146  12.0000000  12.0000000  12.0000000  12.0000000  12.0000000  12.0000000  12.0000000
 NucSpn=           0           0           0           0           0           0           0           0           0           0
 AtZEff=  -0.0000000  -0.0000000  -0.0000000  -0.0000000  -0.0000000  -0.0000000  -0.0000000  -0.0000000  -0.0000000  -0.0000000
 NQMom=    0.0000000   0.0000000   0.0000000   0.0000000   0.0000000   0.0000000   0.0000000   0.0000000   0.0000000   0.0000000
 NMagM=    0.0000000   0.0000000   0.0000000   0.0000000   0.0000000   0.0000000   0.0000000   0.0000000   0.0000000   0.0000000
 AtZNuc=   8.0000000   6.0000000   8.0000000   6.0000000   6.0000000   6.0000000   6.0000000   6.0000000   6.0000000   6.0000000

  Atom        11          12          13          14          15          16          17          18          19          20
 IAtWgt=          12           1           1           1           1           1           1           1           1           1
 AtmWgt=  12.0000000   1.0078250   1.0078250   1.0078250   1.0078250   1.0078250   1.0078250   1.0078250   1.0078250   1.0078250
 NucSpn=           0           1           1           1           1           1           1           1           1           1
 AtZEff=  -0.0000000  -0.0000000  -0.0000000  -0.0000000  -0.0000000  -0.0000000  -0.0000000  -0.0000000  -0.0000000  -0.0000000
 NQMom=    0.0000000   0.0000000   0.0000000   0.0000000   0.0000000   0.0000000   0.0000000   0.0000000   0.0000000   0.0000000
 NMagM=    0.0000000   2.7928460   2.7928460   2.7928460   2.7928460   2.7928460   2.7928460   2.7928460   2.7928460   2.7928460
 AtZNuc=   6.0000000   1.0000000   1.0000000   1.0000000   1.0000000   1.0000000   1.0000000   1.0000000   1.0000000   1.0000000

  Atom        21
 IAtWgt=           1
 AtmWgt=   1.0078250
 NucSpn=           1
 AtZEff=  -0.0000000
 NQMom=    0.0000000
 NMagM=    2.7928460
 AtZNuc=   1.0000000
 Leave Link  101 at Mon Feb 22 21:28:54 2021, MaxMem=   104857600 cpu:               2.9 elap:               0.1
 (Enter /sw/arch/RedHatEnterpriseServer7/EB_production/2019/software/Gaussian/g16.c01/l103.exe)

 GradGradGradGradGradGradGradGradGradGradGradGradGradGradGradGradGradGrad
 Berny optimization.
 Initialization pass.
                           ----------------------------
                           !    Initial Parameters    !
                           ! (Angstroms and Degrees)  !
 --------------------------                            --------------------------
 ! Name  Definition              Value          Derivative Info.                !
 --------------------------------------------------------------------------------
 ! R1    R(1,2)                  1.252          estimate D2E/DX2                !
 ! R2    R(2,3)                  1.3528         estimate D2E/DX2                !
 ! R3    R(2,4)                  1.4777         estimate D2E/DX2                !
 ! R4    R(3,12)                 0.9808         estimate D2E/DX2                !
 ! R5    R(4,5)                  1.553          estimate D2E/DX2                !
 ! R6    R(4,13)                 1.094          estimate D2E/DX2                !
 ! R7    R(4,14)                 1.094          estimate D2E/DX2                !
 ! R8    R(5,6)                  1.4927         estimate D2E/DX2                !
 ! R9    R(5,15)                 1.0934         estimate D2E/DX2                !
 ! R10   R(5,16)                 1.0953         estimate D2E/DX2                !
 ! R11   R(6,7)                  1.4157         estimate D2E/DX2                !
 ! R12   R(6,11)                 1.4169         estimate D2E/DX2                !
 ! R13   R(7,8)                  1.4079         estimate D2E/DX2                !
 ! R14   R(7,17)                 1.0231         estimate D2E/DX2                !
 ! R15   R(8,9)                  1.4053         estimate D2E/DX2                !
 ! R16   R(8,18)                 1.0226         estimate D2E/DX2                !
 ! R17   R(9,10)                 1.4066         estimate D2E/DX2                !
 ! R18   R(9,19)                 1.0225         estimate D2E/DX2                !
 ! R19   R(10,11)                1.4088         estimate D2E/DX2                !
 ! R20   R(10,20)                1.024          estimate D2E/DX2                !
 ! R21   R(11,21)                1.0237         estimate D2E/DX2                !
 ! A1    A(1,2,3)              118.3678         estimate D2E/DX2                !
 ! A2    A(1,2,4)              121.0116         estimate D2E/DX2                !
 ! A3    A(3,2,4)              120.6153         estimate D2E/DX2                !
 ! A4    A(2,3,12)             119.5161         estimate D2E/DX2                !
 ! A5    A(2,4,5)              113.2051         estimate D2E/DX2                !
 ! A6    A(2,4,13)             108.6754         estimate D2E/DX2                !
 ! A7    A(2,4,14)             109.1122         estimate D2E/DX2                !
 ! A8    A(5,4,13)             107.7579         estimate D2E/DX2                !
 ! A9    A(5,4,14)             110.8189         estimate D2E/DX2                !
 ! A10   A(13,4,14)            107.0585         estimate D2E/DX2                !
 ! A11   A(4,5,6)              114.7288         estimate D2E/DX2                !
 ! A12   A(4,5,15)             108.563          estimate D2E/DX2                !
 ! A13   A(4,5,16)             108.2478         estimate D2E/DX2                !
 ! A14   A(6,5,15)             108.3097         estimate D2E/DX2                !
 ! A15   A(6,5,16)             110.7658         estimate D2E/DX2                !
 ! A16   A(15,5,16)            105.8366         estimate D2E/DX2                !
 ! A17   A(5,6,7)              120.7855         estimate D2E/DX2                !
 ! A18   A(5,6,11)             120.8409         estimate D2E/DX2                !
 ! A19   A(7,6,11)             118.3641         estimate D2E/DX2                !
 ! A20   A(6,7,8)              120.8549         estimate D2E/DX2                !
 ! A21   A(6,7,17)             120.3785         estimate D2E/DX2                !
 ! A22   A(8,7,17)             118.7665         estimate D2E/DX2                !
 ! A23   A(7,8,9)              120.0857         estimate D2E/DX2                !
 ! A24   A(7,8,18)             120.0607         estimate D2E/DX2                !
 ! A25   A(9,8,18)             119.8535         estimate D2E/DX2                !
 ! A26   A(8,9,10)             119.8405         estimate D2E/DX2                !
 ! A27   A(8,9,19)             120.128          estimate D2E/DX2                !
 ! A28   A(10,9,19)            120.0314         estimate D2E/DX2                !
 ! A29   A(9,10,11)            120.0406         estimate D2E/DX2                !
 ! A30   A(9,10,20)            119.6396         estimate D2E/DX2                !
 ! A31   A(11,10,20)           120.3196         estimate D2E/DX2                !
 ! A32   A(6,11,10)            120.7982         estimate D2E/DX2                !
 ! A33   A(6,11,21)            120.4386         estimate D2E/DX2                !
 ! A34   A(10,11,21)           118.7608         estimate D2E/DX2                !
 ! D1    D(1,2,3,12)            -1.4786         estimate D2E/DX2                !
 ! D2    D(4,2,3,12)           177.6887         estimate D2E/DX2                !
 ! D3    D(1,2,4,5)           -106.1387         estimate D2E/DX2                !
 ! D4    D(1,2,4,13)            13.5434         estimate D2E/DX2                !
 ! D5    D(1,2,4,14)           129.9566         estimate D2E/DX2                !
 ! D6    D(3,2,4,5)             74.7161         estimate D2E/DX2                !
 ! D7    D(3,2,4,13)          -165.6017         estimate D2E/DX2                !
 ! D8    D(3,2,4,14)           -49.1886         estimate D2E/DX2                !
 ! D9    D(2,4,5,6)            -67.7436         estimate D2E/DX2                !
 ! D10   D(2,4,5,15)           170.9566         estimate D2E/DX2                !
 ! D11   D(2,4,5,16)            56.5105         estimate D2E/DX2                !
 ! D12   D(13,4,5,6)           172.0501         estimate D2E/DX2                !
 ! D13   D(13,4,5,15)           50.7502         estimate D2E/DX2                !
 ! D14   D(13,4,5,16)          -63.6958         estimate D2E/DX2                !
 ! D15   D(14,4,5,6)            55.222          estimate D2E/DX2                !
 ! D16   D(14,4,5,15)          -66.0778         estimate D2E/DX2                !
 ! D17   D(14,4,5,16)          179.4761         estimate D2E/DX2                !
 ! D18   D(4,5,6,7)            108.0437         estimate D2E/DX2                !
 ! D19   D(4,5,6,11)           -73.1016         estimate D2E/DX2                !
 ! D20   D(15,5,6,7)          -130.518          estimate D2E/DX2                !
 ! D21   D(15,5,6,11)           48.3367         estimate D2E/DX2                !
 ! D22   D(16,5,6,7)           -14.8667         estimate D2E/DX2                !
 ! D23   D(16,5,6,11)          163.988          estimate D2E/DX2                !
 ! D24   D(5,6,7,8)            177.8342         estimate D2E/DX2                !
 ! D25   D(5,6,7,17)            -2.2844         estimate D2E/DX2                !
 ! D26   D(11,6,7,8)            -1.0483         estimate D2E/DX2                !
 ! D27   D(11,6,7,17)          178.8331         estimate D2E/DX2                !
 ! D28   D(5,6,11,10)         -177.6485         estimate D2E/DX2                !
 ! D29   D(5,6,11,21)            1.7709         estimate D2E/DX2                !
 ! D30   D(7,6,11,10)            1.2334         estimate D2E/DX2                !
 ! D31   D(7,6,11,21)         -179.3473         estimate D2E/DX2                !
 ! D32   D(6,7,8,9)             -0.0362         estimate D2E/DX2                !
 ! D33   D(6,7,8,18)          -179.9067         estimate D2E/DX2                !
 ! D34   D(17,7,8,9)          -179.9195         estimate D2E/DX2                !
 ! D35   D(17,7,8,18)            0.21           estimate D2E/DX2                !
 ! D36   D(7,8,9,10)             0.9595         estimate D2E/DX2                !
 ! D37   D(7,8,9,19)          -179.1706         estimate D2E/DX2                !
 ! D38   D(18,8,9,10)         -179.1697         estimate D2E/DX2                !
 ! D39   D(18,8,9,19)            0.7001         estimate D2E/DX2                !
 ! D40   D(8,9,10,11)           -0.7749         estimate D2E/DX2                !
 ! D41   D(8,9,10,20)          179.3894         estimate D2E/DX2                !
 ! D42   D(19,9,10,11)         179.3551         estimate D2E/DX2                !
 ! D43   D(19,9,10,20)          -0.4805         estimate D2E/DX2                !
 ! D44   D(9,10,11,6)           -0.3356         estimate D2E/DX2                !
 ! D45   D(9,10,11,21)        -179.7646         estimate D2E/DX2                !
 ! D46   D(20,10,11,6)         179.4989         estimate D2E/DX2                !
 ! D47   D(20,10,11,21)          0.0699         estimate D2E/DX2                !
 --------------------------------------------------------------------------------
 Trust Radius=3.00D-01 FncErr=1.00D-07 GrdErr=1.00D-06 EigMax=2.50D+02 EigMin=1.00D-04
 Number of steps in this run=    112 maximum allowed number of steps=    126.
 GradGradGradGradGradGradGradGradGradGradGradGradGradGradGradGradGradGrad

 Leave Link  103 at Mon Feb 22 21:28:54 2021, MaxMem=   104857600 cpu:               0.3 elap:               0.0
 (Enter /sw/arch/RedHatEnterpriseServer7/EB_production/2019/software/Gaussian/g16.c01/l202.exe)
                          Input orientation:                          
 ---------------------------------------------------------------------
 Center     Atomic      Atomic             Coordinates (Angstroms)
 Number     Number       Type             X           Y           Z
 ---------------------------------------------------------------------
      1          8           0        0.646990   -1.667200   -2.481760
      2          6           0        0.829070   -0.732690   -1.668750
      3          8           0        1.113100    0.496910   -2.155950
      4          6           0        0.755110   -0.966120   -0.211490
      5          6           0       -0.537990   -0.398120    0.434370
      6          6           0       -0.631140    1.091680    0.439180
      7          6           0       -1.537770    1.763740   -0.415480
      8          6           0       -1.659220    3.165950   -0.380050
      9          6           0       -0.876050    3.918600    0.511650
     10          6           0        0.044110    3.269400    1.354540
     11          6           0        0.167940    1.866620    1.315860
     12          1           0        1.191770    0.626390   -3.124970
     13          1           0        0.773790   -2.044470   -0.028060
     14          1           0        1.645190   -0.544150    0.264500
     15          1           0       -0.593750   -0.749120    1.468420
     16          1           0       -1.399640   -0.839440   -0.077960
     17          1           0       -2.116850    1.235830   -1.073350
     18          1           0       -2.319080    3.638820   -1.001870
     19          1           0       -0.972840    4.935900    0.546850
     20          1           0        0.619930    3.821700    1.996470
     21          1           0        0.841130    1.414190    1.940350
 ---------------------------------------------------------------------
                    Distance matrix (angstroms):
                    1          2          3          4          5
     1  O    0.000000
     2  C    1.251977   0.000000
     3  O    2.237584   1.352758   0.000000
     4  C    2.378514   1.477690   2.459581   0.000000
     5  C    3.393900   2.530594   3.199521   1.553019   0.000000
     6  C    4.216269   3.147048   3.182896   2.565073   1.492717
     7  C    4.562241   3.661254   3.414851   3.570861   2.528921
     8  C    5.752837   4.801222   4.238320   4.788675   3.824007
     9  C    6.517769   5.412585   4.772920   5.200395   4.330627
    10  C    6.280978   5.076728   4.599237   4.571389   3.825736
    11  C    5.209538   4.012655   3.850052   3.271388   2.530693
    12  H    2.443575   2.024655   0.980792   3.348899   4.087859
    13  H    2.485770   2.101353   3.331915   1.093999   2.155244
    14  H    3.130429   2.106906   2.688030   1.094014   2.194642
    15  H    4.241017   3.444782   4.195472   2.165320   1.093421
    16  H    3.263761   2.740284   3.523881   2.162597   1.095302
    17  H    4.248531   3.592773   3.485771   3.720153   2.726868
    18  H    6.256316   5.428230   4.794096   5.592926   4.640253
    19  H    7.442933   6.347336   5.600081   6.196348   5.352898
    20  H    7.084017   5.849790   5.342288   5.274143   4.646269
    21  H    5.393302   4.199386   4.206548   3.209936   2.730278
                    6          7          8          9         10
     6  C    0.000000
     7  C    1.415658   0.000000
     8  C    2.455745   1.407906   0.000000
     9  C    2.838434   2.437389   1.405335   0.000000
    10  C    2.456890   2.811108   2.433277   1.406634   0.000000
    11  C    1.416908   2.432605   2.811207   2.438707   1.408766
    12  H    4.030218   4.010647   4.702350   5.323489   5.326221
    13  H    3.468080   4.471674   5.761242   6.210593   5.539064
    14  H    2.808582   3.989983   5.009931   5.131654   4.277243
    15  H    2.109331   3.279439   4.458682   4.773124   4.070422
    16  H    2.141787   2.628601   4.025145   4.822938   4.584652
    17  H    2.125055   1.023140   2.101298   3.353963   3.834032
    18  H    3.378415   2.114290   1.022586   2.109824   3.357649
    19  H    3.860878   3.362711   2.112578   1.022500   2.112764
    20  H    3.382800   3.835149   3.357437   2.109985   1.024050
    21  H    2.127229   3.366197   3.834667   3.355884   2.102432
                   11         12         13         14         15
    11  C    0.000000
    12  H    4.723068   0.000000
    13  H    4.179689   4.110846   0.000000
    14  H    3.016527   3.614452   1.759514   0.000000
    15  H    2.728652   5.116575   2.405733   2.550351   0.000000
    16  H    3.423858   4.260086   2.485636   3.078224   1.746112
    17  H    3.365484   3.940498   4.495420   4.371626   3.566575
    18  H    3.833775   5.090025   6.543236   5.900540   5.322886
    19  H    3.363515   6.061326   7.218504   6.079864   5.771694
    20  H    2.118930   6.063510   6.207604   4.807445   4.758598
    21  H    1.023653   5.138195   3.980138   2.700015   2.638467
                   16         17         18         19         20
    16  H    0.000000
    17  H    2.410796   0.000000
    18  H    4.664096   2.412544   0.000000
    19  H    5.824697   4.198134   2.427615   0.000000
    20  H    5.487089   4.858033   4.202531   2.424821   0.000000
    21  H    3.764767   4.226564   4.857218   4.199377   2.418302
                   21
    21  H    0.000000
 Stoichiometry    C9H10O2
 Framework group  C1[X(C9H10O2)]
 Deg. of freedom    57
 Full point group                 C1      NOp   1
 Largest Abelian subgroup         C1      NOp   1
 Largest concise Abelian subgroup C1      NOp   1
                         Standard orientation:                         
 ---------------------------------------------------------------------
 Center     Atomic      Atomic             Coordinates (Angstroms)
 Number     Number       Type             X           Y           Z
 ---------------------------------------------------------------------
      1          8           0        3.434980   -0.642882    0.162988
      2          6           0        2.336755   -0.270814   -0.309150
      3          8           0        1.615885   -1.156318   -1.034535
      4          6           0        1.844559    1.106370   -0.097791
      5          6           0        0.683825    1.190291    0.930567
      6          6           0       -0.593319    0.560038    0.483478
      7          6           0       -1.039454   -0.656491    1.053659
      8          6           0       -2.265819   -1.228889    0.665601
      9          6           0       -3.066221   -0.593028   -0.298765
     10          6           0       -2.629759    0.606256   -0.890236
     11          6           0       -1.400714    1.176470   -0.504324
     12          1           0        1.973626   -2.055624   -1.193354
     13          1           0        2.668940    1.719071    0.278811
     14          1           0        1.542957    1.530601   -1.060044
     15          1           0        0.488709    2.243534    1.150063
     16          1           0        1.026796    0.747374    1.871780
     17          1           0       -0.472236   -1.137184    1.756520
     18          1           0       -2.577008   -2.107380    1.086429
     19          1           0       -3.962901   -1.001574   -0.571824
     20          1           0       -3.211097    1.062050   -1.599443
     21          1           0       -1.103824    2.051512   -0.944806
 ---------------------------------------------------------------------
 Rotational constants (GHZ):           2.2979781           0.6566292           0.6088995
 Leave Link  202 at Mon Feb 22 21:28:54 2021, MaxMem=   104857600 cpu:               0.6 elap:               0.1
 (Enter /sw/arch/RedHatEnterpriseServer7/EB_production/2019/software/Gaussian/g16.c01/l301.exe)
 Standard basis: TZVP (5D, 7F)
 Ernie: Thresh=  0.10000D-02 Tol=  0.10000D-05 Strict=F.
 There are   280 symmetry adapted cartesian basis functions of A   symmetry.
 There are   269 symmetry adapted basis functions of A   symmetry.
   269 basis functions,   465 primitive gaussians,   280 cartesian basis functions
    40 alpha electrons       40 beta electrons
       nuclear repulsion energy       575.8127568941 Hartrees.
 IExCor=  404 DFT=T Ex=B Corr=P86 ExCW=0 ScaHFX=  0.000000
 ScaDFX=  1.000000  1.000000  1.000000  1.000000 ScalE2=  1.000000  1.000000
 IRadAn=      5 IRanWt=     -1 IRanGd=            0 ICorTp=0 IEmpDi=131
 NAtoms=   21 NActive=   21 NUniq=   21 SFac= 1.00D+00 NAtFMM=   60 NAOKFM=F Big=F
 Integral buffers will be    131072 words long.
 Raffenetti 2 integral format.
 Two-electron integral symmetry is turned on.
 R6Disp:  Grimme-D3 Dispersion energy=       -0.0188749758 Hartrees.
 Nuclear repulsion after empirical dispersion term =      575.7938819184 Hartrees.
 ------------------------------------------------------------------------------
 Polarizable Continuum Model (PCM)
 =================================
 Model                : PCM.
 Atomic radii         : UFF (Universal Force Field).
 Polarization charges : Total charges.
 Charge compensation  : None.
 Solution method      : On-the-fly selection.
 Cavity type          : Scaled VdW (van der Waals Surface) (Alpha=1.100).
 Cavity algorithm     : GePol (No added spheres)
                        Default sphere list used, NSphG=   21.
                        Lebedev-Laikov grids with approx.  5.0 points / Ang**2.
                        Smoothing algorithm: York/Karplus (Gamma=1.0000).
                        Polarization charges: spherical gaussians, with
                                              point-specific exponents (IZeta= 3).
                        Self-potential: point-specific (ISelfS= 7).
                        Self-field    : sphere-specific E.n sum rule (ISelfD= 2).
 1st derivatives      : Analytical E(r).r(x)/FMM algorithm (CHGder, D1EAlg=3).
                        Cavity 1st derivative terms included.
 Solvent              : Water, Eps=  78.355300 Eps(inf)=   1.777849
 ------------------------------------------------------------------------------
 GePol: Number of generator spheres                  =      21
 GePol: Total number of spheres                      =      21
 GePol: Number of exposed spheres                    =      21 (100.00%)
 GePol: Number of points                             =    1710
 GePol: Average weight of points                     =       0.13
 GePol: Minimum weight of points                     =   0.31D-09
 GePol: Maximum weight of points                     =    0.20577
 GePol: Number of points with low weight             =     114
 GePol: Fraction of low-weight points (<1% of avg)   =       6.67%
 GePol: Cavity surface area                          =    223.791 Ang**2
 GePol: Cavity volume                                =    225.255 Ang**3
 Leave Link  301 at Mon Feb 22 21:28:55 2021, MaxMem=   104857600 cpu:               1.9 elap:               0.1
 (Enter /sw/arch/RedHatEnterpriseServer7/EB_production/2019/software/Gaussian/g16.c01/l302.exe)
 NPDir=0 NMtPBC=     1 NCelOv=     1 NCel=       1 NClECP=     1 NCelD=      1
         NCelK=      1 NCelE2=     1 NClLst=     1 CellRange=     0.0.
 One-electron integrals computed using PRISM.
 One-electron integral symmetry used in STVInt
 PrsmSu:  requested number of processors reduced to:  28 ShMem   1 Linda.
 NBasis=   269 RedAO= T EigKep=  9.28D-06  NBF=   269
 NBsUse=   269 1.00D-06 EigRej= -1.00D+00 NBFU=   269
 Precomputing XC quadrature grid using
 IXCGrd= 4 IRadAn=           5 IRanWt=          -1 IRanGd=           0 AccXCQ= 0.00D+00.
 Generated NRdTot=       0 NPtTot=           0 NUsed=           0 NTot=          32
 NSgBfM=   277   276   277   277   277 MxSgAt=    21 MxSgA2=    21.
 Leave Link  302 at Mon Feb 22 21:28:55 2021, MaxMem=   104857600 cpu:               7.0 elap:               0.3
 (Enter /sw/arch/RedHatEnterpriseServer7/EB_production/2019/software/Gaussian/g16.c01/l303.exe)
 DipDrv:  MaxL=1.
 Leave Link  303 at Mon Feb 22 21:28:55 2021, MaxMem=   104857600 cpu:               1.2 elap:               0.1
 (Enter /sw/arch/RedHatEnterpriseServer7/EB_production/2019/software/Gaussian/g16.c01/l401.exe)
 ExpMin= 9.52D-02 ExpMax= 2.70D+04 ExpMxC= 9.22D+02 IAcc=3 IRadAn=         5 AccDes= 0.00D+00
 Harris functional with IExCor=  404 and IRadAn=       5 diagonalized for initial guess.
 HarFok:  IExCor=  404 AccDes= 0.00D+00 IRadAn=         5 IDoV= 1 UseB2=F ITyADJ=14
 ICtDFT=  3500011 ScaDFX=  1.000000  1.000000  1.000000  1.000000
 FoFCou: FMM=F IPFlag=           0 FMFlag=      100000 FMFlg1=           0
         NFxFlg=           0 DoJE=T BraDBF=F KetDBF=T FulRan=T
         wScrn=  0.000000 ICntrl=       500 IOpCl=  0 I1Cent=   200000004 NGrid=           0
         NMat0=    1 NMatS0=      1 NMatT0=    0 NMatD0=    1 NMtDS0=    0 NMtDT0=    0
 Petite list used in FoFCou.
 Harris En= -499.829392824133    
 JPrj=0 DoOrth=F DoCkMO=F.
 Leave Link  401 at Mon Feb 22 21:28:56 2021, MaxMem=   104857600 cpu:              17.0 elap:               0.6
 (Enter /sw/arch/RedHatEnterpriseServer7/EB_production/2019/software/Gaussian/g16.c01/l502.exe)
 Integral symmetry usage will be decided dynamically.
 Closed shell SCF:
 Using DIIS extrapolation, IDIIS=  1040.
 NGot=   104857600 LenX=   104688452 LenY=   104609611
 Requested convergence on RMS density matrix=1.00D-08 within 128 cycles.
 Requested convergence on MAX density matrix=1.00D-06.
 Requested convergence on             energy=1.00D-06.
 No special actions if energy rises.
 Fock matrices will be formed incrementally for  20 cycles.

 Cycle   1  Pass 1  IDiag  1:
 FoFJK:  IHMeth= 1 ICntrl=     500 DoSepK=F KAlg= 0 I1Cent=           0 FoldK=F
 IRaf= 910000000 NMat=       1 IRICut=       1 DoRegI=T DoRafI=F ISym2E= 0 IDoP0=0 IntGTp=1.
 FoFCou: FMM=F IPFlag=           0 FMFlag=      100000 FMFlg1=           0
         NFxFlg=           0 DoJE=T BraDBF=F KetDBF=F FulRan=T
         wScrn=  0.000000 ICntrl=       500 IOpCl=  0 I1Cent=           0 NGrid=           0
         NMat0=    1 NMatS0=      1 NMatT0=    0 NMatD0=    1 NMtDS0=    0 NMtDT0=    0
 Symmetry not used in FoFCou.
 Inv3:  Mode=1 IEnd=     8772300.
 Iteration    1 A*A^-1 deviation from unit magnitude is 2.89D-15 for     50.
 Iteration    1 A*A^-1 deviation from orthogonality  is 1.60D-15 for   1295   1205.
 Iteration    1 A^-1*A deviation from unit magnitude is 2.78D-15 for     50.
 Iteration    1 A^-1*A deviation from orthogonality  is 1.83D-15 for   1291    443.
 E= -499.336026217033    
 DIIS: error= 3.02D-02 at cycle   1 NSaved=   1.
 NSaved= 1 IEnMin= 1 EnMin= -499.336026217033     IErMin= 1 ErrMin= 3.02D-02
 ErrMax= 3.02D-02  0.00D+00 EMaxC= 1.00D-01 BMatC= 3.06D-01 BMatP= 3.06D-01
 IDIUse=3 WtCom= 6.98D-01 WtEn= 3.02D-01
 Coeff-Com:  0.100D+01
 Coeff-En:   0.100D+01
 Coeff:      0.100D+01
 Gap=     0.175 Goal=   None    Shift=    0.000
 GapD=    0.175 DampG=1.000 DampE=0.500 DampFc=0.5000 IDamp=-1.
 Damping current iteration by 5.00D-01
 RMSDP=6.36D-03 MaxDP=4.33D-01              OVMax= 2.94D-01

 Cycle   2  Pass 1  IDiag  1:
 RMSU=  3.17D-03    CP:  9.80D-01
 E= -499.379518825866     Delta-E=       -0.043492608833 Rises=F Damp=T
 DIIS: error= 2.21D-02 at cycle   2 NSaved=   2.
 NSaved= 2 IEnMin= 2 EnMin= -499.379518825866     IErMin= 2 ErrMin= 2.21D-02
 ErrMax= 2.21D-02  0.00D+00 EMaxC= 1.00D-01 BMatC= 7.69D-02 BMatP= 3.06D-01
 IDIUse=3 WtCom= 7.79D-01 WtEn= 2.21D-01
 Coeff-Com:  0.294D+00 0.706D+00
 Coeff-En:   0.428D+00 0.572D+00
 Coeff:      0.324D+00 0.676D+00
 Gap=     0.170 Goal=   None    Shift=    0.000
 RMSDP=2.22D-03 MaxDP=1.65D-01 DE=-4.35D-02 OVMax= 2.27D-01

 Cycle   3  Pass 1  IDiag  1:
 RMSU=  1.73D-03    CP:  9.63D-01  5.67D-01
 E= -499.544662354194     Delta-E=       -0.165143528328 Rises=F Damp=F
 DIIS: error= 2.58D-02 at cycle   3 NSaved=   3.
 NSaved= 3 IEnMin= 3 EnMin= -499.544662354194     IErMin= 2 ErrMin= 2.21D-02
 ErrMax= 2.58D-02  0.00D+00 EMaxC= 1.00D-01 BMatC= 8.88D-02 BMatP= 7.69D-02
 IDIUse=2 WtCom= 0.00D+00 WtEn= 1.00D+00
 Coeff-En:   0.000D+00 0.000D+00 0.100D+01
 Coeff:      0.000D+00 0.000D+00 0.100D+01
 Gap=     0.175 Goal=   None    Shift=    0.000
 RMSDP=4.14D-03 MaxDP=1.96D-01 DE=-1.65D-01 OVMax= 3.64D-01

 Cycle   4  Pass 1  IDiag  1:
 RMSU=  2.27D-03    CP:  9.83D-01  1.14D+00 -6.95D-01
 E= -498.902627714050     Delta-E=        0.642034640144 Rises=F Damp=F
 DIIS: error= 8.75D-02 at cycle   4 NSaved=   4.
 NSaved= 4 IEnMin= 3 EnMin= -499.544662354194     IErMin= 2 ErrMin= 2.21D-02
 ErrMax= 8.75D-02  0.00D+00 EMaxC= 1.00D-01 BMatC= 8.79D-01 BMatP= 7.69D-02
 IDIUse=2 WtCom= 0.00D+00 WtEn= 1.00D+00
 Coeff-En:   0.000D+00 0.000D+00 0.848D+00 0.152D+00
 Coeff:      0.000D+00 0.000D+00 0.848D+00 0.152D+00
 Gap=     0.135 Goal=   None    Shift=    0.000
 RMSDP=2.51D-03 MaxDP=1.44D-01 DE= 6.42D-01 OVMax= 2.58D-01

 Cycle   5  Pass 1  IDiag  1:
 RMSU=  5.48D-04    CP:  9.77D-01  6.76D-01  1.76D-01  4.46D-01
 E= -499.545249719277     Delta-E=       -0.642622005228 Rises=F Damp=F
 DIIS: error= 2.79D-02 at cycle   5 NSaved=   5.
 NSaved= 5 IEnMin= 5 EnMin= -499.545249719277     IErMin= 2 ErrMin= 2.21D-02
 ErrMax= 2.79D-02  0.00D+00 EMaxC= 1.00D-01 BMatC= 9.22D-02 BMatP= 7.69D-02
 IDIUse=2 WtCom= 0.00D+00 WtEn= 1.00D+00
 Coeff-En:   0.000D+00 0.000D+00 0.499D+00 0.000D+00 0.501D+00
 Coeff:      0.000D+00 0.000D+00 0.499D+00 0.000D+00 0.501D+00
 Gap=     0.181 Goal=   None    Shift=    0.000
 RMSDP=1.00D-03 MaxDP=3.83D-02 DE=-6.43D-01 OVMax= 1.23D-01

 Cycle   6  Pass 1  IDiag  1:
 RMSU=  1.39D-04    CP:  9.72D-01  5.72D-01  5.87D-01  1.93D-01  6.46D-01
 E= -499.616458840930     Delta-E=       -0.071209121653 Rises=F Damp=F
 DIIS: error= 2.79D-03 at cycle   6 NSaved=   6.
 NSaved= 6 IEnMin= 6 EnMin= -499.616458840930     IErMin= 6 ErrMin= 2.79D-03
 ErrMax= 2.79D-03  0.00D+00 EMaxC= 1.00D-01 BMatC= 8.09D-04 BMatP= 7.69D-02
 IDIUse=3 WtCom= 9.72D-01 WtEn= 2.79D-02
 Coeff-Com: -0.452D-02 0.252D-01 0.228D+00-0.410D-01 0.355D+00 0.437D+00
 Coeff-En:   0.000D+00 0.000D+00 0.000D+00 0.000D+00 0.000D+00 0.100D+01
 Coeff:     -0.439D-02 0.245D-01 0.222D+00-0.399D-01 0.345D+00 0.453D+00
 Gap=     0.166 Goal=   None    Shift=    0.000
 RMSDP=1.49D-04 MaxDP=6.32D-03 DE=-7.12D-02 OVMax= 1.51D-02

 Cycle   7  Pass 1  IDiag  1:
 RMSU=  7.69D-05    CP:  9.71D-01  5.98D-01  5.60D-01  2.20D-01  7.00D-01
                    CP:  6.24D-01
 E= -499.616967695007     Delta-E=       -0.000508854076 Rises=F Damp=F
 DIIS: error= 1.40D-03 at cycle   7 NSaved=   7.
 NSaved= 7 IEnMin= 7 EnMin= -499.616967695007     IErMin= 7 ErrMin= 1.40D-03
 ErrMax= 1.40D-03  0.00D+00 EMaxC= 1.00D-01 BMatC= 2.09D-04 BMatP= 8.09D-04
 IDIUse=3 WtCom= 9.86D-01 WtEn= 1.40D-02
 Coeff-Com: -0.428D-02 0.605D-02 0.647D-01-0.145D-01 0.105D+00 0.328D+00
 Coeff-Com:  0.515D+00
 Coeff-En:   0.000D+00 0.000D+00 0.000D+00 0.000D+00 0.000D+00 0.238D+00
 Coeff-En:   0.762D+00
 Coeff:     -0.422D-02 0.597D-02 0.638D-01-0.143D-01 0.104D+00 0.327D+00
 Coeff:      0.518D+00
 Gap=     0.167 Goal=   None    Shift=    0.000
 RMSDP=4.55D-05 MaxDP=1.41D-03 DE=-5.09D-04 OVMax= 4.00D-03

 Cycle   8  Pass 1  IDiag  1:
 RMSU=  2.33D-05    CP:  9.71D-01  5.97D-01  5.70D-01  2.16D-01  6.89D-01
                    CP:  6.80D-01  5.88D-01
 E= -499.617113692419     Delta-E=       -0.000145997413 Rises=F Damp=F
 DIIS: error= 2.62D-04 at cycle   8 NSaved=   8.
 NSaved= 8 IEnMin= 8 EnMin= -499.617113692419     IErMin= 8 ErrMin= 2.62D-04
 ErrMax= 2.62D-04  0.00D+00 EMaxC= 1.00D-01 BMatC= 1.24D-05 BMatP= 2.09D-04
 IDIUse=3 WtCom= 9.97D-01 WtEn= 2.62D-03
 Coeff-Com: -0.819D-03-0.108D-02 0.864D-02-0.746D-03 0.586D-02 0.131D+00
 Coeff-Com:  0.255D+00 0.602D+00
 Coeff-En:   0.000D+00 0.000D+00 0.000D+00 0.000D+00 0.000D+00 0.000D+00
 Coeff-En:   0.000D+00 0.100D+01
 Coeff:     -0.817D-03-0.107D-02 0.862D-02-0.744D-03 0.584D-02 0.131D+00
 Coeff:      0.254D+00 0.603D+00
 Gap=     0.167 Goal=   None    Shift=    0.000
 RMSDP=1.52D-05 MaxDP=5.51D-04 DE=-1.46D-04 OVMax= 9.59D-04

 Cycle   9  Pass 1  IDiag  1:
 RMSU=  6.46D-06    CP:  9.71D-01  5.94D-01  5.73D-01  2.14D-01  6.86D-01
                    CP:  7.00D-01  6.09D-01  6.30D-01
 E= -499.617123524502     Delta-E=       -0.000009832082 Rises=F Damp=F
 DIIS: error= 3.82D-05 at cycle   9 NSaved=   9.
 NSaved= 9 IEnMin= 9 EnMin= -499.617123524502     IErMin= 9 ErrMin= 3.82D-05
 ErrMax= 3.82D-05  0.00D+00 EMaxC= 1.00D-01 BMatC= 3.99D-07 BMatP= 1.24D-05
 IDIUse=1 WtCom= 1.00D+00 WtEn= 0.00D+00
 Coeff-Com: -0.249D-04-0.621D-03 0.188D-02 0.834D-04-0.145D-02 0.472D-01
 Coeff-Com:  0.998D-01 0.300D+00 0.553D+00
 Coeff:     -0.249D-04-0.621D-03 0.188D-02 0.834D-04-0.145D-02 0.472D-01
 Coeff:      0.998D-01 0.300D+00 0.553D+00
 Gap=     0.167 Goal=   None    Shift=    0.000
 RMSDP=3.22D-06 MaxDP=8.05D-05 DE=-9.83D-06 OVMax= 2.00D-04

 Cycle  10  Pass 1  IDiag  1:
 RMSU=  1.57D-06    CP:  9.71D-01  5.94D-01  5.73D-01  2.14D-01  6.86D-01
                    CP:  7.04D-01  6.16D-01  6.49D-01  6.33D-01
 E= -499.617123841092     Delta-E=       -0.000000316590 Rises=F Damp=F
 DIIS: error= 9.73D-06 at cycle  10 NSaved=  10.
 NSaved=10 IEnMin=10 EnMin= -499.617123841092     IErMin=10 ErrMin= 9.73D-06
 ErrMax= 9.73D-06  0.00D+00 EMaxC= 1.00D-01 BMatC= 3.76D-08 BMatP= 3.99D-07
 IDIUse=1 WtCom= 1.00D+00 WtEn= 0.00D+00
 Coeff-Com:  0.677D-04-0.252D-03 0.658D-03 0.326D-04-0.963D-03 0.182D-01
 Coeff-Com:  0.407D-01 0.130D+00 0.319D+00 0.492D+00
 Coeff:      0.677D-04-0.252D-03 0.658D-03 0.326D-04-0.963D-03 0.182D-01
 Coeff:      0.407D-01 0.130D+00 0.319D+00 0.492D+00
 Gap=     0.167 Goal=   None    Shift=    0.000
 RMSDP=9.21D-07 MaxDP=2.36D-05 DE=-3.17D-07 OVMax= 1.15D-04

 Cycle  11  Pass 1  IDiag  1:
 RMSU=  5.88D-07    CP:  9.71D-01  5.94D-01  5.73D-01  2.14D-01  6.85D-01
                    CP:  7.04D-01  6.16D-01  6.56D-01  6.66D-01  5.92D-01
 E= -499.617123872115     Delta-E=       -0.000000031023 Rises=F Damp=F
 DIIS: error= 5.37D-06 at cycle  11 NSaved=  11.
 NSaved=11 IEnMin=11 EnMin= -499.617123872115     IErMin=11 ErrMin= 5.37D-06
 ErrMax= 5.37D-06  0.00D+00 EMaxC= 1.00D-01 BMatC= 6.68D-09 BMatP= 3.76D-08
 IDIUse=1 WtCom= 1.00D+00 WtEn= 0.00D+00
 Coeff-Com:  0.535D-04-0.114D-03 0.238D-03 0.141D-04-0.468D-03 0.677D-02
 Coeff-Com:  0.158D-01 0.517D-01 0.150D+00 0.332D+00 0.444D+00
 Coeff:      0.535D-04-0.114D-03 0.238D-03 0.141D-04-0.468D-03 0.677D-02
 Coeff:      0.158D-01 0.517D-01 0.150D+00 0.332D+00 0.444D+00
 Gap=     0.167 Goal=   None    Shift=    0.000
 RMSDP=3.40D-07 MaxDP=6.61D-06 DE=-3.10D-08 OVMax= 4.71D-05

 Cycle  12  Pass 1  IDiag  1:
 RMSU=  2.18D-07    CP:  9.71D-01  5.94D-01  5.73D-01  2.14D-01  6.85D-01
                    CP:  7.04D-01  6.16D-01  6.57D-01  6.71D-01  6.52D-01
                    CP:  6.06D-01
 E= -499.617123879066     Delta-E=       -0.000000006950 Rises=F Damp=F
 DIIS: error= 1.37D-06 at cycle  12 NSaved=  12.
 NSaved=12 IEnMin=12 EnMin= -499.617123879066     IErMin=12 ErrMin= 1.37D-06
 ErrMax= 1.37D-06  0.00D+00 EMaxC= 1.00D-01 BMatC= 5.30D-10 BMatP= 6.68D-09
 IDIUse=1 WtCom= 1.00D+00 WtEn= 0.00D+00
 Coeff-Com:  0.239D-04-0.481D-04 0.172D-04 0.200D-04-0.198D-03 0.130D-02
 Coeff-Com:  0.324D-02 0.108D-01 0.418D-01 0.127D+00 0.266D+00 0.550D+00
 Coeff:      0.239D-04-0.481D-04 0.172D-04 0.200D-04-0.198D-03 0.130D-02
 Coeff:      0.324D-02 0.108D-01 0.418D-01 0.127D+00 0.266D+00 0.550D+00
 Gap=     0.167 Goal=   None    Shift=    0.000
 RMSDP=1.22D-07 MaxDP=4.24D-06 DE=-6.95D-09 OVMax= 8.35D-06

 Cycle  13  Pass 1  IDiag  1:
 RMSU=  5.69D-08    CP:  9.71D-01  5.94D-01  5.73D-01  2.14D-01  6.85D-01
                    CP:  7.04D-01  6.16D-01  6.57D-01  6.73D-01  6.53D-01
                    CP:  6.33D-01  5.99D-01
 E= -499.617123879610     Delta-E=       -0.000000000544 Rises=F Damp=F
 DIIS: error= 2.37D-07 at cycle  13 NSaved=  13.
 NSaved=13 IEnMin=13 EnMin= -499.617123879610     IErMin=13 ErrMin= 2.37D-07
 ErrMax= 2.37D-07  0.00D+00 EMaxC= 1.00D-01 BMatC= 1.73D-11 BMatP= 5.30D-10
 IDIUse=1 WtCom= 1.00D+00 WtEn= 0.00D+00
 Coeff-Com:  0.810D-05-0.139D-04 0.116D-05 0.540D-05-0.517D-04 0.251D-03
 Coeff-Com:  0.695D-03 0.229D-02 0.119D-01 0.405D-01 0.962D-01 0.255D+00
 Coeff-Com:  0.593D+00
 Coeff:      0.810D-05-0.139D-04 0.116D-05 0.540D-05-0.517D-04 0.251D-03
 Coeff:      0.695D-03 0.229D-02 0.119D-01 0.405D-01 0.962D-01 0.255D+00
 Coeff:      0.593D+00
 Gap=     0.167 Goal=   None    Shift=    0.000
 RMSDP=2.20D-08 MaxDP=6.22D-07 DE=-5.44D-10 OVMax= 2.08D-06

 Cycle  14  Pass 1  IDiag  1:
 RMSU=  1.60D-08    CP:  9.71D-01  5.94D-01  5.73D-01  2.14D-01  6.85D-01
                    CP:  7.04D-01  6.16D-01  6.57D-01  6.73D-01  6.55D-01
                    CP:  6.36D-01  6.26D-01  7.93D-01
 E= -499.617123879621     Delta-E=       -0.000000000011 Rises=F Damp=F
 DIIS: error= 1.22D-07 at cycle  14 NSaved=  14.
 NSaved=14 IEnMin=14 EnMin= -499.617123879621     IErMin=14 ErrMin= 1.22D-07
 ErrMax= 1.22D-07  0.00D+00 EMaxC= 1.00D-01 BMatC= 5.44D-12 BMatP= 1.73D-11
 IDIUse=1 WtCom= 1.00D+00 WtEn= 0.00D+00
 Coeff-Com:  0.280D-05-0.351D-05-0.193D-06 0.782D-06-0.103D-04 0.261D-04
 Coeff-Com:  0.117D-03 0.364D-03 0.353D-02 0.133D-01 0.353D-01 0.114D+00
 Coeff-Com:  0.404D+00 0.430D+00
 Coeff:      0.280D-05-0.351D-05-0.193D-06 0.782D-06-0.103D-04 0.261D-04
 Coeff:      0.117D-03 0.364D-03 0.353D-02 0.133D-01 0.353D-01 0.114D+00
 Coeff:      0.404D+00 0.430D+00
 Gap=     0.167 Goal=   None    Shift=    0.000
 RMSDP=9.58D-09 MaxDP=3.01D-07 DE=-1.13D-11 OVMax= 9.74D-07

 Error on total polarization charges =  0.01316
 SCF Done:  E(RB-P86) =  -499.617123880     A.U. after   14 cycles
            NFock= 14  Conv=0.96D-08     -V/T= 2.0038
 KE= 4.977382385424D+02 PE=-2.317299203549D+03 EE= 7.441499592087D+02
 Leave Link  502 at Mon Feb 22 21:29:12 2021, MaxMem=   104857600 cpu:             511.1 elap:              16.4
 (Enter /sw/arch/RedHatEnterpriseServer7/EB_production/2019/software/Gaussian/g16.c01/l601.exe)
 Copying SCF densities to generalized density rwf, IOpCl= 0 IROHF=0.

 **********************************************************************

            Population analysis using the SCF Density.

 **********************************************************************

 Orbital symmetries:
       Occupied  (A) (A) (A) (A) (A) (A) (A) (A) (A) (A) (A) (A)
                 (A) (A) (A) (A) (A) (A) (A) (A) (A) (A) (A) (A)
                 (A) (A) (A) (A) (A) (A) (A) (A) (A) (A) (A) (A)
                 (A) (A) (A) (A)
       Virtual   (A) (A) (A) (A) (A) (A) (A) (A) (A) (A) (A) (A)
                 (A) (A) (A) (A) (A) (A) (A) (A) (A) (A) (A) (A)
                 (A) (A) (A) (A) (A) (A) (A) (A) (A) (A) (A) (A)
                 (A) (A) (A) (A) (A) (A) (A) (A) (A) (A) (A) (A)
                 (A) (A) (A) (A) (A) (A) (A) (A) (A) (A) (A) (A)
                 (A) (A) (A) (A) (A) (A) (A) (A) (A) (A) (A) (A)
                 (A) (A) (A) (A) (A) (A) (A) (A) (A) (A) (A) (A)
                 (A) (A) (A) (A) (A) (A) (A) (A) (A) (A) (A) (A)
                 (A) (A) (A) (A) (A) (A) (A) (A) (A) (A) (A) (A)
                 (A) (A) (A) (A) (A) (A) (A) (A) (A) (A) (A) (A)
                 (A) (A) (A) (A) (A) (A) (A) (A) (A) (A) (A) (A)
                 (A) (A) (A) (A) (A) (A) (A) (A) (A) (A) (A) (A)
                 (A) (A) (A) (A) (A) (A) (A) (A) (A) (A) (A) (A)
                 (A) (A) (A) (A) (A) (A) (A) (A) (A) (A) (A) (A)
                 (A) (A) (A) (A) (A) (A) (A) (A) (A) (A) (A) (A)
                 (A) (A) (A) (A) (A) (A) (A) (A) (A) (A) (A) (A)
                 (A) (A) (A) (A) (A) (A) (A) (A) (A) (A) (A) (A)
                 (A) (A) (A) (A) (A) (A) (A) (A) (A) (A) (A) (A)
                 (A) (A) (A) (A) (A) (A) (A) (A) (A) (A) (A) (A)
                 (A)
 The electronic state is 1-A.
 Alpha  occ. eigenvalues --  -18.82174 -18.75937 -10.03627  -9.92209  -9.91612
 Alpha  occ. eigenvalues --   -9.91469  -9.89992  -9.89935  -9.89895  -9.89853
 Alpha  occ. eigenvalues --   -9.89736  -1.01759  -0.92310  -0.78710  -0.74105
 Alpha  occ. eigenvalues --   -0.68551  -0.68419  -0.62078  -0.57625  -0.55993
 Alpha  occ. eigenvalues --   -0.53362  -0.47588  -0.46052  -0.43464  -0.42970
 Alpha  occ. eigenvalues --   -0.41512  -0.40914  -0.39722  -0.38497  -0.36497
 Alpha  occ. eigenvalues --   -0.35238  -0.34724  -0.33035  -0.32171  -0.30680
 Alpha  occ. eigenvalues --   -0.30422  -0.28521  -0.23710  -0.23425  -0.22635
 Alpha virt. eigenvalues --   -0.05982  -0.05165  -0.04700   0.01465   0.04341
 Alpha virt. eigenvalues --    0.05810   0.05926   0.07186   0.08512   0.08686
 Alpha virt. eigenvalues --    0.09573   0.10043   0.10893   0.11202   0.13639
 Alpha virt. eigenvalues --    0.13831   0.14357   0.16091   0.17273   0.17922
 Alpha virt. eigenvalues --    0.18836   0.20173   0.20586   0.21168   0.21929
 Alpha virt. eigenvalues --    0.22456   0.23148   0.24296   0.25438   0.26031
 Alpha virt. eigenvalues --    0.26462   0.27931   0.28548   0.30194   0.30298
 Alpha virt. eigenvalues --    0.32025   0.32219   0.33213   0.34055   0.34463
 Alpha virt. eigenvalues --    0.36264   0.36877   0.37518   0.38970   0.39644
 Alpha virt. eigenvalues --    0.40335   0.40819   0.41253   0.41565   0.42191
 Alpha virt. eigenvalues --    0.42666   0.43173   0.44370   0.44713   0.46804
 Alpha virt. eigenvalues --    0.47007   0.47247   0.48445   0.48546   0.49674
 Alpha virt. eigenvalues --    0.50933   0.52621   0.53252   0.54571   0.57394
 Alpha virt. eigenvalues --    0.57874   0.60561   0.61121   0.62909   0.63933
 Alpha virt. eigenvalues --    0.65746   0.66305   0.68846   0.72320   0.75932
 Alpha virt. eigenvalues --    0.77537   0.82245   0.87338   0.88944   1.08535
 Alpha virt. eigenvalues --    1.11798   1.13795   1.15841   1.16739   1.18122
 Alpha virt. eigenvalues --    1.18975   1.19948   1.21258   1.22835   1.23085
 Alpha virt. eigenvalues --    1.23631   1.23947   1.24041   1.26208   1.27063
 Alpha virt. eigenvalues --    1.27636   1.30413   1.33129   1.34637   1.35891
 Alpha virt. eigenvalues --    1.37006   1.37736   1.38272   1.38454   1.39372
 Alpha virt. eigenvalues --    1.40771   1.41111   1.42286   1.44011   1.45498
 Alpha virt. eigenvalues --    1.45919   1.46514   1.47529   1.47940   1.49192
 Alpha virt. eigenvalues --    1.49474   1.52395   1.53457   1.55866   1.58098
 Alpha virt. eigenvalues --    1.60313   1.61802   1.62449   1.65444   1.70848
 Alpha virt. eigenvalues --    1.72461   1.73109   1.74197   1.74618   1.76287
 Alpha virt. eigenvalues --    1.78777   1.79916   1.80280   1.81344   1.81886
 Alpha virt. eigenvalues --    1.83347   1.85074   1.85419   1.87375   1.88584
 Alpha virt. eigenvalues --    1.91441   1.93632   1.94631   1.95316   1.96404
 Alpha virt. eigenvalues --    1.99341   2.03133   2.05410   2.07757   2.10763
 Alpha virt. eigenvalues --    2.14608   2.17518   2.18570   2.21165   2.21817
 Alpha virt. eigenvalues --    2.22766   2.23486   2.25008   2.28068   2.30345
 Alpha virt. eigenvalues --    2.32438   2.32718   2.34193   2.40279   2.43019
 Alpha virt. eigenvalues --    2.44582   2.46378   2.48049   2.48719   2.49161
 Alpha virt. eigenvalues --    2.51233   2.52781   2.53076   2.54122   2.55432
 Alpha virt. eigenvalues --    2.56919   2.58650   2.59188   2.59697   2.61628
 Alpha virt. eigenvalues --    2.63255   2.64536   2.65961   2.67184   2.70179
 Alpha virt. eigenvalues --    2.70931   2.74972   2.76498   2.77633   2.79193
 Alpha virt. eigenvalues --    2.87574   2.88965   2.90934   2.92089   2.99536
 Alpha virt. eigenvalues --    3.01439   3.03439   3.05036   3.06635   3.06729
 Alpha virt. eigenvalues --    3.07116   3.07407   3.10710   3.15172   3.16434
 Alpha virt. eigenvalues --    3.21585   3.26671   3.29056   3.31844   3.33446
 Alpha virt. eigenvalues --    3.34722   3.38637   3.43615   3.46246   3.76835
 Alpha virt. eigenvalues --    3.82837   4.01034   4.18108  21.11761  21.62403
 Alpha virt. eigenvalues --   21.65103  21.68594  21.81625  21.85744  21.86885
 Alpha virt. eigenvalues --   21.92408  22.00582  43.08965  43.12570
          Condensed to atoms (all electrons):
               1          2          3          4          5          6
     1  O    7.989420   0.622204  -0.134146  -0.116536  -0.016195  -0.001074
     2  C    0.622204   4.924252   0.318161   0.096005  -0.095457   0.007276
     3  O   -0.134146   0.318161   7.893401  -0.101356  -0.028324   0.009382
     4  C   -0.116536   0.096005  -0.101356   5.514542   0.254673  -0.070886
     5  C   -0.016195  -0.095457  -0.028324   0.254673   5.433547   0.151237
     6  C   -0.001074   0.007276   0.009382  -0.070886   0.151237   5.511353
     7  C    0.001079   0.013094   0.003963  -0.015219  -0.089525   0.333938
     8  C    0.000018   0.001091   0.002335  -0.002889   0.012826   0.005778
     9  C    0.000003   0.000227  -0.000635  -0.000304   0.001521  -0.100025
    10  C    0.000004  -0.000670  -0.000932   0.003064   0.014731   0.026836
    11  C   -0.000026  -0.005170   0.009730   0.000140  -0.074832   0.314313
    12  H    0.002697  -0.016081   0.285727   0.010953   0.001678  -0.000084
    13  H    0.007233  -0.050242   0.004811   0.411198  -0.037358   0.018200
    14  H    0.004347  -0.006682   0.006448   0.370501  -0.033685  -0.024462
    15  H   -0.000778   0.008071  -0.000656  -0.046019   0.422124  -0.033195
    16  H    0.006339   0.004033   0.001535  -0.033339   0.423541  -0.092915
    17  H    0.000257   0.001225   0.000028  -0.000741  -0.011523  -0.068043
    18  H   -0.000002  -0.000001   0.000148  -0.000023  -0.000883   0.016034
    19  H   -0.000000   0.000002  -0.000010   0.000000  -0.000029  -0.002515
    20  H    0.000000   0.000008   0.000004   0.000040  -0.000557   0.014427
    21  H    0.000005   0.000355   0.000511  -0.003559  -0.004678  -0.062693
               7          8          9         10         11         12
     1  O    0.001079   0.000018   0.000003   0.000004  -0.000026   0.002697
     2  C    0.013094   0.001091   0.000227  -0.000670  -0.005170  -0.016081
     3  O    0.003963   0.002335  -0.000635  -0.000932   0.009730   0.285727
     4  C   -0.015219  -0.002889  -0.000304   0.003064   0.000140   0.010953
     5  C   -0.089525   0.012826   0.001521   0.014731  -0.074832   0.001678
     6  C    0.333938   0.005778  -0.100025   0.026836   0.314313  -0.000084
     7  C    5.215645   0.358868   0.009076  -0.129451   0.041327   0.000494
     8  C    0.358868   5.124636   0.382094   0.007365  -0.109749  -0.000122
     9  C    0.009076   0.382094   5.151898   0.383023   0.002827  -0.000042
    10  C   -0.129451   0.007365   0.383023   5.115659   0.355876   0.000008
    11  C    0.041327  -0.109749   0.002827   0.355876   5.240276  -0.000139
    12  H    0.000494  -0.000122  -0.000042   0.000008  -0.000139   0.385167
    13  H   -0.000539   0.000091  -0.000018  -0.000030   0.000300  -0.000348
    14  H    0.003530   0.000103   0.000220  -0.000315   0.005027  -0.000522
    15  H    0.001767  -0.000765   0.000143   0.000375  -0.005708   0.000059
    16  H    0.011913   0.001830   0.000328  -0.000887   0.009856  -0.000229
    17  H    0.442935  -0.051646   0.014098  -0.003294   0.016913   0.000016
    18  H   -0.058798   0.440563  -0.063432   0.013481  -0.001197  -0.000000
    19  H    0.014937  -0.056983   0.437082  -0.057231   0.014331  -0.000000
    20  H   -0.001194   0.012653  -0.059261   0.438487  -0.057461  -0.000000
    21  H    0.015193  -0.002048   0.012480  -0.055577   0.442732  -0.000004
              13         14         15         16         17         18
     1  O    0.007233   0.004347  -0.000778   0.006339   0.000257  -0.000002
     2  C   -0.050242  -0.006682   0.008071   0.004033   0.001225  -0.000001
     3  O    0.004811   0.006448  -0.000656   0.001535   0.000028   0.000148
     4  C    0.411198   0.370501  -0.046019  -0.033339  -0.000741  -0.000023
     5  C   -0.037358  -0.033685   0.422124   0.423541  -0.011523  -0.000883
     6  C    0.018200  -0.024462  -0.033195  -0.092915  -0.068043   0.016034
     7  C   -0.000539   0.003530   0.001767   0.011913   0.442935  -0.058798
     8  C    0.000091   0.000103  -0.000765   0.001830  -0.051646   0.440563
     9  C   -0.000018   0.000220   0.000143   0.000328   0.014098  -0.063432
    10  C   -0.000030  -0.000315   0.000375  -0.000887  -0.003294   0.013481
    11  C    0.000300   0.005027  -0.005708   0.009856   0.016913  -0.001197
    12  H   -0.000348  -0.000522   0.000059  -0.000229   0.000016  -0.000000
    13  H    0.490037  -0.017179  -0.004003  -0.000431  -0.000040   0.000000
    14  H   -0.017179   0.508492  -0.005716   0.007226  -0.000042  -0.000003
    15  H   -0.004003  -0.005716   0.498341  -0.024221   0.000388   0.000019
    16  H   -0.000431   0.007226  -0.024221   0.514784   0.001054  -0.000054
    17  H   -0.000040  -0.000042   0.000388   0.001054   0.519014  -0.005773
    18  H    0.000000  -0.000003   0.000019  -0.000054  -0.005773   0.522395
    19  H   -0.000000   0.000001  -0.000001   0.000002  -0.000202  -0.006043
    20  H   -0.000001   0.000000  -0.000013   0.000008   0.000018  -0.000227
    21  H    0.000175   0.001111  -0.000328   0.000156  -0.000092   0.000029
              19         20         21
     1  O   -0.000000   0.000000   0.000005
     2  C    0.000002   0.000008   0.000355
     3  O   -0.000010   0.000004   0.000511
     4  C    0.000000   0.000040  -0.003559
     5  C   -0.000029  -0.000557  -0.004678
     6  C   -0.002515   0.014427  -0.062693
     7  C    0.014937  -0.001194   0.015193
     8  C   -0.056983   0.012653  -0.002048
     9  C    0.437082  -0.059261   0.012480
    10  C   -0.057231   0.438487  -0.055577
    11  C    0.014331  -0.057461   0.442732
    12  H   -0.000000  -0.000000  -0.000004
    13  H   -0.000000  -0.000001   0.000175
    14  H    0.000001   0.000000   0.001111
    15  H   -0.000001  -0.000013  -0.000328
    16  H    0.000002   0.000008   0.000156
    17  H   -0.000202   0.000018  -0.000092
    18  H   -0.006043  -0.000227   0.000029
    19  H    0.514415  -0.005786  -0.000214
    20  H   -0.005786   0.518886  -0.005501
    21  H   -0.000214  -0.005501   0.512075
 Mulliken charges:
               1
     1  O   -0.364848
     2  C    0.178297
     3  O   -0.270124
     4  C   -0.270243
     5  C   -0.322834
     6  C    0.047119
     7  C   -0.173032
     8  C   -0.126047
     9  C   -0.171303
    10  C   -0.110523
    11  C   -0.199366
    12  H    0.330772
    13  H    0.178143
    14  H    0.181598
    15  H    0.190116
    16  H    0.169470
    17  H    0.145451
    18  H    0.143767
    19  H    0.148246
    20  H    0.145471
    21  H    0.149872
 Sum of Mulliken charges =  -0.00000
 Mulliken charges with hydrogens summed into heavy atoms:
               1
     1  O   -0.364848
     2  C    0.178297
     3  O    0.060648
     4  C    0.089497
     5  C    0.036752
     6  C    0.047119
     7  C   -0.027581
     8  C    0.017720
     9  C   -0.023057
    10  C    0.034948
    11  C   -0.049494
 Electronic spatial extent (au):  <R**2>=           1932.2657
 Charge=             -0.0000 electrons
 Dipole moment (field-independent basis, Debye):
    X=             -2.1595    Y=              0.7451    Z=             -0.9116  Tot=              2.4596
 Quadrupole moment (field-independent basis, Debye-Ang):
   XX=            -77.1377   YY=            -55.1532   ZZ=            -63.1955
   XY=              4.1189   XZ=             -1.3746   YZ=             -0.2415
 Traceless Quadrupole moment (field-independent basis, Debye-Ang):
   XX=            -11.9755   YY=             10.0089   ZZ=              1.9666
   XY=              4.1189   XZ=             -1.3746   YZ=             -0.2415
 Octapole moment (field-independent basis, Debye-Ang**2):
  XXX=            -61.7008  YYY=            -15.8063  ZZZ=             -4.1482  XYY=             15.4147
  XXY=              1.8247  XXZ=            -25.5499  XZZ=             10.9810  YZZ=             -4.2002
  YYZ=             -7.8885  XYZ=             13.2503
 Hexadecapole moment (field-independent basis, Debye-Ang**3):
 XXXX=          -2052.6427 YYYY=           -396.8439 ZZZZ=           -290.9981 XXXY=             70.0961
 XXXZ=             -3.1100 YYYX=            -25.5858 YYYZ=             16.0298 ZZZX=             -0.8609
 ZZZY=              1.7462 XXYY=           -346.4398 XXZZ=           -342.7027 YYZZ=           -104.8014
 XXYZ=              6.8248 YYXZ=            -19.3886 ZZXY=            -14.0982
 N-N= 5.757938819184D+02 E-N=-2.317299203142D+03  KE= 4.977382385424D+02
 No NMR shielding tensors so no spin-rotation constants.
 Leave Link  601 at Mon Feb 22 21:29:13 2021, MaxMem=   104857600 cpu:               7.2 elap:               0.3
 (Enter /sw/arch/RedHatEnterpriseServer7/EB_production/2019/software/Gaussian/g16.c01/l701.exe)
 ... and contract with generalized density number  0.
 Compute integral first derivatives.
 R6Disp: Adding Grimme-D3 dispersion energy 1st derivatives to the gradient.
 PrsmSu:  requested number of processors reduced to:  29 ShMem   1 Linda.
 D1PCM: PCM CHGder 1st derivatives, ID1Alg=3 FixD1E=F DoIter=F DoCFld=F I1PDM=0.
 GePol: Maximum number of non-zero 1st derivatives   =     211
 CoulSu:  requested number of processors reduced to:  29 ShMem   1 Linda.
 CoulSu:  requested number of processors reduced to:  30 ShMem   1 Linda.
 Leave Link  701 at Mon Feb 22 21:29:14 2021, MaxMem=   104857600 cpu:              27.8 elap:               1.0
 (Enter /sw/arch/RedHatEnterpriseServer7/EB_production/2019/software/Gaussian/g16.c01/l702.exe)
 L702 exits ... SP integral derivatives will be done elsewhere.
 Leave Link  702 at Mon Feb 22 21:29:14 2021, MaxMem=   104857600 cpu:               0.6 elap:               0.0
 (Enter /sw/arch/RedHatEnterpriseServer7/EB_production/2019/software/Gaussian/g16.c01/l703.exe)
 Integral derivatives from FoFJK, PRISM(SPDF).
 Compute integral first derivatives, UseDBF=F ICtDFT=           0.
 Calling FoFJK, ICntrl=      2527 FMM=F ISym2X=0 I1Cent= 0 IOpClX= 0 NMat=1 NMatS=1 NMatT=0.
 FoFJK:  IHMeth= 1 ICntrl=    2527 DoSepK=F KAlg= 0 I1Cent=           0 FoldK=F
 IRaf=         0 NMat=       1 IRICut=       1 DoRegI=T DoRafI=F ISym2E= 0 IDoP0=0 IntGTp=1.
 FoFCou: FMM=F IPFlag=           0 FMFlag=      100000 FMFlg1=         800
         NFxFlg=           0 DoJE=F BraDBF=F KetDBF=F FulRan=T
         wScrn=  0.000000 ICntrl=      2527 IOpCl=  0 I1Cent=           0 NGrid=           0
         NMat0=    1 NMatS0=      1 NMatT0=    0 NMatD0=    1 NMtDS0=    0 NMtDT0=    0
 Symmetry not used in FoFCou.
 Leave Link  703 at Mon Feb 22 21:29:17 2021, MaxMem=   104857600 cpu:              73.3 elap:               2.4
 (Enter /sw/arch/RedHatEnterpriseServer7/EB_production/2019/software/Gaussian/g16.c01/l716.exe)
 Dipole        =-8.49631450D-01 2.93157426D-01-3.58634442D-01
 ***** Axes restored to original set *****
 -------------------------------------------------------------------
 Center     Atomic                   Forces (Hartrees/Bohr)
 Number     Number              X              Y              Z
 -------------------------------------------------------------------
      1        8           0.000907543    0.014191998    0.018106076
      2        6          -0.002605946   -0.035519440   -0.068872567
      3        8           0.004695543    0.022839570    0.033481393
      4        6          -0.000126268    0.010147198    0.017044238
      5        6           0.002127606   -0.003013637   -0.001243104
      6        6          -0.004228392    0.020092886   -0.001310010
      7        6           0.035069955    0.032032557    0.039372076
      8        6           0.039407622   -0.028300370    0.037000052
      9        6           0.005775456   -0.057684486   -0.002401261
     10        6          -0.033406206   -0.033789192   -0.038132942
     11        6          -0.039950170    0.027942118   -0.036697553
     12        1          -0.005014978   -0.017824537    0.001962823
     13        1           0.001064741   -0.002122100   -0.004975004
     14        1           0.002209949    0.004701828    0.004009174
     15        1           0.002783103   -0.004254367    0.004226087
     16        1          -0.002989530   -0.000513893   -0.002606843
     17        1          -0.030463941   -0.030453502   -0.034184535
     18        1          -0.035910891    0.024879432   -0.033596342
     19        1          -0.005067887    0.054903495    0.001674088
     20        1           0.030567534    0.027879163    0.034191212
     21        1           0.035155157   -0.026134718    0.032952944
 -------------------------------------------------------------------
 Cartesian Forces:  Max     0.068872567 RMS     0.026076528
 Leave Link  716 at Mon Feb 22 21:29:17 2021, MaxMem=   104857600 cpu:               0.9 elap:               0.1
 (Enter /sw/arch/RedHatEnterpriseServer7/EB_production/2019/software/Gaussian/g16.c01/l103.exe)

 GradGradGradGradGradGradGradGradGradGradGradGradGradGradGradGradGradGrad
 Berny optimization.
 FormGI is forming the generalized inverse of G from B-inverse, IUseBI=4.
 Internal  Forces:  Max     0.055162198 RMS     0.013718336
 Search for a local minimum.
 Step number   1 out of a maximum of  112
 All quantities printed in internal units (Hartrees-Bohrs-Radians)
 RMS Force = .13718D-01 SwitMx=.10000D-02 MixMth= 1
 Mixed Optimization -- RFO/linear search
 Second derivative matrix not updated -- first step.
 ITU=  0
     Eigenvalues ---    0.00230   0.00862   0.01061   0.01363   0.01466
     Eigenvalues ---    0.01887   0.01918   0.01933   0.01963   0.01986
     Eigenvalues ---    0.01999   0.02003   0.02010   0.02317   0.03864
     Eigenvalues ---    0.04092   0.05396   0.05435   0.09584   0.09728
     Eigenvalues ---    0.12950   0.13093   0.15999   0.16000   0.16000
     Eigenvalues ---    0.16000   0.16000   0.16000   0.21957   0.21972
     Eigenvalues ---    0.21999   0.21999   0.23466   0.24995   0.24999
     Eigenvalues ---    0.25000   0.27396   0.33154   0.34207   0.34353
     Eigenvalues ---    0.34355   0.34420   0.34835   0.40107   0.40149
     Eigenvalues ---    0.43312   0.43698   0.43760   0.43841   0.43928
     Eigenvalues ---    0.43942   0.43967   0.44266   0.44588   0.51231
     Eigenvalues ---    0.54439   0.82510
 RFO step:  Lambda=-4.54354791D-02 EMin= 2.30000000D-03
 Linear search not attempted -- first point.
 Maximum step size (   0.300) exceeded in Quadratic search.
    -- Step size scaled by   0.872
 Iteration  1 RMS(Cart)=  0.03883307 RMS(Int)=  0.00124012
 Iteration  2 RMS(Cart)=  0.00155250 RMS(Int)=  0.00002632
 Iteration  3 RMS(Cart)=  0.00000108 RMS(Int)=  0.00002632
 Iteration  4 RMS(Cart)=  0.00000000 RMS(Int)=  0.00002632
 ITry= 1 IFail=0 DXMaxC= 1.99D-01 DCOld= 1.00D+10 DXMaxT= 3.00D-01 DXLimC= 3.00D+00 Rises=F
 Variable       Old X    -DE/DX   Delta X   Delta X   Delta X     New X
                                 (Linear)    (Quad)   (Total)
    R1        2.36589  -0.02248   0.00000  -0.02253  -0.02253   2.34336
    R2        2.55634  -0.00828   0.00000  -0.01225  -0.01225   2.54409
    R3        2.79243   0.01243   0.00000   0.02753   0.02753   2.81996
    R4        1.85343  -0.00470   0.00000  -0.00734  -0.00734   1.84608
    R5        2.93478   0.00193   0.00000   0.00528   0.00528   2.94006
    R6        2.06736   0.00128   0.00000   0.00286   0.00286   2.07022
    R7        2.06739   0.00536   0.00000   0.01202   0.01202   2.07940
    R8        2.82083   0.01154   0.00000   0.02671   0.02671   2.84753
    R9        2.06627   0.00522   0.00000   0.01169   0.01169   2.07796
   R10        2.06982   0.00378   0.00000   0.00850   0.00850   2.07832
   R11        2.67521  -0.00878   0.00000  -0.01636  -0.01635   2.65885
   R12        2.67757  -0.00879   0.00000  -0.01652  -0.01651   2.66105
   R13        2.66056  -0.00522   0.00000  -0.00923  -0.00923   2.65133
   R14        1.93345   0.05494   0.00000   0.09906   0.09906   2.03251
   R15        2.65570  -0.00411   0.00000  -0.00691  -0.00692   2.64878
   R16        1.93241   0.05511   0.00000   0.09919   0.09919   2.03160
   R17        2.65815  -0.00381   0.00000  -0.00650  -0.00650   2.65165
   R18        1.93225   0.05516   0.00000   0.09926   0.09926   2.03151
   R19        2.66218  -0.00700   0.00000  -0.01260  -0.01260   2.64958
   R20        1.93517   0.05366   0.00000   0.09704   0.09704   2.03221
   R21        1.93442   0.05477   0.00000   0.09893   0.09893   2.03335
    A1        2.06591   0.02222   0.00000   0.06570   0.06564   2.13155
    A2        2.11205   0.01122   0.00000   0.03319   0.03313   2.14518
    A3        2.10513  -0.03342   0.00000  -0.09864  -0.09869   2.00644
    A4        2.08595  -0.03334   0.00000  -0.14158  -0.14158   1.94437
    A5        1.97580   0.00062   0.00000   0.00023   0.00023   1.97603
    A6        1.89674  -0.00438   0.00000  -0.02413  -0.02410   1.87265
    A7        1.90437   0.00226   0.00000   0.01038   0.01038   1.91475
    A8        1.88073   0.00368   0.00000   0.01898   0.01900   1.89973
    A9        1.93416  -0.00344   0.00000  -0.01562  -0.01560   1.91855
   A10        1.86852   0.00126   0.00000   0.01050   0.01059   1.87911
   A11        2.00240   0.00088   0.00000   0.00214   0.00215   2.00454
   A12        1.89478  -0.00389   0.00000  -0.02010  -0.02009   1.87469
   A13        1.88928   0.00067   0.00000   0.00211   0.00211   1.89139
   A14        1.89036   0.00278   0.00000   0.01563   0.01564   1.90600
   A15        1.93323  -0.00142   0.00000  -0.00572  -0.00572   1.92751
   A16        1.84720   0.00093   0.00000   0.00588   0.00586   1.85306
   A17        2.10810   0.00070   0.00000   0.00261   0.00261   2.11071
   A18        2.10907  -0.00202   0.00000  -0.00543  -0.00544   2.10363
   A19        2.06584   0.00133   0.00000   0.00293   0.00293   2.06877
   A20        2.10932   0.00011   0.00000   0.00007   0.00007   2.10938
   A21        2.10100  -0.00240   0.00000  -0.00999  -0.00999   2.09101
   A22        2.07287   0.00229   0.00000   0.00992   0.00992   2.08279
   A23        2.09589  -0.00028   0.00000  -0.00002  -0.00002   2.09587
   A24        2.09545  -0.00050   0.00000  -0.00272  -0.00271   2.09274
   A25        2.09184   0.00078   0.00000   0.00273   0.00274   2.09457
   A26        2.09161  -0.00169   0.00000  -0.00428  -0.00429   2.08732
   A27        2.09663   0.00079   0.00000   0.00192   0.00192   2.09855
   A28        2.09494   0.00090   0.00000   0.00237   0.00237   2.09732
   A29        2.09510   0.00040   0.00000   0.00176   0.00175   2.09686
   A30        2.08810   0.00100   0.00000   0.00422   0.00422   2.09233
   A31        2.09997  -0.00140   0.00000  -0.00598  -0.00598   2.09400
   A32        2.10833   0.00014   0.00000  -0.00030  -0.00030   2.10803
   A33        2.10205  -0.00212   0.00000  -0.00854  -0.00854   2.09351
   A34        2.07277   0.00198   0.00000   0.00887   0.00886   2.08163
    D1       -0.02581   0.00027   0.00000   0.00174   0.00161  -0.02419
    D2        3.10125   0.00157   0.00000   0.02171   0.02183   3.12309
    D3       -1.85247  -0.00030   0.00000   0.01076   0.01070  -1.84177
    D4        0.23638   0.00173   0.00000   0.01824   0.01823   0.25461
    D5        2.26817   0.00204   0.00000   0.02307   0.02302   2.29119
    D6        1.30404  -0.00172   0.00000  -0.00998  -0.00995   1.29409
    D7       -2.89029   0.00031   0.00000  -0.00250  -0.00243  -2.89272
    D8       -0.85850   0.00063   0.00000   0.00234   0.00236  -0.85614
    D9       -1.18235  -0.00041   0.00000  -0.00165  -0.00167  -1.18401
   D10        2.98376  -0.00169   0.00000  -0.00832  -0.00832   2.97543
   D11        0.98629  -0.00112   0.00000  -0.00597  -0.00599   0.98030
   D12        3.00284   0.00218   0.00000   0.01548   0.01547   3.01831
   D13        0.88576   0.00090   0.00000   0.00881   0.00881   0.89457
   D14       -1.11170   0.00147   0.00000   0.01115   0.01114  -1.10056
   D15        0.96381   0.00039   0.00000   0.00029   0.00031   0.96411
   D16       -1.15328  -0.00089   0.00000  -0.00638  -0.00635  -1.15963
   D17        3.13245  -0.00032   0.00000  -0.00403  -0.00402   3.12843
   D18        1.88572   0.00076   0.00000   0.00203   0.00204   1.88776
   D19       -1.27586   0.00127   0.00000   0.00919   0.00918  -1.26669
   D20       -2.27797  -0.00161   0.00000  -0.01084  -0.01083  -2.28880
   D21        0.84363  -0.00110   0.00000  -0.00368  -0.00369   0.83994
   D22       -0.25947   0.00034   0.00000   0.00216   0.00217  -0.25730
   D23        2.86213   0.00085   0.00000   0.00931   0.00931   2.87144
   D24        3.10379   0.00084   0.00000   0.01178   0.01179   3.11558
   D25       -0.03987   0.00074   0.00000   0.01055   0.01057  -0.02930
   D26       -0.01830   0.00038   0.00000   0.00489   0.00488  -0.01341
   D27        3.12123   0.00028   0.00000   0.00366   0.00367   3.12490
   D28       -3.10055  -0.00097   0.00000  -0.01338  -0.01336  -3.11391
   D29        0.03091  -0.00069   0.00000  -0.00971  -0.00972   0.02119
   D30        0.02153  -0.00048   0.00000  -0.00640  -0.00640   0.01513
   D31       -3.13020  -0.00020   0.00000  -0.00273  -0.00275  -3.13295
   D32       -0.00063   0.00003   0.00000   0.00068   0.00070   0.00007
   D33       -3.13996  -0.00005   0.00000  -0.00051  -0.00050  -3.14046
   D34       -3.14019   0.00013   0.00000   0.00191   0.00193  -3.13826
   D35        0.00367   0.00005   0.00000   0.00072   0.00073   0.00440
   D36        0.01675  -0.00038   0.00000  -0.00497  -0.00497   0.01178
   D37       -3.12712  -0.00018   0.00000  -0.00249  -0.00250  -3.12961
   D38       -3.12710  -0.00030   0.00000  -0.00379  -0.00377  -3.13087
   D39        0.01222  -0.00010   0.00000  -0.00131  -0.00130   0.01092
   D40       -0.01353   0.00027   0.00000   0.00346   0.00345  -0.01007
   D41        3.13094   0.00030   0.00000   0.00375   0.00374   3.13467
   D42        3.13034   0.00007   0.00000   0.00098   0.00098   3.13132
   D43       -0.00839   0.00010   0.00000   0.00127   0.00127  -0.00712
   D44       -0.00586   0.00019   0.00000   0.00234   0.00233  -0.00352
   D45       -3.13748  -0.00007   0.00000  -0.00117  -0.00119  -3.13867
   D46        3.13285   0.00016   0.00000   0.00207   0.00207   3.13491
   D47        0.00122  -0.00010   0.00000  -0.00144  -0.00146  -0.00024
         Item               Value     Threshold  Converged?
 Maximum Force            0.055162     0.000450     NO 
 RMS     Force            0.013718     0.000300     NO 
 Maximum Displacement     0.198582     0.001800     NO 
 RMS     Displacement     0.039192     0.001200     NO 
 Predicted change in Energy=-2.446438D-02
 Lowest energy point so far.  Saving SCF results.
 GradGradGradGradGradGradGradGradGradGradGradGradGradGradGradGradGradGrad

 Leave Link  103 at Mon Feb 22 21:29:17 2021, MaxMem=   104857600 cpu:               4.0 elap:               0.2
 (Enter /sw/arch/RedHatEnterpriseServer7/EB_production/2019/software/Gaussian/g16.c01/l202.exe)
                          Input orientation:                          
 ---------------------------------------------------------------------
 Center     Atomic      Atomic             Coordinates (Angstroms)
 Number     Number       Type             X           Y           Z
 ---------------------------------------------------------------------
      1          8           0        0.649250   -1.639569   -2.521924
      2          6           0        0.831887   -0.739905   -1.688269
      3          8           0        1.105590    0.527403   -2.050865
      4          6           0        0.758896   -0.971852   -0.215955
      5          6           0       -0.537939   -0.405540    0.430628
      6          6           0       -0.638922    1.097914    0.435105
      7          6           0       -1.543921    1.764567   -0.411188
      8          6           0       -1.658718    3.162612   -0.383579
      9          6           0       -0.866676    3.915439    0.494267
     10          6           0        0.049852    3.263290    1.333094
     11          6           0        0.162986    1.866134    1.300969
     12          1           0        1.157545    0.616986   -3.022266
     13          1           0        0.790748   -2.054997   -0.054919
     14          1           0        1.642981   -0.535474    0.272706
     15          1           0       -0.577301   -0.773813    1.465986
     16          1           0       -1.403450   -0.847053   -0.084659
     17          1           0       -2.155349    1.198993   -1.091711
     18          1           0       -2.356037    3.656148   -1.036231
     19          1           0       -0.960476    4.985916    0.525303
     20          1           0        0.664373    3.836859    2.003817
     21          1           0        0.868481    1.380364    1.952190
 ---------------------------------------------------------------------
                    Distance matrix (angstroms):
                    1          2          3          4          5
     1  O    0.000000
     2  C    1.240054   0.000000
     3  O    2.264048   1.346276   0.000000
     4  C    2.403198   1.492258   2.394756   0.000000
     5  C    3.413182   2.545182   3.119196   1.555815   0.000000
     6  C    4.230511   3.170107   3.090122   2.581029   1.506849
     7  C    4.566547   3.680732   3.352465   3.581769   2.535749
     8  C    5.741096   4.809883   4.167201   4.792364   3.827635
     9  C    6.500274   5.414869   4.674004   5.199280   4.333934
    10  C    6.265658   5.076001   4.477816   4.564945   3.823645
    11  C    5.209695   4.021743   3.730348   3.272665   2.531659
    12  H    2.366590   1.930481   0.976906   3.249417   3.980290
    13  H    2.505737   2.097377   3.278981   1.095514   2.172987
    14  H    3.164883   2.131921   2.611030   1.100373   2.190487
    15  H    4.261149   3.454893   4.110173   2.157213   1.099609
    16  H    3.283583   2.753139   3.471365   2.169920   1.099801
    17  H    4.238953   3.610926   3.464784   3.737959   2.740083
    18  H    6.267667   5.469305   4.775080   5.638621   4.685560
    19  H    7.468190   6.395115   5.548297   6.245054   5.408817
    20  H    7.104494   5.882714   5.252391   5.297171   4.681712
    21  H    5.402385   4.213054   4.099782   3.200904   2.735438
                    6          7          8          9         10
     6  C    0.000000
     7  C    1.407004   0.000000
     8  C    2.444014   1.403022   0.000000
     9  C    2.827334   2.429971   1.401675   0.000000
    10  C    2.443286   2.798000   2.424111   1.403194   0.000000
    11  C    1.408169   2.419779   2.799493   2.431177   1.402097
    12  H    3.925813   3.928434   4.623226   5.229079   5.215273
    13  H    3.496417   4.490733   5.773331   6.220512   5.546141
    14  H    2.810945   3.989266   5.000777   5.114498   4.253597
    15  H    2.137727   3.301743   4.481718   4.797610   4.087687
    16  H    2.153498   2.635700   4.028887   4.827485   4.584434
    17  H    2.154282   1.075560   2.145668   3.399277   3.873488
    18  H    3.414363   2.151346   1.075075   2.151245   3.399462
    19  H    3.902318   3.405071   2.153612   1.075027   2.154235
    20  H    3.414858   3.873397   3.398679   2.151517   1.075400
    21  H    2.157218   3.398948   3.875430   3.400428   2.144491
                   11         12         13         14         15
    11  C    0.000000
    12  H    4.608675   0.000000
    13  H    4.196164   4.009886   0.000000
    14  H    3.002571   3.524295   1.772734   0.000000
    15  H    2.746739   5.008835   2.413740   2.531871   0.000000
    16  H    3.425649   4.163129   2.504899   3.083104   1.758518
    17  H    3.397745   3.878279   4.510308   4.392871   3.594998
    18  H    3.874549   5.052336   6.594119   5.939289   5.389763
    19  H    3.405417   6.013219   7.278592   6.109627   5.848605
    20  H    2.151543   5.989350   6.242462   4.803303   4.805134
    21  H    1.076004   5.040984   3.979477   2.662885   2.639538
                   16         17         18         19         20
    16  H    0.000000
    17  H    2.401210   0.000000
    18  H    4.700184   2.465961   0.000000
    19  H    5.881480   4.287567   2.480778   0.000000
    20  H    5.529616   4.948884   4.289222   2.479208   0.000000
    21  H    3.777805   4.294389   4.950492   4.287318   2.465500
                   21
    21  H    0.000000
 Stoichiometry    C9H10O2
 Framework group  C1[X(C9H10O2)]
 Deg. of freedom    57
 Full point group                 C1      NOp   1
 RotChk:  IX=0 Diff= 3.83D-02
 Largest Abelian subgroup         C1      NOp   1
 Largest concise Abelian subgroup C1      NOp   1
                         Standard orientation:                         
 ---------------------------------------------------------------------
 Center     Atomic      Atomic             Coordinates (Angstroms)
 Number     Number       Type             X           Y           Z
 ---------------------------------------------------------------------
      1          8           0        3.430467   -0.710699    0.125256
      2          6           0        2.353525   -0.287938   -0.321065
      3          8           0        1.535456   -1.056496   -1.064395
      4          6           0        1.861482    1.098830   -0.072865
      5          6           0        0.703089    1.162287    0.963793
      6          6           0       -0.591972    0.543506    0.504966
      7          6           0       -1.042422   -0.675284    1.044691
      8          6           0       -2.263568   -1.234420    0.638933
      9          6           0       -3.053492   -0.579411   -0.315885
     10          6           0       -2.608376    0.629483   -0.872122
[...]
 Iteration    1 A^-1*A deviation from unit magnitude is 3.44D-15 for   1268.
 Iteration    1 A^-1*A deviation from orthogonality  is 2.04D-15 for    785    246.
 Error on nuclear    polarization charges =  0.02079
 Error on electronic polarization charges = -0.05195
 SCF Done:  E(RB-P86) =  -499.633444277     A.U. after   11 cycles
            NFock= 11  Conv=0.40D-08     -V/T= 2.0046
 --------------------------------------------------------------------
 Variational C-PCM results
 =========================
 <psi(f)|   H    |psi(f)>                     (a.u.) =    -499.615777
 <psi(f)|H+V(f)/2|psi(f)>                     (a.u.) =    -499.633444
 Total free energy in solution:
 - with all non electrostatic terms           (a.u.) =    -499.619622
 --------------------------------------------------------------------
 (Polarized solute)-Solvent               (kcal/mol) =     -11.09
 --------------------------------------------------------------------
 Cavitation energy                        (kcal/mol) =      25.00
 Dispersion energy                        (kcal/mol) =     -17.78
 Repulsion energy                         (kcal/mol) =       1.46
 Total non electrostatic                  (kcal/mol) =       8.67
 --------------------------------------------------------------------
 Partition over spheres:
 Sphere  on Atom  Surface  Charge   GEl     GCav    GDR
    1      O1      18.28   0.228   -3.37    2.27   -1.41
    2      C2       9.16  -0.027   -0.12    1.08   -0.41
    3      O3      15.94   0.094   -0.82    1.98   -1.47
    4      C4       9.17  -0.025   -0.17    1.08   -0.47
    5      C5       8.45  -0.005   -0.06    0.99   -0.55
    6      C6       4.33   0.018   -0.13    0.51   -0.20
    7      C7      11.43   0.039   -0.36    1.34   -0.60
    8      C8      13.99   0.042   -0.37    1.64   -1.04
    9      C9      14.07   0.043   -0.35    1.65   -1.03
   10      C10     14.00   0.042   -0.31    1.64   -1.04
   11      C11     12.64   0.038   -0.25    1.48   -0.74
   12      H12      8.47  -0.150   -2.59    1.19   -0.91
   13      H13      6.58  -0.047   -0.53    0.93   -0.87
   14      H14      6.36  -0.041   -0.30    0.90   -0.53
   15      H15      6.54  -0.033   -0.30    0.92   -0.76
   16      H16      6.25  -0.027   -0.05    0.88   -0.60
   17      H17      6.05  -0.032    0.04    0.85   -0.53
   18      H18      6.45  -0.039   -0.19    0.91   -0.82
   19      H19      6.44  -0.039   -0.24    0.91   -0.80
   20      H20      6.44  -0.040   -0.28    0.91   -0.81
   21      H21      6.46  -0.038   -0.37    0.91   -0.71
 --------------------------------------------------------------------
 - cavitation energy not included in the total energy.
 - dispersion energy not included in the total energy.
 - repulsion  energy not included in the total energy.
 After PCM corrections, the energy is  -499.633444277     a.u.
 --------------------------------------------------------------------
 Writing COSMO formatted file "XMIIGOLPHOKFCH-UHFFFAOYSA-N.cosmo"
 Recomputed dielectric energy= -0.017744 old= -0.017667 diff=-7.71D-05

 **********************************************************************

            Population analysis using the SCF Density.

 **********************************************************************

 Orbital symmetries:
       Occupied  (A) (A) (A) (A) (A) (A) (A) (A) (A) (A) (A) (A)
                 (A) (A) (A) (A) (A) (A) (A) (A) (A) (A) (A) (A)
                 (A) (A) (A) (A) (A) (A) (A) (A) (A) (A) (A) (A)
                 (A) (A) (A) (A)
       Virtual   (A) (A) (A) (A) (A) (A) (A) (A) (A) (A) (A) (A)
                 (A) (A) (A) (A) (A) (A) (A) (A) (A) (A) (A) (A)
                 (A) (A) (A) (A) (A) (A) (A) (A) (A) (A) (A) (A)
                 (A) (A) (A) (A) (A) (A) (A) (A) (A) (A) (A) (A)
                 (A) (A) (A) (A) (A) (A) (A) (A) (A) (A) (A) (A)
                 (A) (A) (A) (A) (A) (A) (A) (A) (A) (A) (A) (A)
                 (A) (A) (A) (A) (A) (A) (A) (A) (A) (A) (A) (A)
                 (A) (A) (A) (A) (A) (A) (A) (A) (A) (A) (A) (A)
                 (A) (A) (A) (A) (A) (A) (A) (A) (A) (A) (A) (A)
                 (A) (A) (A) (A) (A) (A) (A) (A) (A) (A) (A) (A)
                 (A) (A) (A) (A) (A) (A) (A) (A) (A) (A) (A) (A)
                 (A) (A) (A) (A) (A) (A) (A) (A) (A) (A) (A) (A)
                 (A) (A) (A) (A) (A) (A) (A) (A) (A) (A) (A) (A)
                 (A) (A) (A) (A) (A) (A) (A) (A) (A) (A) (A) (A)
                 (A) (A) (A) (A) (A) (A) (A) (A) (A) (A) (A) (A)
                 (A) (A) (A) (A) (A) (A) (A) (A) (A) (A) (A) (A)
                 (A) (A) (A) (A) (A) (A) (A) (A) (A) (A) (A) (A)
                 (A) (A) (A) (A) (A) (A) (A) (A) (A) (A) (A) (A)
                 (A) (A) (A) (A) (A) (A) (A) (A) (A) (A) (A) (A)
                 (A)
 The electronic state is 1-A.
 Alpha  occ. eigenvalues --  -18.82143 -18.77036 -10.03356  -9.91536  -9.91243
 Alpha  occ. eigenvalues --   -9.90595  -9.90341  -9.90315  -9.90211  -9.90180
 Alpha  occ. eigenvalues --   -9.90122  -1.02274  -0.94055  -0.78621  -0.73178
 Alpha  occ. eigenvalues --   -0.67842  -0.67786  -0.61256  -0.55038  -0.54790
 Alpha  occ. eigenvalues --   -0.51753  -0.46288  -0.45657  -0.43769  -0.43199
 Alpha  occ. eigenvalues --   -0.40997  -0.40455  -0.37723  -0.37440  -0.36793
 Alpha  occ. eigenvalues --   -0.35670  -0.33685  -0.32524  -0.32318  -0.29768
 Alpha  occ. eigenvalues --   -0.29747  -0.29223  -0.24928  -0.23495  -0.22786
 Alpha virt. eigenvalues --   -0.05084  -0.04622  -0.04569   0.02749   0.03997
 Alpha virt. eigenvalues --    0.05269   0.06279   0.07778   0.08542   0.09182
 Alpha virt. eigenvalues --    0.09586   0.10288   0.11132   0.11892   0.12750
 Alpha virt. eigenvalues --    0.14269   0.15308   0.15809   0.17050   0.17478
 Alpha virt. eigenvalues --    0.18412   0.19750   0.20177   0.21148   0.22001
 Alpha virt. eigenvalues --    0.22268   0.22713   0.24480   0.25038   0.26451
 Alpha virt. eigenvalues --    0.27579   0.28307   0.29328   0.29712   0.30999
 Alpha virt. eigenvalues --    0.31795   0.32273   0.33172   0.33930   0.34529
 Alpha virt. eigenvalues --    0.35828   0.36461   0.37508   0.38607   0.39457
 Alpha virt. eigenvalues --    0.39631   0.39822   0.40812   0.41037   0.41670
 Alpha virt. eigenvalues --    0.42744   0.43538   0.44458   0.45753   0.46526
 Alpha virt. eigenvalues --    0.46991   0.47544   0.48833   0.48910   0.50045
 Alpha virt. eigenvalues --    0.50215   0.51748   0.54158   0.54897   0.57218
 Alpha virt. eigenvalues --    0.59094   0.60524   0.61540   0.62877   0.63691
 Alpha virt. eigenvalues --    0.65645   0.65786   0.70061   0.71874   0.73407
 Alpha virt. eigenvalues --    0.76704   0.80347   0.86771   0.88481   1.07129
 Alpha virt. eigenvalues --    1.12001   1.13828   1.16059   1.16561   1.18761
 Alpha virt. eigenvalues --    1.19563   1.20130   1.21134   1.22733   1.23835
 Alpha virt. eigenvalues --    1.24568   1.24944   1.25512   1.25660   1.28800
 Alpha virt. eigenvalues --    1.29276   1.30649   1.32095   1.33375   1.35389
 Alpha virt. eigenvalues --    1.36626   1.37718   1.37921   1.38379   1.39333
 Alpha virt. eigenvalues --    1.41002   1.41711   1.43157   1.44531   1.45004
 Alpha virt. eigenvalues --    1.45445   1.46024   1.46732   1.47692   1.49748
 Alpha virt. eigenvalues --    1.50624   1.51394   1.54954   1.56205   1.57393
 Alpha virt. eigenvalues --    1.59489   1.60992   1.64583   1.65846   1.69559
 Alpha virt. eigenvalues --    1.70086   1.70800   1.72271   1.73058   1.73845
 Alpha virt. eigenvalues --    1.76971   1.77742   1.79655   1.80323   1.80941
 Alpha virt. eigenvalues --    1.81828   1.83382   1.84190   1.84854   1.85952
 Alpha virt. eigenvalues --    1.90092   1.90893   1.93804   1.94261   1.94618
 Alpha virt. eigenvalues --    1.95415   2.03061   2.04839   2.07083   2.11983
 Alpha virt. eigenvalues --    2.13279   2.15812   2.18605   2.20284   2.22591
 Alpha virt. eigenvalues --    2.23597   2.24478   2.26230   2.26883   2.28333
 Alpha virt. eigenvalues --    2.29737   2.32179   2.37554   2.39358   2.40533
 Alpha virt. eigenvalues --    2.40768   2.42900   2.45336   2.46787   2.47273
 Alpha virt. eigenvalues --    2.49946   2.50825   2.53058   2.53787   2.54742
 Alpha virt. eigenvalues --    2.56282   2.56792   2.58303   2.59612   2.60923
 Alpha virt. eigenvalues --    2.62326   2.62656   2.63158   2.66503   2.70216
 Alpha virt. eigenvalues --    2.70885   2.72964   2.75227   2.79276   2.79880
 Alpha virt. eigenvalues --    2.82603   2.85863   2.89898   2.93218   2.95797
 Alpha virt. eigenvalues --    2.98427   2.99346   3.02023   3.04696   3.05081
 Alpha virt. eigenvalues --    3.06752   3.09643   3.11013   3.11468   3.17196
 Alpha virt. eigenvalues --    3.19342   3.21902   3.27596   3.28418   3.29974
 Alpha virt. eigenvalues --    3.33082   3.36600   3.41785   3.44633   3.68235
 Alpha virt. eigenvalues --    3.80720   4.08600   4.17942  21.05791  21.57858
 Alpha virt. eigenvalues --   21.58817  21.72284  21.77362  21.82706  21.86068
 Alpha virt. eigenvalues --   21.88302  21.98715  43.06412  43.17487
          Condensed to atoms (all electrons):
               1          2          3          4          5          6
     1  O    7.974967   0.582722  -0.105195  -0.133594   0.027847  -0.022823
     2  C    0.582722   4.937225   0.343973  -0.005911   0.009333  -0.004637
     3  O   -0.105195   0.343973   7.891009  -0.146676   0.005974  -0.002555
     4  C   -0.133594  -0.005911  -0.146676   5.778133   0.160558  -0.067411
     5  C    0.027847   0.009333   0.005974   0.160558   5.330559   0.164385
     6  C   -0.022823  -0.004637  -0.002555  -0.067411   0.164385   5.594812
     7  C    0.006790   0.024026   0.000271  -0.039241  -0.054300   0.225800
     8  C   -0.004124  -0.003383   0.000468   0.003816   0.006906   0.074932
     9  C    0.000481   0.001219  -0.000005  -0.002293   0.003284  -0.137905
    10  C   -0.000397  -0.002361  -0.000111   0.005073   0.012613   0.063092
    11  C    0.001114  -0.004838   0.000286  -0.001098  -0.061759   0.306011
    12  H    0.001799  -0.018251   0.284645   0.015772  -0.001296   0.000328
    13  H   -0.000751  -0.010472   0.001462   0.368615  -0.024888   0.015780
    14  H    0.005164  -0.035631   0.010003   0.410559  -0.052618  -0.012315
    15  H    0.000849   0.015730  -0.000071  -0.058389   0.422493  -0.040368
    16  H    0.006694  -0.029245   0.000626   0.004195   0.398995  -0.069113
    17  H    0.011830  -0.000375   0.000300  -0.002519  -0.010408  -0.072842
    18  H   -0.000110  -0.000023   0.000001   0.000060  -0.000848   0.018413
    19  H    0.000002   0.000008  -0.000000  -0.000013  -0.000010  -0.005032
    20  H   -0.000001  -0.000032  -0.000001   0.000102  -0.000579   0.016522
    21  H    0.000017   0.000505   0.000023  -0.003823  -0.004407  -0.063231
               7          8          9         10         11         12
     1  O    0.006790  -0.004124   0.000481  -0.000397   0.001114   0.001799
     2  C    0.024026  -0.003383   0.001219  -0.002361  -0.004838  -0.018251
     3  O    0.000271   0.000468  -0.000005  -0.000111   0.000286   0.284645
     4  C   -0.039241   0.003816  -0.002293   0.005073  -0.001098   0.015772
     5  C   -0.054300   0.006906   0.003284   0.012613  -0.061759  -0.001296
     6  C    0.225800   0.074932  -0.137905   0.063092   0.306011   0.000328
     7  C    5.370721   0.264992   0.050950  -0.170366   0.046017   0.000020
     8  C    0.264992   5.236773   0.328237   0.049100  -0.144881   0.000002
     9  C    0.050950   0.328237   5.220085   0.322588   0.030913  -0.000011
    10  C   -0.170366   0.049100   0.322588   5.216269   0.311491   0.000003
    11  C    0.046017  -0.144881   0.030913   0.311491   5.275169   0.000003
    12  H    0.000020   0.000002  -0.000011   0.000003   0.000003   0.387484
    13  H   -0.000652   0.000025  -0.000016  -0.000022   0.000012  -0.000529
    14  H    0.003603   0.000093   0.000190  -0.000403   0.005550  -0.000388
    15  H    0.008932  -0.001412   0.000366  -0.000467  -0.004095   0.000031
    16  H    0.002442   0.001753   0.000134  -0.000889   0.009497  -0.000011
    17  H    0.436294  -0.051936   0.014870  -0.004249   0.016479   0.000007
    18  H   -0.060466   0.435389  -0.063745   0.015317  -0.002863   0.000001
    19  H    0.018721  -0.063187   0.438555  -0.063622   0.017280  -0.000000
    20  H   -0.003099   0.014787  -0.062111   0.435341  -0.060034   0.000000
    21  H    0.017588  -0.004208   0.014623  -0.057945   0.435067   0.000001
              13         14         15         16         17         18
     1  O   -0.000751   0.005164   0.000849   0.006694   0.011830  -0.000110
     2  C   -0.010472  -0.035631   0.015730  -0.029245  -0.000375  -0.000023
     3  O    0.001462   0.010003  -0.000071   0.000626   0.000300   0.000001
     4  C    0.368615   0.410559  -0.058389   0.004195  -0.002519   0.000060
     5  C   -0.024888  -0.052618   0.422493   0.398995  -0.010408  -0.000848
     6  C    0.015780  -0.012315  -0.040368  -0.069113  -0.072842   0.018413
     7  C   -0.000652   0.003603   0.008932   0.002442   0.436294  -0.060466
     8  C    0.000025   0.000093  -0.001412   0.001753  -0.051936   0.435389
     9  C   -0.000016   0.000190   0.000366   0.000134   0.014870  -0.063745
    10  C   -0.000022  -0.000403  -0.000467  -0.000889  -0.004249   0.015317
    11  C    0.000012   0.005550  -0.004095   0.009497   0.016479  -0.002863
    12  H   -0.000529  -0.000388   0.000031  -0.000011   0.000007   0.000001
    13  H    0.461956  -0.012027  -0.003875  -0.000482  -0.000009  -0.000000
    14  H   -0.012027   0.491481  -0.000858   0.006025  -0.000006  -0.000000
    15  H   -0.003875  -0.000858   0.501018  -0.020737   0.000528   0.000012
    16  H   -0.000482   0.006025  -0.020737   0.516651   0.002241  -0.000032
    17  H   -0.000009  -0.000006   0.000528   0.002241   0.524462  -0.006583
    18  H   -0.000000  -0.000000   0.000012  -0.000032  -0.006583   0.527416
    19  H    0.000000  -0.000001   0.000001  -0.000001  -0.000136  -0.007091
    20  H   -0.000001   0.000002  -0.000023   0.000011   0.000018  -0.000180
    21  H   -0.000017   0.001589   0.001682   0.000279  -0.000081   0.000018
              19         20         21
     1  O    0.000002  -0.000001   0.000017
     2  C    0.000008  -0.000032   0.000505
     3  O   -0.000000  -0.000001   0.000023
     4  C   -0.000013   0.000102  -0.003823
     5  C   -0.000010  -0.000579  -0.004407
     6  C   -0.005032   0.016522  -0.063231
     7  C    0.018721  -0.003099   0.017588
     8  C   -0.063187   0.014787  -0.004208
     9  C    0.438555  -0.062111   0.014623
    10  C   -0.063622   0.435341  -0.057945
    11  C    0.017280  -0.060034   0.435067
    12  H   -0.000000   0.000000   0.000001
    13  H    0.000000  -0.000001  -0.000017
    14  H   -0.000001   0.000002   0.001589
    15  H    0.000001  -0.000023   0.001682
    16  H   -0.000001   0.000011   0.000279
    17  H   -0.000136   0.000018  -0.000081
    18  H   -0.007091  -0.000180   0.000018
    19  H    0.523065  -0.006874  -0.000148
    20  H   -0.006874   0.525958  -0.006502
    21  H   -0.000148  -0.006502   0.521621
 Mulliken charges:
               1
     1  O   -0.353281
     2  C    0.200420
     3  O   -0.284424
     4  C   -0.285916
     5  C   -0.331833
     6  C    0.018157
     7  C   -0.149043
     8  C   -0.144143
     9  C   -0.160408
    10  C   -0.130057
    11  C   -0.175320
    12  H    0.330391
    13  H    0.205891
    14  H    0.179990
    15  H    0.178652
    16  H    0.170967
    17  H    0.142115
    18  H    0.145315
    19  H    0.148485
    20  H    0.146694
    21  H    0.147349
 Sum of Mulliken charges =  -0.00000
 Mulliken charges with hydrogens summed into heavy atoms:
               1
     1  O   -0.353281
     2  C    0.200420
     3  O    0.045968
     4  C    0.099965
     5  C    0.017786
     6  C    0.018157
     7  C   -0.006927
     8  C    0.001172
     9  C   -0.011923
    10  C    0.016636
    11  C   -0.027972
 Electronic spatial extent (au):  <R**2>=           1918.1361
 Charge=             -0.0000 electrons
 Dipole moment (field-independent basis, Debye):
    X=              0.5339    Y=              1.8191    Z=             -1.3347  Tot=              2.3186
 Quadrupole moment (field-independent basis, Debye-Ang):
   XX=            -60.3687   YY=            -59.2696   ZZ=            -66.3520
   XY=              2.8931   XZ=             -0.4699   YZ=              3.5529
 Traceless Quadrupole moment (field-independent basis, Debye-Ang):
   XX=              1.6281   YY=              2.7272   ZZ=             -4.3552
   XY=              2.8931   XZ=             -0.4699   YZ=              3.5529
 Octapole moment (field-independent basis, Debye-Ang**2):
  XXX=             29.7295  YYY=              0.4858  ZZZ=             -3.9160  XYY=              5.2102
  XXY=             -8.2345  XXZ=            -28.7457  XZZ=             10.7378  YZZ=             -4.2914
  YYZ=             -7.5683  XYZ=             19.2672
 Hexadecapole moment (field-independent basis, Debye-Ang**3):
 XXXX=          -1625.0472 YYYY=           -455.3012 ZZZZ=           -332.8923 XXXY=            -14.1623
 XXXZ=              0.2899 YYYX=              1.0356 YYYZ=              4.4915 ZZZX=            -12.5187
 ZZZY=             10.1801 XXYY=           -333.4665 XXZZ=           -335.6652 YYZZ=           -124.0183
 XXYZ=             42.7543 YYXZ=            -20.2789 ZZXY=            -23.3465
 N-N= 5.746362562595D+02 E-N=-2.314872359567D+03  KE= 4.973274790346D+02
 Unable to Open any file for archive entry.
 1\1\GINC-TCN1717\SP\RBP86\TZVP\C9H10O2\ELENAA\22-Feb-2021\0\\# BP86/TZ
 VP SCRF=COSMORS geom=CHECKPOINT guess=CHECKPOINT\\COSMO-file for #XMII
 GOLPHOKFCH-UHFFFAOYSA-N\\0,1\O,0,-0.3483522085,-0.6202189944,-2.427481
 5103\C,0,0.6799881345,-0.5585989572,-1.7716203943\O,0,1.8906993524,-0.
 2709267105,-2.3272295701\C,0,0.7895646219,-0.8184367325,-0.2841847497\
 C,0,-0.4791446958,-0.4064883908,0.4878353726\C,0,-0.671376738,1.095539
 8829,0.5168709213\C,0,-1.5383180522,1.734230299,-0.3857795023\C,0,-1.6
 808020493,3.1275470729,-0.3797600082\C,0,-0.9556123746,3.9050717364,0.
 5313307291\C,0,-0.0875794357,3.279683855,1.4364316906\C,0,0.0518046388
 ,1.8874493669,1.4268365029\H,0,1.7536110948,-0.1620024424,-3.293597271
 1\H,0,0.9640441401,-1.9028907803,-0.1731577317\H,0,1.6805474027,-0.311
 602193,0.1128311019\H,0,-0.39244538,-0.7921930415,1.5151401963\H,0,-1.
 3520877971,-0.8919476754,0.0269468826\H,0,-2.0984617101,1.129535223,-1
 .102698026\H,0,-2.3614562997,3.6064215745,-1.087553871\H,0,-1.06751237
 62,4.991484409,0.5387457707\H,0,0.4785147088,3.8777489643,2.1543054385
 \H,0,0.7281750232,1.4050135341,2.138288028\\Version=ES64L-G16RevC.01\S
 tate=1-A\HF=-499.6334443\RMSD=3.977e-09\Dipole=0.8047159,-0.174737,0.3
 924428\Quadrupole=-2.9044111,2.2056699,0.6987412,-2.7791343,-0.6881485
 ,-2.1598954\PG=C01 [X(C9H10O2)]\\@
 The archive entry for this job was punched.


 I MET A TRAVELLER FROM AN ANTIQUE LAND
 WHO SAID... TWO VAST AND TRUNKLESS LEGS OF STONE
 STAND IN THE DESERT..... NEAR THEM,  ON THE SAND,
 HALF SUNK,  A SHATTERED VISAGE LIES,  WHOSE FROWN,
 AND WRINKLED LIP,  AND SNEER OF COLD COMMAND
 TELL THAT ITS SCULPTOR WELL THOSE PASSIONS READ
 WHICH YET SURVIVE,  STAMPED ON THESE LIFELESS THINGS
 THE HAND THAT MOCKED THEM,  AND THE HEART THAT FED-
 AND ON THE PEDESTAL THESE WORDS APPEAR 
 MY NAME IS OZYMANDIAS, KING OF KINGS--   
 LOOK ON MY WORKS YE MIGHTY AND DESPAIR. 
 NOTHING BESIDE REMAINS,  ROUND THE DECAY 
 OF THAT COLOSSAL WRECK,  BOUNDLESS AND BARE
 THE LONE AND LEVEL SANDS STRETCH FAR AWAY.
                                    SHELLEY
 Job cpu time:       0 days  0 hours  7 minutes  7.1 seconds.
 Elapsed time:       0 days  0 hours  0 minutes 14.0 seconds.
 File lengths (MBytes):  RWF=     60 Int=      0 D2E=      0 Chk=     10 Scr=      1
 Normal termination of Gaussian 16 at Mon Feb 22 21:35:41 2021.
