 Entering Gaussian System, Link 0=g16
 Input=XSQUKJJJFZCRTK-UHFFFAOYSA-N.gjf
 Output=XSQUKJJJFZCRTK-UHFFFAOYSA-N.log
 Initial command:
 /sw/arch/RedHatEnterpriseServer7/EB_production/2019/software/Gaussian/g16.c01/l1.exe "/scratch-local/elenaa.9715301/Gau-21918.inp" -scrdir="/scratch-local/elenaa.9715301/"
 Entering Link 1 = /sw/arch/RedHatEnterpriseServer7/EB_production/2019/software/Gaussian/g16.c01/l1.exe PID=     21919.
  
 Copyright (c) 1988-2019, Gaussian, Inc.  All Rights Reserved.
  
 This is part of the Gaussian(R) 16 program.  It is based on
 the Gaussian(R) 09 system (copyright 2009, Gaussian, Inc.),
 the Gaussian(R) 03 system (copyright 2003, Gaussian, Inc.),
 the Gaussian(R) 98 system (copyright 1998, Gaussian, Inc.),
 the Gaussian(R) 94 system (copyright 1995, Gaussian, Inc.),
 the Gaussian 92(TM) system (copyright 1992, Gaussian, Inc.),
 the Gaussian 90(TM) system (copyright 1990, Gaussian, Inc.),
 the Gaussian 88(TM) system (copyright 1988, Gaussian, Inc.),
 the Gaussian 86(TM) system (copyright 1986, Carnegie Mellon
 University), and the Gaussian 82(TM) system (copyright 1983,
 Carnegie Mellon University). Gaussian is a federally registered
 trademark of Gaussian, Inc.
  
 This software contains proprietary and confidential information,
 including trade secrets, belonging to Gaussian, Inc.
  
 This software is provided under written license and may be
 used, copied, transmitted, or stored only in accord with that
 written license.
  
 The following legend is applicable only to US Government
 contracts under FAR:
  
                    RESTRICTED RIGHTS LEGEND
  
 Use, reproduction and disclosure by the US Government is
 subject to restrictions as set forth in subparagraphs (a)
 and (c) of the Commercial Computer Software - Restricted
 Rights clause in FAR 52.227-19.
  
 Gaussian, Inc.
 340 Quinnipiac St., Bldg. 40, Wallingford CT 06492
  
  
 ---------------------------------------------------------------
 Warning -- This program may not be used in any manner that
 competes with the business of Gaussian, Inc. or will provide
 assistance to any competitor of Gaussian, Inc.  The licensee
 of this program is prohibited from giving any competitor of
 Gaussian, Inc. access to this program.  By using this program,
 the user acknowledges that Gaussian, Inc. is engaged in the
 business of creating and licensing software in the field of
 computational chemistry and represents and warrants to the
 licensee that it is not a competitor of Gaussian, Inc. and that
 it will not use this program in any manner prohibited above.
 ---------------------------------------------------------------
  

 Cite this work as:
 Gaussian 16, Revision C.01,
 M. J. Frisch, G. W. Trucks, H. B. Schlegel, G. E. Scuseria, 
 M. A. Robb, J. R. Cheeseman, G. Scalmani, V. Barone, 
 G. A. Petersson, H. Nakatsuji, X. Li, M. Caricato, A. V. Marenich, 
 J. Bloino, B. G. Janesko, R. Gomperts, B. Mennucci, H. P. Hratchian, 
 J. V. Ortiz, A. F. Izmaylov, J. L. Sonnenberg, D. Williams-Young, 
 F. Ding, F. Lipparini, F. Egidi, J. Goings, B. Peng, A. Petrone, 
 T. Henderson, D. Ranasinghe, V. G. Zakrzewski, J. Gao, N. Rega, 
 G. Zheng, W. Liang, M. Hada, M. Ehara, K. Toyota, R. Fukuda, 
 J. Hasegawa, M. Ishida, T. Nakajima, Y. Honda, O. Kitao, H. Nakai, 
 T. Vreven, K. Throssell, J. A. Montgomery, Jr., J. E. Peralta, 
 F. Ogliaro, M. J. Bearpark, J. J. Heyd, E. N. Brothers, K. N. Kudin, 
 V. N. Staroverov, T. A. Keith, R. Kobayashi, J. Normand, 
 K. Raghavachari, A. P. Rendell, J. C. Burant, S. S. Iyengar, 
 J. Tomasi, M. Cossi, J. M. Millam, M. Klene, C. Adamo, R. Cammi, 
 J. W. Ochterski, R. L. Martin, K. Morokuma, O. Farkas, 
 J. B. Foresman, and D. J. Fox, Gaussian, Inc., Wallingford CT, 2019.
 
 ******************************************
 Gaussian 16:  ES64L-G16RevC.01  3-Jul-2019
                22-Feb-2021 
 ******************************************
 %chk=XSQUKJJJFZCRTK-UHFFFAOYSA-N.chk
 %NProcShared=32
 Will use up to   32 processors via shared memory.
 -------------------------------------------------------------
 #P BP86/TZVP EmpiricalDispersion=GD3 SCRF=(Solvent=Water) Opt
 -------------------------------------------------------------
 1/18=20,19=15,26=3,38=1/1,3;
 2/9=110,12=2,17=6,18=5,40=1/2;
 3/5=19,7=101,11=2,25=1,30=1,70=2201,71=1,72=1,74=404,124=31/1,2,3;
 4//1;
 5/5=2,38=5,53=1/2;
 6/7=2,8=2,9=2,10=2,28=1/1;
 7//1,2,3,16;
 1/18=20,19=15,26=3/3(2);
 2/9=110/2;
 99//99;
 2/9=110/2;
 3/5=19,7=101,11=2,25=1,30=1,70=2205,71=1,72=1,74=404,124=31/1,2,3;
 4/5=5,16=3,69=1/1;
 5/5=2,38=5,53=1/2;
 7//1,2,3,16;
 1/18=20,19=15,26=3/3(-5);
 2/9=110/2;
 6/7=2,8=2,9=2,10=2,19=2,28=1/1;
 99/9=1/99;
 Leave Link    1 at Mon Feb 22 21:29:14 2021, MaxMem=           0 cpu:               1.5 elap:               0.1
 (Enter /sw/arch/RedHatEnterpriseServer7/EB_production/2019/software/Gaussian/g16.c01/l101.exe)
 -------------------------------------
 Particle #XSQUKJJJFZCRTK-UHFFFAOYSA-N
 -------------------------------------
 Symbolic Z-matrix:
 Charge =  0 Multiplicity = 1
 N                    -0.49858   0.79297  -1.67128 
 C                     0.19762   0.3537   -0.61211 
 N                     1.48714   0.00905  -0.74639 
 O                    -0.35739   0.26548   0.50488 
 H                    -0.07112   0.86386  -2.53946 
 H                    -1.43131   1.04006  -1.57009 
 H                     1.98667  -0.30927   0.02194 
 H                     1.92171   0.07712  -1.61126 
 
 ITRead=  0  0  0  0  0  0  0  0
 MicOpt= -1 -1 -1 -1 -1 -1 -1 -1
 NAtoms=      8 NQM=        8 NQMF=       0 NMMI=      0 NMMIF=      0
                NMic=       0 NMicF=      0.
                    Isotopes and Nuclear Properties:
 (Nuclear quadrupole moments (NQMom) in fm**2, nuclear magnetic moments (NMagM)
  in nuclear magnetons)

  Atom         1           2           3           4           5           6           7           8
 IAtWgt=          14          12          14          16           1           1           1           1
 AtmWgt=  14.0030740  12.0000000  14.0030740  15.9949146   1.0078250   1.0078250   1.0078250   1.0078250
 NucSpn=           2           0           2           0           1           1           1           1
 AtZEff=  -0.0000000  -0.0000000  -0.0000000  -0.0000000  -0.0000000  -0.0000000  -0.0000000  -0.0000000
 NQMom=    2.0440000   0.0000000   2.0440000   0.0000000   0.0000000   0.0000000   0.0000000   0.0000000
 NMagM=    0.4037610   0.0000000   0.4037610   0.0000000   2.7928460   2.7928460   2.7928460   2.7928460
 AtZNuc=   7.0000000   6.0000000   7.0000000   8.0000000   1.0000000   1.0000000   1.0000000   1.0000000
 Leave Link  101 at Mon Feb 22 21:29:14 2021, MaxMem=   104857600 cpu:               2.7 elap:               0.2
 (Enter /sw/arch/RedHatEnterpriseServer7/EB_production/2019/software/Gaussian/g16.c01/l103.exe)

 GradGradGradGradGradGradGradGradGradGradGradGradGradGradGradGradGradGrad
 Berny optimization.
 Initialization pass.
                           ----------------------------
                           !    Initial Parameters    !
                           ! (Angstroms and Degrees)  !
 --------------------------                            --------------------------
 ! Name  Definition              Value          Derivative Info.                !
 --------------------------------------------------------------------------------
 ! R1    R(1,2)                  1.3415         estimate D2E/DX2                !
 ! R2    R(1,5)                  0.9703         estimate D2E/DX2                !
 ! R3    R(1,6)                  0.9702         estimate D2E/DX2                !
 ! R4    R(2,3)                  1.3415         estimate D2E/DX2                !
 ! R5    R(2,4)                  1.2504         estimate D2E/DX2                !
 ! R6    R(3,7)                  0.9701         estimate D2E/DX2                !
 ! R7    R(3,8)                  0.9703         estimate D2E/DX2                !
 ! A1    A(2,1,5)              120.1163         estimate D2E/DX2                !
 ! A2    A(2,1,6)              119.9997         estimate D2E/DX2                !
 ! A3    A(5,1,6)              119.884          estimate D2E/DX2                !
 ! A4    A(1,2,3)              120.2629         estimate D2E/DX2                !
 ! A5    A(1,2,4)              119.8725         estimate D2E/DX2                !
 ! A6    A(3,2,4)              119.8647         estimate D2E/DX2                !
 ! A7    A(2,3,7)              119.9977         estimate D2E/DX2                !
 ! A8    A(2,3,8)              120.113          estimate D2E/DX2                !
 ! A9    A(7,3,8)              119.8893         estimate D2E/DX2                !
 ! D1    D(5,1,2,3)             -0.0546         estimate D2E/DX2                !
 ! D2    D(5,1,2,4)            179.9244         estimate D2E/DX2                !
 ! D3    D(6,1,2,3)            179.9173         estimate D2E/DX2                !
 ! D4    D(6,1,2,4)             -0.1038         estimate D2E/DX2                !
 ! D5    D(1,2,3,7)           -179.9188         estimate D2E/DX2                !
 ! D6    D(1,2,3,8)              0.0537         estimate D2E/DX2                !
 ! D7    D(4,2,3,7)              0.1022         estimate D2E/DX2                !
 ! D8    D(4,2,3,8)           -179.9252         estimate D2E/DX2                !
 --------------------------------------------------------------------------------
 Trust Radius=3.00D-01 FncErr=1.00D-07 GrdErr=1.00D-06 EigMax=2.50D+02 EigMin=1.00D-04
 Number of steps in this run=     34 maximum allowed number of steps=    100.
 GradGradGradGradGradGradGradGradGradGradGradGradGradGradGradGradGradGrad

 Leave Link  103 at Mon Feb 22 21:29:14 2021, MaxMem=   104857600 cpu:               0.4 elap:               0.0
 (Enter /sw/arch/RedHatEnterpriseServer7/EB_production/2019/software/Gaussian/g16.c01/l202.exe)
                          Input orientation:                          
 ---------------------------------------------------------------------
 Center     Atomic      Atomic             Coordinates (Angstroms)
 Number     Number       Type             X           Y           Z
 ---------------------------------------------------------------------
      1          7           0       -0.498580    0.792970   -1.671280
      2          6           0        0.197620    0.353700   -0.612110
      3          7           0        1.487140    0.009050   -0.746390
      4          8           0       -0.357390    0.265480    0.504880
      5          1           0       -0.071120    0.863860   -2.539460
      6          1           0       -1.431310    1.040060   -1.570090
      7          1           0        1.986670   -0.309270    0.021940
      8          1           0        1.921710    0.077120   -1.611260
 ---------------------------------------------------------------------
                    Distance matrix (angstroms):
                    1          2          3          4          5
     1  N    0.000000
     2  C    1.341452   0.000000
     3  N    2.326593   1.341520   0.000000
     4  O    2.243625   1.250394   2.243596   0.000000
     5  H    0.970301   2.011756   2.524673   3.115769   0.000000
     6  H    0.970195   2.010529   3.202938   2.461459   1.679536
     7  H    3.202873   2.010534   0.970149   2.461338   3.488768
     8  H    2.524648   2.011786   0.970301   3.115738   2.334928
                    6          7          8
     6  H    0.000000
     7  H    4.004727   0.000000
     8  H    3.488795   1.679541   0.000000
 Stoichiometry    CH4N2O
 Framework group  C1[X(CH4N2O)]
 Deg. of freedom    18
 Full point group                 C1      NOp   1
 Largest Abelian subgroup         C1      NOp   1
 Largest concise Abelian subgroup C1      NOp   1
                         Standard orientation:                         
 ---------------------------------------------------------------------
 Center     Atomic      Atomic             Coordinates (Angstroms)
 Number     Number       Type             X           Y           Z
 ---------------------------------------------------------------------
      1          7           0       -1.163331   -0.574601    0.000024
      2          6           0       -0.000030    0.093398    0.000082
      3          7           0        1.163262   -0.574756    0.000026
      4          8           0        0.000121    1.343792   -0.000210
      5          1           0       -1.167577   -1.544892   -0.000859
      6          1           0       -2.002401   -0.087530    0.001277
      7          1           0        2.002326   -0.087766    0.001259
      8          1           0        1.167351   -1.545048   -0.000844
 ---------------------------------------------------------------------
 Rotational constants (GHZ):          11.7831132          10.3713190           5.5161170
 Leave Link  202 at Mon Feb 22 21:29:15 2021, MaxMem=   104857600 cpu:               0.7 elap:               0.0
 (Enter /sw/arch/RedHatEnterpriseServer7/EB_production/2019/software/Gaussian/g16.c01/l301.exe)
 Standard basis: TZVP (5D, 7F)
 Ernie: Thresh=  0.10000D-02 Tol=  0.10000D-05 Strict=F.
 There are   104 symmetry adapted cartesian basis functions of A   symmetry.
 There are   100 symmetry adapted basis functions of A   symmetry.
   100 basis functions,   172 primitive gaussians,   104 cartesian basis functions
    16 alpha electrons       16 beta electrons
       nuclear repulsion energy       125.2942108629 Hartrees.
 IExCor=  404 DFT=T Ex=B Corr=P86 ExCW=0 ScaHFX=  0.000000
 ScaDFX=  1.000000  1.000000  1.000000  1.000000 ScalE2=  1.000000  1.000000
 IRadAn=      5 IRanWt=     -1 IRanGd=            0 ICorTp=0 IEmpDi=131
 NAtoms=    8 NActive=    8 NUniq=    8 SFac= 1.00D+00 NAtFMM=   60 NAOKFM=F Big=F
 Integral buffers will be    131072 words long.
 Raffenetti 2 integral format.
 Two-electron integral symmetry is turned on.
 R6Disp:  Grimme-D3 Dispersion energy=       -0.0032892580 Hartrees.
 Nuclear repulsion after empirical dispersion term =      125.2909216049 Hartrees.
 ------------------------------------------------------------------------------
 Polarizable Continuum Model (PCM)
 =================================
 Model                : PCM.
 Atomic radii         : UFF (Universal Force Field).
 Polarization charges : Total charges.
 Charge compensation  : None.
 Solution method      : On-the-fly selection.
 Cavity type          : Scaled VdW (van der Waals Surface) (Alpha=1.100).
 Cavity algorithm     : GePol (No added spheres)
                        Default sphere list used, NSphG=    8.
                        Lebedev-Laikov grids with approx.  5.0 points / Ang**2.
                        Smoothing algorithm: York/Karplus (Gamma=1.0000).
                        Polarization charges: spherical gaussians, with
                                              point-specific exponents (IZeta= 3).
                        Self-potential: point-specific (ISelfS= 7).
                        Self-field    : sphere-specific E.n sum rule (ISelfD= 2).
 1st derivatives      : Analytical E(r).r(x)/FMM algorithm (CHGder, D1EAlg=3).
                        Cavity 1st derivative terms included.
 Solvent              : Water, Eps=  78.355300 Eps(inf)=   1.777849
 ------------------------------------------------------------------------------
 Spheres list:
 ISph  on   Nord     Re0    Alpha      Xe            Ye            Ze
    1   N      1    1.8300  1.100     -1.163331     -0.574601      0.000024
    2   C      2    1.9255  1.100     -0.000030      0.093398      0.000082
    3   N      3    1.8300  1.100      1.163262     -0.574756      0.000026
    4   O      4    1.7500  1.100      0.000121      1.343792     -0.000210
    5   H      5    1.4430  1.100     -1.167577     -1.544892     -0.000859
    6   H      6    1.4430  1.100     -2.002401     -0.087530      0.001277
    7   H      7    1.4430  1.100      2.002326     -0.087766      0.001259
    8   H      8    1.4430  1.100      1.167351     -1.545048     -0.000844
 ------------------------------------------------------------------------------
 GePol: Number of generator spheres                  =       8
 GePol: Total number of spheres                      =       8
 GePol: Number of exposed spheres                    =       8 (100.00%)
 GePol: Number of points                             =     801
 GePol: Average weight of points                     =       0.14
 GePol: Minimum weight of points                     =   0.88D-06
 GePol: Maximum weight of points                     =    0.20299
 GePol: Number of points with low weight             =      38
 GePol: Fraction of low-weight points (<1% of avg)   =       4.74%
 GePol: Cavity surface area                          =    109.020 Ang**2
 GePol: Cavity volume                                =     91.653 Ang**3
 Leave Link  301 at Mon Feb 22 21:29:15 2021, MaxMem=   104857600 cpu:               2.1 elap:               0.1
 (Enter /sw/arch/RedHatEnterpriseServer7/EB_production/2019/software/Gaussian/g16.c01/l302.exe)
 NPDir=0 NMtPBC=     1 NCelOv=     1 NCel=       1 NClECP=     1 NCelD=      1
         NCelK=      1 NCelE2=     1 NClLst=     1 CellRange=     0.0.
 One-electron integrals computed using PRISM.
 One-electron integral symmetry used in STVInt
 PrsmSu:  requested number of processors reduced to:  30 ShMem   1 Linda.
 NBasis=   100 RedAO= T EigKep=  1.46D-03  NBF=   100
 NBsUse=   100 1.00D-06 EigRej= -1.00D+00 NBFU=   100
 Precomputing XC quadrature grid using
 IXCGrd= 4 IRadAn=           5 IRanWt=          -1 IRanGd=           0 AccXCQ= 0.00D+00.
 Generated NRdTot=       0 NPtTot=           0 NUsed=           0 NTot=          32
 NSgBfM=   104   104   104   104   104 MxSgAt=     8 MxSgA2=     8.
 Leave Link  302 at Mon Feb 22 21:29:15 2021, MaxMem=   104857600 cpu:               5.8 elap:               0.2
 (Enter /sw/arch/RedHatEnterpriseServer7/EB_production/2019/software/Gaussian/g16.c01/l303.exe)
 DipDrv:  MaxL=1.
 Leave Link  303 at Mon Feb 22 21:29:15 2021, MaxMem=   104857600 cpu:               1.5 elap:               0.1
 (Enter /sw/arch/RedHatEnterpriseServer7/EB_production/2019/software/Gaussian/g16.c01/l401.exe)
 ExpMin= 9.52D-02 ExpMax= 2.70D+04 ExpMxC= 9.22D+02 IAcc=3 IRadAn=         5 AccDes= 0.00D+00
 Harris functional with IExCor=  404 and IRadAn=       5 diagonalized for initial guess.
 HarFok:  IExCor=  404 AccDes= 0.00D+00 IRadAn=         5 IDoV= 1 UseB2=F ITyADJ=14
 ICtDFT=  3500011 ScaDFX=  1.000000  1.000000  1.000000  1.000000
 FoFCou: FMM=F IPFlag=           0 FMFlag=      100000 FMFlg1=           0
         NFxFlg=           0 DoJE=T BraDBF=F KetDBF=T FulRan=T
         wScrn=  0.000000 ICntrl=       500 IOpCl=  0 I1Cent=   200000004 NGrid=           0
         NMat0=    1 NMatS0=      1 NMatT0=    0 NMatD0=    1 NMtDS0=    0 NMtDT0=    0
 Petite list used in FoFCou.
 Harris En= -225.442216997389    
 JPrj=0 DoOrth=F DoCkMO=F.
 Leave Link  401 at Mon Feb 22 21:29:16 2021, MaxMem=   104857600 cpu:               8.4 elap:               0.3
 (Enter /sw/arch/RedHatEnterpriseServer7/EB_production/2019/software/Gaussian/g16.c01/l502.exe)
 Keep J ints in memory in canonical form, NReq=42541667.
 FoFCou: FMM=F IPFlag=           0 FMFlag=           0 FMFlg1=           0
         NFxFlg=           0 DoJE=F BraDBF=F KetDBF=F FulRan=T
         wScrn=  0.000000 ICntrl=       600 IOpCl=  0 I1Cent=           0 NGrid=           0
         NMat0=    1 NMatS0=   5050 NMatT0=    0 NMatD0=    1 NMtDS0=    0 NMtDT0=    0
 Symmetry not used in FoFCou.
 Two-electron integral symmetry not used.
 Closed shell SCF:
 Using DIIS extrapolation, IDIIS=  1040.
 NGot=   104857600 LenX=    92077507 LenY=    92066250
 Requested convergence on RMS density matrix=1.00D-08 within 128 cycles.
 Requested convergence on MAX density matrix=1.00D-06.
 Requested convergence on             energy=1.00D-06.
 No special actions if energy rises.

 Cycle   1  Pass 1  IDiag  1:
 Inv3:  Mode=1 IEnd=     1924803.
 Iteration    1 A*A^-1 deviation from unit magnitude is 2.66D-15 for    114.
 Iteration    1 A*A^-1 deviation from orthogonality  is 2.33D-15 for    631    249.
 Iteration    1 A^-1*A deviation from unit magnitude is 2.89D-15 for      6.
 Iteration    1 A^-1*A deviation from orthogonality  is 3.89D-15 for    585    556.
 E= -225.207487530298    
 DIIS: error= 5.74D-02 at cycle   1 NSaved=   1.
 NSaved= 1 IEnMin= 1 EnMin= -225.207487530298     IErMin= 1 ErrMin= 5.74D-02
 ErrMax= 5.74D-02  0.00D+00 EMaxC= 1.00D-01 BMatC= 2.25D-01 BMatP= 2.25D-01
 IDIUse=3 WtCom= 4.26D-01 WtEn= 5.74D-01
 Coeff-Com:  0.100D+01
 Coeff-En:   0.100D+01
 Coeff:      0.100D+01
 Gap=     0.220 Goal=   None    Shift=    0.000
 GapD=    0.220 DampG=1.000 DampE=0.500 DampFc=0.5000 IDamp=-1.
 Damping current iteration by 5.00D-01
 RMSDP=1.96D-02 MaxDP=5.57D-01              OVMax= 3.30D-01

 Cycle   2  Pass 1  IDiag  1:
 E= -225.201448080678     Delta-E=        0.006039449620 Rises=F Damp=T
 DIIS: error= 3.06D-02 at cycle   2 NSaved=   2.
 NSaved= 2 IEnMin= 1 EnMin= -225.207487530298     IErMin= 2 ErrMin= 3.06D-02
 ErrMax= 3.06D-02  0.00D+00 EMaxC= 1.00D-01 BMatC= 6.64D-02 BMatP= 2.25D-01
 IDIUse=3 WtCom= 6.94D-01 WtEn= 3.06D-01
 Coeff-Com:  0.331D+00 0.669D+00
 Coeff-En:   0.513D+00 0.487D+00
 Coeff:      0.386D+00 0.614D+00
 Gap=     0.237 Goal=   None    Shift=    0.000
 RMSDP=7.21D-03 MaxDP=2.26D-01 DE= 6.04D-03 OVMax= 2.74D-01

 Cycle   3  Pass 1  IDiag  1:
 E= -225.339493712575     Delta-E=       -0.138045631897 Rises=F Damp=F
 DIIS: error= 2.60D-02 at cycle   3 NSaved=   3.
 NSaved= 3 IEnMin= 3 EnMin= -225.339493712575     IErMin= 3 ErrMin= 2.60D-02
 ErrMax= 2.60D-02  0.00D+00 EMaxC= 1.00D-01 BMatC= 4.00D-02 BMatP= 6.64D-02
 IDIUse=3 WtCom= 7.40D-01 WtEn= 2.60D-01
 Coeff-Com:  0.210D+00 0.424D+00 0.366D+00
 Coeff-En:   0.130D-01 0.000D+00 0.987D+00
 Coeff:      0.159D+00 0.314D+00 0.527D+00
 Gap=     0.279 Goal=   None    Shift=    0.000
 RMSDP=2.12D-03 MaxDP=2.94D-02 DE=-1.38D-01 OVMax= 1.21D-01

 Cycle   4  Pass 1  IDiag  1:
 E= -225.357161308552     Delta-E=       -0.017667595977 Rises=F Damp=F
 DIIS: error= 1.66D-02 at cycle   4 NSaved=   4.
 NSaved= 4 IEnMin= 4 EnMin= -225.357161308552     IErMin= 4 ErrMin= 1.66D-02
 ErrMax= 1.66D-02  0.00D+00 EMaxC= 1.00D-01 BMatC= 1.92D-02 BMatP= 4.00D-02
 IDIUse=3 WtCom= 8.34D-01 WtEn= 1.66D-01
 Coeff-Com:  0.388D-01 0.108D-01 0.397D+00 0.553D+00
 Coeff-En:   0.000D+00 0.000D+00 0.356D+00 0.644D+00
 Coeff:      0.324D-01 0.899D-02 0.391D+00 0.568D+00
 Gap=     0.245 Goal=   None    Shift=    0.000
 RMSDP=1.05D-03 MaxDP=1.65D-02 DE=-1.77D-02 OVMax= 5.49D-02

 Cycle   5  Pass 1  IDiag  1:
 E= -225.371622337858     Delta-E=       -0.014461029306 Rises=F Damp=F
 DIIS: error= 1.48D-03 at cycle   5 NSaved=   5.
 NSaved= 5 IEnMin= 5 EnMin= -225.371622337858     IErMin= 5 ErrMin= 1.48D-03
 ErrMax= 1.48D-03  0.00D+00 EMaxC= 1.00D-01 BMatC= 1.52D-04 BMatP= 1.92D-02
 IDIUse=3 WtCom= 9.85D-01 WtEn= 1.48D-02
 Coeff-Com:  0.858D-02-0.449D-02 0.176D+00 0.277D+00 0.543D+00
 Coeff-En:   0.000D+00 0.000D+00 0.000D+00 0.000D+00 0.100D+01
 Coeff:      0.846D-02-0.442D-02 0.173D+00 0.273D+00 0.549D+00
 Gap=     0.240 Goal=   None    Shift=    0.000
 RMSDP=1.79D-04 MaxDP=3.41D-03 DE=-1.45D-02 OVMax= 4.72D-03

 Cycle   6  Pass 1  IDiag  1:
 E= -225.371738857179     Delta-E=       -0.000116519321 Rises=F Damp=F
 DIIS: error= 4.54D-04 at cycle   6 NSaved=   6.
 NSaved= 6 IEnMin= 6 EnMin= -225.371738857179     IErMin= 6 ErrMin= 4.54D-04
 ErrMax= 4.54D-04  0.00D+00 EMaxC= 1.00D-01 BMatC= 1.18D-05 BMatP= 1.52D-04
 IDIUse=3 WtCom= 9.95D-01 WtEn= 4.54D-03
 Coeff-Com:  0.629D-03-0.698D-03 0.254D-01 0.376D-01 0.243D+00 0.694D+00
 Coeff-En:   0.000D+00 0.000D+00 0.000D+00 0.000D+00 0.487D-01 0.951D+00
 Coeff:      0.626D-03-0.695D-03 0.253D-01 0.375D-01 0.242D+00 0.695D+00
 Gap=     0.240 Goal=   None    Shift=    0.000
 RMSDP=3.81D-05 MaxDP=6.51D-04 DE=-1.17D-04 OVMax= 1.30D-03

 Cycle   7  Pass 1  IDiag  1:
 E= -225.371749290348     Delta-E=       -0.000010433168 Rises=F Damp=F
 DIIS: error= 1.76D-05 at cycle   7 NSaved=   7.
 NSaved= 7 IEnMin= 7 EnMin= -225.371749290348     IErMin= 7 ErrMin= 1.76D-05
 ErrMax= 1.76D-05  0.00D+00 EMaxC= 1.00D-01 BMatC= 2.87D-08 BMatP= 1.18D-05
 IDIUse=1 WtCom= 1.00D+00 WtEn= 0.00D+00
 Coeff-Com: -0.912D-05 0.150D-03-0.385D-03-0.969D-03 0.289D-01 0.123D+00
 Coeff-Com:  0.849D+00
 Coeff:     -0.912D-05 0.150D-03-0.385D-03-0.969D-03 0.289D-01 0.123D+00
 Coeff:      0.849D+00
 Gap=     0.240 Goal=   None    Shift=    0.000
 RMSDP=1.65D-06 MaxDP=2.31D-05 DE=-1.04D-05 OVMax= 3.37D-05

 Cycle   8  Pass 1  IDiag  1:
 E= -225.371749312018     Delta-E=       -0.000000021671 Rises=F Damp=F
 DIIS: error= 2.89D-06 at cycle   8 NSaved=   8.
 NSaved= 8 IEnMin= 8 EnMin= -225.371749312018     IErMin= 8 ErrMin= 2.89D-06
 ErrMax= 2.89D-06  0.00D+00 EMaxC= 1.00D-01 BMatC= 5.73D-10 BMatP= 2.87D-08
 IDIUse=1 WtCom= 1.00D+00 WtEn= 0.00D+00
 Coeff-Com: -0.305D-05 0.161D-04-0.185D-03-0.223D-03 0.273D-02 0.153D-01
 Coeff-Com:  0.126D+00 0.856D+00
 Coeff:     -0.305D-05 0.161D-04-0.185D-03-0.223D-03 0.273D-02 0.153D-01
 Coeff:      0.126D+00 0.856D+00
 Gap=     0.240 Goal=   None    Shift=    0.000
 RMSDP=2.72D-07 MaxDP=4.23D-06 DE=-2.17D-08 OVMax= 1.00D-05

 Cycle   9  Pass 1  IDiag  1:
 E= -225.371749312508     Delta-E=       -0.000000000490 Rises=F Damp=F
 DIIS: error= 6.66D-07 at cycle   9 NSaved=   9.
 NSaved= 9 IEnMin= 9 EnMin= -225.371749312508     IErMin= 9 ErrMin= 6.66D-07
 ErrMax= 6.66D-07  0.00D+00 EMaxC= 1.00D-01 BMatC= 3.44D-11 BMatP= 5.73D-10
 IDIUse=1 WtCom= 1.00D+00 WtEn= 0.00D+00
 Coeff-Com: -0.284D-06 0.190D-05-0.653D-04-0.743D-04 0.577D-03 0.382D-02
 Coeff-Com:  0.348D-01 0.342D+00 0.619D+00
 Coeff:     -0.284D-06 0.190D-05-0.653D-04-0.743D-04 0.577D-03 0.382D-02
 Coeff:      0.348D-01 0.342D+00 0.619D+00
 Gap=     0.240 Goal=   None    Shift=    0.000
 RMSDP=5.31D-08 MaxDP=1.03D-06 DE=-4.90D-10 OVMax= 3.62D-06

 Cycle  10  Pass 1  IDiag  1:
 E= -225.371749312521     Delta-E=       -0.000000000013 Rises=F Damp=F
 DIIS: error= 5.59D-07 at cycle  10 NSaved=  10.
 NSaved=10 IEnMin=10 EnMin= -225.371749312521     IErMin=10 ErrMin= 5.59D-07
 ErrMax= 5.59D-07  0.00D+00 EMaxC= 1.00D-01 BMatC= 1.91D-11 BMatP= 3.44D-11
 IDIUse=1 WtCom= 1.00D+00 WtEn= 0.00D+00
 Coeff-Com:  0.494D-06-0.189D-05-0.126D-04-0.144D-04-0.620D-04-0.198D-04
 Coeff-Com:  0.226D-02 0.875D-01 0.435D+00 0.475D+00
 Coeff:      0.494D-06-0.189D-05-0.126D-04-0.144D-04-0.620D-04-0.198D-04
 Coeff:      0.226D-02 0.875D-01 0.435D+00 0.475D+00
 Gap=     0.240 Goal=   None    Shift=    0.000
 RMSDP=2.54D-08 MaxDP=5.22D-07 DE=-1.25D-11 OVMax= 1.72D-06

 Cycle  11  Pass 1  IDiag  1:
 E= -225.371749312536     Delta-E=       -0.000000000016 Rises=F Damp=F
 DIIS: error= 5.30D-08 at cycle  11 NSaved=  11.
 NSaved=11 IEnMin=11 EnMin= -225.371749312536     IErMin=11 ErrMin= 5.30D-08
 ErrMax= 5.30D-08  0.00D+00 EMaxC= 1.00D-01 BMatC= 2.04D-13 BMatP= 1.91D-11
 IDIUse=1 WtCom= 1.00D+00 WtEn= 0.00D+00
 Coeff-Com:  0.139D-06-0.691D-06-0.126D-05-0.253D-05-0.305D-04-0.143D-03
 Coeff-Com: -0.491D-03 0.144D-01 0.114D+00 0.156D+00 0.716D+00
 Coeff:      0.139D-06-0.691D-06-0.126D-05-0.253D-05-0.305D-04-0.143D-03
 Coeff:     -0.491D-03 0.144D-01 0.114D+00 0.156D+00 0.716D+00
 Gap=     0.240 Goal=   None    Shift=    0.000
 RMSDP=4.00D-09 MaxDP=4.47D-08 DE=-1.57D-11 OVMax= 1.77D-07

 Error on total polarization charges =  0.00768
 SCF Done:  E(RB-P86) =  -225.371749313     A.U. after   11 cycles
            NFock= 11  Conv=0.40D-08     -V/T= 2.0023
 KE= 2.248644962965D+02 PE=-7.794719599936D+02 EE= 2.039447927797D+02
 Leave Link  502 at Mon Feb 22 21:29:18 2021, MaxMem=   104857600 cpu:              57.1 elap:               2.1
 (Enter /sw/arch/RedHatEnterpriseServer7/EB_production/2019/software/Gaussian/g16.c01/l601.exe)
 Copying SCF densities to generalized density rwf, IOpCl= 0 IROHF=0.

 **********************************************************************

            Population analysis using the SCF Density.

 **********************************************************************

 Orbital symmetries:
       Occupied  (A) (A) (A) (A) (A) (A) (A) (A) (A) (A) (A) (A)
                 (A) (A) (A) (A)
       Virtual   (A) (A) (A) (A) (A) (A) (A) (A) (A) (A) (A) (A)
                 (A) (A) (A) (A) (A) (A) (A) (A) (A) (A) (A) (A)
                 (A) (A) (A) (A) (A) (A) (A) (A) (A) (A) (A) (A)
                 (A) (A) (A) (A) (A) (A) (A) (A) (A) (A) (A) (A)
                 (A) (A) (A) (A) (A) (A) (A) (A) (A) (A) (A) (A)
                 (A) (A) (A) (A) (A) (A) (A) (A) (A) (A) (A) (A)
                 (A) (A) (A) (A) (A) (A) (A) (A) (A) (A) (A) (A)
 The electronic state is 1-A.
 Alpha  occ. eigenvalues --  -18.71894 -14.01230 -14.01229 -10.01355  -0.95981
 Alpha  occ. eigenvalues --   -0.84747  -0.82541  -0.57910  -0.51749  -0.50670
 Alpha  occ. eigenvalues --   -0.45567  -0.39067  -0.36473  -0.24300  -0.23175
 Alpha  occ. eigenvalues --   -0.22061
 Alpha virt. eigenvalues --    0.01938   0.02122   0.06791   0.07653   0.11498
 Alpha virt. eigenvalues --    0.12288   0.17370   0.20344   0.21578   0.24993
 Alpha virt. eigenvalues --    0.31046   0.31344   0.33925   0.36284   0.37223
 Alpha virt. eigenvalues --    0.37788   0.39987   0.45254   0.47216   0.49240
 Alpha virt. eigenvalues --    0.50399   0.53419   0.53454   0.57237   0.68235
 Alpha virt. eigenvalues --    0.68623   0.71761   0.81818   1.17630   1.17687
 Alpha virt. eigenvalues --    1.19693   1.27041   1.29967   1.43065   1.44096
 Alpha virt. eigenvalues --    1.44863   1.45262   1.52810   1.54855   1.61500
 Alpha virt. eigenvalues --    1.69278   1.69491   1.84444   1.86958   1.88252
 Alpha virt. eigenvalues --    1.90259   1.92305   2.03107   2.11191   2.14091
 Alpha virt. eigenvalues --    2.15610   2.18102   2.26204   2.33066   2.44041
 Alpha virt. eigenvalues --    2.44109   2.44521   2.47590   2.54333   2.54959
 Alpha virt. eigenvalues --    2.57082   2.57431   2.58423   2.59638   2.67764
 Alpha virt. eigenvalues --    2.68087   2.79270   2.79409   2.85324   2.94299
 Alpha virt. eigenvalues --    3.10230   3.14007   3.30357   3.37634   3.45527
 Alpha virt. eigenvalues --    3.58559   3.71095   3.87038   3.93224   4.18710
 Alpha virt. eigenvalues --   21.72228  31.37389  31.40344  43.11775
          Condensed to atoms (all electrons):
               1          2          3          4          5          6
     1  N    6.667201   0.314161  -0.157333  -0.149219   0.332702   0.373939
     2  C    0.314161   4.497175   0.314150   0.692333  -0.002002  -0.017227
     3  N   -0.157333   0.314150   6.667285  -0.149248   0.009764   0.007418
     4  O   -0.149219   0.692333  -0.149248   8.078899   0.006628   0.002826
     5  H    0.332702  -0.002002   0.009764   0.006628   0.412346  -0.017632
     6  H    0.373939  -0.017227   0.007418   0.002826  -0.017632   0.377875
     7  H    0.007418  -0.017234   0.373958   0.002828  -0.000117  -0.000298
     8  H    0.009767  -0.002005   0.332692   0.006630  -0.002658  -0.000118
               7          8
     1  N    0.007418   0.009767
     2  C   -0.017234  -0.002005
     3  N    0.373958   0.332692
     4  O    0.002828   0.006630
     5  H   -0.000117  -0.002658
     6  H   -0.000298  -0.000118
     7  H    0.377872  -0.017630
     8  H   -0.017630   0.412366
 Mulliken charges:
               1
     1  N   -0.398635
     2  C    0.220650
     3  N   -0.398685
     4  O   -0.491676
     5  H    0.260969
     6  H    0.273217
     7  H    0.273205
     8  H    0.260956
 Sum of Mulliken charges =  -0.00000
 Mulliken charges with hydrogens summed into heavy atoms:
               1
     1  N    0.135551
     2  C    0.220650
     3  N    0.135476
     4  O   -0.491676
 Electronic spatial extent (au):  <R**2>=            241.0882
 Charge=             -0.0000 electrons
 Dipole moment (field-independent basis, Debye):
    X=             -0.0011    Y=             -5.9115    Z=              0.0020  Tot=              5.9115
 Quadrupole moment (field-independent basis, Debye-Ang):
   XX=            -15.6045   YY=            -25.1223   ZZ=            -26.0844
   XY=             -0.0002   XZ=             -0.0001   YZ=              0.0069
 Traceless Quadrupole moment (field-independent basis, Debye-Ang):
   XX=              6.6659   YY=             -2.8519   ZZ=             -3.8140
   XY=             -0.0002   XZ=             -0.0001   YZ=              0.0069
 Octapole moment (field-independent basis, Debye-Ang**2):
  XXX=             -0.0033  YYY=            -21.9444  ZZZ=              0.0002  XYY=             -0.0017
  XXY=             -3.2471  XXZ=              0.0184  XZZ=             -0.0003  YZZ=              0.4613
  YYZ=             -0.0095  XYZ=             -0.0001
 Hexadecapole moment (field-independent basis, Debye-Ang**3):
 XXXX=            -96.7898 YYYY=           -118.9016 ZZZZ=            -25.3927 XXXY=             -0.0005
 XXXZ=             -0.0003 YYYX=              0.0002 YYYZ=              0.0185 ZZZX=             -0.0000
 ZZZY=              0.0039 XXYY=            -39.1554 XXZZ=            -32.0190 YYZZ=            -26.5739
 XXYZ=              0.0079 YYXZ=              0.0001 ZZXY=              0.0004
 N-N= 1.252909216049D+02 E-N=-7.794719608806D+02  KE= 2.248644962965D+02
 No NMR shielding tensors so no spin-rotation constants.
 Leave Link  601 at Mon Feb 22 21:29:18 2021, MaxMem=   104857600 cpu:               6.7 elap:               0.3
 (Enter /sw/arch/RedHatEnterpriseServer7/EB_production/2019/software/Gaussian/g16.c01/l701.exe)
 ... and contract with generalized density number  0.
 Compute integral first derivatives.
 R6Disp: Adding Grimme-D3 dispersion energy 1st derivatives to the gradient.
 PrsmSu:  requested number of processors reduced to:  30 ShMem   1 Linda.
 D1PCM: PCM CHGder 1st derivatives, ID1Alg=3 FixD1E=F DoIter=F DoCFld=F I1PDM=0.
 GePol: Maximum number of non-zero 1st derivatives   =     227
 CoulSu:  requested number of processors reduced to:  30 ShMem   1 Linda.
 CoulSu:  requested number of processors reduced to:  30 ShMem   1 Linda.
 Leave Link  701 at Mon Feb 22 21:29:19 2021, MaxMem=   104857600 cpu:              12.3 elap:               0.4
 (Enter /sw/arch/RedHatEnterpriseServer7/EB_production/2019/software/Gaussian/g16.c01/l702.exe)
 L702 exits ... SP integral derivatives will be done elsewhere.
 Leave Link  702 at Mon Feb 22 21:29:19 2021, MaxMem=   104857600 cpu:               0.5 elap:               0.0
 (Enter /sw/arch/RedHatEnterpriseServer7/EB_production/2019/software/Gaussian/g16.c01/l703.exe)
 Integral derivatives from FoFJK, PRISM(SPDF).
 Compute integral first derivatives, UseDBF=F ICtDFT=           0.
 Calling FoFJK, ICntrl=      2527 FMM=F ISym2X=0 I1Cent= 0 IOpClX= 0 NMat=1 NMatS=1 NMatT=0.
 FoFJK:  IHMeth= 1 ICntrl=    2527 DoSepK=F KAlg= 0 I1Cent=           0 FoldK=F
 IRaf=         0 NMat=       1 IRICut=       1 DoRegI=T DoRafI=F ISym2E= 0 IDoP0=0 IntGTp=1.
 FoFCou: FMM=F IPFlag=           0 FMFlag=      100000 FMFlg1=         800
         NFxFlg=           0 DoJE=F BraDBF=F KetDBF=F FulRan=T
         wScrn=  0.000000 ICntrl=      2527 IOpCl=  0 I1Cent=           0 NGrid=           0
         NMat0=    1 NMatS0=      1 NMatT0=    0 NMatD0=    1 NMtDS0=    0 NMtDT0=    0
 Symmetry not used in FoFCou.
 Leave Link  703 at Mon Feb 22 21:29:19 2021, MaxMem=   104857600 cpu:               9.5 elap:               0.3
 (Enter /sw/arch/RedHatEnterpriseServer7/EB_production/2019/software/Gaussian/g16.c01/l716.exe)
 Dipole        =-4.26868017D-04-2.32577799D+00 7.96951191D-04
 ***** Axes restored to original set *****
 -------------------------------------------------------------------
 Center     Atomic                   Forces (Hartrees/Bohr)
 Number     Number              X              Y              Z
 -------------------------------------------------------------------
      1        7           0.025419689   -0.008393697    0.004609958
      2        6          -0.020679237   -0.003275858    0.041770970
      3        7          -0.019647006    0.009400671   -0.016396048
      4        8          -0.004641708   -0.000792710    0.009261723
      5        1           0.013914804    0.005329959   -0.041870849
      6        1          -0.039142687    0.010021646    0.005931524
      7        1           0.019649650   -0.013193341    0.033341253
      8        1           0.025126495    0.000903330   -0.036648530
 -------------------------------------------------------------------
 Cartesian Forces:  Max     0.041870849 RMS     0.021469214
 Leave Link  716 at Mon Feb 22 21:29:20 2021, MaxMem=   104857600 cpu:               1.0 elap:               0.1
 (Enter /sw/arch/RedHatEnterpriseServer7/EB_production/2019/software/Gaussian/g16.c01/l103.exe)

 GradGradGradGradGradGradGradGradGradGradGradGradGradGradGradGradGradGrad
 Berny optimization.
 FormGI is forming the generalized inverse of G from B-inverse, IUseBI=4.
 Internal  Forces:  Max     0.043983632 RMS     0.019980721
 Search for a local minimum.
 Step number   1 out of a maximum of   34
 All quantities printed in internal units (Hartrees-Bohrs-Radians)
 RMS Force = .19981D-01 SwitMx=.10000D-02 MixMth= 1
 Mixed Optimization -- RFO/linear search
 Second derivative matrix not updated -- first step.
 ITU=  0
     Eigenvalues ---    0.02465   0.02465   0.02466   0.02466   0.02466
     Eigenvalues ---    0.16000   0.16000   0.16000   0.16000   0.25000
     Eigenvalues ---    0.25000   0.53315   0.53315   0.53337   0.53347
     Eigenvalues ---    0.56866   0.56881   0.83091
 RFO step:  Lambda=-1.91456750D-02 EMin= 2.46535542D-02
 Linear search not attempted -- first point.
 Iteration  1 RMS(Cart)=  0.04315245 RMS(Int)=  0.00072205
 Iteration  2 RMS(Cart)=  0.00100908 RMS(Int)=  0.00000033
 Iteration  3 RMS(Cart)=  0.00000033 RMS(Int)=  0.00000002
 ITry= 1 IFail=0 DXMaxC= 9.13D-02 DCOld= 1.00D+10 DXMaxT= 3.00D-01 DXLimC= 3.00D+00 Rises=F
 Variable       Old X    -DE/DX   Delta X   Delta X   Delta X     New X
                                 (Linear)    (Quad)   (Total)
    R1        2.53498   0.02692   0.00000   0.04578   0.04578   2.58076
    R2        1.83360   0.04398   0.00000   0.07964   0.07964   1.91324
    R3        1.83340   0.04080   0.00000   0.07385   0.07385   1.90725
    R4        2.53511   0.02687   0.00000   0.04571   0.04571   2.58082
    R5        2.36290   0.01039   0.00000   0.01222   0.01222   2.37512
    R6        1.83332   0.04085   0.00000   0.07393   0.07393   1.90724
    R7        1.83360   0.04398   0.00000   0.07964   0.07964   1.91324
    A1        2.09642   0.00884   0.00000   0.04936   0.04936   2.14579
    A2        2.09439  -0.00600   0.00000  -0.03347  -0.03347   2.06092
    A3        2.09237  -0.00285   0.00000  -0.01589  -0.01589   2.07648
    A4        2.09898  -0.01966   0.00000  -0.07304  -0.07304   2.02594
    A5        2.09217   0.00981   0.00000   0.03646   0.03646   2.12863
    A6        2.09203   0.00984   0.00000   0.03658   0.03658   2.12861
    A7        2.09435  -0.00600   0.00000  -0.03347  -0.03347   2.06088
    A8        2.09637   0.00885   0.00000   0.04941   0.04941   2.14577
    A9        2.09246  -0.00285   0.00000  -0.01593  -0.01593   2.07653
    D1       -0.00095   0.00001   0.00000   0.00023   0.00023  -0.00072
    D2        3.14027   0.00003   0.00000   0.00077   0.00077   3.14104
    D3        3.14015   0.00001   0.00000   0.00027   0.00027   3.14042
    D4       -0.00181   0.00004   0.00000   0.00080   0.00080  -0.00101
    D5       -3.14018  -0.00001   0.00000  -0.00027  -0.00027  -3.14044
    D6        0.00094  -0.00001   0.00000  -0.00023  -0.00023   0.00071
    D7        0.00178  -0.00004   0.00000  -0.00080  -0.00080   0.00098
    D8       -3.14029  -0.00003   0.00000  -0.00076  -0.00076  -3.14105
         Item               Value     Threshold  Converged?
 Maximum Force            0.043984     0.000450     NO 
 RMS     Force            0.019981     0.000300     NO 
 Maximum Displacement     0.091341     0.001800     NO 
 RMS     Displacement     0.042959     0.001200     NO 
 Predicted change in Energy=-9.989891D-03
 Lowest energy point so far.  Saving SCF results.
 GradGradGradGradGradGradGradGradGradGradGradGradGradGradGradGradGradGrad

 Leave Link  103 at Mon Feb 22 21:29:20 2021, MaxMem=   104857600 cpu:               8.6 elap:               0.3
 (Enter /sw/arch/RedHatEnterpriseServer7/EB_production/2019/software/Gaussian/g16.c01/l202.exe)
                          Input orientation:                          
 ---------------------------------------------------------------------
 Center     Atomic      Atomic             Coordinates (Angstroms)
 Number     Number       Type             X           Y           Z
 ---------------------------------------------------------------------
      1          7           0       -0.490952    0.792057   -1.676801
      2          6           0        0.176982    0.350496   -0.570473
      3          7           0        1.486870    0.011259   -0.755604
      4          8           0       -0.381086    0.261365    0.552166
      5          1           0       -0.056173    0.870137   -2.587795
      6          1           0       -1.461316    1.050035   -1.574461
      7          1           0        2.009115   -0.320000    0.041987
      8          1           0        1.951300    0.077621   -1.652789
 ---------------------------------------------------------------------
                    Distance matrix (angstroms):
                    1          2          3          4          5
     1  N    0.000000
     2  C    1.365677   0.000000
     3  N    2.317333   1.365710   0.000000
     4  O    2.293905   1.256862   2.293922   0.000000
     5  H    1.012443   2.096182   2.544716   3.214892   0.000000
     6  H    1.009273   2.044839   3.231314   2.512258   1.741734
     7  H    3.231290   2.044843   1.009268   2.512236   3.549309
     8  H    2.544718   2.096205   1.012443   3.214906   2.352077
                    6          7          8
     6  H    0.000000
     7  H    4.066177   0.000000
     8  H    3.549320   1.741755   0.000000
 Stoichiometry    CH4N2O
 Framework group  C1[X(CH4N2O)]
 Deg. of freedom    18
 Full point group                 C1      NOp   1
 RotChk:  IX=0 Diff= 2.81D-04
 Largest Abelian subgroup         C1      NOp   1
 Largest concise Abelian subgroup C1      NOp   1
                         Standard orientation:                         
 ---------------------------------------------------------------------
 Center     Atomic      Atomic             Coordinates (Angstroms)
 Number     Number       Type             X           Y           Z
 ---------------------------------------------------------------------
      1          7           0       -1.158641   -0.598756    0.000015
      2          6           0       -0.000014    0.124195   -0.000090
      3          7           0        1.158692   -0.598692    0.000017
      4          8           0       -0.000046    1.381057   -0.000094
      5          1           0       -1.175984   -1.611050   -0.000451
      6          1           0       -2.033092   -0.094804    0.000986
      7          1           0        2.033085   -0.094649    0.000969
      8          1           0        1.176093   -1.610985   -0.000437
 ---------------------------------------------------------------------
 Rotational constants (GHZ):          11.0364856          10.3735933           5.3473889
 Leave Link  202 at Mon Feb 22 21:29:21 2021, MaxMem=   104857600 cpu:               1.4 elap:               0.1
 (Enter /sw/arch/RedHatEnterpriseServer7/EB_production/2019/software/Gaussian/g16.c01/l301.exe)
 Standard basis: TZVP (5D, 7F)
 Ernie: Thresh=  0.10000D-02 Tol=  0.10000D-05 Strict=F.
 There are   104 symmetry adapted cartesian basis functions of A   symmetry.
 There are   100 symmetry adapted basis functions of A   symmetry.
   100 basis functions,   172 primitive gaussians,   104 cartesian basis functions
    16 alpha electrons       16 beta electrons
       nuclear repulsion energy       123.0456310844 Hartrees.
 IExCor=  404 DFT=T Ex=B Corr=P86 ExCW=0 ScaHFX=  0.000000
 ScaDFX=  1.000000  1.000000  1.000000  1.000000 ScalE2=  1.000000  1.000000
 IRadAn=      5 IRanWt=     -1 IRanGd=            0 ICorTp=0 IEmpDi=131
 NAtoms=    8 NActive=    8 NUniq=    8 SFac= 1.00D+00 NAtFMM=   60 NAOKFM=F Big=F
 Integral buffers will be    131072 words long.
 Raffenetti 2 integral format.
 Two-electron integral symmetry is turned on.
 R6Disp:  Grimme-D3 Dispersion energy=       -0.0033299945 Hartrees.
 Nuclear repulsion after empirical dispersion term =      123.0423010899 Hartrees.
 ------------------------------------------------------------------------------
 Polarizable Continuum Model (PCM)
 =================================
 Model                : PCM.
 Atomic radii         : UFF (Universal Force Field).
 Polarization charges : Total charges.
 Charge compensation  : None.
 Solution method      : On-the-fly selection.
 Cavity type          : Scaled VdW (van der Waals Surface) (Alpha=1.100).
 Cavity algorithm     : GePol (No added spheres)
                        Default sphere list used, NSphG=    8.
                        Lebedev-Laikov grids with approx.  5.0 points / Ang**2.
                        Smoothing algorithm: York/Karplus (Gamma=1.0000).
                        Polarization charges: spherical gaussians, with
                                              point-specific exponents (IZeta= 3).
                        Self-potential: point-specific (ISelfS= 7).
                        Self-field    : sphere-specific E.n sum rule (ISelfD= 2).
 1st derivatives      : Analytical E(r).r(x)/FMM algorithm (CHGder, D1EAlg=3).
                        Cavity 1st derivative terms included.
 Solvent              : Water, Eps=  78.355300 Eps(inf)=   1.777849
 ------------------------------------------------------------------------------
 Spheres list:
 ISph  on   Nord     Re0    Alpha      Xe            Ye            Ze
    1   N      1    1.8300  1.100     -1.158641     -0.598756      0.000015
    2   C      2    1.9255  1.100     -0.000014      0.124195     -0.000090
    3   N      3    1.8300  1.100      1.158692     -0.598692      0.000017
    4   O      4    1.7500  1.100     -0.000046      1.381057     -0.000094
    5   H      5    1.4430  1.100     -1.175984     -1.611050     -0.000451
    6   H      6    1.4430  1.100     -2.033092     -0.094804      0.000986
    7   H      7    1.4430  1.100      2.033085     -0.094649      0.000969
    8   H      8    1.4430  1.100      1.176093     -1.610985     -0.000437
 ------------------------------------------------------------------------------
 GePol: Number of generator spheres                  =       8
 GePol: Total number of spheres                      =       8
 GePol: Number of exposed spheres                    =       8 (100.00%)
 GePol: Number of points                             =     833
 GePol: Average weight of points                     =       0.13
 GePol: Minimum weight of points                     =   0.58D-08
 GePol: Maximum weight of points                     =    0.20286
 GePol: Number of points with low weight             =      64
 GePol: Fraction of low-weight points (<1% of avg)   =       7.68%
 GePol: Cavity surface area                          =    110.951 Ang**2
 GePol: Cavity volume                                =     93.515 Ang**3
 Leave Link  301 at Mon Feb 22 21:29:21 2021, MaxMem=   104857600 cpu:               1.9 elap:               0.1
 (Enter /sw/arch/RedHatEnterpriseServer7/EB_production/2019/software/Gaussian/g16.c01/l302.exe)
 NPDir=0 NMtPBC=     1 NCelOv=     1 NCel=       1 NClECP=     1 NCelD=      1
         NCelK=      1 NCelE2=     1 NClLst=     1 CellRange=     0.0.
 One-electron integrals computed using PRISM.
 One-electron integral symmetry used in STVInt
 PrsmSu:  requested number of processors reduced to:  30 ShMem   1 Linda.
 NBasis=   100 RedAO= T EigKep=  1.62D-03  NBF=   100
 NBsUse=   100 1.00D-06 EigRej= -1.00D+00 NBFU=   100
 Precomputing XC quadrature grid using
 IXCGrd= 4 IRadAn=           5 IRanWt=          -1 IRanGd=           0 AccXCQ= 0.00D+00.
 Generated NRdTot=       0 NPtTot=           0 NUsed=           0 NTot=          32
 NSgBfM=   104   104   104   104   104 MxSgAt=     8 MxSgA2=     8.
 Leave Link  302 at Mon Feb 22 21:29:22 2021, MaxMem=   104857600 cpu:               4.0 elap:               0.2
 (Enter /sw/arch/RedHatEnterpriseServer7/EB_production/2019/software/Gaussian/g16.c01/l303.exe)
 DipDrv:  MaxL=1.
 Leave Link  303 at Mon Feb 22 21:29:22 2021, MaxMem=   104857600 cpu:               0.6 elap:               0.0
 (Enter /sw/arch/RedHatEnterpriseServer7/EB_production/2019/software/Gaussian/g16.c01/l401.exe)
 Initial guess from the checkpoint file:  "XSQUKJJJFZCRTK-UHFFFAOYSA-N.chk"
 B after Tr=    -0.000000    0.000000   -0.000000
         Rot=    1.000000    0.000001    0.000000   -0.000052 Ang=   0.01 deg.
 Guess basis will be translated and rotated to current coordinates.
 JPrj=2 DoOrth=T DoCkMO=T.
 Generating alternative initial guess.
 ExpMin= 9.52D-02 ExpMax= 2.70D+04 ExpMxC= 9.22D+02 IAcc=3 IRadAn=         5 AccDes= 0.00D+00
 Harris functional with IExCor=  404 and IRadAn=       5 diagonalized for initial guess.
 HarFok:  IExCor=  404 AccDes= 0.00D+00 IRadAn=         5 IDoV= 1 UseB2=F ITyADJ=14
 ICtDFT=  3500011 ScaDFX=  1.000000  1.000000  1.000000  1.000000
 FoFCou: FMM=F IPFlag=           0 FMFlag=      100000 FMFlg1=           0
         NFxFlg=           0 DoJE=T BraDBF=F KetDBF=T FulRan=T
         wScrn=  0.000000 ICntrl=       500 IOpCl=  0 I1Cent=   200000004 NGrid=           0
         NMat0=    1 NMatS0=      1 NMatT0=    0 NMatD0=    1 NMtDS0=    0 NMtDT0=    0
 Petite list used in FoFCou.
 Harris En= -225.438112961600    
 Leave Link  401 at Mon Feb 22 21:29:22 2021, MaxMem=   104857600 cpu:               6.8 elap:               0.2
 (Enter /sw/arch/RedHatEnterpriseServer7/EB_production/2019/software/Gaussian/g16.c01/l502.exe)
 Keep J ints in memory in canonical form, NReq=42541667.
 FoFCou: FMM=F IPFlag=           0 FMFlag=           0 FMFlg1=           0
         NFxFlg=           0 DoJE=F BraDBF=F KetDBF=F FulRan=T
         wScrn=  0.000000 ICntrl=       600 IOpCl=  0 I1Cent=           0 NGrid=           0
         NMat0=    1 NMatS0=   5050 NMatT0=    0 NMatD0=    1 NMtDS0=    0 NMtDT0=    0
 Symmetry not used in FoFCou.
 Two-electron integral symmetry not used.
 Closed shell SCF:
 Using DIIS extrapolation, IDIIS=  1040.
 NGot=   104857600 LenX=    92077507 LenY=    92066250
 Requested convergence on RMS density matrix=1.00D-08 within 128 cycles.
 Requested convergence on MAX density matrix=1.00D-06.
 Requested convergence on             energy=1.00D-06.
 No special actions if energy rises.

 Cycle   1  Pass 1  IDiag  1:
 Inv3:  Mode=1 IEnd=     2081667.
 Iteration    1 A*A^-1 deviation from unit magnitude is 2.66D-15 for      7.
 Iteration    1 A*A^-1 deviation from orthogonality  is 2.66D-15 for    561    117.
 Iteration    1 A^-1*A deviation from unit magnitude is 3.33D-15 for      7.
 Iteration    1 A^-1*A deviation from orthogonality  is 1.96D-14 for    338    332.
 E= -225.378911748783    
 DIIS: error= 5.24D-03 at cycle   1 NSaved=   1.
 NSaved= 1 IEnMin= 1 EnMin= -225.378911748783     IErMin= 1 ErrMin= 5.24D-03
 ErrMax= 5.24D-03  0.00D+00 EMaxC= 1.00D-01 BMatC= 2.96D-03 BMatP= 2.96D-03
 IDIUse=3 WtCom= 9.48D-01 WtEn= 5.24D-02
 Coeff-Com:  0.100D+01
 Coeff-En:   0.100D+01
 Coeff:      0.100D+01
 Gap=     0.579 Goal=   None    Shift=    0.000
 GapD=    0.579 DampG=2.000 DampE=1.000 DampFc=2.0000 IDamp=-1.
 RMSDP=6.60D-04 MaxDP=7.29D-03              OVMax= 2.14D-02

 Cycle   2  Pass 1  IDiag  1:
 E= -225.379273659803     Delta-E=       -0.000361911020 Rises=F Damp=F
 DIIS: error= 6.17D-03 at cycle   2 NSaved=   2.
 NSaved= 2 IEnMin= 2 EnMin= -225.379273659803     IErMin= 1 ErrMin= 5.24D-03
 ErrMax= 6.17D-03  0.00D+00 EMaxC= 1.00D-01 BMatC= 2.96D-03 BMatP= 2.96D-03
 IDIUse=3 WtCom= 9.38D-01 WtEn= 6.17D-02
 Coeff-Com:  0.500D+00 0.500D+00
 Coeff-En:   0.447D+00 0.553D+00
 Coeff:      0.497D+00 0.503D+00
 Gap=     0.253 Goal=   None    Shift=    0.000
 RMSDP=6.35D-04 MaxDP=1.02D-02 DE=-3.62D-04 OVMax= 3.61D-02

 Cycle   3  Pass 1  IDiag  1:
 E= -225.380129459662     Delta-E=       -0.000855799859 Rises=F Damp=F
 DIIS: error= 5.61D-03 at cycle   3 NSaved=   3.
 NSaved= 3 IEnMin= 3 EnMin= -225.380129459662     IErMin= 1 ErrMin= 5.24D-03
 ErrMax= 5.61D-03  0.00D+00 EMaxC= 1.00D-01 BMatC= 1.89D-03 BMatP= 2.96D-03
 IDIUse=3 WtCom= 9.44D-01 WtEn= 5.61D-02
 Coeff-Com:  0.792D-01 0.427D+00 0.494D+00
 Coeff-En:   0.000D+00 0.417D+00 0.583D+00
 Coeff:      0.747D-01 0.426D+00 0.499D+00
 Gap=     0.241 Goal=   None    Shift=    0.000
 RMSDP=4.39D-04 MaxDP=8.11D-03 DE=-8.56D-04 OVMax= 1.92D-02

 Cycle   4  Pass 1  IDiag  1:
 E= -225.381469429475     Delta-E=       -0.001339969813 Rises=F Damp=F
 DIIS: error= 1.57D-03 at cycle   4 NSaved=   4.
 NSaved= 4 IEnMin= 4 EnMin= -225.381469429475     IErMin= 4 ErrMin= 1.57D-03
 ErrMax= 1.57D-03  0.00D+00 EMaxC= 1.00D-01 BMatC= 1.46D-04 BMatP= 1.89D-03
 IDIUse=3 WtCom= 9.84D-01 WtEn= 1.57D-02
 Coeff-Com:  0.188D-01 0.247D+00 0.333D+00 0.402D+00
 Coeff-En:   0.000D+00 0.000D+00 0.842D-02 0.992D+00
 Coeff:      0.185D-01 0.243D+00 0.328D+00 0.411D+00
 Gap=     0.240 Goal=   None    Shift=    0.000
 RMSDP=1.05D-04 MaxDP=2.02D-03 DE=-1.34D-03 OVMax= 2.46D-03

 Cycle   5  Pass 1  IDiag  1:
 E= -225.381571946228     Delta-E=       -0.000102516752 Rises=F Damp=F
 DIIS: error= 1.56D-04 at cycle   5 NSaved=   5.
 NSaved= 5 IEnMin= 5 EnMin= -225.381571946228     IErMin= 5 ErrMin= 1.56D-04
 ErrMax= 1.56D-04  0.00D+00 EMaxC= 1.00D-01 BMatC= 1.63D-06 BMatP= 1.46D-04
 IDIUse=3 WtCom= 9.98D-01 WtEn= 1.56D-03
 Coeff-Com:  0.290D-02 0.711D-01 0.106D+00 0.161D+00 0.659D+00
 Coeff-En:   0.000D+00 0.000D+00 0.000D+00 0.000D+00 0.100D+01
 Coeff:      0.289D-02 0.710D-01 0.106D+00 0.160D+00 0.660D+00
 Gap=     0.240 Goal=   None    Shift=    0.000
 RMSDP=9.66D-06 MaxDP=2.41D-04 DE=-1.03D-04 OVMax= 6.37D-04

 Cycle   6  Pass 1  IDiag  1:
 E= -225.381572905664     Delta-E=       -0.000000959437 Rises=F Damp=F
 DIIS: error= 9.54D-05 at cycle   6 NSaved=   6.
 NSaved= 6 IEnMin= 6 EnMin= -225.381572905664     IErMin= 6 ErrMin= 9.54D-05
 ErrMax= 9.54D-05  0.00D+00 EMaxC= 1.00D-01 BMatC= 4.21D-07 BMatP= 1.63D-06
 IDIUse=1 WtCom= 1.00D+00 WtEn= 0.00D+00
 Coeff-Com: -0.143D-03 0.170D-01 0.307D-01 0.513D-01 0.385D+00 0.516D+00
 Coeff:     -0.143D-03 0.170D-01 0.307D-01 0.513D-01 0.385D+00 0.516D+00
 Gap=     0.240 Goal=   None    Shift=    0.000
 RMSDP=5.21D-06 MaxDP=8.65D-05 DE=-9.59D-07 OVMax= 2.57D-04

 Cycle   7  Pass 1  IDiag  1:
 E= -225.381573277724     Delta-E=       -0.000000372060 Rises=F Damp=F
 DIIS: error= 8.92D-06 at cycle   7 NSaved=   7.
 NSaved= 7 IEnMin= 7 EnMin= -225.381573277724     IErMin= 7 ErrMin= 8.92D-06
 ErrMax= 8.92D-06  0.00D+00 EMaxC= 1.00D-01 BMatC= 3.91D-09 BMatP= 4.21D-07
 IDIUse=1 WtCom= 1.00D+00 WtEn= 0.00D+00
 Coeff-Com: -0.125D-03 0.170D-02 0.448D-02 0.687D-02 0.741D-01 0.147D+00
 Coeff-Com:  0.766D+00
 Coeff:     -0.125D-03 0.170D-02 0.448D-02 0.687D-02 0.741D-01 0.147D+00
 Coeff:      0.766D+00
 Gap=     0.240 Goal=   None    Shift=    0.000
 RMSDP=7.21D-07 MaxDP=1.12D-05 DE=-3.72D-07 OVMax= 2.94D-05

 Cycle   8  Pass 1  IDiag  1:
 E= -225.381573281295     Delta-E=       -0.000000003571 Rises=F Damp=F
 DIIS: error= 9.92D-07 at cycle   8 NSaved=   8.
 NSaved= 8 IEnMin= 8 EnMin= -225.381573281295     IErMin= 8 ErrMin= 9.92D-07
 ErrMax= 9.92D-07  0.00D+00 EMaxC= 1.00D-01 BMatC= 5.41D-11 BMatP= 3.91D-09
 IDIUse=1 WtCom= 1.00D+00 WtEn= 0.00D+00
 Coeff-Com: -0.142D-04 0.316D-04 0.123D-03 0.388D-03 0.419D-02 0.133D-01
 Coeff-Com:  0.108D+00 0.874D+00
 Coeff:     -0.142D-04 0.316D-04 0.123D-03 0.388D-03 0.419D-02 0.133D-01
 Coeff:      0.108D+00 0.874D+00
 Gap=     0.240 Goal=   None    Shift=    0.000
 RMSDP=9.99D-08 MaxDP=1.88D-06 DE=-3.57D-09 OVMax= 3.17D-06

 Cycle   9  Pass 1  IDiag  1:
 E= -225.381573281341     Delta-E=       -0.000000000046 Rises=F Damp=F
 DIIS: error= 6.44D-08 at cycle   9 NSaved=   9.
 NSaved= 9 IEnMin= 9 EnMin= -225.381573281341     IErMin= 9 ErrMin= 6.44D-08
 ErrMax= 6.44D-08  0.00D+00 EMaxC= 1.00D-01 BMatC= 3.98D-13 BMatP= 5.41D-11
 IDIUse=1 WtCom= 1.00D+00 WtEn= 0.00D+00
 Coeff-Com: -0.111D-05-0.182D-04-0.344D-04-0.386D-05-0.603D-04 0.110D-02
 Coeff-Com:  0.154D-01 0.201D+00 0.783D+00
 Coeff:     -0.111D-05-0.182D-04-0.344D-04-0.386D-05-0.603D-04 0.110D-02
 Coeff:      0.154D-01 0.201D+00 0.783D+00
 Gap=     0.240 Goal=   None    Shift=    0.000
 RMSDP=6.64D-09 MaxDP=5.65D-08 DE=-4.61D-11 OVMax= 1.50D-07

 Error on total polarization charges =  0.00794
 SCF Done:  E(RB-P86) =  -225.381573281     A.U. after    9 cycles
            NFock=  9  Conv=0.66D-08     -V/T= 2.0043
 KE= 2.244256115313D+02 PE=-7.747420832580D+02 EE= 2.018925973555D+02
 Leave Link  502 at Mon Feb 22 21:29:24 2021, MaxMem=   104857600 cpu:              49.8 elap:               1.8
 (Enter /sw/arch/RedHatEnterpriseServer7/EB_production/2019/software/Gaussian/g16.c01/l701.exe)
 ... and contract with generalized density number  0.
 Compute integral first derivatives.
 R6Disp: Adding Grimme-D3 dispersion energy 1st derivatives to the gradient.
 PrsmSu:  requested number of processors reduced to:  30 ShMem   1 Linda.
 D1PCM: PCM CHGder 1st derivatives, ID1Alg=3 FixD1E=F DoIter=F DoCFld=F I1PDM=0.
 GePol: Maximum number of non-zero 1st derivatives   =     225
 CoulSu:  requested number of processors reduced to:  30 ShMem   1 Linda.
 CoulSu:  requested number of processors reduced to:  30 ShMem   1 Linda.
 Leave Link  701 at Mon Feb 22 21:29:25 2021, MaxMem=   104857600 cpu:              12.8 elap:               0.5
 (Enter /sw/arch/RedHatEnterpriseServer7/EB_production/2019/software/Gaussian/g16.c01/l702.exe)
 L702 exits ... SP integral derivatives will be done elsewhere.
 Leave Link  702 at Mon Feb 22 21:29:25 2021, MaxMem=   104857600 cpu:               0.6 elap:               0.0
 (Enter /sw/arch/RedHatEnterpriseServer7/EB_production/2019/software/Gaussian/g16.c01/l703.exe)
 Integral derivatives from FoFJK, PRISM(SPDF).
 Compute integral first derivatives, UseDBF=F ICtDFT=           0.
 Calling FoFJK, ICntrl=      2527 FMM=F ISym2X=0 I1Cent= 0 IOpClX= 0 NMat=1 NMatS=1 NMatT=0.
 FoFJK:  IHMeth= 1 ICntrl=    2527 DoSepK=F KAlg= 0 I1Cent=           0 FoldK=F
 IRaf=         0 NMat=       1 IRICut=       1 DoRegI=T DoRafI=F ISym2E= 0 IDoP0=0 IntGTp=1.
 FoFCou: FMM=F IPFlag=           0 FMFlag=      100000 FMFlg1=         800
         NFxFlg=           0 DoJE=F BraDBF=F KetDBF=F FulRan=T
         wScrn=  0.000000 ICntrl=      2527 IOpCl=  0 I1Cent=           0 NGrid=           0
         NMat0=    1 NMatS0=      1 NMatT0=    0 NMatD0=    1 NMtDS0=    0 NMtDT0=    0
 Symmetry not used in FoFCou.
 Leave Link  703 at Mon Feb 22 21:29:25 2021, MaxMem=   104857600 cpu:               9.0 elap:               0.3
 (Enter /sw/arch/RedHatEnterpriseServer7/EB_production/2019/software/Gaussian/g16.c01/l716.exe)
 Dipole        =-1.02343879D-05-2.30661889D+00 7.61066394D-04
 ***** Axes restored to original set *****
 -------------------------------------------------------------------
 Center     Atomic                   Forces (Hartrees/Bohr)
 Number     Number              X              Y              Z
 -------------------------------------------------------------------
      1        7           0.001410678    0.000154596   -0.002438641
      2        6          -0.007625548   -0.001247220    0.015360878
      3        7           0.001071698    0.000285359   -0.002582935
      4        8           0.004898604    0.000768267   -0.009867012
      5        1          -0.000764996    0.000594120   -0.001731350
      6        1          -0.002700235    0.000841627   -0.000175674
      7        1           0.001841904   -0.000951272    0.001938544
      8        1           0.001867896   -0.000445477   -0.000503811
 -------------------------------------------------------------------
 Cartesian Forces:  Max     0.015360878 RMS     0.004365733
 Leave Link  716 at Mon Feb 22 21:29:26 2021, MaxMem=   104857600 cpu:               1.0 elap:               0.1
 (Enter /sw/arch/RedHatEnterpriseServer7/EB_production/2019/software/Gaussian/g16.c01/l103.exe)

 GradGradGradGradGradGradGradGradGradGradGradGradGradGradGradGradGradGrad
 Berny optimization.
 Using GEDIIS/GDIIS optimizer.
 FormGI is forming the generalized inverse of G from B-inverse, IUseBI=4.
 Internal  Forces:  Max     0.011042836 RMS     0.002891252
 Search for a local minimum.
 Step number   2 out of a maximum of   34
 All quantities printed in internal units (Hartrees-Bohrs-Radians)
 RMS Force = .28913D-02 SwitMx=.10000D-02 MixMth= 1
 Mixed Optimization -- RFO/linear search
 Update second derivatives using D2CorX and points    1    2
 DE= -9.82D-03 DEPred=-9.99D-03 R= 9.83D-01
 TightC=F SS=  1.41D+00  RLast= 2.09D-01 DXNew= 5.0454D-01 6.2618D-01
 Trust test= 9.83D-01 RLast= 2.09D-01 DXMaxT set to 5.05D-01
 ITU=  1  0
 Use linear search instead of GDIIS.
     Eigenvalues ---    0.02465   0.02465   0.02466   0.02466   0.02466
     Eigenvalues ---    0.15789   0.16000   0.16000   0.16059   0.25000
     Eigenvalues ---    0.25568   0.50212   0.53315   0.53342   0.53510
     Eigenvalues ---    0.56563   0.56873   0.85970
 RFO step:  Lambda=-2.98687091D-04 EMin= 2.46535298D-02
 Quartic linear search produced a step of  0.06913.
 Iteration  1 RMS(Cart)=  0.01100668 RMS(Int)=  0.00004371
 Iteration  2 RMS(Cart)=  0.00004058 RMS(Int)=  0.00000001
 Iteration  3 RMS(Cart)=  0.00000000 RMS(Int)=  0.00000001
 ITry= 1 IFail=0 DXMaxC= 3.00D-02 DCOld= 1.00D+10 DXMaxT= 5.05D-01 DXLimC= 3.00D+00 Rises=F
 Variable       Old X    -DE/DX   Delta X   Delta X   Delta X     New X
                                 (Linear)    (Quad)   (Total)
    R1        2.58076   0.00504   0.00316   0.00713   0.01029   2.59105
    R2        1.91324   0.00128   0.00551  -0.00149   0.00401   1.91725
    R3        1.90725   0.00279   0.00511   0.00184   0.00695   1.91420
    R4        2.58082   0.00502   0.00316   0.00709   0.01025   2.59107
    R5        2.37512  -0.01104   0.00084  -0.01484  -0.01399   2.36113
    R6        1.90724   0.00280   0.00511   0.00184   0.00695   1.91419
    R7        1.91324   0.00127   0.00551  -0.00150   0.00401   1.91725
    A1        2.14579   0.00164   0.00341   0.00877   0.01219   2.15797
    A2        2.06092  -0.00036  -0.00231  -0.00098  -0.00329   2.05762
    A3        2.07648  -0.00127  -0.00110  -0.00780  -0.00889   2.06759
    A4        2.02594   0.00049  -0.00505   0.00555   0.00050   2.02644
    A5        2.12863  -0.00025   0.00252  -0.00277  -0.00025   2.12838
    A6        2.12861  -0.00025   0.00253  -0.00278  -0.00025   2.12836
    A7        2.06088  -0.00036  -0.00231  -0.00096  -0.00327   2.05761
    A8        2.14577   0.00164   0.00342   0.00878   0.01219   2.15797
    A9        2.07653  -0.00128  -0.00110  -0.00782  -0.00892   2.06761
    D1       -0.00072   0.00002   0.00002   0.00074   0.00076   0.00004
    D2        3.14104   0.00001   0.00005   0.00026   0.00031   3.14135
    D3        3.14042   0.00002   0.00002   0.00095   0.00097   3.14139
    D4       -0.00101   0.00001   0.00006   0.00047   0.00052  -0.00048
    D5       -3.14044  -0.00002  -0.00002  -0.00095  -0.00097  -3.14141
    D6        0.00071  -0.00002  -0.00002  -0.00074  -0.00075  -0.00005
    D7        0.00098  -0.00001  -0.00006  -0.00046  -0.00052   0.00046
    D8       -3.14105  -0.00001  -0.00005  -0.00025  -0.00030  -3.14136
         Item               Value     Threshold  Converged?
 Maximum Force            0.011043     0.000450     NO 
 RMS     Force            0.002891     0.000300     NO 
 Maximum Displacement     0.029974     0.001800     NO 
 RMS     Displacement     0.011018     0.001200     NO 
 Predicted change in Energy=-1.800546D-04
 Lowest energy point so far.  Saving SCF results.
 GradGradGradGradGradGradGradGradGradGradGradGradGradGradGradGradGradGrad

 Leave Link  103 at Mon Feb 22 21:29:26 2021, MaxMem=   104857600 cpu:               9.8 elap:               0.4
 (Enter /sw/arch/RedHatEnterpriseServer7/EB_production/2019/software/Gaussian/g16.c01/l202.exe)
                          Input orientation:                          
 ---------------------------------------------------------------------
 Center     Atomic      Atomic             Coordinates (Angstroms)
 Number     Number       Type             X           Y           Z
 ---------------------------------------------------------------------
      1          7           0       -0.494830    0.793689   -1.679162
      2          6           0        0.175964    0.350025   -0.568676
      3          7           0        1.491171    0.009660   -0.754145
      4          8           0       -0.378838    0.261350    0.547332
      5          1           0       -0.070090    0.875977   -2.596859
      6          1           0       -1.468398    1.052385   -1.572826
      7          1           0        2.012599   -0.321822    0.048536
      8          1           0        1.967162    0.071706   -1.647970
 ---------------------------------------------------------------------
                    Distance matrix (angstroms):
                    1          2          3          4          5
     1  N    0.000000
     2  C    1.371125   0.000000
     3  N    2.326920   1.371137   0.000000
     4  O    2.292185   1.249456   2.292187   0.000000
     5  H    1.014566   2.109667   2.565860   3.218544   0.000000
     6  H    1.012949   2.050745   3.242925   2.511562   1.742134
     7  H    3.242916   2.050746   1.012948   2.511546   3.573574
     8  H    2.565860   2.109675   1.014564   3.218545   2.386973
                    6          7          8
     6  H    0.000000
     7  H    4.078554   0.000000
     8  H    3.573577   1.742142   0.000000
 Stoichiometry    CH4N2O
 Framework group  C1[X(CH4N2O)]
 Deg. of freedom    18
 Full point group                 C1      NOp   1
 RotChk:  IX=0 Diff= 2.32D-04
 Largest Abelian subgroup         C1      NOp   1
 Largest concise Abelian subgroup C1      NOp   1
                         Standard orientation:                         
 ---------------------------------------------------------------------
 Center     Atomic      Atomic             Coordinates (Angstroms)
 Number     Number       Type             X           Y           Z
 ---------------------------------------------------------------------
      1          7           0       -1.163459   -0.598197   -0.000020
      2          6           0       -0.000005    0.127308    0.000079
      3          7           0        1.163461   -0.598201   -0.000018
      4          8           0        0.000003    1.376764   -0.000052
      5          1           0       -1.193487   -1.612318   -0.000126
      6          1           0       -2.039280   -0.089274    0.000230
      7          1           0        2.039273   -0.089264    0.000215
      8          1           0        1.193486   -1.612321   -0.000116
 ---------------------------------------------------------------------
 Rotational constants (GHZ):          11.0825164          10.2795113           5.3329606
 Leave Link  202 at Mon Feb 22 21:29:26 2021, MaxMem=   104857600 cpu:               0.2 elap:               0.0
 (Enter /sw/arch/RedHatEnterpriseServer7/EB_production/2019/software/Gaussian/g16.c01/l301.exe)
 Standard basis: TZVP (5D, 7F)
 Ernie: Thresh=  0.10000D-02 Tol=  0.10000D-05 Strict=F.
 There are   104 symmetry adapted cartesian basis functions of A   symmetry.
 There are   100 symmetry adapted basis functions of A   symmetry.
   100 basis functions,   172 primitive gaussians,   104 cartesian basis functions
    16 alpha electrons       16 beta electrons
       nuclear repulsion energy       122.8993594368 Hartrees.
 IExCor=  404 DFT=T Ex=B Corr=P86 ExCW=0 ScaHFX=  0.000000
 ScaDFX=  1.000000  1.000000  1.000000  1.000000 ScalE2=  1.000000  1.000000
 IRadAn=      5 IRanWt=     -1 IRanGd=            0 ICorTp=0 IEmpDi=131
 NAtoms=    8 NActive=    8 NUniq=    8 SFac= 1.00D+00 NAtFMM=   60 NAOKFM=F Big=F
 Integral buffers will be    131072 words long.
 Raffenetti 2 integral format.
 Two-electron integral symmetry is turned on.
 R6Disp:  Grimme-D3 Dispersion energy=       -0.0033488074 Hartrees.
 Nuclear repulsion after empirical dispersion term =      122.8960106294 Hartrees.
 ------------------------------------------------------------------------------
 Polarizable Continuum Model (PCM)
 =================================
 Model                : PCM.
 Atomic radii         : UFF (Universal Force Field).
 Polarization charges : Total charges.
 Charge compensation  : None.
 Solution method      : On-the-fly selection.
 Cavity type          : Scaled VdW (van der Waals Surface) (Alpha=1.100).
 Cavity algorithm     : GePol (No added spheres)
                        Default sphere list used, NSphG=    8.
                        Lebedev-Laikov grids with approx.  5.0 points / Ang**2.
                        Smoothing algorithm: York/Karplus (Gamma=1.0000).
                        Polarization charges: spherical gaussians, with
                                              point-specific exponents (IZeta= 3).
                        Self-potential: point-specific (ISelfS= 7).
                        Self-field    : sphere-specific E.n sum rule (ISelfD= 2).
 1st derivatives      : Analytical E(r).r(x)/FMM algorithm (CHGder, D1EAlg=3).
                        Cavity 1st derivative terms included.
 Solvent              : Water, Eps=  78.355300 Eps(inf)=   1.777849
 ------------------------------------------------------------------------------
 Spheres list:
 ISph  on   Nord     Re0    Alpha      Xe            Ye            Ze
    1   N      1    1.8300  1.100     -1.163459     -0.598197     -0.000020
    2   C      2    1.9255  1.100     -0.000005      0.127308      0.000079
    3   N      3    1.8300  1.100      1.163461     -0.598201     -0.000018
    4   O      4    1.7500  1.100      0.000003      1.376764     -0.000052
    5   H      5    1.4430  1.100     -1.193487     -1.612318     -0.000126
    6   H      6    1.4430  1.100     -2.039280     -0.089274      0.000230
    7   H      7    1.4430  1.100      2.039273     -0.089264      0.000215
    8   H      8    1.4430  1.100      1.193486     -1.612321     -0.000116
 ------------------------------------------------------------------------------
 GePol: Number of generator spheres                  =       8
 GePol: Total number of spheres                      =       8
 GePol: Number of exposed spheres                    =       8 (100.00%)
 GePol: Number of points                             =     825
 GePol: Average weight of points                     =       0.13
 GePol: Minimum weight of points                     =   0.22D-04
 GePol: Maximum weight of points                     =    0.20293
 GePol: Number of points with low weight             =      46
 GePol: Fraction of low-weight points (<1% of avg)   =       5.58%
 GePol: Cavity surface area                          =    111.070 Ang**2
 GePol: Cavity volume                                =     93.615 Ang**3
 Leave Link  301 at Mon Feb 22 21:29:26 2021, MaxMem=   104857600 cpu:               2.0 elap:               0.1
 (Enter /sw/arch/RedHatEnterpriseServer7/EB_production/2019/software/Gaussian/g16.c01/l302.exe)
 NPDir=0 NMtPBC=     1 NCelOv=     1 NCel=       1 NClECP=     1 NCelD=      1
         NCelK=      1 NCelE2=     1 NClLst=     1 CellRange=     0.0.
 One-electron integrals computed using PRISM.
 One-electron integral symmetry used in STVInt
 PrsmSu:  requested number of processors reduced to:  30 ShMem   1 Linda.
 NBasis=   100 RedAO= T EigKep=  1.63D-03  NBF=   100
 NBsUse=   100 1.00D-06 EigRej= -1.00D+00 NBFU=   100
 Precomputing XC quadrature grid using
 IXCGrd= 4 IRadAn=           5 IRanWt=          -1 IRanGd=           0 AccXCQ= 0.00D+00.
 Generated NRdTot=       0 NPtTot=           0 NUsed=           0 NTot=          32
 NSgBfM=   104   104   104   104   104 MxSgAt=     8 MxSgA2=     8.
 Leave Link  302 at Mon Feb 22 21:29:26 2021, MaxMem=   104857600 cpu:               5.3 elap:               0.2
 (Enter /sw/arch/RedHatEnterpriseServer7/EB_production/2019/software/Gaussian/g16.c01/l303.exe)
 DipDrv:  MaxL=1.
 Leave Link  303 at Mon Feb 22 21:29:26 2021, MaxMem=   104857600 cpu:               3.0 elap:               0.2
 (Enter /sw/arch/RedHatEnterpriseServer7/EB_production/2019/software/Gaussian/g16.c01/l401.exe)
 Initial guess from the checkpoint file:  "XSQUKJJJFZCRTK-UHFFFAOYSA-N.chk"
 B after Tr=    -0.000000   -0.000000    0.000000
         Rot=    1.000000    0.000000   -0.000000    0.000017 Ang=   0.00 deg.
 Guess basis will be translated and rotated to current coordinates.
 JPrj=2 DoOrth=T DoCkMO=T.
 Generating alternative initial guess.
 ExpMin= 9.52D-02 ExpMax= 2.70D+04 ExpMxC= 9.22D+02 IAcc=3 IRadAn=         5 AccDes= 0.00D+00
 Harris functional with IExCor=  404 and IRadAn=       5 diagonalized for initial guess.
 HarFok:  IExCor=  404 AccDes= 0.00D+00 IRadAn=         5 IDoV= 1 UseB2=F ITyADJ=14
 ICtDFT=  3500011 ScaDFX=  1.000000  1.000000  1.000000  1.000000
 FoFCou: FMM=F IPFlag=           0 FMFlag=      100000 FMFlg1=           0
         NFxFlg=           0 DoJE=T BraDBF=F KetDBF=T FulRan=T
         wScrn=  0.000000 ICntrl=       500 IOpCl=  0 I1Cent=   200000004 NGrid=           0
         NMat0=    1 NMatS0=      1 NMatT0=    0 NMatD0=    1 NMtDS0=    0 NMtDT0=    0
 Petite list used in FoFCou.
 Harris En= -225.437556296237    
 Leave Link  401 at Mon Feb 22 21:29:27 2021, MaxMem=   104857600 cpu:               6.9 elap:               0.3
 (Enter /sw/arch/RedHatEnterpriseServer7/EB_production/2019/software/Gaussian/g16.c01/l502.exe)
 Keep J ints in memory in canonical form, NReq=42541667.
 FoFCou: FMM=F IPFlag=           0 FMFlag=           0 FMFlg1=           0
         NFxFlg=           0 DoJE=F BraDBF=F KetDBF=F FulRan=T
         wScrn=  0.000000 ICntrl=       600 IOpCl=  0 I1Cent=           0 NGrid=           0
         NMat0=    1 NMatS0=   5050 NMatT0=    0 NMatD0=    1 NMtDS0=    0 NMtDT0=    0
 Symmetry not used in FoFCou.
 Two-electron integral symmetry not used.
 Closed shell SCF:
 Using DIIS extrapolation, IDIIS=  1040.
 NGot=   104857600 LenX=    92077507 LenY=    92066250
 Requested convergence on RMS density matrix=1.00D-08 within 128 cycles.
 Requested convergence on MAX density matrix=1.00D-06.
 Requested convergence on             energy=1.00D-06.
 No special actions if energy rises.

 Cycle   1  Pass 1  IDiag  1:
 Inv3:  Mode=1 IEnd=     2041875.
 Iteration    1 A*A^-1 deviation from unit magnitude is 2.44D-15 for    752.
 Iteration    1 A*A^-1 deviation from orthogonality  is 1.78D-15 for    569    186.
 Iteration    1 A^-1*A deviation from unit magnitude is 2.44D-15 for    418.
 Iteration    1 A^-1*A deviation from orthogonality  is 4.14D-14 for    472    328.
 E= -225.381692524546    
 DIIS: error= 8.05D-04 at cycle   1 NSaved=   1.
 NSaved= 1 IEnMin= 1 EnMin= -225.381692524546     IErMin= 1 ErrMin= 8.05D-04
 ErrMax= 8.05D-04  0.00D+00 EMaxC= 1.00D-01 BMatC= 9.27D-05 BMatP= 9.27D-05
 IDIUse=3 WtCom= 9.92D-01 WtEn= 8.05D-03
 Coeff-Com:  0.100D+01
 Coeff-En:   0.100D+01
 Coeff:      0.100D+01
 Gap=     0.570 Goal=   None    Shift=    0.000
 RMSDP=1.43D-04 MaxDP=1.93D-03              OVMax= 3.84D-03

 Cycle   2  Pass 1  IDiag  1:
 E= -225.381757896080     Delta-E=       -0.000065371533 Rises=F Damp=F
 DIIS: error= 9.19D-04 at cycle   2 NSaved=   2.
 NSaved= 2 IEnMin= 2 EnMin= -225.381757896080     IErMin= 1 ErrMin= 8.05D-04
 ErrMax= 9.19D-04  0.00D+00 EMaxC= 1.00D-01 BMatC= 5.72D-05 BMatP= 9.27D-05
 IDIUse=3 WtCom= 9.91D-01 WtEn= 9.19D-03
 Coeff-Com:  0.418D+00 0.582D+00
 Coeff-En:   0.000D+00 0.100D+01
 Coeff:      0.414D+00 0.586D+00
 Gap=     0.241 Goal=   None    Shift=    0.000
 RMSDP=9.97D-05 MaxDP=1.79D-03 DE=-6.54D-05 OVMax= 5.39D-03

 Cycle   3  Pass 1  IDiag  1:
 E= -225.381746680534     Delta-E=        0.000011215546 Rises=F Damp=F
 DIIS: error= 1.06D-03 at cycle   3 NSaved=   3.
 NSaved= 3 IEnMin= 2 EnMin= -225.381757896080     IErMin= 1 ErrMin= 8.05D-04
 ErrMax= 1.06D-03  0.00D+00 EMaxC= 1.00D-01 BMatC= 6.51D-05 BMatP= 5.72D-05
 IDIUse=3 WtCom= 2.35D-01 WtEn= 7.65D-01
 Coeff-Com:  0.477D-01 0.505D+00 0.448D+00
 Coeff-En:   0.000D+00 0.544D+00 0.456D+00
 Coeff:      0.112D-01 0.535D+00 0.454D+00
 Gap=     0.242 Goal=   None    Shift=    0.000
 RMSDP=7.42D-05 MaxDP=1.30D-03 DE= 1.12D-05 OVMax= 3.40D-03

 Cycle   4  Pass 1  IDiag  1:
 E= -225.381796072476     Delta-E=       -0.000049391942 Rises=F Damp=F
 DIIS: error= 1.22D-04 at cycle   4 NSaved=   4.
 NSaved= 4 IEnMin= 4 EnMin= -225.381796072476     IErMin= 4 ErrMin= 1.22D-04
 ErrMax= 1.22D-04  0.00D+00 EMaxC= 1.00D-01 BMatC= 1.20D-06 BMatP= 5.72D-05
 IDIUse=3 WtCom= 9.99D-01 WtEn= 1.22D-03
 Coeff-Com:  0.115D-01 0.263D+00 0.242D+00 0.484D+00
 Coeff-En:   0.000D+00 0.000D+00 0.000D+00 0.100D+01
 Coeff:      0.115D-01 0.262D+00 0.242D+00 0.485D+00
 Gap=     0.242 Goal=   None    Shift=    0.000
 RMSDP=1.00D-05 MaxDP=1.69D-04 DE=-4.94D-05 OVMax= 2.43D-04

 Cycle   5  Pass 1  IDiag  1:
 E= -225.381796796155     Delta-E=       -0.000000723680 Rises=F Damp=F
 DIIS: error= 5.60D-05 at cycle   5 NSaved=   5.
 NSaved= 5 IEnMin= 5 EnMin= -225.381796796155     IErMin= 5 ErrMin= 5.60D-05
 ErrMax= 5.60D-05  0.00D+00 EMaxC= 1.00D-01 BMatC= 1.69D-07 BMatP= 1.20D-06
 IDIUse=1 WtCom= 1.00D+00 WtEn= 0.00D+00
 Coeff-Com:  0.890D-03 0.742D-01 0.876D-01 0.261D+00 0.577D+00
 Coeff:      0.890D-03 0.742D-01 0.876D-01 0.261D+00 0.577D+00
 Gap=     0.242 Goal=   None    Shift=    0.000
 RMSDP=2.44D-06 MaxDP=4.26D-05 DE=-7.24D-07 OVMax= 1.43D-04

 Cycle   6  Pass 1  IDiag  1:
 E= -225.381796998127     Delta-E=       -0.000000201972 Rises=F Damp=F
 DIIS: error= 1.06D-05 at cycle   6 NSaved=   6.
 NSaved= 6 IEnMin= 6 EnMin= -225.381796998127     IErMin= 6 ErrMin= 1.06D-05
 ErrMax= 1.06D-05  0.00D+00 EMaxC= 1.00D-01 BMatC= 4.43D-09 BMatP= 1.69D-07
 IDIUse=1 WtCom= 1.00D+00 WtEn= 0.00D+00
 Coeff-Com: -0.372D-04 0.250D-01 0.338D-01 0.101D+00 0.266D+00 0.574D+00
 Coeff:     -0.372D-04 0.250D-01 0.338D-01 0.101D+00 0.266D+00 0.574D+00
 Gap=     0.242 Goal=   None    Shift=    0.000
 RMSDP=6.31D-07 MaxDP=1.09D-05 DE=-2.02D-07 OVMax= 3.15D-05

 Cycle   7  Pass 1  IDiag  1:
 E= -225.381796983968     Delta-E=        0.000000014159 Rises=F Damp=F
 DIIS: error= 2.92D-06 at cycle   7 NSaved=   7.
 NSaved= 7 IEnMin= 6 EnMin= -225.381796998127     IErMin= 7 ErrMin= 2.92D-06
 ErrMax= 2.92D-06  0.00D+00 EMaxC= 1.00D-01 BMatC= 4.94D-10 BMatP= 4.43D-09
 IDIUse=1 WtCom= 1.00D+00 WtEn= 0.00D+00
 Coeff-Com: -0.822D-04 0.274D-02 0.597D-02 0.194D-01 0.670D-01 0.301D+00
 Coeff-Com:  0.604D+00
 Coeff:     -0.822D-04 0.274D-02 0.597D-02 0.194D-01 0.670D-01 0.301D+00
 Coeff:      0.604D+00
 Gap=     0.242 Goal=   None    Shift=    0.000
 RMSDP=2.08D-07 MaxDP=2.92D-06 DE= 1.42D-08 OVMax= 7.08D-06

 Cycle   8  Pass 1  IDiag  1:
 E= -225.381796984401     Delta-E=       -0.000000000432 Rises=F Damp=F
 DIIS: error= 4.21D-07 at cycle   8 NSaved=   8.
 NSaved= 8 IEnMin= 6 EnMin= -225.381796998127     IErMin= 8 ErrMin= 4.21D-07
 ErrMax= 4.21D-07  0.00D+00 EMaxC= 1.00D-01 BMatC= 9.23D-12 BMatP= 4.94D-10
 IDIUse=1 WtCom= 1.00D+00 WtEn= 0.00D+00
 Coeff-Com: -0.229D-04 0.113D-03 0.356D-03 0.247D-02 0.850D-02 0.513D-01
 Coeff-Com:  0.136D+00 0.801D+00
 Coeff:     -0.229D-04 0.113D-03 0.356D-03 0.247D-02 0.850D-02 0.513D-01
 Coeff:      0.136D+00 0.801D+00
 Gap=     0.242 Goal=   None    Shift=    0.000
 RMSDP=4.19D-08 MaxDP=7.95D-07 DE=-4.32D-10 OVMax= 1.34D-06

 Cycle   9  Pass 1  IDiag  1:
 E= -225.381796984408     Delta-E=       -0.000000000008 Rises=F Damp=F
 DIIS: error= 3.06D-08 at cycle   9 NSaved=   9.
 NSaved= 9 IEnMin= 6 EnMin= -225.381796998127     IErMin= 9 ErrMin= 3.06D-08
[...]
 F. Ding, F. Lipparini, F. Egidi, J. Goings, B. Peng, A. Petrone, 
 T. Henderson, D. Ranasinghe, V. G. Zakrzewski, J. Gao, N. Rega, 
 G. Zheng, W. Liang, M. Hada, M. Ehara, K. Toyota, R. Fukuda, 
 J. Hasegawa, M. Ishida, T. Nakajima, Y. Honda, O. Kitao, H. Nakai, 
 T. Vreven, K. Throssell, J. A. Montgomery, Jr., J. E. Peralta, 
 F. Ogliaro, M. J. Bearpark, J. J. Heyd, E. N. Brothers, K. N. Kudin, 
 V. N. Staroverov, T. A. Keith, R. Kobayashi, J. Normand, 
 K. Raghavachari, A. P. Rendell, J. C. Burant, S. S. Iyengar, 
 J. Tomasi, M. Cossi, J. M. Millam, M. Klene, C. Adamo, R. Cammi, 
 J. W. Ochterski, R. L. Martin, K. Morokuma, O. Farkas, 
 J. B. Foresman, and D. J. Fox, Gaussian, Inc., Wallingford CT, 2019.
 
 ******************************************
 Gaussian 16:  ES64L-G16RevC.01  3-Jul-2019
                22-Feb-2021 
 ******************************************
 %chk=XSQUKJJJFZCRTK-UHFFFAOYSA-N.chk
 %NProcShared=32
 Will use up to   32 processors via shared memory.
 ---------------------------------------------------------
 # BP86/TZVP SCRF=COSMORS geom=CHECKPOINT guess=CHECKPOINT
 ---------------------------------------------------------
 1/29=2,38=1,172=1/1;
 2/12=2,40=1/2;
 3/5=19,7=101,11=2,14=-4,25=1,30=1,70=12101,74=404,116=-2/1,2,3;
 4/5=1/1;
 5/5=2,38=6/2;
 6/7=2,8=2,9=2,10=2,28=1/1;
 99/5=1,9=1/99;
 -------------------------------------------
 COSMO-file for #XSQUKJJJFZCRTK-UHFFFAOYSA-N
 -------------------------------------------
 Structure from the checkpoint file:  "XSQUKJJJFZCRTK-UHFFFAOYSA-N.chk"
 Charge =  0 Multiplicity = 1
 Redundant internal coordinates found in file.  (old form).
 N,0,-0.4944313064,0.7935541979,-1.6791624933
 C,0,0.1741868429,0.3495240606,-0.5652765958
 N,0,1.4909057627,0.0097859292,-0.7544487966
 O,0,-0.3788420661,0.261235599,0.547232027
 H,0,-0.0698891984,0.8756954822,-2.596233582
 H,0,-1.4678237601,1.0529960454,-1.5749696533
 H,0,2.0141494106,-0.321598043,0.0468377596
 H,0,1.9664843147,0.0717767288,-1.6477486656
 Recover connectivity data from disk.
                           ----------------------------
                           !    Current Parameters    !
                           ! (Angstroms and Degrees)  !
 --------------------------                            --------------------------
 ! Name  Definition              Value                                          !
 --------------------------------------------------------------------------------
 ! R1    R(1,2)                  1.3729                                         !
 ! R2    R(1,5)                  1.0139                                         !
 ! R3    R(1,6)                  1.0127                                         !
 ! R4    R(2,3)                  1.3729                                         !
 ! R5    R(2,4)                  1.2455                                         !
 ! R6    R(3,7)                  1.0127                                         !
 ! R7    R(3,8)                  1.0139                                         !
 ! A1    A(2,1,5)              123.7877                                         !
 ! A2    A(2,1,6)              117.8693                                         !
 ! A3    A(5,1,6)              118.3431                                         !
 ! A4    A(1,2,3)              115.8043                                         !
 ! A5    A(1,2,4)              122.0979                                         !
 ! A6    A(3,2,4)              122.0978                                         !
 ! A7    A(2,3,7)              117.8692                                         !
 ! A8    A(2,3,8)              123.7877                                         !
 ! A9    A(7,3,8)              118.3431                                         !
 ! D1    D(5,1,2,3)              0.0271                                         !
 ! D2    D(5,1,2,4)            179.9843                                         !
 ! D3    D(6,1,2,3)           -179.9827                                         !
 ! D4    D(6,1,2,4)             -0.0255                                         !
 ! D5    D(1,2,3,7)            179.9818                                         !
 ! D6    D(1,2,3,8)             -0.0272                                         !
 ! D7    D(4,2,3,7)              0.0246                                         !
 ! D8    D(4,2,3,8)           -179.9845                                         !
 --------------------------------------------------------------------------------
                          Input orientation:                          
 ---------------------------------------------------------------------
 Center     Atomic      Atomic             Coordinates (Angstroms)
 Number     Number       Type             X           Y           Z
 ---------------------------------------------------------------------
      1          7           0       -0.494431    0.793554   -1.679162
      2          6           0        0.174187    0.349524   -0.565277
      3          7           0        1.490906    0.009786   -0.754449
      4          8           0       -0.378842    0.261236    0.547232
      5          1           0       -0.069889    0.875695   -2.596234
      6          1           0       -1.467824    1.052996   -1.574970
      7          1           0        2.014149   -0.321598    0.046838
      8          1           0        1.966484    0.071777   -1.647749
 ---------------------------------------------------------------------
                    Distance matrix (angstroms):
                    1          2          3          4          5
     1  N    0.000000
     2  C    1.372937   0.000000
     3  N    2.326145   1.372937   0.000000
     4  O    2.292064   1.245516   2.292064   0.000000
     5  H    1.013905   2.112159   2.564771   3.217824   0.000000
     6  H    1.012748   2.051963   3.242780   2.513266   1.740298
     7  H    3.242779   2.051963   1.012748   2.513264   3.572472
     8  H    2.564772   2.112160   1.013905   3.217824   2.385943
                    6          7          8
     6  H    0.000000
     7  H    4.079694   0.000000
     8  H    3.572473   1.740298   0.000000
 Stoichiometry    CH4N2O
 Framework group  C1[X(CH4N2O)]
 Deg. of freedom    18
 Full point group                 C1      NOp   1
 Largest Abelian subgroup         C1      NOp   1
 Largest concise Abelian subgroup C1      NOp   1
                         Standard orientation:                         
 ---------------------------------------------------------------------
 Center     Atomic      Atomic             Coordinates (Angstroms)
 Number     Number       Type             X           Y           Z
 ---------------------------------------------------------------------
      1          7           0       -1.163073   -0.598888   -0.000045
      2          6           0       -0.000000    0.130645    0.000240
      3          7           0        1.163073   -0.598888   -0.000043
      4          8           0        0.000000    1.376161   -0.000064
      5          1           0       -1.192972   -1.612351   -0.000040
      6          1           0       -2.039847   -0.092010   -0.000118
      7          1           0        2.039847   -0.092009   -0.000128
      8          1           0        1.192972   -1.612352   -0.000036
 ---------------------------------------------------------------------
 Rotational constants (GHZ):          11.0807000          10.2843297           5.3338364
 Standard basis: TZVP (5D, 7F)
 There are   104 symmetry adapted cartesian basis functions of A   symmetry.
 There are   100 symmetry adapted basis functions of A   symmetry.
   100 basis functions,   172 primitive gaussians,   104 cartesian basis functions
    16 alpha electrons       16 beta electrons
       nuclear repulsion energy       122.9273372227 Hartrees.
 NAtoms=    8 NActive=    8 NUniq=    8 SFac= 1.00D+00 NAtFMM=   60 NAOKFM=F Big=F
 Integral buffers will be    131072 words long.
 Raffenetti 2 integral format.
 Two-electron integral symmetry is turned on.
 Warning! Using old PCM defaults because the COSMOthermo output has been requested.
 These settings can be overridden by following keywords.
 ------------------------------------------------------------------------------
 Polarizable Continuum Model (PCM)
 =================================
 Model                : C-PCM.
 Atomic radii         : Klamt.
 XCosmo               : -1.000 (infinite dielectric limit)
 Polarization charges : Electronic and nuclear charges.
 Charge compensation  : Type 3 (Electronic density weighted correction).
 Solution method      : On-the-fly selection.
 Cavity type          : VdW (van der Waals Surface) (Alpha=1.000).
 Cavity algorithm     : GePol (No added spheres)
                        Default sphere list used, NSphG=    8.
                        Tesserae with average area of 0.200 Ang**2.
                        Smoothing algorithm: None.
                        Polarization charges: point-like.
                        Self-potential: constant (ISelfS= 1).
                        Self-field    : global E.n sum rule (ISelfD= 3).
 Solvent              : Water, Eps=  78.355300 Eps(inf)=   1.777849
 ------------------------------------------------------------------------------
 Spheres list:
 ISph  on   Nord     Re0    Alpha      Xe            Ye            Ze
    1   N      1    1.8300  1.000     -1.163073     -0.598888     -0.000045
    2   C      2    2.0000  1.000     -0.000000      0.130645      0.000240
    3   N      3    1.8300  1.000      1.163073     -0.598888     -0.000043
    4   O      4    1.7200  1.000      0.000000      1.376161     -0.000064
    5   H      5    1.3000  1.000     -1.192972     -1.612351     -0.000040
    6   H      6    1.3000  1.000     -2.039847     -0.092010     -0.000118
    7   H      7    1.3000  1.000      2.039847     -0.092009     -0.000128
    8   H      8    1.3000  1.000      1.192972     -1.612352     -0.000036
 ------------------------------------------------------------------------------
 One-electron integrals computed using PRISM.
 PrsmSu:  requested number of processors reduced to:  30 ShMem   1 Linda.
 NBasis=   100 RedAO= T EigKep=  1.64D-03  NBF=   100
 NBsUse=   100 1.00D-06 EigRej= -1.00D+00 NBFU=   100
 Initial guess from the checkpoint file:  "XSQUKJJJFZCRTK-UHFFFAOYSA-N.chk"
 B after Tr=     0.000000   -0.000000   -0.000000
         Rot=    1.000000    0.000000   -0.000000   -0.000000 Ang=   0.00 deg.
 Keep J ints in memory in canonical form, NReq=42541667.
 Requested convergence on RMS density matrix=1.00D-08 within 128 cycles.
 Requested convergence on MAX density matrix=1.00D-06.
 Requested convergence on             energy=1.00D-06.
 No special actions if energy rises.
 Inv3:  Mode=1 IEnd=     1186923.
 Iteration    1 A*A^-1 deviation from unit magnitude is 2.89D-15 for    248.
 Iteration    1 A*A^-1 deviation from orthogonality  is 2.72D-15 for    578     19.
 Iteration    1 A^-1*A deviation from unit magnitude is 2.89D-15 for    248.
 Iteration    1 A^-1*A deviation from orthogonality  is 1.44D-15 for    363     91.
 EnCoef did     2 forward-backward iterations
 Error on nuclear    polarization charges =  0.01547
 Error on electronic polarization charges = -0.03528
 SCF Done:  E(RB-P86) =  -225.387220030     A.U. after    9 cycles
            NFock=  9  Conv=0.48D-08     -V/T= 2.0044
 --------------------------------------------------------------------
 Variational C-PCM results
 =========================
 <psi(f)|   H    |psi(f)>                     (a.u.) =    -225.356516
 <psi(f)|H+V(f)/2|psi(f)>                     (a.u.) =    -225.387220
 Total free energy in solution:
 - with all non electrostatic terms           (a.u.) =    -225.381317
 --------------------------------------------------------------------
 (Polarized solute)-Solvent               (kcal/mol) =     -19.27
 --------------------------------------------------------------------
 Cavitation energy                        (kcal/mol) =      11.95
 Dispersion energy                        (kcal/mol) =      -9.13
 Repulsion energy                         (kcal/mol) =       0.89
 Total non electrostatic                  (kcal/mol) =       3.70
 --------------------------------------------------------------------
 Partition over spheres:
 Sphere  on Atom  Surface  Charge   GEl     GCav    GDR
    1      N1      14.35   0.024   -0.61    1.74   -1.21
    2      C2      11.57   0.034   -0.39    1.36   -0.77
    3      N3      14.35   0.024   -0.60    1.74   -1.21
    4      O4      20.80   0.352   -9.50    2.58   -1.75
    5      H5       7.98  -0.113   -2.89    1.13   -0.80
    6      H6       8.05  -0.104   -1.20    1.14   -0.85
    7      H7       8.05  -0.104   -1.20    1.14   -0.85
    8      H8       7.98  -0.113   -2.88    1.13   -0.80
 --------------------------------------------------------------------
 - cavitation energy not included in the total energy.
 - dispersion energy not included in the total energy.
 - repulsion  energy not included in the total energy.
 After PCM corrections, the energy is  -225.387220030     a.u.
 --------------------------------------------------------------------
 Writing COSMO formatted file "XSQUKJJJFZCRTK-UHFFFAOYSA-N.cosmo"
 Recomputed dielectric energy= -0.030835 old= -0.030704 diff=-1.31D-04

 **********************************************************************

            Population analysis using the SCF Density.

 **********************************************************************

 Orbital symmetries:
       Occupied  (A) (A) (A) (A) (A) (A) (A) (A) (A) (A) (A) (A)
                 (A) (A) (A) (A)
       Virtual   (A) (A) (A) (A) (A) (A) (A) (A) (A) (A) (A) (A)
                 (A) (A) (A) (A) (A) (A) (A) (A) (A) (A) (A) (A)
                 (A) (A) (A) (A) (A) (A) (A) (A) (A) (A) (A) (A)
                 (A) (A) (A) (A) (A) (A) (A) (A) (A) (A) (A) (A)
                 (A) (A) (A) (A) (A) (A) (A) (A) (A) (A) (A) (A)
                 (A) (A) (A) (A) (A) (A) (A) (A) (A) (A) (A) (A)
                 (A) (A) (A) (A) (A) (A) (A) (A) (A) (A) (A) (A)
 The electronic state is 1-A.
 Alpha  occ. eigenvalues --  -18.73195 -14.01193 -14.01193 -10.01963  -0.95703
 Alpha  occ. eigenvalues --   -0.83718  -0.79873  -0.56071  -0.49876  -0.48474
 Alpha  occ. eigenvalues --   -0.42360  -0.38399  -0.37685  -0.23677  -0.23348
 Alpha  occ. eigenvalues --   -0.23104
 Alpha virt. eigenvalues --    0.01364   0.02230   0.06739   0.07890   0.11127
 Alpha virt. eigenvalues --    0.11916   0.17239   0.20492   0.20890   0.25076
 Alpha virt. eigenvalues --    0.31328   0.31409   0.32849   0.34274   0.35742
 Alpha virt. eigenvalues --    0.36898   0.39526   0.44378   0.46498   0.48862
 Alpha virt. eigenvalues --    0.49983   0.52074   0.52913   0.57432   0.66500
 Alpha virt. eigenvalues --    0.69144   0.70160   0.81651   1.18595   1.19101
 Alpha virt. eigenvalues --    1.19799   1.28257   1.29002   1.41610   1.42385
 Alpha virt. eigenvalues --    1.43681   1.44718   1.53402   1.53686   1.59863
 Alpha virt. eigenvalues --    1.67163   1.67601   1.86117   1.87737   1.88176
 Alpha virt. eigenvalues --    1.90228   1.90798   2.02926   2.10540   2.13972
 Alpha virt. eigenvalues --    2.15232   2.18289   2.23601   2.26520   2.42716
 Alpha virt. eigenvalues --    2.42891   2.43972   2.44475   2.52106   2.52240
 Alpha virt. eigenvalues --    2.52705   2.52722   2.54928   2.58657   2.65836
 Alpha virt. eigenvalues --    2.66514   2.75230   2.76952   2.83717   2.90113
 Alpha virt. eigenvalues --    3.09412   3.12651   3.27489   3.30206   3.40960
 Alpha virt. eigenvalues --    3.48018   3.69716   3.77242   3.80660   4.15663
 Alpha virt. eigenvalues --   21.65979  31.32018  31.36869  43.10062
          Condensed to atoms (all electrons):
               1          2          3          4          5          6
     1  N    6.701400   0.329107  -0.159601  -0.134878   0.334834   0.358359
     2  C    0.329107   4.478950   0.329099   0.669429  -0.004175  -0.016314
     3  N   -0.159601   0.329099   6.701409  -0.134876   0.006327   0.007274
     4  O   -0.134878   0.669429  -0.134876   8.083413   0.004889   0.003141
     5  H    0.334834  -0.004175   0.006327   0.004889   0.386766  -0.016841
     6  H    0.358359  -0.016314   0.007274   0.003141  -0.016841   0.379827
     7  H    0.007274  -0.016312   0.358358   0.003141  -0.000019  -0.000355
     8  H    0.006327  -0.004177   0.334835   0.004889  -0.002051  -0.000019
               7          8
     1  N    0.007274   0.006327
     2  C   -0.016312  -0.004177
     3  N    0.358358   0.334835
     4  O    0.003141   0.004889
     5  H   -0.000019  -0.002051
     6  H   -0.000355  -0.000019
     7  H    0.379822  -0.016841
     8  H   -0.016841   0.386772
 Mulliken charges:
               1
     1  N   -0.442822
     2  C    0.234393
     3  N   -0.442824
     4  O   -0.499147
     5  H    0.290272
     6  H    0.284929
     7  H    0.284933
     8  H    0.290266
 Sum of Mulliken charges =  -0.00000
 Mulliken charges with hydrogens summed into heavy atoms:
               1
     1  N    0.132379
     2  C    0.234393
     3  N    0.132375
     4  O   -0.499147
 Electronic spatial extent (au):  <R**2>=            247.9740
 Charge=              0.0000 electrons
 Dipole moment (field-independent basis, Debye):
    X=              0.0000    Y=             -6.1403    Z=              0.0002  Tot=              6.1403
 Quadrupole moment (field-independent basis, Debye-Ang):
   XX=            -15.2846   YY=            -24.7111   ZZ=            -26.4931
   XY=              0.0001   XZ=              0.0001   YZ=              0.0002
 Traceless Quadrupole moment (field-independent basis, Debye-Ang):
   XX=              6.8784   YY=             -2.5482   ZZ=             -4.3302
   XY=              0.0001   XZ=              0.0001   YZ=              0.0002
 Octapole moment (field-independent basis, Debye-Ang**2):
  XXX=              0.0001  YYY=            -24.5299  ZZZ=             -0.0007  XYY=             -0.0000
  XXY=             -3.8570  XXZ=             -0.0031  XZZ=              0.0000  YZZ=              0.7428
  YYZ=             -0.0009  XYZ=             -0.0000
 Hexadecapole moment (field-independent basis, Debye-Ang**3):
 XXXX=            -96.6558 YYYY=           -122.6033 ZZZZ=            -26.1662 XXXY=              0.0002
 XXXZ=              0.0002 YYYX=              0.0002 YYYZ=             -0.0001 ZZZX=              0.0001
 ZZZY=             -0.0004 XXYY=            -39.1523 XXZZ=            -33.0443 YYZZ=            -28.0490
 XXYZ=              0.0011 YYXZ=              0.0002 ZZXY=              0.0000
 N-N= 1.229273372227D+02 E-N=-7.745476244276D+02  KE= 2.244059553839D+02
 Unable to Open any file for archive entry.
 1\1\GINC-TCN1626\SP\RBP86\TZVP\C1H4N2O1\ELENAA\22-Feb-2021\0\\# BP86/T
 ZVP SCRF=COSMORS geom=CHECKPOINT guess=CHECKPOINT\\COSMO-file for #XSQ
 UKJJJFZCRTK-UHFFFAOYSA-N\\0,1\N,0,-0.4944313064,0.7935541979,-1.679162
 4933\C,0,0.1741868429,0.3495240606,-0.5652765958\N,0,1.4909057627,0.00
 97859292,-0.7544487966\O,0,-0.3788420661,0.261235599,0.547232027\H,0,-
 0.0698891984,0.8756954822,-2.596233582\H,0,-1.4678237601,1.0529960454,
 -1.5749696533\H,0,2.0141494106,-0.321598043,0.0468377596\H,0,1.9664843
 147,0.0717767288,-1.6477486656\\Version=ES64L-G16RevC.01\State=1-A\HF=
 -225.38722\RMSD=4.774e-09\Dipole=1.0727982,0.1717109,-2.1576998\Quadru
 pole=3.1121733,-2.2665573,-0.845616,-2.3545301,2.3018825,-1.2005058\PG
 =C01 [X(C1H4N2O1)]\\@
 The archive entry for this job was punched.


 THERE'S NOTHING WRONG WITH FOLLOWING A TRAIN OF THOUGHT...
 AS LONG AS IT ULTIMATELY PULLS INTO THE STATION.
 Job cpu time:       0 days  0 hours  1 minutes  7.7 seconds.
 Elapsed time:       0 days  0 hours  0 minutes  2.6 seconds.
 File lengths (MBytes):  RWF=     10 Int=      0 D2E=      0 Chk=      4 Scr=      1
 Normal termination of Gaussian 16 at Mon Feb 22 21:29:40 2021.
