 Entering Gaussian System, Link 0=g16
 Input=YBBLOADPFWKNGS-UHFFFAOYSA-N.gjf
 Output=YBBLOADPFWKNGS-UHFFFAOYSA-N.log
 Initial command:
 /sw/arch/RedHatEnterpriseServer7/EB_production/2019/software/Gaussian/g16.c01/l1.exe "/scratch-local/elenaa.9715302/Gau-32217.inp" -scrdir="/scratch-local/elenaa.9715302/"
 Entering Link 1 = /sw/arch/RedHatEnterpriseServer7/EB_production/2019/software/Gaussian/g16.c01/l1.exe PID=     32218.
  
 Copyright (c) 1988-2019, Gaussian, Inc.  All Rights Reserved.
  
 This is part of the Gaussian(R) 16 program.  It is based on
 the Gaussian(R) 09 system (copyright 2009, Gaussian, Inc.),
 the Gaussian(R) 03 system (copyright 2003, Gaussian, Inc.),
 the Gaussian(R) 98 system (copyright 1998, Gaussian, Inc.),
 the Gaussian(R) 94 system (copyright 1995, Gaussian, Inc.),
 the Gaussian 92(TM) system (copyright 1992, Gaussian, Inc.),
 the Gaussian 90(TM) system (copyright 1990, Gaussian, Inc.),
 the Gaussian 88(TM) system (copyright 1988, Gaussian, Inc.),
 the Gaussian 86(TM) system (copyright 1986, Carnegie Mellon
 University), and the Gaussian 82(TM) system (copyright 1983,
 Carnegie Mellon University). Gaussian is a federally registered
 trademark of Gaussian, Inc.
  
 This software contains proprietary and confidential information,
 including trade secrets, belonging to Gaussian, Inc.
  
 This software is provided under written license and may be
 used, copied, transmitted, or stored only in accord with that
 written license.
  
 The following legend is applicable only to US Government
 contracts under FAR:
  
                    RESTRICTED RIGHTS LEGEND
  
 Use, reproduction and disclosure by the US Government is
 subject to restrictions as set forth in subparagraphs (a)
 and (c) of the Commercial Computer Software - Restricted
 Rights clause in FAR 52.227-19.
  
 Gaussian, Inc.
 340 Quinnipiac St., Bldg. 40, Wallingford CT 06492
  
  
 ---------------------------------------------------------------
 Warning -- This program may not be used in any manner that
 competes with the business of Gaussian, Inc. or will provide
 assistance to any competitor of Gaussian, Inc.  The licensee
 of this program is prohibited from giving any competitor of
 Gaussian, Inc. access to this program.  By using this program,
 the user acknowledges that Gaussian, Inc. is engaged in the
 business of creating and licensing software in the field of
 computational chemistry and represents and warrants to the
 licensee that it is not a competitor of Gaussian, Inc. and that
 it will not use this program in any manner prohibited above.
 ---------------------------------------------------------------
  

 Cite this work as:
 Gaussian 16, Revision C.01,
 M. J. Frisch, G. W. Trucks, H. B. Schlegel, G. E. Scuseria, 
 M. A. Robb, J. R. Cheeseman, G. Scalmani, V. Barone, 
 G. A. Petersson, H. Nakatsuji, X. Li, M. Caricato, A. V. Marenich, 
 J. Bloino, B. G. Janesko, R. Gomperts, B. Mennucci, H. P. Hratchian, 
 J. V. Ortiz, A. F. Izmaylov, J. L. Sonnenberg, D. Williams-Young, 
 F. Ding, F. Lipparini, F. Egidi, J. Goings, B. Peng, A. Petrone, 
 T. Henderson, D. Ranasinghe, V. G. Zakrzewski, J. Gao, N. Rega, 
 G. Zheng, W. Liang, M. Hada, M. Ehara, K. Toyota, R. Fukuda, 
 J. Hasegawa, M. Ishida, T. Nakajima, Y. Honda, O. Kitao, H. Nakai, 
 T. Vreven, K. Throssell, J. A. Montgomery, Jr., J. E. Peralta, 
 F. Ogliaro, M. J. Bearpark, J. J. Heyd, E. N. Brothers, K. N. Kudin, 
 V. N. Staroverov, T. A. Keith, R. Kobayashi, J. Normand, 
 K. Raghavachari, A. P. Rendell, J. C. Burant, S. S. Iyengar, 
 J. Tomasi, M. Cossi, J. M. Millam, M. Klene, C. Adamo, R. Cammi, 
 J. W. Ochterski, R. L. Martin, K. Morokuma, O. Farkas, 
 J. B. Foresman, and D. J. Fox, Gaussian, Inc., Wallingford CT, 2019.
 
 ******************************************
 Gaussian 16:  ES64L-G16RevC.01  3-Jul-2019
                22-Feb-2021 
 ******************************************
 %chk=YBBLOADPFWKNGS-UHFFFAOYSA-N.chk
 %NProcShared=32
 Will use up to   32 processors via shared memory.
 -------------------------------------------------------------
 #P BP86/TZVP EmpiricalDispersion=GD3 SCRF=(Solvent=Water) Opt
 -------------------------------------------------------------
 1/18=20,19=15,26=3,38=1/1,3;
 2/9=110,12=2,17=6,18=5,40=1/2;
 3/5=19,7=101,11=2,25=1,30=1,70=2201,71=1,72=1,74=404,124=31/1,2,3;
 4//1;
 5/5=2,38=5,53=1/2;
 6/7=2,8=2,9=2,10=2,28=1/1;
 7//1,2,3,16;
 1/18=20,19=15,26=3/3(2);
 2/9=110/2;
 99//99;
 2/9=110/2;
 3/5=19,7=101,11=2,25=1,30=1,70=2205,71=1,72=1,74=404,124=31/1,2,3;
 4/5=5,16=3,69=1/1;
 5/5=2,38=5,53=1/2;
 7//1,2,3,16;
 1/18=20,19=15,26=3/3(-5);
 2/9=110/2;
 6/7=2,8=2,9=2,10=2,19=2,28=1/1;
 99/9=1/99;
 Leave Link    1 at Mon Feb 22 21:29:30 2021, MaxMem=           0 cpu:               1.6 elap:               0.1
 (Enter /sw/arch/RedHatEnterpriseServer7/EB_production/2019/software/Gaussian/g16.c01/l101.exe)
 -------------------------------------
 Particle #YBBLOADPFWKNGS-UHFFFAOYSA-N
 -------------------------------------
 Symbolic Z-matrix:
 Charge =  0 Multiplicity = 1
 C                    -1.96089  -0.02221   0.34335 
 N                    -0.68203  -0.6671    0.12407 
 C                    -0.71261  -2.11304   0.04441 
 C                     0.50054   0.04686  -0.00262 
 N                     0.58127   1.39167   0.06471 
 O                     1.6042   -0.51507  -0.19287 
 H                    -2.42381  -0.41113   1.25207 
 H                    -1.90853   1.06205   0.44874 
 H                    -2.63068  -0.23426  -0.49196 
 H                    -1.39633  -2.42909  -0.74608 
 H                     0.25722  -2.5668   -0.16585 
 H                    -1.06948  -2.52942   0.98866 
 H                     1.4383    1.83606  -0.03038 
 H                    -0.21123   1.92548   0.20835 
 
 ITRead=  0  0  0  0  0  0  0  0  0  0  0  0  0  0
 MicOpt= -1 -1 -1 -1 -1 -1 -1 -1 -1 -1 -1 -1 -1 -1
 NAtoms=     14 NQM=       14 NQMF=       0 NMMI=      0 NMMIF=      0
                NMic=       0 NMicF=      0.
                    Isotopes and Nuclear Properties:
 (Nuclear quadrupole moments (NQMom) in fm**2, nuclear magnetic moments (NMagM)
  in nuclear magnetons)

  Atom         1           2           3           4           5           6           7           8           9          10
 IAtWgt=          12          14          12          12          14          16           1           1           1           1
 AtmWgt=  12.0000000  14.0030740  12.0000000  12.0000000  14.0030740  15.9949146   1.0078250   1.0078250   1.0078250   1.0078250
 NucSpn=           0           2           0           0           2           0           1           1           1           1
 AtZEff=  -0.0000000  -0.0000000  -0.0000000  -0.0000000  -0.0000000  -0.0000000  -0.0000000  -0.0000000  -0.0000000  -0.0000000
 NQMom=    0.0000000   2.0440000   0.0000000   0.0000000   2.0440000   0.0000000   0.0000000   0.0000000   0.0000000   0.0000000
 NMagM=    0.0000000   0.4037610   0.0000000   0.0000000   0.4037610   0.0000000   2.7928460   2.7928460   2.7928460   2.7928460
 AtZNuc=   6.0000000   7.0000000   6.0000000   6.0000000   7.0000000   8.0000000   1.0000000   1.0000000   1.0000000   1.0000000

  Atom        11          12          13          14
 IAtWgt=           1           1           1           1
 AtmWgt=   1.0078250   1.0078250   1.0078250   1.0078250
 NucSpn=           1           1           1           1
 AtZEff=  -0.0000000  -0.0000000  -0.0000000  -0.0000000
 NQMom=    0.0000000   0.0000000   0.0000000   0.0000000
 NMagM=    2.7928460   2.7928460   2.7928460   2.7928460
 AtZNuc=   1.0000000   1.0000000   1.0000000   1.0000000
 Leave Link  101 at Mon Feb 22 21:29:31 2021, MaxMem=   104857600 cpu:               2.9 elap:               0.1
 (Enter /sw/arch/RedHatEnterpriseServer7/EB_production/2019/software/Gaussian/g16.c01/l103.exe)

 GradGradGradGradGradGradGradGradGradGradGradGradGradGradGradGradGradGrad
 Berny optimization.
 Initialization pass.
                           ----------------------------
                           !    Initial Parameters    !
                           ! (Angstroms and Degrees)  !
 --------------------------                            --------------------------
 ! Name  Definition              Value          Derivative Info.                !
 --------------------------------------------------------------------------------
 ! R1    R(1,2)                  1.4489         estimate D2E/DX2                !
 ! R2    R(1,7)                  1.0915         estimate D2E/DX2                !
 ! R3    R(1,8)                  1.0906         estimate D2E/DX2                !
 ! R4    R(1,9)                  1.0915         estimate D2E/DX2                !
 ! R5    R(2,3)                  1.4485         estimate D2E/DX2                !
 ! R6    R(2,4)                  1.3872         estimate D2E/DX2                !
 ! R7    R(3,10)                 1.0919         estimate D2E/DX2                !
 ! R8    R(3,11)                 1.0912         estimate D2E/DX2                !
 ! R9    R(3,12)                 1.0919         estimate D2E/DX2                !
 ! R10   R(4,5)                  1.3489         estimate D2E/DX2                !
 ! R11   R(4,6)                  1.253          estimate D2E/DX2                !
 ! R12   R(5,13)                 0.9701         estimate D2E/DX2                !
 ! R13   R(5,14)                 0.9663         estimate D2E/DX2                !
 ! A1    A(2,1,7)              109.983          estimate D2E/DX2                !
 ! A2    A(2,1,8)              114.5021         estimate D2E/DX2                !
 ! A3    A(2,1,9)              109.8362         estimate D2E/DX2                !
 ! A4    A(7,1,8)              107.1068         estimate D2E/DX2                !
 ! A5    A(7,1,9)              107.9188         estimate D2E/DX2                !
 ! A6    A(8,1,9)              107.2509         estimate D2E/DX2                !
 ! A7    A(1,2,3)              115.7211         estimate D2E/DX2                !
 ! A8    A(1,2,4)              122.4916         estimate D2E/DX2                !
 ! A9    A(3,2,4)              121.7873         estimate D2E/DX2                !
 ! A10   A(2,3,10)             109.9978         estimate D2E/DX2                !
 ! A11   A(2,3,11)             114.0136         estimate D2E/DX2                !
 ! A12   A(2,3,12)             109.8769         estimate D2E/DX2                !
 ! A13   A(10,3,11)            107.2579         estimate D2E/DX2                !
 ! A14   A(10,3,12)            108.1207         estimate D2E/DX2                !
 ! A15   A(11,3,12)            107.3695         estimate D2E/DX2                !
 ! A16   A(2,4,5)              124.0269         estimate D2E/DX2                !
 ! A17   A(2,4,6)              122.272          estimate D2E/DX2                !
 ! A18   A(5,4,6)              113.7011         estimate D2E/DX2                !
 ! A19   A(4,5,13)             120.3109         estimate D2E/DX2                !
 ! A20   A(4,5,14)             120.6044         estimate D2E/DX2                !
 ! A21   A(13,5,14)            119.0846         estimate D2E/DX2                !
 ! D1    D(7,1,2,3)             56.5104         estimate D2E/DX2                !
 ! D2    D(7,1,2,4)           -123.4919         estimate D2E/DX2                !
 ! D3    D(8,1,2,3)            177.1547         estimate D2E/DX2                !
 ! D4    D(8,1,2,4)             -2.8475         estimate D2E/DX2                !
 ! D5    D(9,1,2,3)            -62.1231         estimate D2E/DX2                !
 ! D6    D(9,1,2,4)            117.8747         estimate D2E/DX2                !
 ! D7    D(1,2,3,10)            56.87           estimate D2E/DX2                !
 ! D8    D(1,2,3,11)           177.3845         estimate D2E/DX2                !
 ! D9    D(1,2,3,12)           -62.0453         estimate D2E/DX2                !
 ! D10   D(4,2,3,10)          -123.1278         estimate D2E/DX2                !
 ! D11   D(4,2,3,11)            -2.6133         estimate D2E/DX2                !
 ! D12   D(4,2,3,12)           117.9569         estimate D2E/DX2                !
 ! D13   D(1,2,4,5)              0.0367         estimate D2E/DX2                !
 ! D14   D(1,2,4,6)           -179.9627         estimate D2E/DX2                !
 ! D15   D(3,2,4,5)           -179.9657         estimate D2E/DX2                !
 ! D16   D(3,2,4,6)              0.0349         estimate D2E/DX2                !
 ! D17   D(2,4,5,13)           179.932          estimate D2E/DX2                !
 ! D18   D(2,4,5,14)            -0.0411         estimate D2E/DX2                !
 ! D19   D(6,4,5,13)            -0.0685         estimate D2E/DX2                !
 ! D20   D(6,4,5,14)           179.9584         estimate D2E/DX2                !
 --------------------------------------------------------------------------------
 Trust Radius=3.00D-01 FncErr=1.00D-07 GrdErr=1.00D-06 EigMax=2.50D+02 EigMin=1.00D-04
 Number of steps in this run=     64 maximum allowed number of steps=    100.
 GradGradGradGradGradGradGradGradGradGradGradGradGradGradGradGradGradGrad

 Leave Link  103 at Mon Feb 22 21:29:31 2021, MaxMem=   104857600 cpu:               0.6 elap:               0.0
 (Enter /sw/arch/RedHatEnterpriseServer7/EB_production/2019/software/Gaussian/g16.c01/l202.exe)
                          Input orientation:                          
 ---------------------------------------------------------------------
 Center     Atomic      Atomic             Coordinates (Angstroms)
 Number     Number       Type             X           Y           Z
 ---------------------------------------------------------------------
      1          6           0       -1.960890   -0.022210    0.343350
      2          7           0       -0.682030   -0.667100    0.124070
      3          6           0       -0.712610   -2.113040    0.044410
      4          6           0        0.500540    0.046860   -0.002620
      5          7           0        0.581270    1.391670    0.064710
      6          8           0        1.604200   -0.515070   -0.192870
      7          1           0       -2.423810   -0.411130    1.252070
      8          1           0       -1.908530    1.062050    0.448740
      9          1           0       -2.630680   -0.234260   -0.491960
     10          1           0       -1.396330   -2.429090   -0.746080
     11          1           0        0.257220   -2.566800   -0.165850
     12          1           0       -1.069480   -2.529420    0.988660
     13          1           0        1.438300    1.836060   -0.030380
     14          1           0       -0.211230    1.925480    0.208350
 ---------------------------------------------------------------------
                    Distance matrix (angstroms):
                    1          2          3          4          5
     1  C    0.000000
     2  N    1.448948   0.000000
     3  C    2.453393   1.448456   0.000000
     4  C    2.486585   1.387177   2.477723   0.000000
     5  N    2.922204   2.416192   3.735978   1.348912   0.000000
     6  O    3.638724   2.313096   2.824432   1.253007   2.179080
     7  H    1.091479   2.090862   2.698730   3.214938   3.700056
     8  H    1.090628   2.144685   3.416856   2.652914   2.540715
     9  H    1.091479   2.089038   2.737974   3.181669   3.642822
    10  H    2.701603   2.090931   1.091895   3.206427   4.377955
    11  H    3.413830   2.138949   1.091182   2.630032   3.978398
    12  H    2.738090   2.089466   1.091942   3.175660   4.353574
    13  H    3.891958   3.284123   4.497488   2.020248   0.970064
    14  H    2.621647   2.636328   4.072825   2.019985   0.966251
                    6          7          8          9         10
     6  O    0.000000
     7  H    4.280598   0.000000
     8  H    3.903619   1.755310   0.000000
     9  H    4.254705   1.765140   1.756940   0.000000
    10  H    3.601763   3.020013   3.725319   2.530904   0.000000
    11  H    2.454523   3.720932   4.270450   3.726534   1.757799
    12  H    3.549955   2.527993   3.727489   3.146004   1.768112
    13  H    2.362570   4.648702   3.468417   4.588669   5.170963
    14  H    3.068069   3.382988   1.919408   3.317928   4.612773
                   11         12         13         14
    11  H    0.000000
    12  H    1.759097   0.000000
    13  H    4.560535   5.136615   0.000000
    14  H    4.532113   4.603435   1.669113   0.000000
 Stoichiometry    C3H8N2O
 Framework group  C1[X(C3H8N2O)]
 Deg. of freedom    36
 Full point group                 C1      NOp   1
 Largest Abelian subgroup         C1      NOp   1
 Largest concise Abelian subgroup C1      NOp   1
                         Standard orientation:                         
 ---------------------------------------------------------------------
 Center     Atomic      Atomic             Coordinates (Angstroms)
 Number     Number       Type             X           Y           Z
 ---------------------------------------------------------------------
      1          6           0        1.211231    1.358139    0.000319
      2          7           0        0.612724    0.038579   -0.000029
      3          6           0        1.541476   -1.072926   -0.000408
      4          6           0       -0.760634   -0.156737    0.000042
      5          7           0       -1.665350    0.843790   -0.000281
      6          8           0       -1.273828   -1.299829    0.000429
      7          1           0        1.880715    1.464289   -0.855163
      8          1           0        0.495384    2.179499   -0.048661
      9          1           0        1.801471    1.496877    0.907896
     10          1           0        2.211288   -1.000145    0.858830
     11          1           0        1.062138   -2.052143    0.044821
     12          1           0        2.148871   -1.048896   -0.907508
     13          1           0       -2.614879    0.645247   -0.001205
     14          1           0       -1.378423    1.766457    0.000012
 ---------------------------------------------------------------------
 Rotational constants (GHZ):           5.3126171           3.3077516           2.0915993
 Leave Link  202 at Mon Feb 22 21:29:31 2021, MaxMem=   104857600 cpu:               1.0 elap:               0.1
 (Enter /sw/arch/RedHatEnterpriseServer7/EB_production/2019/software/Gaussian/g16.c01/l301.exe)
 Standard basis: TZVP (5D, 7F)
 Ernie: Thresh=  0.10000D-02 Tol=  0.10000D-05 Strict=F.
 There are   168 symmetry adapted cartesian basis functions of A   symmetry.
 There are   162 symmetry adapted basis functions of A   symmetry.
   162 basis functions,   274 primitive gaussians,   168 cartesian basis functions
    24 alpha electrons       24 beta electrons
       nuclear repulsion energy       252.6453145474 Hartrees.
 IExCor=  404 DFT=T Ex=B Corr=P86 ExCW=0 ScaHFX=  0.000000
 ScaDFX=  1.000000  1.000000  1.000000  1.000000 ScalE2=  1.000000  1.000000
 IRadAn=      5 IRanWt=     -1 IRanGd=            0 ICorTp=0 IEmpDi=131
 NAtoms=   14 NActive=   14 NUniq=   14 SFac= 1.00D+00 NAtFMM=   60 NAOKFM=F Big=F
 Integral buffers will be    131072 words long.
 Raffenetti 2 integral format.
 Two-electron integral symmetry is turned on.
 R6Disp:  Grimme-D3 Dispersion energy=       -0.0096234572 Hartrees.
 Nuclear repulsion after empirical dispersion term =      252.6356910902 Hartrees.
 ------------------------------------------------------------------------------
 Polarizable Continuum Model (PCM)
 =================================
 Model                : PCM.
 Atomic radii         : UFF (Universal Force Field).
 Polarization charges : Total charges.
 Charge compensation  : None.
 Solution method      : On-the-fly selection.
 Cavity type          : Scaled VdW (van der Waals Surface) (Alpha=1.100).
 Cavity algorithm     : GePol (No added spheres)
                        Default sphere list used, NSphG=   14.
                        Lebedev-Laikov grids with approx.  5.0 points / Ang**2.
                        Smoothing algorithm: York/Karplus (Gamma=1.0000).
                        Polarization charges: spherical gaussians, with
                                              point-specific exponents (IZeta= 3).
                        Self-potential: point-specific (ISelfS= 7).
                        Self-field    : sphere-specific E.n sum rule (ISelfD= 2).
 1st derivatives      : Analytical E(r).r(x)/FMM algorithm (CHGder, D1EAlg=3).
                        Cavity 1st derivative terms included.
 Solvent              : Water, Eps=  78.355300 Eps(inf)=   1.777849
 ------------------------------------------------------------------------------
 Spheres list:
 ISph  on   Nord     Re0    Alpha      Xe            Ye            Ze
    1   C      1    1.9255  1.100      1.211231      1.358139      0.000319
    2   N      2    1.8300  1.100      0.612724      0.038579     -0.000029
    3   C      3    1.9255  1.100      1.541476     -1.072926     -0.000408
    4   C      4    1.9255  1.100     -0.760634     -0.156737      0.000042
    5   N      5    1.8300  1.100     -1.665350      0.843790     -0.000281
    6   O      6    1.7500  1.100     -1.273828     -1.299829      0.000429
    7   H      7    1.4430  1.100      1.880715      1.464289     -0.855163
    8   H      8    1.4430  1.100      0.495384      2.179499     -0.048661
    9   H      9    1.4430  1.100      1.801471      1.496877      0.907896
   10   H     10    1.4430  1.100      2.211288     -1.000145      0.858830
   11   H     11    1.4430  1.100      1.062138     -2.052143      0.044821
   12   H     12    1.4430  1.100      2.148871     -1.048896     -0.907508
   13   H     13    1.4430  1.100     -2.614879      0.645247     -0.001205
   14   H     14    1.4430  1.100     -1.378423      1.766457      0.000012
 ------------------------------------------------------------------------------
 GePol: Number of generator spheres                  =      14
 GePol: Total number of spheres                      =      14
 GePol: Number of exposed spheres                    =      14 (100.00%)
 GePol: Number of points                             =    1160
 GePol: Average weight of points                     =       0.13
 GePol: Minimum weight of points                     =   0.25D-08
 GePol: Maximum weight of points                     =    0.20577
 GePol: Number of points with low weight             =      65
 GePol: Fraction of low-weight points (<1% of avg)   =       5.60%
 GePol: Cavity surface area                          =    152.658 Ang**2
 GePol: Cavity volume                                =    142.076 Ang**3
 Leave Link  301 at Mon Feb 22 21:29:31 2021, MaxMem=   104857600 cpu:               1.9 elap:               0.1
 (Enter /sw/arch/RedHatEnterpriseServer7/EB_production/2019/software/Gaussian/g16.c01/l302.exe)
 NPDir=0 NMtPBC=     1 NCelOv=     1 NCel=       1 NClECP=     1 NCelD=      1
         NCelK=      1 NCelE2=     1 NClLst=     1 CellRange=     0.0.
 One-electron integrals computed using PRISM.
 One-electron integral symmetry used in STVInt
 PrsmSu:  requested number of processors reduced to:  29 ShMem   1 Linda.
 NBasis=   162 RedAO= T EigKep=  7.48D-04  NBF=   162
 NBsUse=   162 1.00D-06 EigRej= -1.00D+00 NBFU=   162
 Precomputing XC quadrature grid using
 IXCGrd= 4 IRadAn=           5 IRanWt=          -1 IRanGd=           0 AccXCQ= 0.00D+00.
 Generated NRdTot=       0 NPtTot=           0 NUsed=           0 NTot=          32
 NSgBfM=   167   167   167   167   167 MxSgAt=    14 MxSgA2=    14.
 Leave Link  302 at Mon Feb 22 21:29:32 2021, MaxMem=   104857600 cpu:              12.5 elap:               0.5
 (Enter /sw/arch/RedHatEnterpriseServer7/EB_production/2019/software/Gaussian/g16.c01/l303.exe)
 DipDrv:  MaxL=1.
 Leave Link  303 at Mon Feb 22 21:29:32 2021, MaxMem=   104857600 cpu:               1.3 elap:               0.1
 (Enter /sw/arch/RedHatEnterpriseServer7/EB_production/2019/software/Gaussian/g16.c01/l401.exe)
 ExpMin= 9.52D-02 ExpMax= 2.70D+04 ExpMxC= 9.22D+02 IAcc=3 IRadAn=         5 AccDes= 0.00D+00
 Harris functional with IExCor=  404 and IRadAn=       5 diagonalized for initial guess.
 HarFok:  IExCor=  404 AccDes= 0.00D+00 IRadAn=         5 IDoV= 1 UseB2=F ITyADJ=14
 ICtDFT=  3500011 ScaDFX=  1.000000  1.000000  1.000000  1.000000
 FoFCou: FMM=F IPFlag=           0 FMFlag=      100000 FMFlg1=           0
         NFxFlg=           0 DoJE=T BraDBF=F KetDBF=T FulRan=T
         wScrn=  0.000000 ICntrl=       500 IOpCl=  0 I1Cent=   200000004 NGrid=           0
         NMat0=    1 NMatS0=      1 NMatT0=    0 NMatD0=    1 NMtDS0=    0 NMtDT0=    0
 Petite list used in FoFCou.
 Harris En= -304.117405370375    
 JPrj=0 DoOrth=F DoCkMO=F.
 Leave Link  401 at Mon Feb 22 21:29:33 2021, MaxMem=   104857600 cpu:               8.9 elap:               0.3
 (Enter /sw/arch/RedHatEnterpriseServer7/EB_production/2019/software/Gaussian/g16.c01/l502.exe)
 Integral symmetry usage will be decided dynamically.
 Closed shell SCF:
 Using DIIS extrapolation, IDIIS=  1040.
 NGot=   104857600 LenX=   104793598 LenY=   104764933
 Requested convergence on RMS density matrix=1.00D-08 within 128 cycles.
 Requested convergence on MAX density matrix=1.00D-06.
 Requested convergence on             energy=1.00D-06.
 No special actions if energy rises.
 Fock matrices will be formed incrementally for  20 cycles.

 Cycle   1  Pass 1  IDiag  1:
 FoFJK:  IHMeth= 1 ICntrl=     500 DoSepK=F KAlg= 0 I1Cent=           0 FoldK=F
 IRaf= 970000000 NMat=       1 IRICut=       1 DoRegI=T DoRafI=F ISym2E= 0 IDoP0=0 IntGTp=1.
 FoFCou: FMM=F IPFlag=           0 FMFlag=      100000 FMFlg1=           0
         NFxFlg=           0 DoJE=T BraDBF=F KetDBF=F FulRan=T
         wScrn=  0.000000 ICntrl=       500 IOpCl=  0 I1Cent=           0 NGrid=           0
         NMat0=    1 NMatS0=      1 NMatT0=    0 NMatD0=    1 NMtDS0=    0 NMtDT0=    0
 Symmetry not used in FoFCou.
 Inv3:  Mode=1 IEnd=     4036800.
 Iteration    1 A*A^-1 deviation from unit magnitude is 3.33D-15 for    582.
 Iteration    1 A*A^-1 deviation from orthogonality  is 1.67D-15 for    986     91.
 Iteration    1 A^-1*A deviation from unit magnitude is 3.55D-15 for    582.
 Iteration    1 A^-1*A deviation from orthogonality  is 2.38D-15 for    757    351.
 E= -303.796736419816    
 DIIS: error= 4.15D-02 at cycle   1 NSaved=   1.
 NSaved= 1 IEnMin= 1 EnMin= -303.796736419816     IErMin= 1 ErrMin= 4.15D-02
 ErrMax= 4.15D-02  0.00D+00 EMaxC= 1.00D-01 BMatC= 2.56D-01 BMatP= 2.56D-01
 IDIUse=3 WtCom= 5.85D-01 WtEn= 4.15D-01
 Coeff-Com:  0.100D+01
 Coeff-En:   0.100D+01
 Coeff:      0.100D+01
 Gap=     0.212 Goal=   None    Shift=    0.000
 GapD=    0.212 DampG=1.000 DampE=0.500 DampFc=0.5000 IDamp=-1.
 Damping current iteration by 5.00D-01
 RMSDP=1.24D-02 MaxDP=4.25D-01              OVMax= 3.68D-01

 Cycle   2  Pass 1  IDiag  1:
 RMSU=  6.20D-03    CP:  9.88D-01
 E= -303.790000942849     Delta-E=        0.006735476966 Rises=F Damp=T
 DIIS: error= 2.97D-02 at cycle   2 NSaved=   2.
 NSaved= 2 IEnMin= 1 EnMin= -303.796736419816     IErMin= 2 ErrMin= 2.97D-02
 ErrMax= 2.97D-02  0.00D+00 EMaxC= 1.00D-01 BMatC= 8.53D-02 BMatP= 2.56D-01
 IDIUse=3 WtCom= 7.03D-01 WtEn= 2.97D-01
 Coeff-Com:  0.342D+00 0.658D+00
 Coeff-En:   0.512D+00 0.488D+00
 Coeff:      0.392D+00 0.608D+00
 Gap=     0.236 Goal=   None    Shift=    0.000
 RMSDP=4.77D-03 MaxDP=1.77D-01 DE= 6.74D-03 OVMax= 2.84D-01

 Cycle   3  Pass 1  IDiag  1:
 RMSU=  1.97D-03    CP:  9.78D-01  3.00D-01
 E= -303.956108245207     Delta-E=       -0.166107302358 Rises=F Damp=F
 DIIS: error= 1.75D-02 at cycle   3 NSaved=   3.
 NSaved= 3 IEnMin= 3 EnMin= -303.956108245207     IErMin= 3 ErrMin= 1.75D-02
 ErrMax= 1.75D-02  0.00D+00 EMaxC= 1.00D-01 BMatC= 5.31D-02 BMatP= 8.53D-02
 IDIUse=3 WtCom= 8.25D-01 WtEn= 1.75D-01
 Coeff-Com:  0.200D+00 0.422D+00 0.378D+00
 Coeff-En:   0.262D-01 0.000D+00 0.974D+00
 Coeff:      0.170D+00 0.348D+00 0.482D+00
 Gap=     0.239 Goal=   None    Shift=    0.000
 RMSDP=1.59D-03 MaxDP=3.13D-02 DE=-1.66D-01 OVMax= 1.15D-01

 Cycle   4  Pass 1  IDiag  1:
 RMSU=  1.02D-03    CP:  9.92D-01  4.27D-01  5.40D-01
 E= -303.990773046695     Delta-E=       -0.034664801488 Rises=F Damp=F
 DIIS: error= 1.08D-02 at cycle   4 NSaved=   4.
 NSaved= 4 IEnMin= 4 EnMin= -303.990773046695     IErMin= 4 ErrMin= 1.08D-02
 ErrMax= 1.08D-02  0.00D+00 EMaxC= 1.00D-01 BMatC= 1.51D-02 BMatP= 5.31D-02
 IDIUse=3 WtCom= 8.92D-01 WtEn= 1.08D-01
 Coeff-Com:  0.526D-01 0.684D-01 0.335D+00 0.544D+00
 Coeff-En:   0.000D+00 0.000D+00 0.257D+00 0.743D+00
 Coeff:      0.469D-01 0.610D-01 0.327D+00 0.566D+00
 Gap=     0.231 Goal=   None    Shift=    0.000
 RMSDP=6.54D-04 MaxDP=1.36D-02 DE=-3.47D-02 OVMax= 3.87D-02

 Cycle   5  Pass 1  IDiag  1:
 RMSU=  1.71D-04    CP:  9.88D-01  3.59D-01  6.75D-01  6.22D-01
 E= -304.002395831809     Delta-E=       -0.011622785113 Rises=F Damp=F
 DIIS: error= 2.32D-03 at cycle   5 NSaved=   5.
 NSaved= 5 IEnMin= 5 EnMin= -304.002395831809     IErMin= 5 ErrMin= 2.32D-03
 ErrMax= 2.32D-03  0.00D+00 EMaxC= 1.00D-01 BMatC= 5.53D-04 BMatP= 1.51D-02
 IDIUse=3 WtCom= 9.77D-01 WtEn= 2.32D-02
 Coeff-Com:  0.143D-01 0.118D-01 0.158D+00 0.326D+00 0.490D+00
 Coeff-En:   0.000D+00 0.000D+00 0.000D+00 0.000D+00 0.100D+01
 Coeff:      0.139D-01 0.116D-01 0.154D+00 0.319D+00 0.501D+00
 Gap=     0.223 Goal=   None    Shift=    0.000
 RMSDP=1.37D-04 MaxDP=2.78D-03 DE=-1.16D-02 OVMax= 8.67D-03

 Cycle   6  Pass 1  IDiag  1:
 RMSU=  6.16D-05    CP:  9.88D-01  3.73D-01  6.70D-01  6.68D-01  5.98D-01
 E= -304.002829471101     Delta-E=       -0.000433639292 Rises=F Damp=F
 DIIS: error= 6.73D-04 at cycle   6 NSaved=   6.
 NSaved= 6 IEnMin= 6 EnMin= -304.002829471101     IErMin= 6 ErrMin= 6.73D-04
 ErrMax= 6.73D-04  0.00D+00 EMaxC= 1.00D-01 BMatC= 3.84D-05 BMatP= 5.53D-04
 IDIUse=3 WtCom= 9.93D-01 WtEn= 6.73D-03
 Coeff-Com:  0.294D-02-0.101D-02 0.459D-01 0.996D-01 0.263D+00 0.590D+00
 Coeff-En:   0.000D+00 0.000D+00 0.000D+00 0.000D+00 0.158D-01 0.984D+00
 Coeff:      0.292D-02-0.100D-02 0.456D-01 0.989D-01 0.261D+00 0.593D+00
 Gap=     0.222 Goal=   None    Shift=    0.000
 RMSDP=2.62D-05 MaxDP=1.02D-03 DE=-4.34D-04 OVMax= 2.45D-03

 Cycle   7  Pass 1  IDiag  1:
 RMSU=  1.77D-05    CP:  9.88D-01  3.72D-01  6.73D-01  6.63D-01  6.32D-01
                    CP:  7.52D-01
 E= -304.002855472394     Delta-E=       -0.000026001292 Rises=F Damp=F
 DIIS: error= 1.98D-04 at cycle   7 NSaved=   7.
 NSaved= 7 IEnMin= 7 EnMin= -304.002855472394     IErMin= 7 ErrMin= 1.98D-04
 ErrMax= 1.98D-04  0.00D+00 EMaxC= 1.00D-01 BMatC= 5.27D-06 BMatP= 3.84D-05
 IDIUse=3 WtCom= 9.98D-01 WtEn= 1.98D-03
 Coeff-Com:  0.128D-02-0.128D-02 0.199D-01 0.418D-01 0.139D+00 0.386D+00
 Coeff-Com:  0.413D+00
 Coeff-En:   0.000D+00 0.000D+00 0.000D+00 0.000D+00 0.000D+00 0.452D-02
 Coeff-En:   0.995D+00
 Coeff:      0.127D-02-0.128D-02 0.198D-01 0.417D-01 0.139D+00 0.386D+00
 Coeff:      0.414D+00
 Gap=     0.222 Goal=   None    Shift=    0.000
 RMSDP=1.21D-05 MaxDP=2.59D-04 DE=-2.60D-05 OVMax= 8.44D-04

 Cycle   8  Pass 1  IDiag  1:
 RMSU=  6.22D-06    CP:  9.88D-01  3.72D-01  6.73D-01  6.63D-01  6.35D-01
                    CP:  7.36D-01  5.15D-01
 E= -304.002859585445     Delta-E=       -0.000004113052 Rises=F Damp=F
 DIIS: error= 6.52D-05 at cycle   8 NSaved=   8.
 NSaved= 8 IEnMin= 8 EnMin= -304.002859585445     IErMin= 8 ErrMin= 6.52D-05
 ErrMax= 6.52D-05  0.00D+00 EMaxC= 1.00D-01 BMatC= 2.98D-07 BMatP= 5.27D-06
 IDIUse=1 WtCom= 1.00D+00 WtEn= 0.00D+00
 Coeff-Com:  0.334D-03-0.519D-03 0.201D-02 0.238D-02 0.216D-01 0.761D-01
 Coeff-Com:  0.195D+00 0.703D+00
 Coeff:      0.334D-03-0.519D-03 0.201D-02 0.238D-02 0.216D-01 0.761D-01
 Coeff:      0.195D+00 0.703D+00
 Gap=     0.222 Goal=   None    Shift=    0.000
 RMSDP=3.19D-06 MaxDP=5.82D-05 DE=-4.11D-06 OVMax= 2.50D-04

 Cycle   9  Pass 1  IDiag  1:
 RMSU=  1.61D-06    CP:  9.88D-01  3.71D-01  6.73D-01  6.62D-01  6.38D-01
                    CP:  7.34D-01  5.72D-01  8.05D-01
 E= -304.002859837098     Delta-E=       -0.000000251653 Rises=F Damp=F
 DIIS: error= 9.79D-06 at cycle   9 NSaved=   9.
 NSaved= 9 IEnMin= 9 EnMin= -304.002859837098     IErMin= 9 ErrMin= 9.79D-06
 ErrMax= 9.79D-06  0.00D+00 EMaxC= 1.00D-01 BMatC= 1.74D-08 BMatP= 2.98D-07
 IDIUse=1 WtCom= 1.00D+00 WtEn= 0.00D+00
 Coeff-Com:  0.151D-03-0.248D-03 0.552D-03 0.192D-03 0.694D-02 0.266D-01
 Coeff-Com:  0.861D-01 0.374D+00 0.505D+00
 Coeff:      0.151D-03-0.248D-03 0.552D-03 0.192D-03 0.694D-02 0.266D-01
 Coeff:      0.861D-01 0.374D+00 0.505D+00
 Gap=     0.222 Goal=   None    Shift=    0.000
 RMSDP=9.67D-07 MaxDP=1.80D-05 DE=-2.52D-07 OVMax= 3.33D-05

 Cycle  10  Pass 1  IDiag  1:
 RMSU=  4.21D-07    CP:  9.88D-01  3.71D-01  6.73D-01  6.62D-01  6.38D-01
                    CP:  7.41D-01  5.81D-01  8.20D-01  6.39D-01
 E= -304.002859835199     Delta-E=        0.000000001899 Rises=F Damp=F
 DIIS: error= 2.54D-06 at cycle  10 NSaved=  10.
 NSaved=10 IEnMin= 9 EnMin= -304.002859837098     IErMin=10 ErrMin= 2.54D-06
 ErrMax= 2.54D-06  0.00D+00 EMaxC= 1.00D-01 BMatC= 1.03D-09 BMatP= 1.74D-08
 IDIUse=1 WtCom= 1.00D+00 WtEn= 0.00D+00
 Coeff-Com:  0.393D-04-0.614D-04-0.924D-06-0.256D-03 0.699D-03 0.403D-02
 Coeff-Com:  0.186D-01 0.101D+00 0.237D+00 0.639D+00
 Coeff:      0.393D-04-0.614D-04-0.924D-06-0.256D-03 0.699D-03 0.403D-02
 Coeff:      0.186D-01 0.101D+00 0.237D+00 0.639D+00
 Gap=     0.222 Goal=   None    Shift=    0.000
 RMSDP=1.81D-07 MaxDP=3.95D-06 DE= 1.90D-09 OVMax= 5.68D-06

 Cycle  11  Pass 1  IDiag  1:
 RMSU=  1.03D-07    CP:  9.88D-01  3.71D-01  6.73D-01  6.62D-01  6.37D-01
                    CP:  7.40D-01  5.81D-01  8.26D-01  6.59D-01  7.71D-01
 E= -304.002859836065     Delta-E=       -0.000000000866 Rises=F Damp=F
 DIIS: error= 3.83D-07 at cycle  11 NSaved=  11.
 NSaved=11 IEnMin= 9 EnMin= -304.002859837098     IErMin=11 ErrMin= 3.83D-07
 ErrMax= 3.83D-07  0.00D+00 EMaxC= 1.00D-01 BMatC= 1.52D-11 BMatP= 1.03D-09
 IDIUse=1 WtCom= 1.00D+00 WtEn= 0.00D+00
 Coeff-Com:  0.792D-05-0.122D-04-0.730D-05-0.554D-04 0.505D-05 0.366D-03
 Coeff-Com:  0.230D-02 0.164D-01 0.520D-01 0.185D+00 0.744D+00
 Coeff:      0.792D-05-0.122D-04-0.730D-05-0.554D-04 0.505D-05 0.366D-03
 Coeff:      0.230D-02 0.164D-01 0.520D-01 0.185D+00 0.744D+00
 Gap=     0.222 Goal=   None    Shift=    0.000
 RMSDP=2.93D-08 MaxDP=4.40D-07 DE=-8.66D-10 OVMax= 8.82D-07

 Cycle  12  Pass 1  IDiag  1:
 RMSU=  1.56D-08    CP:  9.88D-01  3.71D-01  6.73D-01  6.62D-01  6.37D-01
                    CP:  7.40D-01  5.81D-01  8.26D-01  6.65D-01  7.85D-01
                    CP:  7.96D-01
 E= -304.002859836078     Delta-E=       -0.000000000013 Rises=F Damp=F
 DIIS: error= 1.01D-07 at cycle  12 NSaved=  12.
 NSaved=12 IEnMin= 9 EnMin= -304.002859837098     IErMin=12 ErrMin= 1.01D-07
 ErrMax= 1.01D-07  0.00D+00 EMaxC= 1.00D-01 BMatC= 8.36D-13 BMatP= 1.52D-11
 IDIUse=1 WtCom= 1.00D+00 WtEn= 0.00D+00
 Coeff-Com:  0.590D-06-0.978D-06 0.762D-06-0.172D-05-0.156D-04-0.580D-04
 Coeff-Com: -0.184D-03-0.246D-03 0.213D-02 0.932D-02 0.119D+00 0.870D+00
 Coeff:      0.590D-06-0.978D-06 0.762D-06-0.172D-05-0.156D-04-0.580D-04
 Coeff:     -0.184D-03-0.246D-03 0.213D-02 0.932D-02 0.119D+00 0.870D+00
 Gap=     0.222 Goal=   None    Shift=    0.000
 RMSDP=5.75D-09 MaxDP=1.09D-07 DE=-1.27D-11 OVMax= 2.93D-07

 Error on total polarization charges =  0.01073
 SCF Done:  E(RB-P86) =  -304.002859836     A.U. after   12 cycles
            NFock= 12  Conv=0.57D-08     -V/T= 2.0037
 KE= 3.028791066474D+02 PE=-1.215668869212D+03 EE= 3.561512116385D+02
 Leave Link  502 at Mon Feb 22 21:29:39 2021, MaxMem=   104857600 cpu:             192.6 elap:               6.2
 (Enter /sw/arch/RedHatEnterpriseServer7/EB_production/2019/software/Gaussian/g16.c01/l601.exe)
 Copying SCF densities to generalized density rwf, IOpCl= 0 IROHF=0.

 **********************************************************************

            Population analysis using the SCF Density.

 **********************************************************************

 Orbital symmetries:
       Occupied  (A) (A) (A) (A) (A) (A) (A) (A) (A) (A) (A) (A)
                 (A) (A) (A) (A) (A) (A) (A) (A) (A) (A) (A) (A)
       Virtual   (A) (A) (A) (A) (A) (A) (A) (A) (A) (A) (A) (A)
                 (A) (A) (A) (A) (A) (A) (A) (A) (A) (A) (A) (A)
                 (A) (A) (A) (A) (A) (A) (A) (A) (A) (A) (A) (A)
                 (A) (A) (A) (A) (A) (A) (A) (A) (A) (A) (A) (A)
                 (A) (A) (A) (A) (A) (A) (A) (A) (A) (A) (A) (A)
                 (A) (A) (A) (A) (A) (A) (A) (A) (A) (A) (A) (A)
                 (A) (A) (A) (A) (A) (A) (A) (A) (A) (A) (A) (A)
                 (A) (A) (A) (A) (A) (A) (A) (A) (A) (A) (A) (A)
                 (A) (A) (A) (A) (A) (A) (A) (A) (A) (A) (A) (A)
                 (A) (A) (A) (A) (A) (A) (A) (A) (A) (A) (A) (A)
                 (A) (A) (A) (A) (A) (A) (A) (A) (A) (A) (A) (A)
                 (A) (A) (A) (A) (A) (A)
 The electronic state is 1-A.
 Alpha  occ. eigenvalues --  -18.71603 -14.03703 -14.00900 -10.01236  -9.93007
 Alpha  occ. eigenvalues --   -9.92355  -0.95582  -0.85927  -0.82825  -0.66183
 Alpha  occ. eigenvalues --   -0.63870  -0.53427  -0.51028  -0.46971  -0.43206
 Alpha  occ. eigenvalues --   -0.42331  -0.37166  -0.36235  -0.35997  -0.35870
 Alpha  occ. eigenvalues --   -0.34203  -0.23031  -0.21618  -0.20715
 Alpha virt. eigenvalues --    0.01474   0.01819   0.04347   0.06021   0.07014
 Alpha virt. eigenvalues --    0.09316   0.09713   0.10680   0.12173   0.12894
 Alpha virt. eigenvalues --    0.14622   0.15610   0.16134   0.18130   0.20057
 Alpha virt. eigenvalues --    0.20273   0.24442   0.26993   0.28937   0.29269
 Alpha virt. eigenvalues --    0.30120   0.31224   0.34772   0.37876   0.38210
 Alpha virt. eigenvalues --    0.38594   0.39710   0.42073   0.42620   0.43283
 Alpha virt. eigenvalues --    0.43777   0.44130   0.46025   0.47882   0.48548
 Alpha virt. eigenvalues --    0.49764   0.55179   0.55429   0.55734   0.57620
 Alpha virt. eigenvalues --    0.59938   0.61783   0.69722   0.70398   0.76641
 Alpha virt. eigenvalues --    0.89616   1.08186   1.15683   1.17264   1.17487
 Alpha virt. eigenvalues --    1.22905   1.23379   1.25803   1.27607   1.28158
 Alpha virt. eigenvalues --    1.29563   1.32980   1.35324   1.40126   1.43312
 Alpha virt. eigenvalues --    1.44009   1.46144   1.46826   1.48255   1.50822
 Alpha virt. eigenvalues --    1.55018   1.56757   1.58245   1.59788   1.63333
 Alpha virt. eigenvalues --    1.67761   1.70006   1.70229   1.70486   1.70952
 Alpha virt. eigenvalues --    1.73618   1.73923   1.82390   1.84378   1.90257
 Alpha virt. eigenvalues --    1.96107   2.02360   2.05780   2.09879   2.13670
 Alpha virt. eigenvalues --    2.17035   2.18762   2.19129   2.23584   2.23791
 Alpha virt. eigenvalues --    2.25048   2.29379   2.32231   2.32763   2.36007
 Alpha virt. eigenvalues --    2.37882   2.41612   2.45142   2.46416   2.47145
 Alpha virt. eigenvalues --    2.51048   2.52280   2.55587   2.55876   2.59115
 Alpha virt. eigenvalues --    2.61185   2.62178   2.64496   2.65365   2.65686
 Alpha virt. eigenvalues --    2.68559   2.73390   2.78084   2.79088   2.84141
 Alpha virt. eigenvalues --    2.98327   3.02322   3.05885   3.09156   3.17028
 Alpha virt. eigenvalues --    3.22455   3.23017   3.23729   3.29493   3.34737
 Alpha virt. eigenvalues --    3.37767   3.43290   3.54336   3.65020   3.74021
 Alpha virt. eigenvalues --    3.96392   4.18453  21.63694  21.82044  21.84843
 Alpha virt. eigenvalues --   31.44472  31.55202  43.20065
          Condensed to atoms (all electrons):
               1          2          3          4          5          6
     1  C    4.945996   0.236426  -0.073455  -0.043396   0.022699   0.004170
     2  N    0.236426   6.894527   0.282606   0.298374  -0.139638  -0.126115
     3  C   -0.073455   0.282606   4.999460  -0.085255   0.002662  -0.028765
     4  C   -0.043396   0.298374  -0.085255   4.614658   0.345436   0.659153
     5  N    0.022699  -0.139638   0.002662   0.345436   6.625987  -0.161640
     6  O    0.004170  -0.126115  -0.028765   0.659153  -0.161640   8.100085
     7  H    0.403976  -0.049145  -0.003731   0.002942  -0.001471   0.000010
     8  H    0.387817  -0.015406   0.010672  -0.026212   0.008446   0.000332
     9  H    0.408301  -0.051926  -0.005974   0.002571  -0.001514   0.000067
    10  H   -0.003828  -0.052380   0.402942   0.007285   0.000434   0.001069
    11  H    0.011662  -0.030557   0.373840  -0.010283   0.002889   0.032529
    12  H   -0.006665  -0.053304   0.408858   0.005815   0.000397   0.000861
    13  H    0.001139   0.006210  -0.000212  -0.022418   0.381297   0.000787
    14  H   -0.009434   0.014624   0.000729  -0.008263   0.320662   0.009855
               7          8          9         10         11         12
     1  C    0.403976   0.387817   0.408301  -0.003828   0.011662  -0.006665
     2  N   -0.049145  -0.015406  -0.051926  -0.052380  -0.030557  -0.053304
     3  C   -0.003731   0.010672  -0.005974   0.402942   0.373840   0.408858
     4  C    0.002942  -0.026212   0.002571   0.007285  -0.010283   0.005815
     5  N   -0.001471   0.008446  -0.001514   0.000434   0.002889   0.000397
     6  O    0.000010   0.000332   0.000067   0.001069   0.032529   0.000861
     7  H    0.564714  -0.023421  -0.051865  -0.004062  -0.000318   0.009314
     8  H   -0.023421   0.535098  -0.023210  -0.000019  -0.000411  -0.000040
     9  H   -0.051865  -0.023210   0.562505   0.009171  -0.000269  -0.002990
    10  H   -0.004062  -0.000019   0.009171   0.561909  -0.020755  -0.047335
    11  H   -0.000318  -0.000411  -0.000269  -0.020755   0.504990  -0.021036
    12  H    0.009314  -0.000040  -0.002990  -0.047335  -0.021036   0.558254
    13  H   -0.000015   0.000250  -0.000017   0.000016  -0.000049   0.000015
    14  H    0.000536   0.005475   0.000430  -0.000087  -0.000386  -0.000066
              13         14
     1  C    0.001139  -0.009434
     2  N    0.006210   0.014624
     3  C   -0.000212   0.000729
     4  C   -0.022418  -0.008263
     5  N    0.381297   0.320662
     6  O    0.000787   0.009855
     7  H   -0.000015   0.000536
     8  H    0.000250   0.005475
     9  H   -0.000017   0.000430
    10  H    0.000016  -0.000087
    11  H   -0.000049  -0.000386
    12  H    0.000015  -0.000066
    13  H    0.375754  -0.018335
    14  H   -0.018335   0.435904
 Mulliken charges:
               1
     1  C   -0.285409
     2  N   -0.214296
     3  C   -0.284380
     4  C    0.259593
     5  N   -0.406647
     6  O   -0.492398
     7  H    0.152536
     8  H    0.140628
     9  H    0.154720
    10  H    0.145641
    11  H    0.158155
    12  H    0.147922
    13  H    0.275579
    14  H    0.248357
 Sum of Mulliken charges =  -0.00000
 Mulliken charges with hydrogens summed into heavy atoms:
               1
     1  C    0.162474
     2  N   -0.214296
     3  C    0.167339
     4  C    0.259593
     5  N    0.117289
     6  O   -0.492398
 Electronic spatial extent (au):  <R**2>=            604.2884
 Charge=             -0.0000 electrons
 Dipole moment (field-independent basis, Debye):
    X=              2.5505    Y=              5.1747    Z=             -0.0022  Tot=              5.7691
 Quadrupole moment (field-independent basis, Debye-Ang):
   XX=            -32.7306   YY=            -36.9039   ZZ=            -38.5643
   XY=             -7.3401   XZ=              0.0097   YZ=             -0.0449
 Traceless Quadrupole moment (field-independent basis, Debye-Ang):
   XX=              3.3357   YY=             -0.8376   ZZ=             -2.4980
   XY=             -7.3401   XZ=              0.0097   YZ=             -0.0449
 Octapole moment (field-independent basis, Debye-Ang**2):
  XXX=            -12.9682  YYY=             16.8588  ZZZ=              0.0064  XYY=              5.1351
  XXY=             11.9662  XXZ=             -0.0308  XZZ=              1.7611  YZZ=             -0.2313
  YYZ=             -0.0071  XYZ=             -0.0101
 Hexadecapole moment (field-independent basis, Debye-Ang**3):
 XXXX=           -386.3451 YYYY=           -279.7174 ZZZZ=            -52.5448 XXXY=            -26.2892
 XXXZ=              0.0480 YYYX=            -21.8425 YYYZ=             -0.5143 ZZZX=             -0.0174
 ZZZY=              0.2225 XXYY=           -122.3046 XXZZ=            -81.6517 YYZZ=            -60.2260
 XXYZ=             -0.1193 YYXZ=              0.0358 ZZXY=              1.3884
 N-N= 2.526356910902D+02 E-N=-1.215668870385D+03  KE= 3.028791066474D+02
 No NMR shielding tensors so no spin-rotation constants.
 Leave Link  601 at Mon Feb 22 21:29:39 2021, MaxMem=   104857600 cpu:               4.7 elap:               0.2
 (Enter /sw/arch/RedHatEnterpriseServer7/EB_production/2019/software/Gaussian/g16.c01/l701.exe)
 ... and contract with generalized density number  0.
 Compute integral first derivatives.
 R6Disp: Adding Grimme-D3 dispersion energy 1st derivatives to the gradient.
 PrsmSu:  requested number of processors reduced to:  30 ShMem   1 Linda.
 D1PCM: PCM CHGder 1st derivatives, ID1Alg=3 FixD1E=F DoIter=F DoCFld=F I1PDM=0.
 GePol: Maximum number of non-zero 1st derivatives   =     214
 CoulSu:  requested number of processors reduced to:  29 ShMem   1 Linda.
 CoulSu:  requested number of processors reduced to:  30 ShMem   1 Linda.
 Leave Link  701 at Mon Feb 22 21:29:40 2021, MaxMem=   104857600 cpu:              17.5 elap:               0.6
 (Enter /sw/arch/RedHatEnterpriseServer7/EB_production/2019/software/Gaussian/g16.c01/l702.exe)
 L702 exits ... SP integral derivatives will be done elsewhere.
 Leave Link  702 at Mon Feb 22 21:29:41 2021, MaxMem=   104857600 cpu:               0.7 elap:               0.1
 (Enter /sw/arch/RedHatEnterpriseServer7/EB_production/2019/software/Gaussian/g16.c01/l703.exe)
 Integral derivatives from FoFJK, PRISM(SPDF).
 Compute integral first derivatives, UseDBF=F ICtDFT=           0.
 Calling FoFJK, ICntrl=      2527 FMM=F ISym2X=0 I1Cent= 0 IOpClX= 0 NMat=1 NMatS=1 NMatT=0.
 FoFJK:  IHMeth= 1 ICntrl=    2527 DoSepK=F KAlg= 0 I1Cent=           0 FoldK=F
 IRaf=         0 NMat=       1 IRICut=       1 DoRegI=T DoRafI=F ISym2E= 0 IDoP0=0 IntGTp=1.
 FoFCou: FMM=F IPFlag=           0 FMFlag=      100000 FMFlg1=         800
         NFxFlg=           0 DoJE=F BraDBF=F KetDBF=F FulRan=T
         wScrn=  0.000000 ICntrl=      2527 IOpCl=  0 I1Cent=           0 NGrid=           0
         NMat0=    1 NMatS0=      1 NMatT0=    0 NMatD0=    1 NMtDS0=    0 NMtDT0=    0
 Symmetry not used in FoFCou.
 Leave Link  703 at Mon Feb 22 21:29:42 2021, MaxMem=   104857600 cpu:              21.9 elap:               0.7
 (Enter /sw/arch/RedHatEnterpriseServer7/EB_production/2019/software/Gaussian/g16.c01/l716.exe)
 Dipole        = 1.00343264D+00 2.03590243D+00-8.55789748D-04
 ***** Axes restored to original set *****
 -------------------------------------------------------------------
 Center     Atomic                   Forces (Hartrees/Bohr)
 Number     Number              X              Y              Z
 -------------------------------------------------------------------
      1        6          -0.004887775   -0.002621328   -0.000194375
      2        7           0.015732712    0.026761631   -0.000472078
      3        6           0.000889797   -0.003696291   -0.000033364
      4        6           0.029654767   -0.026417691   -0.005790855
      5        7          -0.036936684   -0.019830140    0.004056827
      6        8           0.002343546   -0.022506041   -0.001696745
      7        1          -0.003610167   -0.002249980    0.006344015
      8        1           0.003915553    0.002439285    0.000011844
      9        1          -0.005809751   -0.000888628   -0.005527174
     10        1          -0.005478761   -0.001420825   -0.004915230
     11        1           0.005581704    0.006737000   -0.000493345
     12        1          -0.003399384   -0.002821757    0.006315638
     13        1           0.037405783    0.013973857   -0.004430621
     14        1          -0.035401339    0.032540906    0.006825463
 -------------------------------------------------------------------
 Cartesian Forces:  Max     0.037405783 RMS     0.014815424
 Leave Link  716 at Mon Feb 22 21:29:42 2021, MaxMem=   104857600 cpu:               1.1 elap:               0.1
 (Enter /sw/arch/RedHatEnterpriseServer7/EB_production/2019/software/Gaussian/g16.c01/l103.exe)

 GradGradGradGradGradGradGradGradGradGradGradGradGradGradGradGradGradGrad
 Berny optimization.
 FormGI is forming the generalized inverse of G from B-inverse, IUseBI=4.
 Internal  Forces:  Max     0.048022021 RMS     0.012553651
 Search for a local minimum.
 Step number   1 out of a maximum of   64
 All quantities printed in internal units (Hartrees-Bohrs-Radians)
 RMS Force = .12554D-01 SwitMx=.10000D-02 MixMth= 1
 Mixed Optimization -- RFO/linear search
 Second derivative matrix not updated -- first step.
 ITU=  0
     Eigenvalues ---    0.01044   0.01051   0.01271   0.01861   0.02094
     Eigenvalues ---    0.02368   0.02368   0.07041   0.07109   0.07559
     Eigenvalues ---    0.07560   0.16000   0.16000   0.16000   0.16000
     Eigenvalues ---    0.16000   0.16000   0.16000   0.16000   0.25000
     Eigenvalues ---    0.25000   0.25000   0.25000   0.34589   0.34595
     Eigenvalues ---    0.34642   0.34642   0.34676   0.34740   0.38383
     Eigenvalues ---    0.38448   0.47813   0.53364   0.54150   0.55253
     Eigenvalues ---    0.82136
 RFO step:  Lambda=-2.26618281D-02 EMin= 1.04429482D-02
 Linear search not attempted -- first point.
 Iteration  1 RMS(Cart)=  0.05950540 RMS(Int)=  0.00146351
 Iteration  2 RMS(Cart)=  0.00236110 RMS(Int)=  0.00007971
 Iteration  3 RMS(Cart)=  0.00000183 RMS(Int)=  0.00007970
 Iteration  4 RMS(Cart)=  0.00000000 RMS(Int)=  0.00007970
 ITry= 1 IFail=0 DXMaxC= 2.38D-01 DCOld= 1.00D+10 DXMaxT= 3.00D-01 DXLimC= 3.00D+00 Rises=F
 Variable       Old X    -DE/DX   Delta X   Delta X   Delta X     New X
                                 (Linear)    (Quad)   (Total)
    R1        2.73811   0.00779   0.00000   0.01917   0.01917   2.75729
    R2        2.06260   0.00761   0.00000   0.02063   0.02063   2.08322
    R3        2.06099   0.00262   0.00000   0.00707   0.00707   2.06806
    R4        2.06260   0.00797   0.00000   0.02158   0.02158   2.08418
    R5        2.73718   0.00120   0.00000   0.00295   0.00295   2.74014
    R6        2.62139  -0.01385   0.00000  -0.02765  -0.02765   2.59373
    R7        2.06338   0.00740   0.00000   0.02009   0.02009   2.08347
    R8        2.06203   0.00225   0.00000   0.00609   0.00609   2.06813
    R9        2.06347   0.00765   0.00000   0.02075   0.02075   2.08422
   R10        2.54907   0.02483   0.00000   0.04316   0.04316   2.59224
   R11        2.36784   0.01242   0.00000   0.01471   0.01471   2.38255
   R12        1.83316   0.03989   0.00000   0.07170   0.07170   1.90485
   R13        1.82595   0.04802   0.00000   0.08512   0.08512   1.91107
    A1        1.91957   0.00163   0.00000   0.00957   0.00943   1.92900
    A2        1.99844  -0.00637   0.00000  -0.03765  -0.03761   1.96083
    A3        1.91700   0.00296   0.00000   0.01827   0.01822   1.93522
    A4        1.86937   0.00145   0.00000   0.00411   0.00405   1.87342
    A5        1.88354  -0.00079   0.00000   0.00134   0.00113   1.88467
    A6        1.87188   0.00129   0.00000   0.00567   0.00578   1.87767
    A7        2.01971  -0.00087   0.00000  -0.00318  -0.00318   2.01653
    A8        2.13788   0.01023   0.00000   0.03750   0.03750   2.17539
    A9        2.12559  -0.00936   0.00000  -0.03433  -0.03433   2.09126
   A10        1.91982   0.00117   0.00000   0.00761   0.00739   1.92721
   A11        1.98991  -0.01238   0.00000  -0.07083  -0.07098   1.91893
   A12        1.91771   0.00237   0.00000   0.01472   0.01461   1.93232
   A13        1.87200   0.00502   0.00000   0.02416   0.02390   1.89591
   A14        1.88706  -0.00014   0.00000   0.00542   0.00524   1.89231
   A15        1.87395   0.00454   0.00000   0.02245   0.02241   1.89636
   A16        2.16468  -0.03287   0.00000  -0.12054  -0.12054   2.04414
   A17        2.13405  -0.00606   0.00000  -0.02223  -0.02223   2.11182
   A18        1.98446   0.03893   0.00000   0.14276   0.14276   2.12722
   A19        2.09982  -0.01032   0.00000  -0.05650  -0.05650   2.04332
   A20        2.10494   0.01175   0.00000   0.06434   0.06434   2.16929
   A21        2.07842  -0.00143   0.00000  -0.00784  -0.00784   2.07058
    D1        0.98629   0.00105   0.00000   0.01088   0.01095   0.99725
    D2       -2.15534   0.00103   0.00000   0.01011   0.01016  -2.14518
    D3        3.09193  -0.00026   0.00000  -0.00273  -0.00265   3.08928
    D4       -0.04970  -0.00029   0.00000  -0.00350  -0.00344  -0.05314
    D5       -1.08425  -0.00078   0.00000  -0.00776  -0.00788  -1.09213
    D6        2.05730  -0.00081   0.00000  -0.00853  -0.00867   2.04863
    D7        0.99257   0.00110   0.00000   0.01224   0.01222   1.00479
    D8        3.09594  -0.00005   0.00000   0.00050   0.00059   3.09654
    D9       -1.08289  -0.00090   0.00000  -0.00815  -0.00820  -1.09109
   D10       -2.14899   0.00113   0.00000   0.01301   0.01297  -2.13602
   D11       -0.04561  -0.00002   0.00000   0.00126   0.00134  -0.04427
   D12        2.05874  -0.00088   0.00000  -0.00739  -0.00745   2.05129
   D13        0.00064  -0.00007   0.00000  -0.00163  -0.00160  -0.00096
   D14       -3.14094  -0.00002   0.00000  -0.00036  -0.00039  -3.14133
   D15       -3.14099  -0.00010   0.00000  -0.00245  -0.00242   3.13977
   D16        0.00061  -0.00004   0.00000  -0.00118  -0.00121  -0.00060
   D17        3.14041  -0.00001   0.00000  -0.00009  -0.00007   3.14034
   D18       -0.00072  -0.00005   0.00000  -0.00105  -0.00102  -0.00174
   D19       -0.00120  -0.00006   0.00000  -0.00127  -0.00129  -0.00249
   D20        3.14087  -0.00010   0.00000  -0.00222  -0.00225   3.13862
         Item               Value     Threshold  Converged?
 Maximum Force            0.048022     0.000450     NO 
 RMS     Force            0.012554     0.000300     NO 
 Maximum Displacement     0.238450     0.001800     NO 
 RMS     Displacement     0.060308     0.001200     NO 
 Predicted change in Energy=-1.214659D-02
 Lowest energy point so far.  Saving SCF results.
 GradGradGradGradGradGradGradGradGradGradGradGradGradGradGradGradGradGrad

 Leave Link  103 at Mon Feb 22 21:29:42 2021, MaxMem=   104857600 cpu:               5.2 elap:               0.2
 (Enter /sw/arch/RedHatEnterpriseServer7/EB_production/2019/software/Gaussian/g16.c01/l202.exe)
                          Input orientation:                          
 ---------------------------------------------------------------------
 Center     Atomic      Atomic             Coordinates (Angstroms)
 Number     Number       Type             X           Y           Z
 ---------------------------------------------------------------------
      1          6           0       -1.944457   -0.000414    0.341271
      2          7           0       -0.660325   -0.657736    0.122445
      3          6           0       -0.704067   -2.105016    0.044869
      4          6           0        0.538798   -0.003070   -0.009452
      5          7           0        0.515872    1.366141    0.070795
      6          8           0        1.609781   -0.641252   -0.197381
      7          1           0       -2.418205   -0.375018    1.263501
      8          1           0       -1.844443    1.084572    0.443498
      9          1           0       -2.633179   -0.193879   -0.498147
     10          1           0       -1.385501   -2.426700   -0.759947
     11          1           0        0.295451   -2.498012   -0.165464
     12          1           0       -1.059713   -2.536079    0.995732
     13          1           0        1.397056    1.846143   -0.025054
     14          1           0       -0.321128    1.914319    0.217934
 ---------------------------------------------------------------------
                    Distance matrix (angstroms):
                    1          2          3          4          5
     1  C    0.000000
     2  N    1.459093   0.000000
     3  C    2.460848   1.450018   0.000000
     4  C    2.507902   1.372545   2.442507   0.000000
     5  N    2.827340   2.341406   3.679382   1.371753   0.000000
     6  O    3.651497   2.292584   2.748669   1.260792   2.301778
     7  H    1.102394   2.114729   2.723275   3.240775   3.614276
     8  H    1.094371   2.130927   3.410694   2.658565   2.406092
     9  H    1.102901   2.119541   2.769257   3.215070   3.560040
    10  H    2.722495   2.105643   1.102525   3.184360   4.323308
    11  H    3.392929   2.093565   1.094405   2.511631   3.877638
    12  H    2.764180   2.109577   1.102923   3.159393   4.308747
    13  H    3.835320   3.244069   4.475630   2.038735   1.008005
    14  H    2.513286   2.596081   4.041243   2.113660   1.011295
                    6          7          8          9         10
     6  O    0.000000
     7  H    4.292985   0.000000
     8  H    3.914187   1.769749   0.000000
     9  H    4.277068   1.783937   1.772918   0.000000
    10  H    3.532141   3.061081   3.740045   2.571134   0.000000
    11  H    2.275090   3.730010   4.217213   3.741201   1.784404
    12  H    3.484262   2.566590   3.745648   3.192706   1.788997
    13  H    2.502415   4.598929   3.362566   4.541840   5.151687
    14  H    3.229836   3.275973   1.749242   3.209805   4.575323
                   11         12         13         14
    11  H    0.000000
    12  H    1.785019   0.000000
    13  H    4.483852   5.126557   0.000000
    14  H    4.471669   4.577829   1.736620   0.000000
 Stoichiometry    C3H8N2O
 Framework group  C1[X(C3H8N2O)]
 Deg. of freedom    36
 Full point group                 C1      NOp   1
 RotChk:  IX=0 Diff= 3.34D-02
 Largest Abelian subgroup         C1      NOp   1
 Largest concise Abelian subgroup C1      NOp   1
                         Standard orientation:                         
 ---------------------------------------------------------------------
 Center     Atomic      Atomic             Coordinates (Angstroms)
 Number     Number       Type             X           Y           Z
 ---------------------------------------------------------------------
      1          6           0        1.204314    1.355335   -0.000198
      2          7           0        0.578351    0.037335   -0.000417
      3          6           0        1.491986   -1.088641    0.000591
      4          6           0       -0.776401   -0.182957   -0.000550
      5          7           0       -1.589586    0.921775    0.000703
      6          8           0       -1.243855   -1.353890   -0.000454
      7          1           0        1.876877    1.463922   -0.866882
      8          1           0        0.469813    2.164823   -0.053911
      9          1           0        1.800932    1.506998    0.914917
     10          1           0        2.163919   -1.038042    0.873234
     11          1           0        0.929151   -2.026093    0.046675
     12          1           0        2.108257   -1.091782   -0.914089
     13          1           0       -2.584390    0.759177   -0.000520
     14          1           0       -1.254463    1.875926    0.003156
 ---------------------------------------------------------------------
 Rotational constants (GHZ):           5.0368735           3.4894284           2.1169141
 Leave Link  202 at Mon Feb 22 21:29:42 2021, MaxMem=   104857600 cpu:               0.8 elap:               0.1
 (Enter /sw/arch/RedHatEnterpriseServer7/EB_production/2019/software/Gaussian/g16.c01/l301.exe)
 Standard basis: TZVP (5D, 7F)
 Ernie: Thresh=  0.10000D-02 Tol=  0.10000D-05 Strict=F.
 There are   168 symmetry adapted cartesian basis functions of A   symmetry.
 There are   162 symmetry adapted basis functions of A   symmetry.
   162 basis functions,   274 primitive gaussians,   168 cartesian basis functions
    24 alpha electrons       24 beta electrons
       nuclear repulsion energy       252.3603295400 Hartrees.
 IExCor=  404 DFT=T Ex=B Corr=P86 ExCW=0 ScaHFX=  0.000000
 ScaDFX=  1.000000  1.000000  1.000000  1.000000 ScalE2=  1.000000  1.000000
 IRadAn=      5 IRanWt=     -1 IRanGd=            0 ICorTp=0 IEmpDi=131
 NAtoms=   14 NActive=   14 NUniq=   14 SFac= 1.00D+00 NAtFMM=   60 NAOKFM=F Big=F
 Integral buffers will be    131072 words long.
 Raffenetti 2 integral format.
 Two-electron integral symmetry is turned on.
 R6Disp:  Grimme-D3 Dispersion energy=       -0.0094724507 Hartrees.
 Nuclear repulsion after empirical dispersion term =      252.3508570893 Hartrees.
 ------------------------------------------------------------------------------
 Polarizable Continuum Model (PCM)
 =================================
 Model                : PCM.
 Atomic radii         : UFF (Universal Force Field).
 Polarization charges : Total charges.
 Charge compensation  : None.
 Solution method      : On-the-fly selection.
 Cavity type          : Scaled VdW (van der Waals Surface) (Alpha=1.100).
 Cavity algorithm     : GePol (No added spheres)
                        Default sphere list used, NSphG=   14.
                        Lebedev-Laikov grids with approx.  5.0 points / Ang**2.
                        Smoothing algorithm: York/Karplus (Gamma=1.0000).
                        Polarization charges: spherical gaussians, with
                                              point-specific exponents (IZeta= 3).
                        Self-potential: point-specific (ISelfS= 7).
                        Self-field    : sphere-specific E.n sum rule (ISelfD= 2).
 1st derivatives      : Analytical E(r).r(x)/FMM algorithm (CHGder, D1EAlg=3).
                        Cavity 1st derivative terms included.
 Solvent              : Water, Eps=  78.355300 Eps(inf)=   1.777849
 ------------------------------------------------------------------------------
 Spheres list:
 ISph  on   Nord     Re0    Alpha      Xe            Ye            Ze
    1   C      1    1.9255  1.100      1.204314      1.355335     -0.000198
    2   N      2    1.8300  1.100      0.578351      0.037335     -0.000417
    3   C      3    1.9255  1.100      1.491986     -1.088641      0.000591
    4   C      4    1.9255  1.100     -0.776401     -0.182957     -0.000550
    5   N      5    1.8300  1.100     -1.589586      0.921775      0.000703
    6   O      6    1.7500  1.100     -1.243855     -1.353890     -0.000454
    7   H      7    1.4430  1.100      1.876877      1.463922     -0.866882
    8   H      8    1.4430  1.100      0.469813      2.164823     -0.053911
    9   H      9    1.4430  1.100      1.800932      1.506998      0.914917
   10   H     10    1.4430  1.100      2.163919     -1.038042      0.873234
   11   H     11    1.4430  1.100      0.929151     -2.026093      0.046675
   12   H     12    1.4430  1.100      2.108257     -1.091782     -0.914089
   13   H     13    1.4430  1.100     -2.584390      0.759177     -0.000520
   14   H     14    1.4430  1.100     -1.254463      1.875926      0.003156
 ------------------------------------------------------------------------------
 GePol: Number of generator spheres                  =      14
 GePol: Total number of spheres                      =      14
 GePol: Number of exposed spheres                    =      14 (100.00%)
 GePol: Number of points                             =    1173
 GePol: Average weight of points                     =       0.13
 GePol: Minimum weight of points                     =   0.36D-07
 GePol: Maximum weight of points                     =    0.20577
 GePol: Number of points with low weight             =      70
 GePol: Fraction of low-weight points (<1% of avg)   =       5.97%
 GePol: Cavity surface area                          =    152.292 Ang**2
 GePol: Cavity volume                                =    142.046 Ang**3
 Leave Link  301 at Mon Feb 22 21:29:42 2021, MaxMem=   104857600 cpu:               1.9 elap:               0.1
 (Enter /sw/arch/RedHatEnterpriseServer7/EB_production/2019/software/Gaussian/g16.c01/l302.exe)
 NPDir=0 NMtPBC=     1 NCelOv=     1 NCel=       1 NClECP=     1 NCelD=      1
         NCelK=      1 NCelE2=     1 NClLst=     1 CellRange=     0.0.
 One-electron integrals computed using PRISM.
 One-electron integral symmetry used in STVInt
 PrsmSu:  requested number of processors reduced to:  29 ShMem   1 Linda.
 NBasis=   162 RedAO= T EigKep=  7.77D-04  NBF=   162
 NBsUse=   162 1.00D-06 EigRej= -1.00D+00 NBFU=   162
 Precomputing XC quadrature grid using
 IXCGrd= 4 IRadAn=           5 IRanWt=          -1 IRanGd=           0 AccXCQ= 0.00D+00.
 Generated NRdTot=       0 NPtTot=           0 NUsed=           0 NTot=          32
 NSgBfM=   167   167   167   167   167 MxSgAt=    14 MxSgA2=    14.
 Leave Link  302 at Mon Feb 22 21:29:43 2021, MaxMem=   104857600 cpu:               4.9 elap:               0.2
 (Enter /sw/arch/RedHatEnterpriseServer7/EB_production/2019/software/Gaussian/g16.c01/l303.exe)
 DipDrv:  MaxL=1.
 Leave Link  303 at Mon Feb 22 21:29:43 2021, MaxMem=   104857600 cpu:               0.9 elap:               0.1
 (Enter /sw/arch/RedHatEnterpriseServer7/EB_production/2019/software/Gaussian/g16.c01/l401.exe)
 Initial guess from the checkpoint file:  "YBBLOADPFWKNGS-UHFFFAOYSA-N.chk"
 B after Tr=    -0.000000   -0.000000   -0.000000
         Rot=    0.999977    0.000298    0.000064    0.006800 Ang=   0.78 deg.
 Guess basis will be translated and rotated to current coordinates.
 JPrj=2 DoOrth=T DoCkMO=T.
 Generating alternative initial guess.
 ExpMin= 9.52D-02 ExpMax= 2.70D+04 ExpMxC= 9.22D+02 IAcc=3 IRadAn=         5 AccDes= 0.00D+00
 Harris functional with IExCor=  404 and IRadAn=       5 diagonalized for initial guess.
 HarFok:  IExCor=  404 AccDes= 0.00D+00 IRadAn=         5 IDoV= 1 UseB2=F ITyADJ=14
 ICtDFT=  3500011 ScaDFX=  1.000000  1.000000  1.000000  1.000000
 FoFCou: FMM=F IPFlag=           0 FMFlag=      100000 FMFlg1=           0
         NFxFlg=           0 DoJE=T BraDBF=F KetDBF=T FulRan=T
         wScrn=  0.000000 ICntrl=       500 IOpCl=  0 I1Cent=   200000004 NGrid=           0
         NMat0=    1 NMatS0=      1 NMatT0=    0 NMatD0=    1 NMtDS0=    0 NMtDT0=    0
 Petite list used in FoFCou.
 Harris En= -304.113990259315    
 Leave Link  401 at Mon Feb 22 21:29:43 2021, MaxMem=   104857600 cpu:              16.0 elap:               0.6
 (Enter /sw/arch/RedHatEnterpriseServer7/EB_production/2019/software/Gaussian/g16.c01/l502.exe)
 Integral symmetry usage will be decided dynamically.
 Closed shell SCF:
 Using DIIS extrapolation, IDIIS=  1040.
 NGot=   104857600 LenX=   104793598 LenY=   104764933
 Requested convergence on RMS density matrix=1.00D-08 within 128 cycles.
 Requested convergence on MAX density matrix=1.00D-06.
 Requested convergence on             energy=1.00D-06.
 No special actions if energy rises.
 Fock matrices will be formed incrementally for  20 cycles.

 Cycle   1  Pass 1  IDiag  1:
 FoFJK:  IHMeth= 1 ICntrl=     500 DoSepK=F KAlg= 0 I1Cent=           0 FoldK=F
 IRaf= 970000000 NMat=       1 IRICut=       1 DoRegI=T DoRafI=F ISym2E= 0 IDoP0=0 IntGTp=1.
 FoFCou: FMM=F IPFlag=           0 FMFlag=      100000 FMFlg1=           0
         NFxFlg=           0 DoJE=T BraDBF=F KetDBF=F FulRan=T
         wScrn=  0.000000 ICntrl=       500 IOpCl=  0 I1Cent=           0 NGrid=           0
         NMat0=    1 NMatS0=      1 NMatT0=    0 NMatD0=    1 NMtDS0=    0 NMtDT0=    0
 Symmetry not used in FoFCou.
 Inv3:  Mode=1 IEnd=     4127787.
 Iteration    1 A*A^-1 deviation from unit magnitude is 2.89D-15 for    207.
 Iteration    1 A*A^-1 deviation from orthogonality  is 1.78D-15 for    928     26.
 Iteration    1 A^-1*A deviation from unit magnitude is 2.89D-15 for    207.
 Iteration    1 A^-1*A deviation from orthogonality  is 2.33D-15 for    914     41.
 E= -304.007025043910    
 DIIS: error= 3.77D-03 at cycle   1 NSaved=   1.
 NSaved= 1 IEnMin= 1 EnMin= -304.007025043910     IErMin= 1 ErrMin= 3.77D-03
 ErrMax= 3.77D-03  0.00D+00 EMaxC= 1.00D-01 BMatC= 4.82D-03 BMatP= 4.82D-03
 IDIUse=3 WtCom= 9.62D-01 WtEn= 3.77D-02
 Coeff-Com:  0.100D+01
 Coeff-En:   0.100D+01
 Coeff:      0.100D+01
 Gap=     0.521 Goal=   None    Shift=    0.000
 GapD=    0.521 DampG=2.000 DampE=1.000 DampFc=2.0000 IDamp=-1.
 RMSDP=8.13D-04 MaxDP=1.56D-02              OVMax= 3.20D-02

 Cycle   2  Pass 1  IDiag  1:
 RMSU=  8.11D-04    CP:  9.97D-01
 E= -304.010931576312     Delta-E=       -0.003906532402 Rises=F Damp=F
 DIIS: error= 4.36D-03 at cycle   2 NSaved=   2.
 NSaved= 2 IEnMin= 2 EnMin= -304.010931576312     IErMin= 1 ErrMin= 3.77D-03
 ErrMax= 4.36D-03  0.00D+00 EMaxC= 1.00D-01 BMatC= 2.32D-03 BMatP= 4.82D-03
 IDIUse=3 WtCom= 9.56D-01 WtEn= 4.36D-02
 Coeff-Com:  0.364D+00 0.636D+00
 Coeff-En:   0.000D+00 0.100D+01
 Coeff:      0.348D+00 0.652D+00
 Gap=     0.221 Goal=   None    Shift=    0.000
 RMSDP=5.60D-04 MaxDP=1.27D-02 DE=-3.91D-03 OVMax= 3.83D-02

 Cycle   3  Pass 1  IDiag  1:
 RMSU=  5.33D-04    CP:  1.00D+00  8.20D-01
 E= -304.009453864287     Delta-E=        0.001477712025 Rises=F Damp=F
 DIIS: error= 6.90D-03 at cycle   3 NSaved=   3.
 NSaved= 3 IEnMin= 2 EnMin= -304.010931576312     IErMin= 1 ErrMin= 3.77D-03
 ErrMax= 6.90D-03  0.00D+00 EMaxC= 1.00D-01 BMatC= 4.29D-03 BMatP= 2.32D-03
 IDIUse=3 WtCom= 1.07D-01 WtEn= 8.93D-01
 Coeff-Com:  0.326D-01 0.564D+00 0.403D+00
 Coeff-En:   0.000D+00 0.605D+00 0.395D+00
 Coeff:      0.350D-02 0.600D+00 0.396D+00
 Gap=     0.220 Goal=   None    Shift=    0.000
 RMSDP=3.39D-04 MaxDP=7.93D-03 DE= 1.48D-03 OVMax= 2.08D-02

 Cycle   4  Pass 1  IDiag  1:
 RMSU=  7.78D-05    CP:  9.99D-01  8.95D-01  4.01D-01
 E= -304.012636701230     Delta-E=       -0.003182836943 Rises=F Damp=F
 DIIS: error= 1.12D-03 at cycle   4 NSaved=   4.
 NSaved= 4 IEnMin= 4 EnMin= -304.012636701230     IErMin= 4 ErrMin= 1.12D-03
 ErrMax= 1.12D-03  0.00D+00 EMaxC= 1.00D-01 BMatC= 1.25D-04 BMatP= 2.32D-03
 IDIUse=3 WtCom= 9.89D-01 WtEn= 1.12D-02
 Coeff-Com:  0.643D-02 0.358D+00 0.232D+00 0.404D+00
 Coeff-En:   0.000D+00 0.000D+00 0.000D+00 0.100D+01
 Coeff:      0.635D-02 0.354D+00 0.229D+00 0.411D+00
 Gap=     0.219 Goal=   None    Shift=    0.000
 RMSDP=4.65D-05 MaxDP=1.78D-03 DE=-3.18D-03 OVMax= 3.55D-03

 Cycle   5  Pass 1  IDiag  1:
 RMSU=  2.40D-05    CP:  9.99D-01  9.07D-01  3.84D-01  5.17D-01
 E= -304.012731359999     Delta-E=       -0.000094658769 Rises=F Damp=F
 DIIS: error= 2.22D-04 at cycle   5 NSaved=   5.
 NSaved= 5 IEnMin= 5 EnMin= -304.012731359999     IErMin= 5 ErrMin= 2.22D-04
 ErrMax= 2.22D-04  0.00D+00 EMaxC= 1.00D-01 BMatC= 7.07D-06 BMatP= 1.25D-04
 IDIUse=3 WtCom= 9.98D-01 WtEn= 2.22D-03
 Coeff-Com:  0.106D-02 0.131D+00 0.833D-01 0.236D+00 0.548D+00
 Coeff-En:   0.000D+00 0.000D+00 0.000D+00 0.000D+00 0.100D+01
 Coeff:      0.105D-02 0.131D+00 0.831D-01 0.236D+00 0.549D+00
 Gap=     0.218 Goal=   None    Shift=    0.000
 RMSDP=1.43D-05 MaxDP=3.64D-04 DE=-9.47D-05 OVMax= 1.11D-03

 Cycle   6  Pass 1  IDiag  1:
 RMSU=  8.25D-06    CP:  9.99D-01  9.12D-01  3.84D-01  5.47D-01  5.66D-01
 E= -304.012736259395     Delta-E=       -0.000004899395 Rises=F Damp=F
 DIIS: error= 1.22D-04 at cycle   6 NSaved=   6.
 NSaved= 6 IEnMin= 6 EnMin= -304.012736259395     IErMin= 6 ErrMin= 1.22D-04
 ErrMax= 1.22D-04  0.00D+00 EMaxC= 1.00D-01 BMatC= 9.52D-07 BMatP= 7.07D-06
 IDIUse=3 WtCom= 9.99D-01 WtEn= 1.22D-03
 Coeff-Com:  0.989D-04 0.594D-01 0.385D-01 0.122D+00 0.353D+00 0.427D+00
 Coeff-En:   0.000D+00 0.000D+00 0.000D+00 0.000D+00 0.920D-01 0.908D+00
 Coeff:      0.988D-04 0.593D-01 0.384D-01 0.122D+00 0.353D+00 0.428D+00
 Gap=     0.219 Goal=   None    Shift=    0.000
 RMSDP=4.69D-06 MaxDP=1.47D-04 DE=-4.90D-06 OVMax= 4.19D-04

 Cycle   7  Pass 1  IDiag  1:
 RMSU=  3.19D-06    CP:  9.99D-01  9.12D-01  3.85D-01  5.42D-01  6.33D-01
                    CP:  6.37D-01
 E= -304.012737114194     Delta-E=       -0.000000854799 Rises=F Damp=F
 DIIS: error= 1.97D-05 at cycle   7 NSaved=   7.
 NSaved= 7 IEnMin= 7 EnMin= -304.012737114194     IErMin= 7 ErrMin= 1.97D-05
 ErrMax= 1.97D-05  0.00D+00 EMaxC= 1.00D-01 BMatC= 3.67D-08 BMatP= 9.52D-07
 IDIUse=1 WtCom= 1.00D+00 WtEn= 0.00D+00
 Coeff-Com: -0.656D-04 0.150D-01 0.103D-01 0.350D-01 0.114D+00 0.218D+00
 Coeff-Com:  0.608D+00
 Coeff:     -0.656D-04 0.150D-01 0.103D-01 0.350D-01 0.114D+00 0.218D+00
 Coeff:      0.608D+00
 Gap=     0.219 Goal=   None    Shift=    0.000
 RMSDP=9.22D-07 MaxDP=2.44D-05 DE=-8.55D-07 OVMax= 5.09D-05

 Cycle   8  Pass 1  IDiag  1:
 RMSU=  6.41D-07    CP:  9.99D-01  9.12D-01  3.85D-01  5.44D-01  6.32D-01
                    CP:  6.50D-01  8.21D-01
 E= -304.012737128576     Delta-E=       -0.000000014382 Rises=F Damp=F
 DIIS: error= 5.89D-06 at cycle   8 NSaved=   8.
 NSaved= 8 IEnMin= 8 EnMin= -304.012737128576     IErMin= 8 ErrMin= 5.89D-06
 ErrMax= 5.89D-06  0.00D+00 EMaxC= 1.00D-01 BMatC= 4.41D-09 BMatP= 3.67D-08
 IDIUse=1 WtCom= 1.00D+00 WtEn= 0.00D+00
 Coeff-Com: -0.502D-04 0.332D-02 0.243D-02 0.951D-02 0.331D-01 0.904D-01
 Coeff-Com:  0.346D+00 0.515D+00
 Coeff:     -0.502D-04 0.332D-02 0.243D-02 0.951D-02 0.331D-01 0.904D-01
 Coeff:      0.346D+00 0.515D+00
 Gap=     0.219 Goal=   None    Shift=    0.000
 RMSDP=3.24D-07 MaxDP=6.14D-06 DE=-1.44D-08 OVMax= 1.56D-05

 Cycle   9  Pass 1  IDiag  1:
 RMSU=  1.73D-07    CP:  9.99D-01  9.12D-01  3.85D-01  5.44D-01  6.32D-01
                    CP:  6.58D-01  7.95D-01  6.56D-01
 E= -304.012737132529     Delta-E=       -0.000000003954 Rises=F Damp=F
 DIIS: error= 8.83D-07 at cycle   9 NSaved=   9.
 NSaved= 9 IEnMin= 9 EnMin= -304.012737132529     IErMin= 9 ErrMin= 8.83D-07
 ErrMax= 8.83D-07  0.00D+00 EMaxC= 1.00D-01 BMatC= 8.76D-11 BMatP= 4.41D-09
 IDIUse=1 WtCom= 1.00D+00 WtEn= 0.00D+00
 Coeff-Com: -0.123D-04 0.492D-03 0.339D-03 0.183D-02 0.604D-02 0.212D-01
 Coeff-Com:  0.927D-01 0.185D+00 0.693D+00
 Coeff:     -0.123D-04 0.492D-03 0.339D-03 0.183D-02 0.604D-02 0.212D-01
 Coeff:      0.927D-01 0.185D+00 0.693D+00
 Gap=     0.219 Goal=   None    Shift=    0.000
 RMSDP=5.46D-08 MaxDP=8.98D-07 DE=-3.95D-09 OVMax= 1.83D-06

 Cycle  10  Pass 1  IDiag  1:
 RMSU=  3.89D-08    CP:  9.99D-01  9.12D-01  3.85D-01  5.44D-01  6.32D-01
                    CP:  6.59D-01  8.01D-01  6.55D-01  8.78D-01
 E= -304.012737132601     Delta-E=       -0.000000000072 Rises=F Damp=F
 DIIS: error= 2.27D-07 at cycle  10 NSaved=  10.
 NSaved=10 IEnMin=10 EnMin= -304.012737132601     IErMin=10 ErrMin= 2.27D-07
 ErrMax= 2.27D-07  0.00D+00 EMaxC= 1.00D-01 BMatC= 9.53D-12 BMatP= 8.76D-11
 IDIUse=1 WtCom= 1.00D+00 WtEn= 0.00D+00
 Coeff-Com: -0.256D-05 0.886D-04 0.420D-04 0.433D-03 0.125D-02 0.521D-02
 Coeff-Com:  0.257D-01 0.607D-01 0.338D+00 0.568D+00
 Coeff:     -0.256D-05 0.886D-04 0.420D-04 0.433D-03 0.125D-02 0.521D-02
 Coeff:      0.257D-01 0.607D-01 0.338D+00 0.568D+00
 Gap=     0.219 Goal=   None    Shift=    0.000
 RMSDP=2.68D-08 MaxDP=5.83D-07 DE=-7.16D-11 OVMax= 7.89D-07

 Cycle  11  Pass 1  IDiag  1:
 RMSU=  1.36D-08    CP:  9.99D-01  9.12D-01  3.85D-01  5.44D-01  6.32D-01
                    CP:  6.59D-01  8.02D-01  6.66D-01  8.68D-01  7.10D-01
 E= -304.012737132606     Delta-E=       -0.000000000006 Rises=F Damp=F
 DIIS: error= 7.19D-08 at cycle  11 NSaved=  11.
 NSaved=11 IEnMin=11 EnMin= -304.012737132606     IErMin=11 ErrMin= 7.19D-08
 ErrMax= 7.19D-08  0.00D+00 EMaxC= 1.00D-01 BMatC= 9.97D-13 BMatP= 9.53D-12
 IDIUse=1 WtCom= 1.00D+00 WtEn= 0.00D+00
 Coeff-Com: -0.688D-07-0.144D-04-0.206D-04 0.205D-04-0.239D-07 0.431D-03
 Coeff-Com:  0.397D-02 0.126D-01 0.105D+00 0.302D+00 0.576D+00
 Coeff:     -0.688D-07-0.144D-04-0.206D-04 0.205D-04-0.239D-07 0.431D-03
 Coeff:      0.397D-02 0.126D-01 0.105D+00 0.302D+00 0.576D+00
 Gap=     0.219 Goal=   None    Shift=    0.000
 RMSDP=6.41D-09 MaxDP=1.16D-07 DE=-5.80D-12 OVMax= 2.39D-07

 Error on total polarization charges =  0.01086
 SCF Done:  E(RB-P86) =  -304.012737133     A.U. after   11 cycles
            NFock= 11  Conv=0.64D-08     -V/T= 2.0047
 KE= 3.026024415896D+02 PE=-1.214918079143D+03 EE= 3.559520433312D+02
 Leave Link  502 at Mon Feb 22 21:29:49 2021, MaxMem=   104857600 cpu:             178.9 elap:               5.7
 (Enter /sw/arch/RedHatEnterpriseServer7/EB_production/2019/software/Gaussian/g16.c01/l701.exe)
 ... and contract with generalized density number  0.
 Compute integral first derivatives.
 R6Disp: Adding Grimme-D3 dispersion energy 1st derivatives to the gradient.
 PrsmSu:  requested number of processors reduced to:  30 ShMem   1 Linda.
 D1PCM: PCM CHGder 1st derivatives, ID1Alg=3 FixD1E=F DoIter=F DoCFld=F I1PDM=0.
 GePol: Maximum number of non-zero 1st derivatives   =     211
 CoulSu:  requested number of processors reduced to:  29 ShMem   1 Linda.
 CoulSu:  requested number of processors reduced to:  30 ShMem   1 Linda.
 Leave Link  701 at Mon Feb 22 21:29:50 2021, MaxMem=   104857600 cpu:              14.6 elap:               0.5
 (Enter /sw/arch/RedHatEnterpriseServer7/EB_production/2019/software/Gaussian/g16.c01/l702.exe)
 L702 exits ... SP integral derivatives will be done elsewhere.
 Leave Link  702 at Mon Feb 22 21:29:50 2021, MaxMem=   104857600 cpu:               0.7 elap:               0.0
 (Enter /sw/arch/RedHatEnterpriseServer7/EB_production/2019/software/Gaussian/g16.c01/l703.exe)
 Integral derivatives from FoFJK, PRISM(SPDF).
 Compute integral first derivatives, UseDBF=F ICtDFT=           0.
 Calling FoFJK, ICntrl=      2527 FMM=F ISym2X=0 I1Cent= 0 IOpClX= 0 NMat=1 NMatS=1 NMatT=0.
 FoFJK:  IHMeth= 1 ICntrl=    2527 DoSepK=F KAlg= 0 I1Cent=           0 FoldK=F
 IRaf=         0 NMat=       1 IRICut=       1 DoRegI=T DoRafI=F ISym2E= 0 IDoP0=0 IntGTp=1.
 FoFCou: FMM=F IPFlag=           0 FMFlag=      100000 FMFlg1=         800
         NFxFlg=           0 DoJE=F BraDBF=F KetDBF=F FulRan=T
         wScrn=  0.000000 ICntrl=      2527 IOpCl=  0 I1Cent=           0 NGrid=           0
         NMat0=    1 NMatS0=      1 NMatT0=    0 NMatD0=    1 NMtDS0=    0 NMtDT0=    0
 Symmetry not used in FoFCou.
 Leave Link  703 at Mon Feb 22 21:29:50 2021, MaxMem=   104857600 cpu:              22.3 elap:               0.7
 (Enter /sw/arch/RedHatEnterpriseServer7/EB_production/2019/software/Gaussian/g16.c01/l716.exe)
 Dipole        = 9.50370190D-01 2.08816746D+00 1.35829253D-03
 ***** Axes restored to original set *****
 -------------------------------------------------------------------
 Center     Atomic                   Forces (Hartrees/Bohr)
 Number     Number              X              Y              Z
 -------------------------------------------------------------------
      1        6          -0.002381580   -0.001533140    0.000179343
      2        7          -0.004324479    0.005198515    0.001119016
      3        6          -0.001366300   -0.005594077   -0.000382325
      4        6           0.009315465   -0.011419381   -0.002186739
      5        7           0.001839415   -0.001053063   -0.000361667
      6        8          -0.006320870    0.011635956    0.001692507
      7        1           0.000489719   -0.000454222    0.000339623
      8        1          -0.001836363   -0.001247253    0.000420476
      9        1           0.000425515   -0.000350998   -0.000522897
     10        1          -0.000831793    0.000023582    0.000013055
     11        1           0.000434119    0.001409599    0.000083473
     12        1          -0.000778688    0.000024503    0.000288905
     13        1           0.003170891    0.002147029   -0.000287815
     14        1           0.002164949    0.001212950   -0.000394955
 -------------------------------------------------------------------
 Cartesian Forces:  Max     0.011635956 RMS     0.003532193
 Leave Link  716 at Mon Feb 22 21:29:50 2021, MaxMem=   104857600 cpu:               0.6 elap:               0.0
 (Enter /sw/arch/RedHatEnterpriseServer7/EB_production/2019/software/Gaussian/g16.c01/l103.exe)

 GradGradGradGradGradGradGradGradGradGradGradGradGradGradGradGradGradGrad
 Berny optimization.
 Using GEDIIS/GDIIS optimizer.
 FormGI is forming the generalized inverse of G from B-inverse, IUseBI=4.
[...]
     2  N    1.462104   0.000000
     3  C    2.488844   1.460295   0.000000
     4  C    2.491404   1.375586   2.450680   0.000000
     5  N    2.778333   2.347256   3.695434   1.392503   0.000000
     6  O    3.645496   2.307780   2.795591   1.247871   2.296726
     7  H    1.097549   2.089649   2.546520   3.355709   3.818959
     8  H    1.099240   2.119708   3.358124   2.734058   2.565110
     9  H    1.104960   2.142228   3.045735   2.961264   3.052044
    10  H    2.779721   2.120769   1.103510   3.119134   4.254126
    11  H    3.406521   2.090567   1.094929   2.507956   3.892214
    12  H    2.771461   2.110301   1.101166   3.230945   4.391015
    13  H    3.778290   3.223672   4.449683   2.017376   1.016296
    14  H    2.485639   2.586240   3.999931   2.091586   1.016870
                    6          7          8          9         10
     6  O    0.000000
     7  H    4.385897   0.000000
     8  H    3.941048   1.771292   0.000000
     9  H    4.109626   1.781951   1.797734   0.000000
    10  H    3.499496   2.758287   3.822229   2.963401   0.000000
    11  H    2.321655   3.595816   4.157717   3.948230   1.790668
    12  H    3.602669   2.419286   3.530496   3.520216   1.790635
    13  H    2.441811   4.825232   3.557543   3.954130   4.988179
    14  H    3.166570   3.570414   2.196269   2.480841   4.376308
                   11         12         13         14
    11  H    0.000000
    12  H    1.789352   0.000000
    13  H    4.451972   5.217456   0.000000
    14  H    4.417731   4.669576   1.702051   0.000000
 Stoichiometry    C3H8N2O
 Framework group  C1[X(C3H8N2O)]
 Deg. of freedom    36
 Full point group                 C1      NOp   1
 Largest Abelian subgroup         C1      NOp   1
 Largest concise Abelian subgroup C1      NOp   1
                         Standard orientation:                         
 ---------------------------------------------------------------------
 Center     Atomic      Atomic             Coordinates (Angstroms)
 Number     Number       Type             X           Y           Z
 ---------------------------------------------------------------------
      1          6           0        1.157670    1.380454   -0.038001
      2          7           0        0.590295    0.033422   -0.074593
      3          6           0        1.525198   -1.078591    0.073213
      4          6           0       -0.763100   -0.206162   -0.018395
      5          7           0       -1.582083    0.919998   -0.008528
      6          8           0       -1.254406   -1.352948   -0.044509
      7          1           0        2.194802    1.333477   -0.394041
      8          1           0        0.608503    2.055784   -0.709322
      9          1           0        1.165507    1.806182    0.981622
     10          1           0        2.056516   -1.019522    1.038586
     11          1           0        0.968123   -2.020143    0.028314
     12          1           0        2.268530   -1.059955   -0.738993
     13          1           0       -2.550983    0.700944    0.206195
     14          1           0       -1.251847    1.778672    0.424654
 ---------------------------------------------------------------------
 Rotational constants (GHZ):           5.0043893           3.4874019           2.1186287
 Standard basis: TZVP (5D, 7F)
 There are   168 symmetry adapted cartesian basis functions of A   symmetry.
 There are   162 symmetry adapted basis functions of A   symmetry.
   162 basis functions,   274 primitive gaussians,   168 cartesian basis functions
    24 alpha electrons       24 beta electrons
       nuclear repulsion energy       251.9923464626 Hartrees.
 NAtoms=   14 NActive=   14 NUniq=   14 SFac= 1.00D+00 NAtFMM=   60 NAOKFM=F Big=F
 Integral buffers will be    131072 words long.
 Raffenetti 2 integral format.
 Two-electron integral symmetry is turned on.
 Warning! Using old PCM defaults because the COSMOthermo output has been requested.
 These settings can be overridden by following keywords.
 ------------------------------------------------------------------------------
 Polarizable Continuum Model (PCM)
 =================================
 Model                : C-PCM.
 Atomic radii         : Klamt.
 XCosmo               : -1.000 (infinite dielectric limit)
 Polarization charges : Electronic and nuclear charges.
 Charge compensation  : Type 3 (Electronic density weighted correction).
 Solution method      : On-the-fly selection.
 Cavity type          : VdW (van der Waals Surface) (Alpha=1.000).
 Cavity algorithm     : GePol (No added spheres)
                        Default sphere list used, NSphG=   14.
                        Tesserae with average area of 0.200 Ang**2.
                        Smoothing algorithm: None.
                        Polarization charges: point-like.
                        Self-potential: constant (ISelfS= 1).
                        Self-field    : global E.n sum rule (ISelfD= 3).
 Solvent              : Water, Eps=  78.355300 Eps(inf)=   1.777849
 ------------------------------------------------------------------------------
 Spheres list:
 ISph  on   Nord     Re0    Alpha      Xe            Ye            Ze
    1   C      1    2.0000  1.000      1.157670      1.380454     -0.038001
    2   N      2    1.8300  1.000      0.590295      0.033422     -0.074593
    3   C      3    2.0000  1.000      1.525198     -1.078591      0.073213
    4   C      4    2.0000  1.000     -0.763100     -0.206162     -0.018395
    5   N      5    1.8300  1.000     -1.582083      0.919998     -0.008528
    6   O      6    1.7200  1.000     -1.254406     -1.352948     -0.044509
    7   H      7    1.3000  1.000      2.194802      1.333477     -0.394041
    8   H      8    1.3000  1.000      0.608503      2.055784     -0.709322
    9   H      9    1.3000  1.000      1.165507      1.806182      0.981622
   10   H     10    1.3000  1.000      2.056516     -1.019522      1.038586
   11   H     11    1.3000  1.000      0.968123     -2.020143      0.028314
   12   H     12    1.3000  1.000      2.268530     -1.059955     -0.738993
   13   H     13    1.3000  1.000     -2.550983      0.700944      0.206195
   14   H     14    1.3000  1.000     -1.251847      1.778672      0.424654
 ------------------------------------------------------------------------------
 One-electron integrals computed using PRISM.
 PrsmSu:  requested number of processors reduced to:  29 ShMem   1 Linda.
 NBasis=   162 RedAO= T EigKep=  9.43D-04  NBF=   162
 NBsUse=   162 1.00D-06 EigRej= -1.00D+00 NBFU=   162
 Initial guess from the checkpoint file:  "YBBLOADPFWKNGS-UHFFFAOYSA-N.chk"
 B after Tr=     0.000000   -0.000000   -0.000000
         Rot=    1.000000   -0.000000    0.000000    0.000000 Ang=   0.00 deg.
 Requested convergence on RMS density matrix=1.00D-08 within 128 cycles.
 Requested convergence on MAX density matrix=1.00D-06.
 Requested convergence on             energy=1.00D-06.
 No special actions if energy rises.
 Inv3:  Mode=1 IEnd=     2673408.
 Iteration    1 A*A^-1 deviation from unit magnitude is 2.89D-15 for    415.
 Iteration    1 A*A^-1 deviation from orthogonality  is 1.95D-15 for    269    116.
 Iteration    1 A^-1*A deviation from unit magnitude is 2.89D-15 for    788.
 Iteration    1 A^-1*A deviation from orthogonality  is 1.73D-15 for    504    122.
 Error on nuclear    polarization charges =  0.01680
 Error on electronic polarization charges = -0.04302
 SCF Done:  E(RB-P86) =  -304.012775321     A.U. after   10 cycles
            NFock= 10  Conv=0.81D-08     -V/T= 2.0047
 --------------------------------------------------------------------
 Variational C-PCM results
 =========================
 <psi(f)|   H    |psi(f)>                     (a.u.) =    -303.988330
 <psi(f)|H+V(f)/2|psi(f)>                     (a.u.) =    -304.012775
 Total free energy in solution:
 - with all non electrostatic terms           (a.u.) =    -304.004252
 --------------------------------------------------------------------
 (Polarized solute)-Solvent               (kcal/mol) =     -15.34
 --------------------------------------------------------------------
 Cavitation energy                        (kcal/mol) =      16.98
 Dispersion energy                        (kcal/mol) =     -12.75
 Repulsion energy                         (kcal/mol) =       1.11
 Total non electrostatic                  (kcal/mol) =       5.35
 --------------------------------------------------------------------
 Partition over spheres:
 Sphere  on Atom  Surface  Charge   GEl     GCav    GDR
    1      C1      16.87  -0.024   -0.36    1.98   -1.13
    2      N2       2.67   0.014   -0.07    0.32   -0.10
    3      C3      18.20  -0.003   -0.15    2.14   -1.31
    4      C4      10.46   0.023   -0.37    1.23   -0.77
    5      N5      13.62   0.049   -0.93    1.65   -1.15
    6      O6      19.09   0.324   -8.67    2.37   -1.63
    7      H7       6.23  -0.040   -0.54    0.88   -0.63
    8      H8       6.04  -0.038   -0.44    0.85   -0.61
    9      H9       6.59  -0.034   -0.50    0.93   -0.81
   10      H10      6.58  -0.031   -0.26    0.93   -0.78
   11      H11      5.29  -0.022    0.09    0.75   -0.48
   12      H12      6.55  -0.033   -0.27    0.92   -0.73
   13      H13      7.93  -0.098   -0.95    1.12   -0.87
   14      H14      6.41  -0.089   -1.92    0.91   -0.62
 --------------------------------------------------------------------
 - cavitation energy not included in the total energy.
 - dispersion energy not included in the total energy.
 - repulsion  energy not included in the total energy.
 After PCM corrections, the energy is  -304.012775321     a.u.
 --------------------------------------------------------------------
 Writing COSMO formatted file "YBBLOADPFWKNGS-UHFFFAOYSA-N.cosmo"
 Recomputed dielectric energy= -0.024523 old= -0.024445 diff=-7.79D-05

 **********************************************************************

            Population analysis using the SCF Density.

 **********************************************************************

 Orbital symmetries:
       Occupied  (A) (A) (A) (A) (A) (A) (A) (A) (A) (A) (A) (A)
                 (A) (A) (A) (A) (A) (A) (A) (A) (A) (A) (A) (A)
       Virtual   (A) (A) (A) (A) (A) (A) (A) (A) (A) (A) (A) (A)
                 (A) (A) (A) (A) (A) (A) (A) (A) (A) (A) (A) (A)
                 (A) (A) (A) (A) (A) (A) (A) (A) (A) (A) (A) (A)
                 (A) (A) (A) (A) (A) (A) (A) (A) (A) (A) (A) (A)
                 (A) (A) (A) (A) (A) (A) (A) (A) (A) (A) (A) (A)
                 (A) (A) (A) (A) (A) (A) (A) (A) (A) (A) (A) (A)
                 (A) (A) (A) (A) (A) (A) (A) (A) (A) (A) (A) (A)
                 (A) (A) (A) (A) (A) (A) (A) (A) (A) (A) (A) (A)
                 (A) (A) (A) (A) (A) (A) (A) (A) (A) (A) (A) (A)
                 (A) (A) (A) (A) (A) (A) (A) (A) (A) (A) (A) (A)
                 (A) (A) (A) (A) (A) (A) (A) (A) (A) (A) (A) (A)
                 (A) (A) (A) (A) (A) (A)
 The electronic state is 1-A.
 Alpha  occ. eigenvalues --  -18.73214 -14.03226 -14.01101 -10.01413  -9.92550
 Alpha  occ. eigenvalues --   -9.91966  -0.95796  -0.85844  -0.81320  -0.65362
 Alpha  occ. eigenvalues --   -0.63106  -0.51300  -0.49046  -0.45174  -0.42548
 Alpha  occ. eigenvalues --   -0.40673  -0.37742  -0.35788  -0.35557  -0.35536
 Alpha  occ. eigenvalues --   -0.33526  -0.24413  -0.22728  -0.20692
 Alpha virt. eigenvalues --    0.00406   0.02119   0.05304   0.06722   0.07724
 Alpha virt. eigenvalues --    0.09145   0.09620   0.10848   0.10987   0.11659
 Alpha virt. eigenvalues --    0.13935   0.15646   0.17239   0.19100   0.21040
 Alpha virt. eigenvalues --    0.23806   0.25494   0.26418   0.27382   0.28713
 Alpha virt. eigenvalues --    0.30004   0.31515   0.33519   0.35059   0.37042
 Alpha virt. eigenvalues --    0.39540   0.40070   0.40944   0.42234   0.43103
 Alpha virt. eigenvalues --    0.43462   0.44445   0.44961   0.47375   0.49405
 Alpha virt. eigenvalues --    0.50804   0.51517   0.54746   0.55506   0.58875
 Alpha virt. eigenvalues --    0.58928   0.60917   0.63333   0.69574   0.73716
 Alpha virt. eigenvalues --    0.87136   1.09587   1.12884   1.18396   1.19005
 Alpha virt. eigenvalues --    1.23050   1.23564   1.25297   1.28845   1.29210
 Alpha virt. eigenvalues --    1.30343   1.31949   1.35533   1.41324   1.41933
 Alpha virt. eigenvalues --    1.46032   1.46288   1.48666   1.51053   1.52412
 Alpha virt. eigenvalues --    1.55016   1.57720   1.58425   1.62025   1.62980
 Alpha virt. eigenvalues --    1.64184   1.68068   1.71298   1.71716   1.72630
 Alpha virt. eigenvalues --    1.73189   1.74749   1.83325   1.86398   1.89659
 Alpha virt. eigenvalues --    1.90598   2.03105   2.04593   2.08672   2.10939
 Alpha virt. eigenvalues --    2.11573   2.17208   2.19151   2.21440   2.22618
 Alpha virt. eigenvalues --    2.23126   2.23958   2.26405   2.29819   2.32834
 Alpha virt. eigenvalues --    2.33915   2.37465   2.42892   2.43187   2.47923
 Alpha virt. eigenvalues --    2.49112   2.50374   2.53338   2.56624   2.57854
 Alpha virt. eigenvalues --    2.58906   2.61605   2.62262   2.64746   2.66175
 Alpha virt. eigenvalues --    2.67331   2.71505   2.77266   2.77875   2.81440
 Alpha virt. eigenvalues --    2.98645   3.02551   3.02921   3.09125   3.18196
 Alpha virt. eigenvalues --    3.21188   3.21756   3.23967   3.26100   3.28178
 Alpha virt. eigenvalues --    3.32188   3.37719   3.53410   3.63354   3.72085
 Alpha virt. eigenvalues --    3.80499   4.14165  21.61868  21.77787  21.81693
 Alpha virt. eigenvalues --   31.38142  31.57049  43.16943
          Condensed to atoms (all electrons):
               1          2          3          4          5          6
     1  C    5.036270   0.212541  -0.056747  -0.050160   0.009871   0.006246
     2  N    0.212541   6.909009   0.282796   0.320646  -0.163721  -0.132734
     3  C   -0.056747   0.282796   5.034001  -0.096355  -0.001390  -0.035731
     4  C   -0.050160   0.320646  -0.096355   4.644228   0.336702   0.644422
     5  N    0.009871  -0.163721  -0.001390   0.336702   6.654029  -0.124040
     6  O    0.006246  -0.132734  -0.035731   0.644422  -0.124040   8.094534
     7  H    0.385373  -0.025361  -0.006600   0.007321  -0.000141  -0.000281
     8  H    0.394986  -0.028133   0.008802  -0.020520   0.013197   0.000064
     9  H    0.414895  -0.056735  -0.000614  -0.003633  -0.000296   0.000060
    10  H   -0.001522  -0.054952   0.402193   0.004980   0.001005   0.001100
    11  H    0.011548  -0.035439   0.379279  -0.016071   0.003321   0.035160
    12  H   -0.012025  -0.041723   0.401788   0.009026   0.000039   0.000868
    13  H   -0.000189   0.008343  -0.000436  -0.018879   0.356978   0.002472
    14  H   -0.001566   0.003658   0.000304  -0.010492   0.338081   0.004814
               7          8          9         10         11         12
     1  C    0.385373   0.394986   0.414895  -0.001522   0.011548  -0.012025
     2  N   -0.025361  -0.028133  -0.056735  -0.054952  -0.035439  -0.041723
     3  C   -0.006600   0.008802  -0.000614   0.402193   0.379279   0.401788
     4  C    0.007321  -0.020520  -0.003633   0.004980  -0.016071   0.009026
     5  N   -0.000141   0.013197  -0.000296   0.001005   0.003321   0.000039
     6  O   -0.000281   0.000064   0.000060   0.001100   0.035160   0.000868
     7  H    0.516253  -0.016927  -0.029484  -0.004218   0.000175   0.005554
     8  H   -0.016927   0.522174  -0.037484  -0.000730  -0.000541   0.000971
     9  H   -0.029484  -0.037484   0.536849   0.005434  -0.000380  -0.001212
    10  H   -0.004218  -0.000730   0.005434   0.552800  -0.023137  -0.040737
    11  H    0.000175  -0.000541  -0.000380  -0.023137   0.512420  -0.019521
    12  H    0.005554   0.000971  -0.001212  -0.040737  -0.019521   0.537346
    13  H   -0.000037   0.000259   0.000166   0.000033  -0.000068   0.000015
    14  H    0.000826  -0.003806   0.000056   0.000004  -0.000276  -0.000084
              13         14
     1  C   -0.000189  -0.001566
     2  N    0.008343   0.003658
     3  C   -0.000436   0.000304
     4  C   -0.018879  -0.010492
     5  N    0.356978   0.338081
     6  O    0.002472   0.004814
     7  H   -0.000037   0.000826
     8  H    0.000259  -0.003806
     9  H    0.000166   0.000056
    10  H    0.000033   0.000004
    11  H   -0.000068  -0.000276
    12  H    0.000015  -0.000084
    13  H    0.398099  -0.018226
    14  H   -0.018226   0.405951
 Mulliken charges:
               1
     1  C   -0.349521
     2  N   -0.198197
     3  C   -0.311291
     4  C    0.248785
     5  N   -0.423635
     6  O   -0.496952
     7  H    0.167546
     8  H    0.167687
     9  H    0.172378
    10  H    0.157748
    11  H    0.153530
    12  H    0.159696
    13  H    0.271470
    14  H    0.280756
 Sum of Mulliken charges =  -0.00000
 Mulliken charges with hydrogens summed into heavy atoms:
               1
     1  C    0.158091
     2  N   -0.198197
     3  C    0.159683
     4  C    0.248785
     5  N    0.128590
     6  O   -0.496952
 Electronic spatial extent (au):  <R**2>=            598.8542
 Charge=             -0.0000 electrons
 Dipole moment (field-independent basis, Debye):
    X=              2.9089    Y=              5.1252    Z=              1.4566  Tot=              6.0705
 Quadrupole moment (field-independent basis, Debye-Ang):
   XX=            -33.1732   YY=            -37.8833   ZZ=            -38.1809
   XY=             -6.4888   XZ=             -2.2931   YZ=              1.5037
 Traceless Quadrupole moment (field-independent basis, Debye-Ang):
   XX=              3.2392   YY=             -1.4708   ZZ=             -1.7684
   XY=             -6.4888   XZ=             -2.2931   YZ=              1.5037
 Octapole moment (field-independent basis, Debye-Ang**2):
  XXX=             -6.8811  YYY=             16.7029  ZZZ=              1.8167  XYY=              6.6202
  XXY=             11.3212  XXZ=              3.6466  XZZ=              0.8835  YZZ=              0.6896
  YYZ=              3.2114  XYZ=             -2.8383
 Hexadecapole moment (field-independent basis, Debye-Ang**3):
 XXXX=           -366.7723 YYYY=           -300.9423 ZZZZ=            -54.1368 XXXY=            -21.2950
 XXXZ=            -14.4451 YYYX=            -17.6464 YYYZ=              5.0164 ZZZX=             -0.7129
 ZZZY=              2.3030 XXYY=           -124.5541 XXZZ=            -79.0561 YYZZ=            -60.1009
 XXYZ=              4.6832 YYXZ=             -5.1697 ZZXY=              0.2309
 N-N= 2.519923464626D+02 E-N=-1.214208857786D+03  KE= 3.025788589298D+02
 Unable to Open any file for archive entry.
 1\1\GINC-TCN1634\SP\RBP86\TZVP\C3H8N2O1\ELENAA\22-Feb-2021\0\\# BP86/T
 ZVP SCRF=COSMORS geom=CHECKPOINT guess=CHECKPOINT\\COSMO-file for #YBB
 LOADPFWKNGS-UHFFFAOYSA-N\\0,1\C,0,-1.9196260008,0.0197495524,0.4369435
 205\N,0,-0.6439768052,-0.6720561532,0.2584135775\C,0,-0.6995489208,-2.
 1213901663,0.0886936933\C,0,0.5378035488,-0.0068970145,0.0277715095\N,
 0,0.4707094837,1.3837012974,0.056064604\O,0,1.629405105,-0.5905630189,
 -0.130099538\H,0,-2.6337749096,-0.6754416086,0.8966337\H,0,-1.80934564
 62,0.876820423,1.1163518569\H,0,-2.3482092586,0.3659488275,-0.52086618
 2\H,0,-1.2961319697,-2.3903261275,-0.7998420054\H,0,0.3187396398,-2.50
 44890647,-0.0345661029\H,0,-1.1567074326,-2.5899141668,0.9741646531\H,
 0,1.3188817963,1.826351118,-0.2867518245\H,0,-0.3822786301,1.852506102
 4,-0.2383114621\\Version=ES64L-G16RevC.01\State=1-A\HF=-304.0127753\RM
 SD=8.141e-09\Dipole=-2.2178232,0.8603266,-0.212322\Quadrupole=-3.81099
 58,5.0799012,-1.2689054,2.419806,-0.1866472,-2.2207978\PG=C01 [X(C3H8N
 2O1)]\\@
 The archive entry for this job was punched.


 MANHOOD BEGINS BY TRYING TO SHAVE FACE,
 AND ENDS BY TRYING TO SAVE FACE.
 Job cpu time:       0 days  0 hours  2 minutes 53.9 seconds.
 Elapsed time:       0 days  0 hours  0 minutes  5.8 seconds.
 File lengths (MBytes):  RWF=     28 Int=      0 D2E=      0 Chk=      6 Scr=      1
 Normal termination of Gaussian 16 at Mon Feb 22 21:33:02 2021.
