 Entering Gaussian System, Link 0=g16
 Input=YGSDEFSMJLZEOE-UHFFFAOYSA-N.gjf
 Output=YGSDEFSMJLZEOE-UHFFFAOYSA-N.log
 Initial command:
 /sw/arch/RedHatEnterpriseServer7/EB_production/2019/software/Gaussian/g16.c01/l1.exe "/scratch-local/elenaa.9715304/Gau-24792.inp" -scrdir="/scratch-local/elenaa.9715304/"
 Entering Link 1 = /sw/arch/RedHatEnterpriseServer7/EB_production/2019/software/Gaussian/g16.c01/l1.exe PID=     24793.
  
 Copyright (c) 1988-2019, Gaussian, Inc.  All Rights Reserved.
  
 This is part of the Gaussian(R) 16 program.  It is based on
 the Gaussian(R) 09 system (copyright 2009, Gaussian, Inc.),
 the Gaussian(R) 03 system (copyright 2003, Gaussian, Inc.),
 the Gaussian(R) 98 system (copyright 1998, Gaussian, Inc.),
 the Gaussian(R) 94 system (copyright 1995, Gaussian, Inc.),
 the Gaussian 92(TM) system (copyright 1992, Gaussian, Inc.),
 the Gaussian 90(TM) system (copyright 1990, Gaussian, Inc.),
 the Gaussian 88(TM) system (copyright 1988, Gaussian, Inc.),
 the Gaussian 86(TM) system (copyright 1986, Carnegie Mellon
 University), and the Gaussian 82(TM) system (copyright 1983,
 Carnegie Mellon University). Gaussian is a federally registered
 trademark of Gaussian, Inc.
  
 This software contains proprietary and confidential information,
 including trade secrets, belonging to Gaussian, Inc.
  
 This software is provided under written license and may be
 used, copied, transmitted, or stored only in accord with that
 written license.
  
 The following legend is applicable only to US Government
 contracts under FAR:
  
                    RESTRICTED RIGHTS LEGEND
  
 Use, reproduction and disclosure by the US Government is
 subject to restrictions as set forth in subparagraphs (a)
 and (c) of the Commercial Computer Software - Restricted
 Rights clause in FAR 52.227-19.
  
 Gaussian, Inc.
 340 Quinnipiac St., Bldg. 40, Wallingford CT 06492
  
  
 ---------------------------------------------------------------
 Warning -- This program may not be used in any manner that
 competes with the business of Gaussian, Inc. or will provide
 assistance to any competitor of Gaussian, Inc.  The licensee
 of this program is prohibited from giving any competitor of
 Gaussian, Inc. access to this program.  By using this program,
 the user acknowledges that Gaussian, Inc. is engaged in the
 business of creating and licensing software in the field of
 computational chemistry and represents and warrants to the
 licensee that it is not a competitor of Gaussian, Inc. and that
 it will not use this program in any manner prohibited above.
 ---------------------------------------------------------------
  

 Cite this work as:
 Gaussian 16, Revision C.01,
 M. J. Frisch, G. W. Trucks, H. B. Schlegel, G. E. Scuseria, 
 M. A. Robb, J. R. Cheeseman, G. Scalmani, V. Barone, 
 G. A. Petersson, H. Nakatsuji, X. Li, M. Caricato, A. V. Marenich, 
 J. Bloino, B. G. Janesko, R. Gomperts, B. Mennucci, H. P. Hratchian, 
 J. V. Ortiz, A. F. Izmaylov, J. L. Sonnenberg, D. Williams-Young, 
 F. Ding, F. Lipparini, F. Egidi, J. Goings, B. Peng, A. Petrone, 
 T. Henderson, D. Ranasinghe, V. G. Zakrzewski, J. Gao, N. Rega, 
 G. Zheng, W. Liang, M. Hada, M. Ehara, K. Toyota, R. Fukuda, 
 J. Hasegawa, M. Ishida, T. Nakajima, Y. Honda, O. Kitao, H. Nakai, 
 T. Vreven, K. Throssell, J. A. Montgomery, Jr., J. E. Peralta, 
 F. Ogliaro, M. J. Bearpark, J. J. Heyd, E. N. Brothers, K. N. Kudin, 
 V. N. Staroverov, T. A. Keith, R. Kobayashi, J. Normand, 
 K. Raghavachari, A. P. Rendell, J. C. Burant, S. S. Iyengar, 
 J. Tomasi, M. Cossi, J. M. Millam, M. Klene, C. Adamo, R. Cammi, 
 J. W. Ochterski, R. L. Martin, K. Morokuma, O. Farkas, 
 J. B. Foresman, and D. J. Fox, Gaussian, Inc., Wallingford CT, 2019.
 
 ******************************************
 Gaussian 16:  ES64L-G16RevC.01  3-Jul-2019
                22-Feb-2021 
 ******************************************
 %chk=YGSDEFSMJLZEOE-UHFFFAOYSA-N.chk
 %NProcShared=32
 Will use up to   32 processors via shared memory.
 -------------------------------------------------------------
 #P BP86/TZVP EmpiricalDispersion=GD3 SCRF=(Solvent=Water) Opt
 -------------------------------------------------------------
 1/18=20,19=15,26=3,38=1/1,3;
 2/9=110,12=2,17=6,18=5,40=1/2;
 3/5=19,7=101,11=2,25=1,30=1,70=2201,71=1,72=1,74=404,124=31/1,2,3;
 4//1;
 5/5=2,38=5,53=1/2;
 6/7=2,8=2,9=2,10=2,28=1/1;
 7//1,2,3,16;
 1/18=20,19=15,26=3/3(2);
 2/9=110/2;
 99//99;
 2/9=110/2;
 3/5=19,7=101,11=2,25=1,30=1,70=2205,71=1,72=1,74=404,124=31/1,2,3;
 4/5=5,16=3,69=1/1;
 5/5=2,38=5,53=1/2;
 7//1,2,3,16;
 1/18=20,19=15,26=3/3(-5);
 2/9=110/2;
 6/7=2,8=2,9=2,10=2,19=2,28=1/1;
 99/9=1/99;
 Leave Link    1 at Mon Feb 22 21:29:49 2021, MaxMem=           0 cpu:               1.6 elap:               0.1
 (Enter /sw/arch/RedHatEnterpriseServer7/EB_production/2019/software/Gaussian/g16.c01/l101.exe)
 -------------------------------------
 Particle #YGSDEFSMJLZEOE-UHFFFAOYSA-N
 -------------------------------------
 Symbolic Z-matrix:
 Charge =  0 Multiplicity = 1
 O                    -1.82013  -1.41583  -2.76163 
 C                    -1.3122   -0.41822  -2.20034 
 O                    -0.9445   -0.60119  -0.90939 
 C                    -1.15721   0.8379   -2.85449 
 C                    -0.75338   1.97374  -2.10432 
 C                    -0.6372    3.23945  -2.70705 
 C                    -0.91893   3.39759  -4.07324 
 C                    -1.30367   2.28512  -4.83894 
 C                    -1.41038   1.0129   -4.24377 
 O                    -1.75331  -0.01256  -5.06456 
 H                    -1.0832   -1.46869  -0.47508 
 H                    -0.54245   1.89827  -1.10527 
 H                    -0.34974   4.04573  -2.14833 
 H                    -0.84225   4.31928  -4.51059 
 H                    -1.50259   2.40375  -5.83555 
 H                    -1.12068  -0.72911  -4.8485 
 
 ITRead=  0  0  0  0  0  0  0  0  0  0  0  0  0  0  0  0
 MicOpt= -1 -1 -1 -1 -1 -1 -1 -1 -1 -1 -1 -1 -1 -1 -1 -1
 NAtoms=     16 NQM=       16 NQMF=       0 NMMI=      0 NMMIF=      0
                NMic=       0 NMicF=      0.
                    Isotopes and Nuclear Properties:
 (Nuclear quadrupole moments (NQMom) in fm**2, nuclear magnetic moments (NMagM)
  in nuclear magnetons)

  Atom         1           2           3           4           5           6           7           8           9          10
 IAtWgt=          16          12          16          12          12          12          12          12          12          16
 AtmWgt=  15.9949146  12.0000000  15.9949146  12.0000000  12.0000000  12.0000000  12.0000000  12.0000000  12.0000000  15.9949146
 NucSpn=           0           0           0           0           0           0           0           0           0           0
 AtZEff=  -0.0000000  -0.0000000  -0.0000000  -0.0000000  -0.0000000  -0.0000000  -0.0000000  -0.0000000  -0.0000000  -0.0000000
 NQMom=    0.0000000   0.0000000   0.0000000   0.0000000   0.0000000   0.0000000   0.0000000   0.0000000   0.0000000   0.0000000
 NMagM=    0.0000000   0.0000000   0.0000000   0.0000000   0.0000000   0.0000000   0.0000000   0.0000000   0.0000000   0.0000000
 AtZNuc=   8.0000000   6.0000000   8.0000000   6.0000000   6.0000000   6.0000000   6.0000000   6.0000000   6.0000000   8.0000000

  Atom        11          12          13          14          15          16
 IAtWgt=           1           1           1           1           1           1
 AtmWgt=   1.0078250   1.0078250   1.0078250   1.0078250   1.0078250   1.0078250
 NucSpn=           1           1           1           1           1           1
 AtZEff=  -0.0000000  -0.0000000  -0.0000000  -0.0000000  -0.0000000  -0.0000000
 NQMom=    0.0000000   0.0000000   0.0000000   0.0000000   0.0000000   0.0000000
 NMagM=    2.7928460   2.7928460   2.7928460   2.7928460   2.7928460   2.7928460
 AtZNuc=   1.0000000   1.0000000   1.0000000   1.0000000   1.0000000   1.0000000
 Leave Link  101 at Mon Feb 22 21:29:49 2021, MaxMem=   104857600 cpu:               2.8 elap:               0.1
 (Enter /sw/arch/RedHatEnterpriseServer7/EB_production/2019/software/Gaussian/g16.c01/l103.exe)

 GradGradGradGradGradGradGradGradGradGradGradGradGradGradGradGradGradGrad
 Berny optimization.
 Initialization pass.
                           ----------------------------
                           !    Initial Parameters    !
                           ! (Angstroms and Degrees)  !
 --------------------------                            --------------------------
 ! Name  Definition              Value          Derivative Info.                !
 --------------------------------------------------------------------------------
 ! R1    R(1,2)                  1.2523         estimate D2E/DX2                !
 ! R2    R(2,3)                  1.3547         estimate D2E/DX2                !
 ! R3    R(2,4)                  1.4247         estimate D2E/DX2                !
 ! R4    R(3,11)                 0.98           estimate D2E/DX2                !
 ! R5    R(4,5)                  1.4198         estimate D2E/DX2                !
 ! R6    R(4,9)                  1.423          estimate D2E/DX2                !
 ! R7    R(5,6)                  1.4067         estimate D2E/DX2                !
 ! R8    R(5,12)                 1.0239         estimate D2E/DX2                !
 ! R9    R(6,7)                  1.4039         estimate D2E/DX2                !
 ! R10   R(6,13)                 1.0222         estimate D2E/DX2                !
 ! R11   R(7,8)                  1.4042         estimate D2E/DX2                !
 ! R12   R(7,14)                 1.0231         estimate D2E/DX2                !
 ! R13   R(8,9)                  1.4086         estimate D2E/DX2                !
 ! R14   R(8,15)                 1.0232         estimate D2E/DX2                !
 ! R15   R(9,10)                 1.3575         estimate D2E/DX2                !
 ! R16   R(10,16)                0.98           estimate D2E/DX2                !
 ! A1    A(1,2,3)              115.4426         estimate D2E/DX2                !
 ! A2    A(1,2,4)              122.7305         estimate D2E/DX2                !
 ! A3    A(3,2,4)              121.8093         estimate D2E/DX2                !
 ! A4    A(2,3,11)             120.2288         estimate D2E/DX2                !
 ! A5    A(2,4,5)              119.5819         estimate D2E/DX2                !
 ! A6    A(2,4,9)              122.5039         estimate D2E/DX2                !
 ! A7    A(5,4,9)              117.9084         estimate D2E/DX2                !
 ! A8    A(4,5,6)              121.1248         estimate D2E/DX2                !
 ! A9    A(4,5,12)             121.0088         estimate D2E/DX2                !
 ! A10   A(6,5,12)             117.8655         estimate D2E/DX2                !
 ! A11   A(5,6,7)              120.116          estimate D2E/DX2                !
 ! A12   A(5,6,13)             119.9169         estimate D2E/DX2                !
 ! A13   A(7,6,13)             119.9669         estimate D2E/DX2                !
 ! A14   A(6,7,8)              119.7609         estimate D2E/DX2                !
 ! A15   A(6,7,14)             120.1627         estimate D2E/DX2                !
 ! A16   A(8,7,14)             120.0763         estimate D2E/DX2                !
 ! A17   A(7,8,9)              120.3897         estimate D2E/DX2                !
 ! A18   A(7,8,15)             119.5073         estimate D2E/DX2                !
 ! A19   A(9,8,15)             120.1025         estimate D2E/DX2                !
 ! A20   A(4,9,8)              120.6719         estimate D2E/DX2                !
 ! A21   A(4,9,10)             122.8442         estimate D2E/DX2                !
 ! A22   A(8,9,10)             116.4823         estimate D2E/DX2                !
 ! A23   A(9,10,16)            104.8302         estimate D2E/DX2                !
 ! D1    D(1,2,3,11)            -0.1218         estimate D2E/DX2                !
 ! D2    D(4,2,3,11)           178.3911         estimate D2E/DX2                !
 ! D3    D(1,2,4,5)            170.9788         estimate D2E/DX2                !
 ! D4    D(1,2,4,9)             -8.123          estimate D2E/DX2                !
 ! D5    D(3,2,4,5)             -7.4249         estimate D2E/DX2                !
 ! D6    D(3,2,4,9)            173.4733         estimate D2E/DX2                !
 ! D7    D(2,4,5,6)           -177.671          estimate D2E/DX2                !
 ! D8    D(2,4,5,12)             1.9784         estimate D2E/DX2                !
 ! D9    D(9,4,5,6)              1.4717         estimate D2E/DX2                !
 ! D10   D(9,4,5,12)          -178.8789         estimate D2E/DX2                !
 ! D11   D(2,4,9,8)            177.0884         estimate D2E/DX2                !
 ! D12   D(2,4,9,10)            -3.3729         estimate D2E/DX2                !
 ! D13   D(5,4,9,8)             -2.0276         estimate D2E/DX2                !
 ! D14   D(5,4,9,10)           177.511          estimate D2E/DX2                !
 ! D15   D(4,5,6,7)             -0.1481         estimate D2E/DX2                !
 ! D16   D(4,5,6,13)           179.6736         estimate D2E/DX2                !
 ! D17   D(12,5,6,7)          -179.8082         estimate D2E/DX2                !
 ! D18   D(12,5,6,13)            0.0135         estimate D2E/DX2                !
 ! D19   D(5,6,7,8)             -0.6595         estimate D2E/DX2                !
 ! D20   D(5,6,7,14)           179.487          estimate D2E/DX2                !
 ! D21   D(13,6,7,8)           179.5189         estimate D2E/DX2                !
 ! D22   D(13,6,7,14)           -0.3346         estimate D2E/DX2                !
 ! D23   D(6,7,8,9)              0.0987         estimate D2E/DX2                !
 ! D24   D(6,7,8,15)          -179.6311         estimate D2E/DX2                !
 ! D25   D(14,7,8,9)           179.9523         estimate D2E/DX2                !
 ! D26   D(14,7,8,15)            0.2225         estimate D2E/DX2                !
 ! D27   D(7,8,9,4)              1.2752         estimate D2E/DX2                !
 ! D28   D(7,8,9,10)          -178.2918         estimate D2E/DX2                !
 ! D29   D(15,8,9,4)          -178.9967         estimate D2E/DX2                !
 ! D30   D(15,8,9,10)            1.4364         estimate D2E/DX2                !
 ! D31   D(4,9,10,16)          -46.5193         estimate D2E/DX2                !
 ! D32   D(8,9,10,16)          133.0373         estimate D2E/DX2                !
 --------------------------------------------------------------------------------
 Trust Radius=3.00D-01 FncErr=1.00D-07 GrdErr=1.00D-06 EigMax=2.50D+02 EigMin=1.00D-04
 Number of steps in this run=     81 maximum allowed number of steps=    100.
 GradGradGradGradGradGradGradGradGradGradGradGradGradGradGradGradGradGrad

 Leave Link  103 at Mon Feb 22 21:29:49 2021, MaxMem=   104857600 cpu:               0.8 elap:               0.1
 (Enter /sw/arch/RedHatEnterpriseServer7/EB_production/2019/software/Gaussian/g16.c01/l202.exe)
                          Input orientation:                          
 ---------------------------------------------------------------------
 Center     Atomic      Atomic             Coordinates (Angstroms)
 Number     Number       Type             X           Y           Z
 ---------------------------------------------------------------------
      1          8           0       -1.820130   -1.415830   -2.761630
      2          6           0       -1.312200   -0.418220   -2.200340
      3          8           0       -0.944500   -0.601190   -0.909390
      4          6           0       -1.157210    0.837900   -2.854490
      5          6           0       -0.753380    1.973740   -2.104320
      6          6           0       -0.637200    3.239450   -2.707050
      7          6           0       -0.918930    3.397590   -4.073240
      8          6           0       -1.303670    2.285120   -4.838940
      9          6           0       -1.410380    1.012900   -4.243770
     10          8           0       -1.753310   -0.012560   -5.064560
     11          1           0       -1.083200   -1.468690   -0.475080
     12          1           0       -0.542450    1.898270   -1.105270
     13          1           0       -0.349740    4.045730   -2.148330
     14          1           0       -0.842250    4.319280   -4.510590
     15          1           0       -1.502590    2.403750   -5.835550
     16          1           0       -1.120680   -0.729110   -4.848500
 ---------------------------------------------------------------------
                    Distance matrix (angstroms):
                    1          2          3          4          5
     1  O    0.000000
     2  C    1.252304   0.000000
     3  O    2.204804   1.354708   0.000000
     4  C    2.351039   1.424701   2.428917   0.000000
     5  C    3.613751   2.458246   2.845110   1.419847   0.000000
     6  C    4.803534   3.753789   4.251650   2.461624   1.406699
     7  C    5.069664   4.268820   5.099102   2.845021   2.435447
     8  C    4.275392   3.777609   4.888880   2.460475   2.806764
     9  C    2.874607   2.496668   3.733687   1.422961   2.435592
    10  O    2.697613   2.926242   4.273885   2.441931   3.702468
    11  H    2.402950   2.032843   0.980010   3.314729   3.822765
    12  H    3.919088   2.675410   2.539156   2.135904   1.023859
    13  H    5.689185   4.566824   4.845883   3.382432   2.111399
    14  H    6.075080   5.291693   6.098370   3.868058   3.361486
    15  H    4.913146   4.605922   5.797256   3.384951   3.829922
    16  H    2.305611   2.673216   3.945122   2.536322   3.869216
                    6          7          8          9         10
     6  C    0.000000
     7  C    1.403871   0.000000
     8  C    2.428967   1.404247   0.000000
     9  C    2.813688   2.440768   1.408601   0.000000
    10  O    4.168828   3.648017   2.352108   1.357522   0.000000
    11  H    5.229454   6.054289   5.760466   4.524197   4.861346
    12  H    2.091277   3.346423   3.830065   3.374517   4.559981
    13  H    1.022198   2.109346   3.353970   3.835868   5.190773
    14  H    2.112069   1.023068   2.111523   3.365429   4.461138
    15  H    3.351836   2.105733   1.023168   2.115828   2.548694
    16  H    4.535309   4.203735   3.019795   1.866607   0.979973
                   11         12         13         14         15
    11  H    0.000000
    12  H    3.467848   0.000000
    13  H    5.809179   2.395140   0.000000
    14  H    7.060028   4.188959   2.428511   0.000000
    15  H    6.626184   4.853136   4.197708   2.420914   0.000000
    16  H    4.435672   4.609690   5.539347   5.067341   3.306801
                   16
    16  H    0.000000
 Stoichiometry    C7H6O3
 Framework group  C1[X(C7H6O3)]
 Deg. of freedom    42
 Full point group                 C1      NOp   1
 Largest Abelian subgroup         C1      NOp   1
 Largest concise Abelian subgroup C1      NOp   1
                         Standard orientation:                         
 ---------------------------------------------------------------------
 Center     Atomic      Atomic             Coordinates (Angstroms)
 Number     Number       Type             X           Y           Z
 ---------------------------------------------------------------------
      1          8           0        2.314325    0.850905   -0.196405
      2          6           0        1.655779   -0.200248   -0.024188
      3          8           0        2.389094   -1.332201    0.102953
      4          6           0        0.231518   -0.220978    0.004516
      5          6           0       -0.451385   -1.465795    0.010838
      6          6           0       -1.856712   -1.524310   -0.010015
      7          6           0       -2.610728   -0.340370   -0.034505
      8          6           0       -1.957281    0.902534   -0.024080
      9          6           0       -0.550573    0.967776    0.008692
     10          8           0       -0.003015    2.209184    0.052869
     11          1           0        3.367257   -1.294235    0.056331
     12          1           0        0.064242   -2.350219    0.025373
     13          1           0       -2.329283   -2.430713   -0.010081
     14          1           0       -3.632681   -0.382161   -0.057598
     15          1           0       -2.510763    1.762989   -0.036280
     16          1           0        0.674295    2.159586    0.759366
 ---------------------------------------------------------------------
 Rotational constants (GHZ):           2.3208343           1.1918269           0.7909882
 Leave Link  202 at Mon Feb 22 21:29:49 2021, MaxMem=   104857600 cpu:               0.2 elap:               0.0
 (Enter /sw/arch/RedHatEnterpriseServer7/EB_production/2019/software/Gaussian/g16.c01/l301.exe)
 Standard basis: TZVP (5D, 7F)
 Ernie: Thresh=  0.10000D-02 Tol=  0.10000D-05 Strict=F.
 There are   236 symmetry adapted cartesian basis functions of A   symmetry.
 There are   226 symmetry adapted basis functions of A   symmetry.
   226 basis functions,   398 primitive gaussians,   236 cartesian basis functions
    36 alpha electrons       36 beta electrons
       nuclear repulsion energy       499.5629051888 Hartrees.
 IExCor=  404 DFT=T Ex=B Corr=P86 ExCW=0 ScaHFX=  0.000000
 ScaDFX=  1.000000  1.000000  1.000000  1.000000 ScalE2=  1.000000  1.000000
 IRadAn=      5 IRanWt=     -1 IRanGd=            0 ICorTp=0 IEmpDi=131
 NAtoms=   16 NActive=   16 NUniq=   16 SFac= 1.00D+00 NAtFMM=   60 NAOKFM=F Big=F
 Integral buffers will be    131072 words long.
 Raffenetti 2 integral format.
 Two-electron integral symmetry is turned on.
 R6Disp:  Grimme-D3 Dispersion energy=       -0.0131493909 Hartrees.
 Nuclear repulsion after empirical dispersion term =      499.5497557978 Hartrees.
 ------------------------------------------------------------------------------
 Polarizable Continuum Model (PCM)
 =================================
 Model                : PCM.
 Atomic radii         : UFF (Universal Force Field).
 Polarization charges : Total charges.
 Charge compensation  : None.
 Solution method      : On-the-fly selection.
 Cavity type          : Scaled VdW (van der Waals Surface) (Alpha=1.100).
 Cavity algorithm     : GePol (No added spheres)
                        Default sphere list used, NSphG=   16.
                        Lebedev-Laikov grids with approx.  5.0 points / Ang**2.
                        Smoothing algorithm: York/Karplus (Gamma=1.0000).
                        Polarization charges: spherical gaussians, with
                                              point-specific exponents (IZeta= 3).
                        Self-potential: point-specific (ISelfS= 7).
                        Self-field    : sphere-specific E.n sum rule (ISelfD= 2).
 1st derivatives      : Analytical E(r).r(x)/FMM algorithm (CHGder, D1EAlg=3).
                        Cavity 1st derivative terms included.
 Solvent              : Water, Eps=  78.355300 Eps(inf)=   1.777849
 ------------------------------------------------------------------------------
 Spheres list:
 ISph  on   Nord     Re0    Alpha      Xe            Ye            Ze
    1   O      1    1.7500  1.100      2.314325      0.850905     -0.196405
    2   C      2    1.9255  1.100      1.655779     -0.200248     -0.024188
    3   O      3    1.7500  1.100      2.389094     -1.332201      0.102953
    4   C      4    1.9255  1.100      0.231518     -0.220978      0.004516
    5   C      5    1.9255  1.100     -0.451385     -1.465795      0.010838
    6   C      6    1.9255  1.100     -1.856712     -1.524310     -0.010015
    7   C      7    1.9255  1.100     -2.610728     -0.340370     -0.034505
    8   C      8    1.9255  1.100     -1.957281      0.902534     -0.024080
    9   C      9    1.9255  1.100     -0.550573      0.967776      0.008692
   10   O     10    1.7500  1.100     -0.003015      2.209184      0.052869
   11   H     11    1.4430  1.100      3.367257     -1.294235      0.056331
   12   H     12    1.4430  1.100      0.064242     -2.350219      0.025373
   13   H     13    1.4430  1.100     -2.329283     -2.430713     -0.010081
   14   H     14    1.4430  1.100     -3.632681     -0.382161     -0.057598
   15   H     15    1.4430  1.100     -2.510763      1.762989     -0.036280
   16   H     16    1.4430  1.100      0.674295      2.159586      0.759366
 ------------------------------------------------------------------------------
 GePol: Number of generator spheres                  =      16
 GePol: Total number of spheres                      =      16
 GePol: Number of exposed spheres                    =      16 (100.00%)
 GePol: Number of points                             =    1440
 GePol: Average weight of points                     =       0.13
 GePol: Minimum weight of points                     =   0.11D-11
 GePol: Maximum weight of points                     =    0.20577
 GePol: Number of points with low weight             =      74
 GePol: Fraction of low-weight points (<1% of avg)   =       5.14%
 GePol: Cavity surface area                          =    186.445 Ang**2
 GePol: Cavity volume                                =    185.548 Ang**3
 Leave Link  301 at Mon Feb 22 21:29:50 2021, MaxMem=   104857600 cpu:               2.4 elap:               0.1
 (Enter /sw/arch/RedHatEnterpriseServer7/EB_production/2019/software/Gaussian/g16.c01/l302.exe)
 NPDir=0 NMtPBC=     1 NCelOv=     1 NCel=       1 NClECP=     1 NCelD=      1
         NCelK=      1 NCelE2=     1 NClLst=     1 CellRange=     0.0.
 One-electron integrals computed using PRISM.
 One-electron integral symmetry used in STVInt
 PrsmSu:  requested number of processors reduced to:  29 ShMem   1 Linda.
 NBasis=   226 RedAO= T EigKep=  1.10D-05  NBF=   226
 NBsUse=   226 1.00D-06 EigRej= -1.00D+00 NBFU=   226
 Precomputing XC quadrature grid using
 IXCGrd= 4 IRadAn=           5 IRanWt=          -1 IRanGd=           0 AccXCQ= 0.00D+00.
 Generated NRdTot=       0 NPtTot=           0 NUsed=           0 NTot=          32
 NSgBfM=   235   235   235   235   235 MxSgAt=    16 MxSgA2=    16.
 Leave Link  302 at Mon Feb 22 21:29:50 2021, MaxMem=   104857600 cpu:               8.6 elap:               0.3
 (Enter /sw/arch/RedHatEnterpriseServer7/EB_production/2019/software/Gaussian/g16.c01/l303.exe)
 DipDrv:  MaxL=1.
 Leave Link  303 at Mon Feb 22 21:29:50 2021, MaxMem=   104857600 cpu:               1.2 elap:               0.1
 (Enter /sw/arch/RedHatEnterpriseServer7/EB_production/2019/software/Gaussian/g16.c01/l401.exe)
 ExpMin= 9.52D-02 ExpMax= 2.70D+04 ExpMxC= 9.22D+02 IAcc=3 IRadAn=         5 AccDes= 0.00D+00
 Harris functional with IExCor=  404 and IRadAn=       5 diagonalized for initial guess.
 HarFok:  IExCor=  404 AccDes= 0.00D+00 IRadAn=         5 IDoV= 1 UseB2=F ITyADJ=14
 ICtDFT=  3500011 ScaDFX=  1.000000  1.000000  1.000000  1.000000
 FoFCou: FMM=F IPFlag=           0 FMFlag=      100000 FMFlg1=           0
         NFxFlg=           0 DoJE=T BraDBF=F KetDBF=T FulRan=T
         wScrn=  0.000000 ICntrl=       500 IOpCl=  0 I1Cent=   200000004 NGrid=           0
         NMat0=    1 NMatS0=      1 NMatT0=    0 NMatD0=    1 NMtDS0=    0 NMtDT0=    0
 Petite list used in FoFCou.
 Harris En= -496.365915981619    
 JPrj=0 DoOrth=F DoCkMO=F.
 Leave Link  401 at Mon Feb 22 21:29:51 2021, MaxMem=   104857600 cpu:              12.8 elap:               0.5
 (Enter /sw/arch/RedHatEnterpriseServer7/EB_production/2019/software/Gaussian/g16.c01/l502.exe)
 Integral symmetry usage will be decided dynamically.
 Closed shell SCF:
 Using DIIS extrapolation, IDIIS=  1040.
 NGot=   104857600 LenX=   104735902 LenY=   104679765
 Requested convergence on RMS density matrix=1.00D-08 within 128 cycles.
 Requested convergence on MAX density matrix=1.00D-06.
 Requested convergence on             energy=1.00D-06.
 No special actions if energy rises.
 Fock matrices will be formed incrementally for  20 cycles.

 Cycle   1  Pass 1  IDiag  1:
 FoFJK:  IHMeth= 1 ICntrl=     500 DoSepK=F KAlg= 0 I1Cent=           0 FoldK=F
 IRaf= 920000000 NMat=       1 IRICut=       1 DoRegI=T DoRafI=F ISym2E= 0 IDoP0=0 IntGTp=1.
 FoFCou: FMM=F IPFlag=           0 FMFlag=      100000 FMFlg1=           0
         NFxFlg=           0 DoJE=T BraDBF=F KetDBF=F FulRan=T
         wScrn=  0.000000 ICntrl=       500 IOpCl=  0 I1Cent=           0 NGrid=           0
         NMat0=    1 NMatS0=      1 NMatT0=    0 NMatD0=    1 NMtDS0=    0 NMtDT0=    0
 Symmetry not used in FoFCou.
 Inv3:  Mode=1 IEnd=     6220800.
 Iteration    1 A*A^-1 deviation from unit magnitude is 2.78D-15 for    384.
 Iteration    1 A*A^-1 deviation from orthogonality  is 1.89D-15 for    478    364.
 Iteration    1 A^-1*A deviation from unit magnitude is 2.89D-15 for    212.
 Iteration    1 A^-1*A deviation from orthogonality  is 1.36D-15 for    992    191.
 E= -495.982658316145    
 DIIS: error= 3.06D-02 at cycle   1 NSaved=   1.
 NSaved= 1 IEnMin= 1 EnMin= -495.982658316145     IErMin= 1 ErrMin= 3.06D-02
 ErrMax= 3.06D-02  0.00D+00 EMaxC= 1.00D-01 BMatC= 2.86D-01 BMatP= 2.86D-01
 IDIUse=3 WtCom= 6.94D-01 WtEn= 3.06D-01
 Coeff-Com:  0.100D+01
 Coeff-En:   0.100D+01
 Coeff:      0.100D+01
 Gap=     0.113 Goal=   None    Shift=    0.000
 GapD=    0.113 DampG=1.000 DampE=0.500 DampFc=0.5000 IDamp=-1.
 Damping current iteration by 5.00D-01
 RMSDP=2.15D-02 MaxDP=1.27D+00              OVMax= 2.48D-01

 Cycle   2  Pass 1  IDiag  1:
 RMSU=  1.06D-02    CP:  1.12D+00
 E= -495.990192077630     Delta-E=       -0.007533761485 Rises=F Damp=T
 DIIS: error= 2.07D-02 at cycle   2 NSaved=   2.
 NSaved= 2 IEnMin= 2 EnMin= -495.990192077630     IErMin= 2 ErrMin= 2.07D-02
 ErrMax= 2.07D-02  0.00D+00 EMaxC= 1.00D-01 BMatC= 9.02D-02 BMatP= 2.86D-01
 IDIUse=3 WtCom= 7.93D-01 WtEn= 2.07D-01
 Coeff-Com:  0.331D+00 0.669D+00
 Coeff-En:   0.488D+00 0.512D+00
 Coeff:      0.363D+00 0.637D+00
 Gap=     0.133 Goal=   None    Shift=    0.000
 RMSDP=6.04D-03 MaxDP=2.80D-01 DE=-7.53D-03 OVMax= 2.64D-01

 Cycle   3  Pass 1  IDiag  1:
 RMSU=  3.54D-03    CP:  1.05D+00  5.47D-01
 E= -496.159870905398     Delta-E=       -0.169678827768 Rises=F Damp=F
 DIIS: error= 2.41D-02 at cycle   3 NSaved=   3.
 NSaved= 3 IEnMin= 3 EnMin= -496.159870905398     IErMin= 2 ErrMin= 2.07D-02
 ErrMax= 2.41D-02  0.00D+00 EMaxC= 1.00D-01 BMatC= 7.19D-02 BMatP= 9.02D-02
 IDIUse=3 WtCom= 7.59D-01 WtEn= 2.41D-01
 Coeff-Com:  0.180D+00 0.450D+00 0.370D+00
 Coeff-En:   0.000D+00 0.000D+00 0.100D+01
 Coeff:      0.137D+00 0.342D+00 0.521D+00
 Gap=     0.127 Goal=   None    Shift=    0.000
 RMSDP=3.62D-03 MaxDP=1.87D-01 DE=-1.70D-01 OVMax= 1.43D-01

 Cycle   4  Pass 1  IDiag  1:
 RMSU=  2.52D-03    CP:  1.04D+00  4.73D-01  3.02D-01
 E= -496.177751890515     Delta-E=       -0.017880985117 Rises=F Damp=F
 DIIS: error= 1.97D-02 at cycle   4 NSaved=   4.
 NSaved= 4 IEnMin= 4 EnMin= -496.177751890515     IErMin= 4 ErrMin= 1.97D-02
 ErrMax= 1.97D-02  0.00D+00 EMaxC= 1.00D-01 BMatC= 5.67D-02 BMatP= 7.19D-02
 IDIUse=3 WtCom= 8.03D-01 WtEn= 1.97D-01
 Coeff-Com:  0.805D-01 0.143D+00 0.410D+00 0.367D+00
 Coeff-En:   0.000D+00 0.000D+00 0.438D+00 0.562D+00
 Coeff:      0.646D-01 0.115D+00 0.415D+00 0.406D+00
 Gap=     0.131 Goal=   None    Shift=    0.000
 RMSDP=1.75D-03 MaxDP=6.36D-02 DE=-1.79D-02 OVMax= 1.01D-01

 Cycle   5  Pass 1  IDiag  1:
 RMSU=  4.65D-04    CP:  1.04D+00  4.29D-01  5.84D-01  4.90D-01
 E= -496.218797021896     Delta-E=       -0.041045131382 Rises=F Damp=F
 DIIS: error= 3.09D-03 at cycle   5 NSaved=   5.
 NSaved= 5 IEnMin= 5 EnMin= -496.218797021896     IErMin= 5 ErrMin= 3.09D-03
 ErrMax= 3.09D-03  0.00D+00 EMaxC= 1.00D-01 BMatC= 2.14D-03 BMatP= 5.67D-02
 IDIUse=3 WtCom= 9.69D-01 WtEn= 3.09D-02
 Coeff-Com:  0.233D-01 0.208D-01 0.216D+00 0.274D+00 0.466D+00
 Coeff-En:   0.000D+00 0.000D+00 0.000D+00 0.000D+00 0.100D+01
 Coeff:      0.226D-01 0.202D-01 0.209D+00 0.266D+00 0.482D+00
 Gap=     0.122 Goal=   None    Shift=    0.000
 RMSDP=3.90D-04 MaxDP=1.08D-02 DE=-4.10D-02 OVMax= 1.94D-02

 Cycle   6  Pass 1  IDiag  1:
 RMSU=  2.18D-04    CP:  1.04D+00  4.46D-01  5.72D-01  5.51D-01  5.23D-01
 E= -496.220553063781     Delta-E=       -0.001756041885 Rises=F Damp=F
 DIIS: error= 1.04D-03 at cycle   6 NSaved=   6.
 NSaved= 6 IEnMin= 6 EnMin= -496.220553063781     IErMin= 6 ErrMin= 1.04D-03
 ErrMax= 1.04D-03  0.00D+00 EMaxC= 1.00D-01 BMatC= 1.75D-04 BMatP= 2.14D-03
 IDIUse=3 WtCom= 9.90D-01 WtEn= 1.04D-02
 Coeff-Com:  0.349D-02-0.985D-03 0.640D-01 0.909D-01 0.284D+00 0.558D+00
 Coeff-En:   0.000D+00 0.000D+00 0.000D+00 0.000D+00 0.868D-01 0.913D+00
 Coeff:      0.346D-02-0.975D-03 0.634D-01 0.900D-01 0.282D+00 0.562D+00
 Gap=     0.122 Goal=   None    Shift=    0.000
 RMSDP=8.28D-05 MaxDP=1.61D-03 DE=-1.76D-03 OVMax= 8.07D-03

 Cycle   7  Pass 1  IDiag  1:
 RMSU=  5.12D-05    CP:  1.04D+00  4.45D-01  5.68D-01  5.45D-01  6.06D-01
                    CP:  7.90D-01
 E= -496.220700907663     Delta-E=       -0.000147843882 Rises=F Damp=F
 DIIS: error= 3.87D-04 at cycle   7 NSaved=   7.
 NSaved= 7 IEnMin= 7 EnMin= -496.220700907663     IErMin= 7 ErrMin= 3.87D-04
 ErrMax= 3.87D-04  0.00D+00 EMaxC= 1.00D-01 BMatC= 3.04D-05 BMatP= 1.75D-04
 IDIUse=3 WtCom= 9.96D-01 WtEn= 3.87D-03
 Coeff-Com:  0.118D-03-0.130D-02 0.179D-01 0.255D-01 0.132D+00 0.377D+00
 Coeff-Com:  0.449D+00
 Coeff-En:   0.000D+00 0.000D+00 0.000D+00 0.000D+00 0.000D+00 0.140D+00
 Coeff-En:   0.860D+00
 Coeff:      0.117D-03-0.129D-02 0.178D-01 0.254D-01 0.131D+00 0.376D+00
 Coeff:      0.451D+00
 Gap=     0.122 Goal=   None    Shift=    0.000
 RMSDP=4.47D-05 MaxDP=3.24D-03 DE=-1.48D-04 OVMax= 2.63D-03

 Cycle   8  Pass 1  IDiag  1:
 RMSU=  1.95D-05    CP:  1.04D+00  4.47D-01  5.72D-01  5.43D-01  6.03D-01
                    CP:  7.67D-01  5.33D-01
 E= -496.220730793532     Delta-E=       -0.000029885870 Rises=F Damp=F
 DIIS: error= 6.67D-05 at cycle   8 NSaved=   8.
 NSaved= 8 IEnMin= 8 EnMin= -496.220730793532     IErMin= 8 ErrMin= 6.67D-05
 ErrMax= 6.67D-05  0.00D+00 EMaxC= 1.00D-01 BMatC= 1.80D-06 BMatP= 3.04D-05
 IDIUse=1 WtCom= 1.00D+00 WtEn= 0.00D+00
 Coeff-Com: -0.934D-04-0.499D-03 0.466D-02 0.568D-02 0.505D-01 0.165D+00
 Coeff-Com:  0.256D+00 0.519D+00
 Coeff:     -0.934D-04-0.499D-03 0.466D-02 0.568D-02 0.505D-01 0.165D+00
 Coeff:      0.256D+00 0.519D+00
 Gap=     0.122 Goal=   None    Shift=    0.000
 RMSDP=1.71D-05 MaxDP=9.34D-04 DE=-2.99D-05 OVMax= 5.47D-04

 Cycle   9  Pass 1  IDiag  1:
 RMSU=  4.99D-06    CP:  1.04D+00  4.46D-01  5.72D-01  5.43D-01  6.07D-01
                    CP:  7.74D-01  5.72D-01  5.98D-01
 E= -496.220732418001     Delta-E=       -0.000001624469 Rises=F Damp=F
 DIIS: error= 2.35D-05 at cycle   9 NSaved=   9.
 NSaved= 9 IEnMin= 9 EnMin= -496.220732418001     IErMin= 9 ErrMin= 2.35D-05
 ErrMax= 2.35D-05  0.00D+00 EMaxC= 1.00D-01 BMatC= 1.80D-07 BMatP= 1.80D-06
 IDIUse=1 WtCom= 1.00D+00 WtEn= 0.00D+00
 Coeff-Com:  0.122D-04-0.829D-04 0.595D-03-0.692D-04 0.116D-01 0.452D-01
 Coeff-Com:  0.866D-01 0.288D+00 0.569D+00
 Coeff:      0.122D-04-0.829D-04 0.595D-03-0.692D-04 0.116D-01 0.452D-01
 Coeff:      0.866D-01 0.288D+00 0.569D+00
 Gap=     0.122 Goal=   None    Shift=    0.000
 RMSDP=4.27D-06 MaxDP=1.67D-04 DE=-1.62D-06 OVMax= 1.82D-04

 Cycle  10  Pass 1  IDiag  1:
 RMSU=  1.71D-06    CP:  1.04D+00  4.46D-01  5.73D-01  5.43D-01  6.08D-01
                    CP:  7.80D-01  5.58D-01  6.50D-01  7.30D-01
 E= -496.220732541942     Delta-E=       -0.000000123941 Rises=F Damp=F
 DIIS: error= 9.29D-06 at cycle  10 NSaved=  10.
 NSaved=10 IEnMin=10 EnMin= -496.220732541942     IErMin=10 ErrMin= 9.29D-06
 ErrMax= 9.29D-06  0.00D+00 EMaxC= 1.00D-01 BMatC= 1.71D-08 BMatP= 1.80D-07
 IDIUse=1 WtCom= 1.00D+00 WtEn= 0.00D+00
 Coeff-Com:  0.157D-04-0.621D-04 0.197D-03-0.240D-03 0.527D-02 0.217D-01
 Coeff-Com:  0.438D-01 0.153D+00 0.352D+00 0.425D+00
 Coeff:      0.157D-04-0.621D-04 0.197D-03-0.240D-03 0.527D-02 0.217D-01
 Coeff:      0.438D-01 0.153D+00 0.352D+00 0.425D+00
 Gap=     0.122 Goal=   None    Shift=    0.000
 RMSDP=1.61D-06 MaxDP=6.95D-05 DE=-1.24D-07 OVMax= 5.27D-05

 Cycle  11  Pass 1  IDiag  1:
 RMSU=  7.05D-07    CP:  1.04D+00  4.46D-01  5.72D-01  5.43D-01  6.07D-01
                    CP:  7.78D-01  5.67D-01  6.52D-01  6.91D-01  4.13D-01
 E= -496.220732534971     Delta-E=        0.000000006971 Rises=F Damp=F
 DIIS: error= 2.75D-06 at cycle  11 NSaved=  11.
 NSaved=11 IEnMin=10 EnMin= -496.220732541942     IErMin=11 ErrMin= 2.75D-06
 ErrMax= 2.75D-06  0.00D+00 EMaxC= 1.00D-01 BMatC= 1.47D-09 BMatP= 1.71D-08
 IDIUse=1 WtCom= 1.00D+00 WtEn= 0.00D+00
 Coeff-Com:  0.171D-04-0.235D-04 0.239D-04-0.110D-03 0.722D-03 0.366D-02
 Coeff-Com:  0.880D-02 0.312D-01 0.986D-01 0.248D+00 0.609D+00
 Coeff:      0.171D-04-0.235D-04 0.239D-04-0.110D-03 0.722D-03 0.366D-02
 Coeff:      0.880D-02 0.312D-01 0.986D-01 0.248D+00 0.609D+00
 Gap=     0.122 Goal=   None    Shift=    0.000
 RMSDP=3.56D-07 MaxDP=1.26D-05 DE= 6.97D-09 OVMax= 1.28D-05

 Cycle  12  Pass 1  IDiag  1:
 RMSU=  1.28D-07    CP:  1.04D+00  4.46D-01  5.72D-01  5.43D-01  6.07D-01
                    CP:  7.79D-01  5.66D-01  6.53D-01  7.08D-01  5.18D-01
                    CP:  6.76D-01
 E= -496.220732536172     Delta-E=       -0.000000001201 Rises=F Damp=F
 DIIS: error= 3.07D-07 at cycle  12 NSaved=  12.
 NSaved=12 IEnMin=10 EnMin= -496.220732541942     IErMin=12 ErrMin= 3.07D-07
 ErrMax= 3.07D-07  0.00D+00 EMaxC= 1.00D-01 BMatC= 3.78D-11 BMatP= 1.47D-09
 IDIUse=1 WtCom= 1.00D+00 WtEn= 0.00D+00
 Coeff-Com:  0.738D-05-0.104D-04 0.506D-05-0.344D-04 0.123D-03 0.798D-03
 Coeff-Com:  0.219D-02 0.757D-02 0.294D-01 0.896D-01 0.263D+00 0.607D+00
 Coeff:      0.738D-05-0.104D-04 0.506D-05-0.344D-04 0.123D-03 0.798D-03
 Coeff:      0.219D-02 0.757D-02 0.294D-01 0.896D-01 0.263D+00 0.607D+00
 Gap=     0.122 Goal=   None    Shift=    0.000
 RMSDP=5.22D-08 MaxDP=1.05D-06 DE=-1.20D-09 OVMax= 3.14D-06

 Cycle  13  Pass 1  IDiag  1:
 RMSU=  3.47D-08    CP:  1.04D+00  4.46D-01  5.72D-01  5.43D-01  6.07D-01
                    CP:  7.79D-01  5.66D-01  6.52D-01  7.09D-01  5.15D-01
                    CP:  7.14D-01  8.34D-01
 E= -496.220732536183     Delta-E=       -0.000000000011 Rises=F Damp=F
 DIIS: error= 2.10D-07 at cycle  13 NSaved=  13.
 NSaved=13 IEnMin=10 EnMin= -496.220732541942     IErMin=13 ErrMin= 2.10D-07
 ErrMax= 2.10D-07  0.00D+00 EMaxC= 1.00D-01 BMatC= 1.67D-11 BMatP= 3.78D-11
 IDIUse=1 WtCom= 1.00D+00 WtEn= 0.00D+00
 Coeff-Com:  0.302D-05-0.413D-05 0.117D-05-0.837D-05-0.111D-04 0.587D-04
 Coeff-Com:  0.330D-03 0.110D-02 0.737D-02 0.289D-01 0.103D+00 0.420D+00
 Coeff-Com:  0.439D+00
 Coeff:      0.302D-05-0.413D-05 0.117D-05-0.837D-05-0.111D-04 0.587D-04
 Coeff:      0.330D-03 0.110D-02 0.737D-02 0.289D-01 0.103D+00 0.420D+00
 Coeff:      0.439D+00
 Gap=     0.122 Goal=   None    Shift=    0.000
 RMSDP=2.54D-08 MaxDP=9.17D-07 DE=-1.14D-11 OVMax= 1.78D-06

 Cycle  14  Pass 1  IDiag  1:
 RMSU=  1.22D-08    CP:  1.04D+00  4.46D-01  5.72D-01  5.43D-01  6.07D-01
                    CP:  7.79D-01  5.66D-01  6.52D-01  7.10D-01  5.20D-01
                    CP:  7.07D-01  8.48D-01  6.10D-01
 E= -496.220732536200     Delta-E=       -0.000000000017 Rises=F Damp=F
 DIIS: error= 4.78D-08 at cycle  14 NSaved=  14.
 NSaved=14 IEnMin=10 EnMin= -496.220732541942     IErMin=14 ErrMin= 4.78D-08
 ErrMax= 4.78D-08  0.00D+00 EMaxC= 1.00D-01 BMatC= 4.16D-13 BMatP= 1.67D-11
 IDIUse=1 WtCom= 1.00D+00 WtEn= 0.00D+00
 Coeff-Com:  0.108D-05-0.157D-05 0.259D-06-0.251D-05-0.103D-04-0.121D-04
 Coeff-Com:  0.470D-04 0.163D-03 0.221D-02 0.988D-02 0.395D-01 0.180D+00
 Coeff-Com:  0.221D+00 0.547D+00
 Coeff:      0.108D-05-0.157D-05 0.259D-06-0.251D-05-0.103D-04-0.121D-04
 Coeff:      0.470D-04 0.163D-03 0.221D-02 0.988D-02 0.395D-01 0.180D+00
 Coeff:      0.221D+00 0.547D+00
 Gap=     0.122 Goal=   None    Shift=    0.000
 RMSDP=6.07D-09 MaxDP=2.33D-07 DE=-1.69D-11 OVMax= 5.31D-07

 Error on total polarization charges =  0.01126
 SCF Done:  E(RB-P86) =  -496.220732536     A.U. after   14 cycles
            NFock= 14  Conv=0.61D-08     -V/T= 2.0035
 KE= 4.945056378328D+02 PE=-2.160703387283D+03 EE= 6.704272611162D+02
 Leave Link  502 at Mon Feb 22 21:30:02 2021, MaxMem=   104857600 cpu:             358.9 elap:              11.5
 (Enter /sw/arch/RedHatEnterpriseServer7/EB_production/2019/software/Gaussian/g16.c01/l601.exe)
 Copying SCF densities to generalized density rwf, IOpCl= 0 IROHF=0.

 **********************************************************************

            Population analysis using the SCF Density.

 **********************************************************************

 Orbital symmetries:
       Occupied  (A) (A) (A) (A) (A) (A) (A) (A) (A) (A) (A) (A)
                 (A) (A) (A) (A) (A) (A) (A) (A) (A) (A) (A) (A)
                 (A) (A) (A) (A) (A) (A) (A) (A) (A) (A) (A) (A)
       Virtual   (A) (A) (A) (A) (A) (A) (A) (A) (A) (A) (A) (A)
                 (A) (A) (A) (A) (A) (A) (A) (A) (A) (A) (A) (A)
                 (A) (A) (A) (A) (A) (A) (A) (A) (A) (A) (A) (A)
                 (A) (A) (A) (A) (A) (A) (A) (A) (A) (A) (A) (A)
                 (A) (A) (A) (A) (A) (A) (A) (A) (A) (A) (A) (A)
                 (A) (A) (A) (A) (A) (A) (A) (A) (A) (A) (A) (A)
                 (A) (A) (A) (A) (A) (A) (A) (A) (A) (A) (A) (A)
                 (A) (A) (A) (A) (A) (A) (A) (A) (A) (A) (A) (A)
                 (A) (A) (A) (A) (A) (A) (A) (A) (A) (A) (A) (A)
                 (A) (A) (A) (A) (A) (A) (A) (A) (A) (A) (A) (A)
                 (A) (A) (A) (A) (A) (A) (A) (A) (A) (A) (A) (A)
                 (A) (A) (A) (A) (A) (A) (A) (A) (A) (A) (A) (A)
                 (A) (A) (A) (A) (A) (A) (A) (A) (A) (A) (A) (A)
                 (A) (A) (A) (A) (A) (A) (A) (A) (A) (A) (A) (A)
                 (A) (A) (A) (A) (A) (A) (A) (A) (A) (A) (A) (A)
                 (A) (A) (A) (A) (A) (A) (A) (A) (A) (A)
 The electronic state is 1-A.
 Alpha  occ. eigenvalues --  -18.81767 -18.80807 -18.75785 -10.03779  -9.98619
 Alpha  occ. eigenvalues --   -9.93550  -9.92035  -9.91678  -9.91021  -9.90709
 Alpha  occ. eigenvalues --   -1.02003  -0.99241  -0.92179  -0.79763  -0.72322
 Alpha  occ. eigenvalues --   -0.69159  -0.62510  -0.58332  -0.56353  -0.51781
 Alpha  occ. eigenvalues --   -0.48793  -0.45064  -0.43678  -0.42080  -0.41759
 Alpha  occ. eigenvalues --   -0.41080  -0.39001  -0.35825  -0.34895  -0.33718
 Alpha  occ. eigenvalues --   -0.32997  -0.29643  -0.28689  -0.25377  -0.23637
 Alpha  occ. eigenvalues --   -0.22438
 Alpha virt. eigenvalues --   -0.10248  -0.05609  -0.00500   0.01718   0.02525
 Alpha virt. eigenvalues --    0.05738   0.08255   0.09564   0.10145   0.10993
 Alpha virt. eigenvalues --    0.11565   0.13116   0.14454   0.15835   0.17109
 Alpha virt. eigenvalues --    0.17782   0.18689   0.19190   0.20781   0.21876
 Alpha virt. eigenvalues --    0.22770   0.24054   0.24442   0.25854   0.27305
 Alpha virt. eigenvalues --    0.28145   0.29033   0.29399   0.30643   0.32533
 Alpha virt. eigenvalues --    0.32695   0.32903   0.34492   0.36641   0.38354
 Alpha virt. eigenvalues --    0.39030   0.39331   0.41212   0.41620   0.42805
 Alpha virt. eigenvalues --    0.43939   0.45277   0.45433   0.46634   0.47054
 Alpha virt. eigenvalues --    0.47250   0.47762   0.51134   0.51563   0.52602
 Alpha virt. eigenvalues --    0.54280   0.58984   0.60319   0.60548   0.61790
 Alpha virt. eigenvalues --    0.64002   0.65042   0.66421   0.70494   0.73451
 Alpha virt. eigenvalues --    0.73740   0.76537   0.78967   0.84844   0.89307
 Alpha virt. eigenvalues --    0.94389   1.11563   1.12017   1.15544   1.17285
 Alpha virt. eigenvalues --    1.17941   1.19163   1.20108   1.21853   1.22865
 Alpha virt. eigenvalues --    1.23280   1.26303   1.27221   1.28483   1.29909
 Alpha virt. eigenvalues --    1.32094   1.33517   1.34914   1.36727   1.37241
 Alpha virt. eigenvalues --    1.37516   1.38524   1.40595   1.41154   1.42718
 Alpha virt. eigenvalues --    1.44692   1.45589   1.45844   1.47094   1.47627
 Alpha virt. eigenvalues --    1.50746   1.53510   1.54693   1.57141   1.60979
 Alpha virt. eigenvalues --    1.68627   1.71742   1.72623   1.73752   1.75416
 Alpha virt. eigenvalues --    1.80421   1.80805   1.81713   1.83555   1.83894
 Alpha virt. eigenvalues --    1.87190   1.90361   1.90934   1.93191   1.94626
 Alpha virt. eigenvalues --    1.98873   1.99868   2.03353   2.05778   2.13427
 Alpha virt. eigenvalues --    2.14901   2.15416   2.17361   2.18547   2.20851
 Alpha virt. eigenvalues --    2.22142   2.22320   2.24357   2.27039   2.29164
 Alpha virt. eigenvalues --    2.32196   2.42956   2.44359   2.46820   2.48919
 Alpha virt. eigenvalues --    2.49567   2.51900   2.53122   2.53947   2.55334
 Alpha virt. eigenvalues --    2.56127   2.58013   2.58681   2.60869   2.63165
 Alpha virt. eigenvalues --    2.65432   2.67541   2.69057   2.71401   2.73529
 Alpha virt. eigenvalues --    2.76330   2.79917   2.83010   2.85384   2.88011
 Alpha virt. eigenvalues --    2.89485   2.92272   2.97671   2.99474   3.01099
 Alpha virt. eigenvalues --    3.04320   3.05103   3.05945   3.07018   3.07217
 Alpha virt. eigenvalues --    3.09831   3.12008   3.16319   3.18431   3.23189
 Alpha virt. eigenvalues --    3.30221   3.31507   3.42928   3.48180   3.63538
 Alpha virt. eigenvalues --    3.87929   3.94536   4.01980   4.17424   4.21629
 Alpha virt. eigenvalues --   21.07397  21.52447  21.64484  21.76294  21.82740
 Alpha virt. eigenvalues --   21.87551  21.95958  43.07075  43.13499  43.22959
          Condensed to atoms (all electrons):
               1          2          3          4          5          6
     1  O    8.030396   0.662832  -0.130347  -0.184979   0.013353  -0.001857
     2  C    0.662832   5.218033   0.436255  -0.260452   0.022815  -0.015407
     3  O   -0.130347   0.436255   7.873553  -0.212189   0.024098  -0.002178
     4  C   -0.184979  -0.260452  -0.212189   7.422991  -0.316669   0.224053
     5  C    0.013353   0.022815   0.024098  -0.316669   5.581415   0.210315
     6  C   -0.001857  -0.015407  -0.002178   0.224053   0.210315   5.216997
     7  C    0.000394   0.018824   0.000366  -0.213996   0.092671   0.312230
     8  C    0.005099   0.014412   0.000562   0.160482  -0.212437   0.078621
     9  C   -0.016676  -0.207115  -0.004344  -0.315438   0.234103  -0.184913
    10  O   -0.011196  -0.022992  -0.000083  -0.083695   0.017199  -0.001255
    11  H    0.002284  -0.029714   0.295819   0.026955  -0.001659   0.000067
    12  H    0.000865  -0.026538   0.014782  -0.063705   0.442151  -0.056950
    13  H   -0.000005  -0.001798  -0.000155   0.022833  -0.061737   0.441169
    14  H   -0.000001  -0.000040  -0.000000  -0.008779   0.021916  -0.071838
    15  H    0.000051  -0.001276   0.000010   0.034745  -0.007071   0.017627
    16  H    0.013175  -0.018486   0.000075  -0.018630   0.004783  -0.000273
               7          8          9         10         11         12
     1  O    0.000394   0.005099  -0.016676  -0.011196   0.002284   0.000865
     2  C    0.018824   0.014412  -0.207115  -0.022992  -0.029714  -0.026538
     3  O    0.000366   0.000562  -0.004344  -0.000083   0.295819   0.014782
     4  C   -0.213996   0.160482  -0.315438  -0.083695   0.026955  -0.063705
     5  C    0.092671  -0.212437   0.234103   0.017199  -0.001659   0.442151
     6  C    0.312230   0.078621  -0.184913  -0.001255   0.000067  -0.056950
     7  C    5.102769   0.327237   0.073033   0.009163  -0.000005   0.015765
     8  C    0.327237   5.283479   0.258820  -0.072604   0.000020  -0.005262
     9  C    0.073033   0.258820   5.656711   0.365540  -0.000586   0.022938
    10  O    0.009163  -0.072604   0.365540   7.768395   0.000064   0.000079
    11  H   -0.000005   0.000020  -0.000586   0.000064   0.369245  -0.000279
    12  H    0.015765  -0.005262   0.022938   0.000079  -0.000279   0.500728
    13  H   -0.065397   0.016721  -0.003545   0.000002   0.000000  -0.006568
    14  H    0.454449  -0.070324   0.023916  -0.000193   0.000000  -0.000050
    15  H   -0.056821   0.428021  -0.080320   0.007413  -0.000001  -0.000057
    16  H   -0.000528   0.000548  -0.024813   0.307425   0.000003  -0.000002
              13         14         15         16
     1  O   -0.000005  -0.000001   0.000051   0.013175
     2  C   -0.001798  -0.000040  -0.001276  -0.018486
     3  O   -0.000155  -0.000000   0.000010   0.000075
     4  C    0.022833  -0.008779   0.034745  -0.018630
     5  C   -0.061737   0.021916  -0.007071   0.004783
     6  C    0.441169  -0.071838   0.017627  -0.000273
     7  C   -0.065397   0.454449  -0.056821  -0.000528
     8  C    0.016721  -0.070324   0.428021   0.000548
     9  C   -0.003545   0.023916  -0.080320  -0.024813
    10  O    0.000002  -0.000193   0.007413   0.307425
    11  H    0.000000   0.000000  -0.000001   0.000003
    12  H   -0.006568  -0.000050  -0.000057  -0.000002
    13  H    0.510694  -0.006733  -0.000057  -0.000004
    14  H   -0.006733   0.512976  -0.008043   0.000019
    15  H   -0.000057  -0.008043   0.508709  -0.000669
    16  H   -0.000004   0.000019  -0.000669   0.424034
 Mulliken charges:
               1
     1  O   -0.383390
     2  C    0.210646
     3  O   -0.296225
     4  C   -0.213528
     5  C   -0.065247
     6  C   -0.166406
     7  C   -0.070154
     8  C   -0.213397
     9  C    0.202689
    10  O   -0.283263
    11  H    0.337786
    12  H    0.162103
    13  H    0.154577
    14  H    0.152725
    15  H    0.157739
    16  H    0.313344
 Sum of Mulliken charges =  -0.00000
 Mulliken charges with hydrogens summed into heavy atoms:
               1
     1  O   -0.383390
     2  C    0.210646
     3  O    0.041561
     4  C   -0.213528
     5  C    0.096855
     6  C   -0.011828
     7  C    0.082571
     8  C   -0.055658
     9  C    0.202689
    10  O    0.030081
 Electronic spatial extent (au):  <R**2>=           1368.1473
 Charge=              0.0000 electrons
 Dipole moment (field-independent basis, Debye):
    X=             -1.6423    Y=             -2.8470    Z=              1.5648  Tot=              3.6402
 Quadrupole moment (field-independent basis, Debye-Ang):
   XX=            -46.5004   YY=            -57.5612   ZZ=            -58.5940
   XY=             -4.7992   XZ=              2.2792   YZ=              3.6498
 Traceless Quadrupole moment (field-independent basis, Debye-Ang):
   XX=              7.7181   YY=             -3.3427   ZZ=             -4.3754
   XY=             -4.7992   XZ=              2.2792   YZ=              3.6498
 Octapole moment (field-independent basis, Debye-Ang**2):
  XXX=             18.1843  YYY=             -9.9150  ZZZ=              1.8805  XYY=              0.4869
  XXY=            -23.9222  XXZ=              2.8942  XZZ=             11.5408  YZZ=              6.2410
  YYZ=              6.7638  XYZ=              4.5049
 Hexadecapole moment (field-independent basis, Debye-Ang**3):
 XXXX=           -866.4010 YYYY=           -580.2497 ZZZZ=            -64.6603 XXXY=            -99.4688
 XXXZ=             11.3790 YYYX=              8.2585 YYYZ=             16.1887 ZZZX=              1.0048
 ZZZY=              3.8936 XXYY=           -252.0585 XXZZ=           -205.5051 YYZZ=           -108.3022
 XXYZ=              5.0633 YYXZ=              7.1217 ZZXY=             -2.4377
 N-N= 4.995497557978D+02 E-N=-2.160703388066D+03  KE= 4.945056378328D+02
 No NMR shielding tensors so no spin-rotation constants.
 Leave Link  601 at Mon Feb 22 21:30:03 2021, MaxMem=   104857600 cpu:               6.0 elap:               0.2
 (Enter /sw/arch/RedHatEnterpriseServer7/EB_production/2019/software/Gaussian/g16.c01/l701.exe)
 ... and contract with generalized density number  0.
 Compute integral first derivatives.
 R6Disp: Adding Grimme-D3 dispersion energy 1st derivatives to the gradient.
 PrsmSu:  requested number of processors reduced to:  29 ShMem   1 Linda.
 D1PCM: PCM CHGder 1st derivatives, ID1Alg=3 FixD1E=F DoIter=F DoCFld=F I1PDM=0.
 GePol: Maximum number of non-zero 1st derivatives   =     198
 CoulSu:  requested number of processors reduced to:  29 ShMem   1 Linda.
 CoulSu:  requested number of processors reduced to:  30 ShMem   1 Linda.
 Leave Link  701 at Mon Feb 22 21:30:03 2021, MaxMem=   104857600 cpu:              22.1 elap:               0.8
 (Enter /sw/arch/RedHatEnterpriseServer7/EB_production/2019/software/Gaussian/g16.c01/l702.exe)
 L702 exits ... SP integral derivatives will be done elsewhere.
 Leave Link  702 at Mon Feb 22 21:30:04 2021, MaxMem=   104857600 cpu:               0.6 elap:               0.1
 (Enter /sw/arch/RedHatEnterpriseServer7/EB_production/2019/software/Gaussian/g16.c01/l703.exe)
 Integral derivatives from FoFJK, PRISM(SPDF).
 Compute integral first derivatives, UseDBF=F ICtDFT=           0.
 Calling FoFJK, ICntrl=      2527 FMM=F ISym2X=0 I1Cent= 0 IOpClX= 0 NMat=1 NMatS=1 NMatT=0.
 FoFJK:  IHMeth= 1 ICntrl=    2527 DoSepK=F KAlg= 0 I1Cent=           0 FoldK=F
 IRaf=         0 NMat=       1 IRICut=       1 DoRegI=T DoRafI=F ISym2E= 0 IDoP0=0 IntGTp=1.
 FoFCou: FMM=F IPFlag=           0 FMFlag=      100000 FMFlg1=         800
         NFxFlg=           0 DoJE=F BraDBF=F KetDBF=F FulRan=T
         wScrn=  0.000000 ICntrl=      2527 IOpCl=  0 I1Cent=           0 NGrid=           0
         NMat0=    1 NMatS0=      1 NMatT0=    0 NMatD0=    1 NMtDS0=    0 NMtDT0=    0
 Symmetry not used in FoFCou.
 Leave Link  703 at Mon Feb 22 21:30:05 2021, MaxMem=   104857600 cpu:              44.5 elap:               1.4
 (Enter /sw/arch/RedHatEnterpriseServer7/EB_production/2019/software/Gaussian/g16.c01/l716.exe)
 Dipole        =-6.46128085D-01-1.12008856D+00 6.15650643D-01
 ***** Axes restored to original set *****
 -------------------------------------------------------------------
 Center     Atomic                   Forces (Hartrees/Bohr)
 Number     Number              X              Y              Z
 -------------------------------------------------------------------
      1        8           0.005720492    0.011052654   -0.006256208
      2        6          -0.026800857   -0.085024534    0.004179676
      3        8           0.020017057    0.044200389    0.018605748
      4        6           0.014346586    0.037495625    0.007580160
      5        6          -0.009622883    0.017122110   -0.058828798
      6        6          -0.016110104   -0.050199722   -0.026017381
      7        6          -0.007393288   -0.056812933    0.023877898
      8        6           0.010202952    0.000385017    0.060750194
      9        6           0.000936398    0.012209311   -0.000903097
     10        8           0.008900409   -0.004951822   -0.009656909
     11        1          -0.007224368   -0.001617301   -0.019380587
     12        1           0.009635873   -0.008717102    0.051462806
     13        1           0.015589476    0.042604717    0.030663529
     14        1           0.004305280    0.048504098   -0.024020006
     15        1          -0.010262167    0.001946567   -0.052631643
     16        1          -0.012240855   -0.008197073    0.000574617
 -------------------------------------------------------------------
 Cartesian Forces:  Max     0.085024534 RMS     0.028909939
 Leave Link  716 at Mon Feb 22 21:30:05 2021, MaxMem=   104857600 cpu:               0.8 elap:               0.1
 (Enter /sw/arch/RedHatEnterpriseServer7/EB_production/2019/software/Gaussian/g16.c01/l103.exe)

 GradGradGradGradGradGradGradGradGradGradGradGradGradGradGradGradGradGrad
 Berny optimization.
 FormGI is forming the generalized inverse of G from B-inverse, IUseBI=4.
 Internal  Forces:  Max     0.054748705 RMS     0.015994745
 Search for a local minimum.
 Step number   1 out of a maximum of   81
 All quantities printed in internal units (Hartrees-Bohrs-Radians)
 RMS Force = .15995D-01 SwitMx=.10000D-02 MixMth= 1
 Mixed Optimization -- RFO/linear search
 Second derivative matrix not updated -- first step.
 ITU=  0
     Eigenvalues ---    0.01762   0.01795   0.01839   0.01906   0.01925
     Eigenvalues ---    0.01936   0.01972   0.02002   0.02018   0.02024
     Eigenvalues ---    0.02035   0.02254   0.02291   0.16000   0.16000
     Eigenvalues ---    0.16000   0.16000   0.16000   0.16000   0.22000
     Eigenvalues ---    0.22483   0.24468   0.24997   0.24997   0.24999
     Eigenvalues ---    0.25000   0.39729   0.40087   0.41760   0.42864
     Eigenvalues ---    0.43728   0.43836   0.43852   0.43989   0.43990
     Eigenvalues ---    0.44376   0.44862   0.51383   0.51390   0.53452
     Eigenvalues ---    0.54032   0.82391
 RFO step:  Lambda=-4.92743531D-02 EMin= 1.76201526D-02
 Linear search not attempted -- first point.
 Maximum step size (   0.300) exceeded in Quadratic search.
    -- Step size scaled by   0.831
 Iteration  1 RMS(Cart)=  0.06635432 RMS(Int)=  0.00355004
 Iteration  2 RMS(Cart)=  0.00368895 RMS(Int)=  0.00007683
 Iteration  3 RMS(Cart)=  0.00001112 RMS(Int)=  0.00007649
 Iteration  4 RMS(Cart)=  0.00000000 RMS(Int)=  0.00007649
 ITry= 1 IFail=0 DXMaxC= 2.66D-01 DCOld= 1.00D+10 DXMaxT= 3.00D-01 DXLimC= 3.00D+00 Rises=F
 Variable       Old X    -DE/DX   Delta X   Delta X   Delta X     New X
                                 (Linear)    (Quad)   (Total)
    R1        2.36651  -0.00832   0.00000  -0.00792  -0.00792   2.35859
    R2        2.56003  -0.00301   0.00000  -0.00425  -0.00425   2.55578
    R3        2.69229   0.02727   0.00000   0.04852   0.04852   2.74082
    R4        1.85195  -0.00614   0.00000  -0.00905  -0.00905   1.84290
    R5        2.68312  -0.00318   0.00000  -0.00546  -0.00546   2.67766
    R6        2.68901   0.00294   0.00000   0.00553   0.00554   2.69455
    R7        2.65828  -0.01187   0.00000  -0.02013  -0.02015   2.63813
    R8        1.93481   0.05284   0.00000   0.09023   0.09023   2.02505
    R9        2.65293  -0.00081   0.00000  -0.00165  -0.00166   2.65127
   R10        1.93167   0.05475   0.00000   0.09299   0.09299   2.02466
   R11        2.65364  -0.00530   0.00000  -0.00895  -0.00894   2.64470
   R12        1.93332   0.05429   0.00000   0.09247   0.09247   2.02579
   R13        2.66187  -0.00600   0.00000  -0.00995  -0.00993   2.65194
   R14        1.93351   0.05349   0.00000   0.09113   0.09113   2.02464
   R15        2.56534   0.01626   0.00000   0.02315   0.02315   2.58849
   R16        1.85188  -0.00177   0.00000  -0.00261  -0.00261   1.84927
    A1        2.01485   0.03387   0.00000   0.09419   0.09410   2.10895
    A2        2.14205   0.00924   0.00000   0.02581   0.02571   2.16776
    A3        2.12597  -0.04307   0.00000  -0.11941  -0.11950   2.00647
    A4        2.09839  -0.03669   0.00000  -0.14568  -0.14568   1.95271
    A5        2.08710  -0.00287   0.00000  -0.00825  -0.00827   2.07882
    A6        2.13810   0.00041   0.00000   0.00085   0.00082   2.13891
    A7        2.05789   0.00247   0.00000   0.00752   0.00754   2.06543
    A8        2.11403   0.00148   0.00000   0.00433   0.00432   2.11835
    A9        2.11200  -0.00556   0.00000  -0.02127  -0.02127   2.09073
   A10        2.05714   0.00407   0.00000   0.01696   0.01696   2.07410
   A11        2.09642  -0.00258   0.00000  -0.00901  -0.00904   2.08738
   A12        2.09295   0.00038   0.00000   0.00088   0.00089   2.09384
   A13        2.09382   0.00220   0.00000   0.00814   0.00815   2.10196
   A14        2.09022   0.00266   0.00000   0.00726   0.00726   2.09748
   A15        2.09723  -0.00054   0.00000  -0.00052  -0.00052   2.09671
   A16        2.09573  -0.00211   0.00000  -0.00674  -0.00674   2.08898
   A17        2.10120   0.00180   0.00000   0.00554   0.00558   2.10677
   A18        2.08580   0.00314   0.00000   0.01327   0.01324   2.09904
   A19        2.09618  -0.00493   0.00000  -0.01878  -0.01881   2.07738
   A20        2.10612  -0.00581   0.00000  -0.01536  -0.01543   2.09070
   A21        2.14404   0.00567   0.00000   0.01544   0.01529   2.15933
   A22        2.03300   0.00015   0.00000   0.00012  -0.00003   2.03297
   A23        1.82963   0.01798   0.00000   0.07138   0.07138   1.90101
    D1       -0.00213  -0.00118   0.00000  -0.01501  -0.01526  -0.01738
    D2        3.11351   0.00076   0.00000   0.01025   0.01050   3.12402
    D3        2.98414   0.00355   0.00000   0.04323   0.04308   3.02722
    D4       -0.14177   0.00279   0.00000   0.03409   0.03400  -0.10777
    D5       -0.12959   0.00119   0.00000   0.01533   0.01542  -0.11417
    D6        3.02768   0.00043   0.00000   0.00619   0.00634   3.03402
    D7       -3.10094  -0.00107   0.00000  -0.01365  -0.01362  -3.11456
    D8        0.03453  -0.00077   0.00000  -0.00988  -0.00991   0.02462
    D9        0.02569  -0.00037   0.00000  -0.00497  -0.00498   0.02071
   D10       -3.12203  -0.00007   0.00000  -0.00121  -0.00127  -3.12329
   D11        3.09078   0.00155   0.00000   0.01918   0.01918   3.10995
   D12       -0.05887   0.00397   0.00000   0.04870   0.04877  -0.01009
   D13       -0.03539   0.00085   0.00000   0.01032   0.01030  -0.02509
   D14        3.09815   0.00327   0.00000   0.03984   0.03990   3.13805
   D15       -0.00259  -0.00011   0.00000  -0.00148  -0.00151  -0.00409
   D16        3.13590   0.00019   0.00000   0.00253   0.00252   3.13842
   D17       -3.13825  -0.00037   0.00000  -0.00500  -0.00505   3.13989
   D18        0.00024  -0.00007   0.00000  -0.00099  -0.00103  -0.00079
   D19       -0.01151   0.00023   0.00000   0.00310   0.00310  -0.00841
   D20        3.13264   0.00031   0.00000   0.00413   0.00417   3.13681
   D21        3.13320  -0.00007   0.00000  -0.00090  -0.00094   3.13226
   D22       -0.00584   0.00001   0.00000   0.00014   0.00014  -0.00570
   D23        0.00172   0.00012   0.00000   0.00191   0.00200   0.00372
   D24       -3.13515  -0.00043   0.00000  -0.00496  -0.00492  -3.14007
   D25        3.14076   0.00004   0.00000   0.00089   0.00094  -3.14149
   D26        0.00388  -0.00050   0.00000  -0.00598  -0.00598  -0.00210
   D27        0.02226  -0.00075   0.00000  -0.00894  -0.00895   0.01331
   D28       -3.11178  -0.00304   0.00000  -0.03672  -0.03653   3.13488
   D29       -3.12408  -0.00018   0.00000  -0.00194  -0.00203  -3.12611
   D30        0.02507  -0.00247   0.00000  -0.02972  -0.02960  -0.00453
   D31       -0.81192   0.00864   0.00000   0.09910   0.09893  -0.71299
   D32        2.32194   0.01093   0.00000   0.12739   0.12756   2.44950
         Item               Value     Threshold  Converged?
 Maximum Force            0.054749     0.000450     NO 
 RMS     Force            0.015995     0.000300     NO 
 Maximum Displacement     0.265804     0.001800     NO 
 RMS     Displacement     0.067313     0.001200     NO 
 Predicted change in Energy=-2.704861D-02
 Lowest energy point so far.  Saving SCF results.
 GradGradGradGradGradGradGradGradGradGradGradGradGradGradGradGradGradGrad

 Leave Link  103 at Mon Feb 22 21:30:06 2021, MaxMem=   104857600 cpu:               5.3 elap:               0.2
 (Enter /sw/arch/RedHatEnterpriseServer7/EB_production/2019/software/Gaussian/g16.c01/l202.exe)
                          Input orientation:                          
 ---------------------------------------------------------------------
 Center     Atomic      Atomic             Coordinates (Angstroms)
 Number     Number       Type             X           Y           Z
 ---------------------------------------------------------------------
      1          8           0       -1.753038   -1.479543   -2.759868
      2          6           0       -1.307024   -0.453334   -2.206916
      3          8           0       -0.919334   -0.476775   -0.911426
      4          6           0       -1.160484    0.830021   -2.866552
      5          6           0       -0.774729    1.958365   -2.101175
      6          6           0       -0.650665    3.222101   -2.681259
      7          6           0       -0.907165    3.384013   -4.051067
      8          6           0       -1.275285    2.283096   -4.832804
      9          6           0       -1.397490    1.007183   -4.261407
     10          8           0       -1.770273   -0.006293   -5.104124
     11          1           0       -1.051454   -1.354905   -0.508333
     12          1           0       -0.574360    1.848287   -1.054236
     13          1           0       -0.360276    4.060487   -2.080680
     14          1           0       -0.818770    4.351381   -4.504463
     15          1           0       -1.470136    2.404862   -5.879270
     16          1           0       -1.261337   -0.810814   -4.877472
 ---------------------------------------------------------------------
                    Distance matrix (angstroms):
                    1          2          3          4          5
     1  O    0.000000
     2  C    1.248113   0.000000
     3  O    2.262155   1.352460   0.000000
     4  C    2.386752   1.450377   2.363977   0.000000
     5  C    3.634580   2.472005   2.714096   1.416958   0.000000
     6  C    4.829789   3.763593   4.109279   2.452814   1.396037
     7  C    5.102634   4.276215   4.976262   2.826680   2.419110
     8  C    4.322356   3.792670   4.808409   2.447601   2.796034
     9  C    2.926574   2.522345   3.695015   1.425895   2.441143
    10  O    2.768808   2.967871   4.303971   2.465358   3.724069
    11  H    2.361602   1.939931   0.975219   3.216673   3.686662
    12  H    3.920831   2.676365   2.354850   2.159838   1.071609
    13  H    5.752652   4.613767   4.718733   3.419625   2.142687
    14  H    6.157608   5.348121   6.019229   3.898653   3.391793
    15  H    4.989920   4.656401   5.769462   3.413572   3.867422
    16  H    2.274470   2.694763   3.994756   2.597366   3.951325
                    6          7          8          9         10
     6  C    0.000000
     7  C    1.402991   0.000000
     8  C    2.429204   1.399516   0.000000
     9  C    2.821432   2.435977   1.403347   0.000000
    10  O    4.188834   3.653499   2.357950   1.369771   0.000000
    11  H    5.082443   5.918541   5.655634   4.448006   4.843217
    12  H    2.130819   3.383816   3.867549   3.416277   4.612079
    13  H    1.071406   2.153864   3.401551   3.892820   5.260038
    14  H    2.151188   1.071999   2.143366   3.402596   4.500475
    15  H    3.400983   2.148953   1.071393   2.139221   2.550412
    16  H    4.632567   4.290100   3.094264   1.924367   0.978592
                   11         12         13         14         15
    11  H    0.000000
    12  H    3.284215   0.000000
    13  H    5.681238   2.448111   0.000000
    14  H    6.970287   4.269576   2.483860   0.000000
    15  H    6.569483   4.938941   4.289775   2.470487   0.000000
    16  H    4.407886   4.707430   5.688896   5.194542   3.374577
                   16
    16  H    0.000000
 Stoichiometry    C7H6O3
 Framework group  C1[X(C7H6O3)]
 Deg. of freedom    42
 Full point group                 C1      NOp   1
 RotChk:  IX=0 Diff= 1.39D-02
 Largest Abelian subgroup         C1      NOp   1
 Largest concise Abelian subgroup C1      NOp   1
                         Standard orientation:                         
 ---------------------------------------------------------------------
 Center     Atomic      Atomic             Coordinates (Angstroms)
 Number     Number       Type             X           Y           Z
 ---------------------------------------------------------------------
      1          8           0        2.371336    0.844453   -0.144816
      2          6           0        1.683678   -0.190335   -0.025950
      3          8           0        2.270742   -1.402927    0.092900
      4          6           0        0.233582   -0.207458   -0.003124
      5          6           0       -0.441142   -1.453458   -0.004298
      6          6           0       -1.835304   -1.524981   -0.015096
      7          6           0       -2.589836   -0.342171   -0.020036
      8          6           0       -1.948348    0.901566   -0.003993
      9          6           0       -0.547601    0.985304    0.012688
     10          8           0       -0.011110    2.245623    0.019412
     11          1           0        3.243307   -1.341040    0.056303
     12          1           0        0.123113   -2.364465    0.000977
     13          1           0       -2.322221   -2.479344   -0.018706
     14          1           0       -3.660818   -0.387091   -0.032753
     15          1           0       -2.523163    1.805704   -0.006333
     16          1           0        0.761869    2.258244    0.619400
 ---------------------------------------------------------------------
 Rotational constants (GHZ):           2.2599644           1.2125596           0.7913158
 Leave Link  202 at Mon Feb 22 21:30:06 2021, MaxMem=   104857600 cpu:               0.4 elap:               0.0
 (Enter /sw/arch/RedHatEnterpriseServer7/EB_production/2019/software/Gaussian/g16.c01/l301.exe)
 Standard basis: TZVP (5D, 7F)
 Ernie: Thresh=  0.10000D-02 Tol=  0.10000D-05 Strict=F.
 There are   236 symmetry adapted cartesian basis functions of A   symmetry.
 There are   226 symmetry adapted basis functions of A   symmetry.
   226 basis functions,   398 primitive gaussians,   236 cartesian basis functions
    36 alpha electrons       36 beta electrons
       nuclear repulsion energy       498.3867585084 Hartrees.
 IExCor=  404 DFT=T Ex=B Corr=P86 ExCW=0 ScaHFX=  0.000000
 ScaDFX=  1.000000  1.000000  1.000000  1.000000 ScalE2=  1.000000  1.000000
 IRadAn=      5 IRanWt=     -1 IRanGd=            0 ICorTp=0 IEmpDi=131
 NAtoms=   16 NActive=   16 NUniq=   16 SFac= 1.00D+00 NAtFMM=   60 NAOKFM=F Big=F
 Integral buffers will be    131072 words long.
 Raffenetti 2 integral format.
 Two-electron integral symmetry is turned on.
 R6Disp:  Grimme-D3 Dispersion energy=       -0.0131017201 Hartrees.
 Nuclear repulsion after empirical dispersion term =      498.3736567884 Hartrees.
 ------------------------------------------------------------------------------
 Polarizable Continuum Model (PCM)
 =================================
 Model                : PCM.
 Atomic radii         : UFF (Universal Force Field).
 Polarization charges : Total charges.
 Charge compensation  : None.
 Solution method      : On-the-fly selection.
 Cavity type          : Scaled VdW (van der Waals Surface) (Alpha=1.100).
 Cavity algorithm     : GePol (No added spheres)
                        Default sphere list used, NSphG=   16.
                        Lebedev-Laikov grids with approx.  5.0 points / Ang**2.
                        Smoothing algorithm: York/Karplus (Gamma=1.0000).
                        Polarization charges: spherical gaussians, with
                                              point-specific exponents (IZeta= 3).
                        Self-potential: point-specific (ISelfS= 7).
                        Self-field    : sphere-specific E.n sum rule (ISelfD= 2).
 1st derivatives      : Analytical E(r).r(x)/FMM algorithm (CHGder, D1EAlg=3).
                        Cavity 1st derivative terms included.
 Solvent              : Water, Eps=  78.355300 Eps(inf)=   1.777849
 ------------------------------------------------------------------------------
 Spheres list:
 ISph  on   Nord     Re0    Alpha      Xe            Ye            Ze
    1   O      1    1.7500  1.100      2.371336      0.844453     -0.144816
    2   C      2    1.9255  1.100      1.683678     -0.190335     -0.025950
    3   O      3    1.7500  1.100      2.270742     -1.402927      0.092900
    4   C      4    1.9255  1.100      0.233582     -0.207458     -0.003124
    5   C      5    1.9255  1.100     -0.441142     -1.453458     -0.004298
    6   C      6    1.9255  1.100     -1.835304     -1.524981     -0.015096
    7   C      7    1.9255  1.100     -2.589836     -0.342171     -0.020036
    8   C      8    1.9255  1.100     -1.948348      0.901566     -0.003993
    9   C      9    1.9255  1.100     -0.547601      0.985304      0.012688
   10   O     10    1.7500  1.100     -0.011110      2.245623      0.019412
   11   H     11    1.4430  1.100      3.243307     -1.341040      0.056303
   12   H     12    1.4430  1.100      0.123113     -2.364465      0.000977
   13   H     13    1.4430  1.100     -2.322221     -2.479344     -0.018706
   14   H     14    1.4430  1.100     -3.660818     -0.387091     -0.032753
   15   H     15    1.4430  1.100     -2.523163      1.805704     -0.006333
   16   H     16    1.4430  1.100      0.761869      2.258244      0.619400
 ------------------------------------------------------------------------------
 GePol: Number of generator spheres                  =      16
 GePol: Total number of spheres                      =      16
 GePol: Number of exposed spheres                    =      16 (100.00%)
 GePol: Number of points                             =    1428
 GePol: Average weight of points                     =       0.13
 GePol: Minimum weight of points                     =   0.68D-10
 GePol: Maximum weight of points                     =    0.20577
 GePol: Number of points with low weight             =      58
 GePol: Fraction of low-weight points (<1% of avg)   =       4.06%
 GePol: Cavity surface area                          =    187.304 Ang**2
 GePol: Cavity volume                                =    186.748 Ang**3
 Leave Link  301 at Mon Feb 22 21:30:06 2021, MaxMem=   104857600 cpu:               1.7 elap:               0.1
 (Enter /sw/arch/RedHatEnterpriseServer7/EB_production/2019/software/Gaussian/g16.c01/l302.exe)
 NPDir=0 NMtPBC=     1 NCelOv=     1 NCel=       1 NClECP=     1 NCelD=      1
         NCelK=      1 NCelE2=     1 NClLst=     1 CellRange=     0.0.
 One-electron integrals computed using PRISM.
 One-electron integral symmetry used in STVInt
 PrsmSu:  requested number of processors reduced to:  29 ShMem   1 Linda.
 NBasis=   226 RedAO= T EigKep=  1.10D-05  NBF=   226
 NBsUse=   226 1.00D-06 EigRej= -1.00D+00 NBFU=   226
 Precomputing XC quadrature grid using
 IXCGrd= 4 IRadAn=           5 IRanWt=          -1 IRanGd=           0 AccXCQ= 0.00D+00.
 Generated NRdTot=       0 NPtTot=           0 NUsed=           0 NTot=          32
 NSgBfM=   235   235   235   235   235 MxSgAt=    16 MxSgA2=    16.
 Leave Link  302 at Mon Feb 22 21:30:06 2021, MaxMem=   104857600 cpu:               9.1 elap:               0.3
 (Enter /sw/arch/RedHatEnterpriseServer7/EB_production/2019/software/Gaussian/g16.c01/l303.exe)
 DipDrv:  MaxL=1.
 Leave Link  303 at Mon Feb 22 21:30:06 2021, MaxMem=   104857600 cpu:               2.6 elap:               0.1
 (Enter /sw/arch/RedHatEnterpriseServer7/EB_production/2019/software/Gaussian/g16.c01/l401.exe)
 Initial guess from the checkpoint file:  "YGSDEFSMJLZEOE-UHFFFAOYSA-N.chk"
 B after Tr=    -0.000000   -0.000000   -0.000000
         Rot=    0.999991    0.000243    0.000555    0.004103 Ang=   0.48 deg.
 Guess basis will be translated and rotated to current coordinates.
 JPrj=2 DoOrth=T DoCkMO=T.
 Generating alternative initial guess.
 ExpMin= 9.52D-02 ExpMax= 2.70D+04 ExpMxC= 9.22D+02 IAcc=3 IRadAn=         5 AccDes= 0.00D+00
 Harris functional with IExCor=  404 and IRadAn=       5 diagonalized for initial guess.
 HarFok:  IExCor=  404 AccDes= 0.00D+00 IRadAn=         5 IDoV= 1 UseB2=F ITyADJ=14
 ICtDFT=  3500011 ScaDFX=  1.000000  1.000000  1.000000  1.000000
 FoFCou: FMM=F IPFlag=           0 FMFlag=      100000 FMFlg1=           0
         NFxFlg=           0 DoJE=T BraDBF=F KetDBF=T FulRan=T
         wScrn=  0.000000 ICntrl=       500 IOpCl=  0 I1Cent=   200000004 NGrid=           0
         NMat0=    1 NMatS0=      1 NMatT0=    0 NMatD0=    1 NMtDS0=    0 NMtDT0=    0
 Petite list used in FoFCou.
 Harris En= -496.376466036907    
 Leave Link  401 at Mon Feb 22 21:30:07 2021, MaxMem=   104857600 cpu:              12.5 elap:               0.4
 (Enter /sw/arch/RedHatEnterpriseServer7/EB_production/2019/software/Gaussian/g16.c01/l502.exe)
 Integral symmetry usage will be decided dynamically.
 Closed shell SCF:
 Using DIIS extrapolation, IDIIS=  1040.
 NGot=   104857600 LenX=   104735902 LenY=   104679765
 Requested convergence on RMS density matrix=1.00D-08 within 128 cycles.
 Requested convergence on MAX density matrix=1.00D-06.
 Requested convergence on             energy=1.00D-06.
 No special actions if energy rises.
 Fock matrices will be formed incrementally for  20 cycles.

 Cycle   1  Pass 1  IDiag  1:
 FoFJK:  IHMeth= 1 ICntrl=     500 DoSepK=F KAlg= 0 I1Cent=           0 FoldK=F
 IRaf= 920000000 NMat=       1 IRICut=       1 DoRegI=T DoRafI=F ISym2E= 0 IDoP0=0 IntGTp=1.
 FoFCou: FMM=F IPFlag=           0 FMFlag=      100000 FMFlg1=           0
         NFxFlg=           0 DoJE=T BraDBF=F KetDBF=F FulRan=T
         wScrn=  0.000000 ICntrl=       500 IOpCl=  0 I1Cent=           0 NGrid=           0
         NMat0=    1 NMatS0=      1 NMatT0=    0 NMatD0=    1 NMtDS0=    0 NMtDT0=    0
 Symmetry not used in FoFCou.
 Inv3:  Mode=1 IEnd=     6117552.
 Iteration    1 A*A^-1 deviation from unit magnitude is 3.55D-15 for   1272.
 Iteration    1 A*A^-1 deviation from orthogonality  is 1.88D-15 for    935    254.
 Iteration    1 A^-1*A deviation from unit magnitude is 2.89D-15 for   1272.
 Iteration    1 A^-1*A deviation from orthogonality  is 2.45D-15 for    878    286.
 E= -496.234976366402    
 DIIS: error= 3.49D-03 at cycle   1 NSaved=   1.
 NSaved= 1 IEnMin= 1 EnMin= -496.234976366402     IErMin= 1 ErrMin= 3.49D-03
 ErrMax= 3.49D-03  0.00D+00 EMaxC= 1.00D-01 BMatC= 9.33D-03 BMatP= 9.33D-03
 IDIUse=3 WtCom= 9.65D-01 WtEn= 3.49D-02
 Coeff-Com:  0.100D+01
 Coeff-En:   0.100D+01
 Coeff:      0.100D+01
 Gap=     0.616 Goal=   None    Shift=    0.000
 GapD=    0.616 DampG=2.000 DampE=1.000 DampFc=2.0000 IDamp=-1.
 RMSDP=2.01D-03 MaxDP=8.26D-02              OVMax= 2.76D-02

 Cycle   2  Pass 1  IDiag  1:
 RMSU=  1.90D-03    CP:  9.59D-01
 E= -496.245675568026     Delta-E=       -0.010699201624 Rises=F Damp=F
 DIIS: error= 2.44D-03 at cycle   2 NSaved=   2.
 NSaved= 2 IEnMin= 2 EnMin= -496.245675568026     IErMin= 2 ErrMin= 2.44D-03
 ErrMax= 2.44D-03  0.00D+00 EMaxC= 1.00D-01 BMatC= 1.58D-03 BMatP= 9.33D-03
 IDIUse=3 WtCom= 9.76D-01 WtEn= 2.44D-02
 Coeff-Com:  0.182D+00 0.818D+00
 Coeff-En:   0.000D+00 0.100D+01
 Coeff:      0.177D+00 0.823D+00
 Gap=     0.127 Goal=   None    Shift=    0.000
 RMSDP=7.32D-04 MaxDP=2.68D-02 DE=-1.07D-02 OVMax= 4.32D-02

 Cycle   3  Pass 1  IDiag  1:
 RMSU=  7.16D-04    CP:  9.64D-01  9.28D-01
 E= -496.240992268810     Delta-E=        0.004683299216 Rises=F Damp=F
 DIIS: error= 5.96D-03 at cycle   3 NSaved=   3.
 NSaved= 3 IEnMin= 2 EnMin= -496.245675568026     IErMin= 2 ErrMin= 2.44D-03
 ErrMax= 5.96D-03  0.00D+00 EMaxC= 1.00D-01 BMatC= 7.80D-03 BMatP= 1.58D-03
 IDIUse=3 WtCom= 1.15D-01 WtEn= 8.85D-01
 Coeff-Com:  0.209D-01 0.681D+00 0.298D+00
 Coeff-En:   0.000D+00 0.758D+00 0.242D+00
 Coeff:      0.239D-02 0.749D+00 0.248D+00
 Gap=     0.126 Goal=   None    Shift=    0.000
 RMSDP=4.28D-04 MaxDP=1.41D-02 DE= 4.68D-03 OVMax= 2.65D-02

 Cycle   4  Pass 1  IDiag  1:
 RMSU=  1.15D-04    CP:  9.59D-01  9.80D-01  4.50D-01
 E= -496.246611035908     Delta-E=       -0.005618767098 Rises=F Damp=F
 DIIS: error= 1.18D-03 at cycle   4 NSaved=   4.
 NSaved= 4 IEnMin= 4 EnMin= -496.246611035908     IErMin= 4 ErrMin= 1.18D-03
 ErrMax= 1.18D-03  0.00D+00 EMaxC= 1.00D-01 BMatC= 3.60D-04 BMatP= 1.58D-03
 IDIUse=3 WtCom= 9.88D-01 WtEn= 1.18D-02
 Coeff-Com:  0.253D-02 0.345D+00 0.210D-01 0.632D+00
 Coeff-En:   0.000D+00 0.248D+00 0.000D+00 0.752D+00
 Coeff:      0.250D-02 0.344D+00 0.208D-01 0.633D+00
 Gap=     0.125 Goal=   None    Shift=    0.000
 RMSDP=1.27D-04 MaxDP=4.50D-03 DE=-5.62D-03 OVMax= 5.39D-03

 Cycle   5  Pass 1  IDiag  1:
 RMSU=  5.16D-05    CP:  9.58D-01  9.97D-01  2.96D-01  8.54D-01
 E= -496.246880785722     Delta-E=       -0.000269749814 Rises=F Damp=F
 DIIS: error= 1.61D-04 at cycle   5 NSaved=   5.
 NSaved= 5 IEnMin= 5 EnMin= -496.246880785722     IErMin= 5 ErrMin= 1.61D-04
 ErrMax= 1.61D-04  0.00D+00 EMaxC= 1.00D-01 BMatC= 1.42D-05 BMatP= 3.60D-04
 IDIUse=3 WtCom= 9.98D-01 WtEn= 1.61D-03
 Coeff-Com:  0.380D-04 0.159D+00-0.152D-01 0.420D+00 0.436D+00
 Coeff-En:   0.000D+00 0.000D+00 0.000D+00 0.000D+00 0.100D+01
[...]
     11          1           0        3.234480   -1.288188   -0.001030
     12          1           0        0.025359   -2.407968    0.000959
     13          1           0       -2.465352   -2.404896    0.000763
     14          1           0       -3.695465   -0.227043   -0.000746
     15          1           0       -2.441456    1.927427   -0.000579
     16          1           0        1.106819    1.974306   -0.000018
 ---------------------------------------------------------------------
 Rotational constants (GHZ):           2.3233708           1.2128743           0.7968783
 Standard basis: TZVP (5D, 7F)
 There are   236 symmetry adapted cartesian basis functions of A   symmetry.
 There are   226 symmetry adapted basis functions of A   symmetry.
   226 basis functions,   398 primitive gaussians,   236 cartesian basis functions
    36 alpha electrons       36 beta electrons
       nuclear repulsion energy       500.5932165210 Hartrees.
 NAtoms=   16 NActive=   16 NUniq=   16 SFac= 1.00D+00 NAtFMM=   60 NAOKFM=F Big=F
 Integral buffers will be    131072 words long.
 Raffenetti 2 integral format.
 Two-electron integral symmetry is turned on.
 Warning! Using old PCM defaults because the COSMOthermo output has been requested.
 These settings can be overridden by following keywords.
 ------------------------------------------------------------------------------
 Polarizable Continuum Model (PCM)
 =================================
 Model                : C-PCM.
 Atomic radii         : Klamt.
 XCosmo               : -1.000 (infinite dielectric limit)
 Polarization charges : Electronic and nuclear charges.
 Charge compensation  : Type 3 (Electronic density weighted correction).
 Solution method      : On-the-fly selection.
 Cavity type          : VdW (van der Waals Surface) (Alpha=1.000).
 Cavity algorithm     : GePol (No added spheres)
                        Default sphere list used, NSphG=   16.
                        Tesserae with average area of 0.200 Ang**2.
                        Smoothing algorithm: None.
                        Polarization charges: point-like.
                        Self-potential: constant (ISelfS= 1).
                        Self-field    : global E.n sum rule (ISelfD= 3).
 Solvent              : Water, Eps=  78.355300 Eps(inf)=   1.777849
 ------------------------------------------------------------------------------
 Spheres list:
 ISph  on   Nord     Re0    Alpha      Xe            Ye            Ze
    1   O      1    1.7200  1.000      2.336689      0.826070      0.000730
    2   C      2    2.0000  1.000      1.667894     -0.223268      0.000096
    3   O      3    1.7200  1.000      2.264789     -1.436594     -0.000999
    4   C      4    2.0000  1.000      0.201760     -0.254709      0.000554
    5   C      5    2.0000  1.000     -0.524709     -1.466430      0.000516
    6   C      6    2.0000  1.000     -1.914044     -1.463853      0.000192
    7   C      7    2.0000  1.000     -2.603466     -0.236247     -0.000349
    8   C      8    2.0000  1.000     -1.913755      0.972393     -0.000233
    9   C      9    2.0000  1.000     -0.507259      0.983023      0.000057
   10   O     10    1.7200  1.000      0.123159      2.180637     -0.000274
   11   H     11    1.3000  1.000      3.234480     -1.288188     -0.001030
   12   H     12    1.3000  1.000      0.025359     -2.407968      0.000959
   13   H     13    1.3000  1.000     -2.465352     -2.404896      0.000763
   14   H     14    1.3000  1.000     -3.695465     -0.227043     -0.000746
   15   H     15    1.3000  1.000     -2.441456      1.927427     -0.000579
   16   H     16    1.3000  1.000      1.106819      1.974306     -0.000018
 ------------------------------------------------------------------------------
 One-electron integrals computed using PRISM.
 PrsmSu:  requested number of processors reduced to:  29 ShMem   1 Linda.
 NBasis=   226 RedAO= T EigKep=  1.11D-05  NBF=   226
 NBsUse=   226 1.00D-06 EigRej= -1.00D+00 NBFU=   226
 Initial guess from the checkpoint file:  "YGSDEFSMJLZEOE-UHFFFAOYSA-N.chk"
 B after Tr=    -0.000000    0.000000    0.000000
         Rot=    1.000000   -0.000000    0.000000   -0.000000 Ang=   0.00 deg.
 Requested convergence on RMS density matrix=1.00D-08 within 128 cycles.
 Requested convergence on MAX density matrix=1.00D-06.
 Requested convergence on             energy=1.00D-06.
 No special actions if energy rises.
 Inv3:  Mode=1 IEnd=     4184283.
 Iteration    1 A*A^-1 deviation from unit magnitude is 1.89D-14 for    840.
 Iteration    1 A*A^-1 deviation from orthogonality  is 2.15D-14 for    840    319.
 Iteration    1 A^-1*A deviation from unit magnitude is 9.99D-15 for    840.
 Iteration    1 A^-1*A deviation from orthogonality  is 1.23D-14 for    840    319.
 Error on nuclear    polarization charges =  0.02351
 Error on electronic polarization charges = -0.04934
 SCF Done:  E(RB-P86) =  -496.254959324     A.U. after   11 cycles
            NFock= 11  Conv=0.45D-08     -V/T= 2.0043
 --------------------------------------------------------------------
 Variational C-PCM results
 =========================
 <psi(f)|   H    |psi(f)>                     (a.u.) =    -496.239830
 <psi(f)|H+V(f)/2|psi(f)>                     (a.u.) =    -496.254959
 Total free energy in solution:
 - with all non electrostatic terms           (a.u.) =    -496.245419
 --------------------------------------------------------------------
 (Polarized solute)-Solvent               (kcal/mol) =      -9.49
 --------------------------------------------------------------------
 Cavitation energy                        (kcal/mol) =      20.29
 Dispersion energy                        (kcal/mol) =     -15.56
 Repulsion energy                         (kcal/mol) =       1.25
 Total non electrostatic                  (kcal/mol) =       5.99
 --------------------------------------------------------------------
 Partition over spheres:
 Sphere  on Atom  Surface  Charge   GEl     GCav    GDR
    1      O1      16.62   0.150   -1.44    2.07   -1.56
    2      C2      10.52  -0.044   -0.20    1.24   -0.82
    3      O3      14.51   0.064   -0.46    1.80   -1.27
    4      C4       5.77   0.006   -0.04    0.68   -0.37
    5      C5      12.62   0.015   -0.11    1.48   -0.96
    6      C6      14.06   0.028   -0.16    1.65   -1.04
    7      C7      13.91   0.014   -0.17    1.63   -1.01
    8      C8      13.68   0.020   -0.15    1.61   -1.02
    9      C9       7.84  -0.001   -0.05    0.92   -0.57
   10      O10     16.26   0.127   -1.89    2.02   -1.64
   11      H11      8.40  -0.157   -3.29    1.19   -0.90
   12      H12      5.75  -0.042   -0.32    0.81   -0.59
   13      H13      6.42  -0.044   -0.43    0.91   -0.80
   14      H14      6.44  -0.046   -0.47    0.91   -0.80
   15      H15      6.43  -0.047   -0.25    0.91   -0.77
   16      H16      3.37  -0.043   -0.06    0.48   -0.19
 --------------------------------------------------------------------
 - cavitation energy not included in the total energy.
 - dispersion energy not included in the total energy.
 - repulsion  energy not included in the total energy.
 After PCM corrections, the energy is  -496.254959324     a.u.
 --------------------------------------------------------------------
 Writing COSMO formatted file "YGSDEFSMJLZEOE-UHFFFAOYSA-N.cosmo"
 Recomputed dielectric energy= -0.015185 old= -0.015129 diff=-5.58D-05

 **********************************************************************

            Population analysis using the SCF Density.

 **********************************************************************

 Orbital symmetries:
       Occupied  (A) (A) (A) (A) (A) (A) (A) (A) (A) (A) (A) (A)
                 (A) (A) (A) (A) (A) (A) (A) (A) (A) (A) (A) (A)
                 (A) (A) (A) (A) (A) (A) (A) (A) (A) (A) (A) (A)
       Virtual   (A) (A) (A) (A) (A) (A) (A) (A) (A) (A) (A) (A)
                 (A) (A) (A) (A) (A) (A) (A) (A) (A) (A) (A) (A)
                 (A) (A) (A) (A) (A) (A) (A) (A) (A) (A) (A) (A)
                 (A) (A) (A) (A) (A) (A) (A) (A) (A) (A) (A) (A)
                 (A) (A) (A) (A) (A) (A) (A) (A) (A) (A) (A) (A)
                 (A) (A) (A) (A) (A) (A) (A) (A) (A) (A) (A) (A)
                 (A) (A) (A) (A) (A) (A) (A) (A) (A) (A) (A) (A)
                 (A) (A) (A) (A) (A) (A) (A) (A) (A) (A) (A) (A)
                 (A) (A) (A) (A) (A) (A) (A) (A) (A) (A) (A) (A)
                 (A) (A) (A) (A) (A) (A) (A) (A) (A) (A) (A) (A)
                 (A) (A) (A) (A) (A) (A) (A) (A) (A) (A) (A) (A)
                 (A) (A) (A) (A) (A) (A) (A) (A) (A) (A) (A) (A)
                 (A) (A) (A) (A) (A) (A) (A) (A) (A) (A) (A) (A)
                 (A) (A) (A) (A) (A) (A) (A) (A) (A) (A) (A) (A)
                 (A) (A) (A) (A) (A) (A) (A) (A) (A) (A) (A) (A)
                 (A) (A) (A) (A) (A) (A) (A) (A) (A) (A)
 The electronic state is 1-A.
 Alpha  occ. eigenvalues --  -18.82902 -18.80388 -18.78402 -10.04637  -9.98267
 Alpha  occ. eigenvalues --   -9.93017  -9.92044  -9.91889  -9.91022  -9.90760
 Alpha  occ. eigenvalues --   -1.03480  -0.98677  -0.94625  -0.79398  -0.71387
 Alpha  occ. eigenvalues --   -0.68585  -0.61519  -0.57230  -0.55559  -0.49744
 Alpha  occ. eigenvalues --   -0.47722  -0.45985  -0.43563  -0.42486  -0.41741
 Alpha  occ. eigenvalues --   -0.39841  -0.37517  -0.36801  -0.35743  -0.33976
 Alpha  occ. eigenvalues --   -0.31693  -0.31550  -0.30038  -0.26156  -0.25145
 Alpha  occ. eigenvalues --   -0.21767
 Alpha virt. eigenvalues --   -0.09775  -0.04577  -0.00589   0.02801   0.04527
 Alpha virt. eigenvalues --    0.06162   0.07776   0.09865   0.10473   0.10918
 Alpha virt. eigenvalues --    0.11542   0.12877   0.16471   0.16718   0.16783
 Alpha virt. eigenvalues --    0.18035   0.18379   0.18583   0.20592   0.22256
 Alpha virt. eigenvalues --    0.22667   0.23900   0.24439   0.25868   0.27486
 Alpha virt. eigenvalues --    0.27757   0.28969   0.29250   0.29609   0.31066
 Alpha virt. eigenvalues --    0.32200   0.32821   0.34896   0.36261   0.37432
 Alpha virt. eigenvalues --    0.38161   0.39286   0.39857   0.40961   0.42688
 Alpha virt. eigenvalues --    0.43229   0.44304   0.45418   0.46005   0.46604
 Alpha virt. eigenvalues --    0.47020   0.51139   0.51475   0.52525   0.54365
 Alpha virt. eigenvalues --    0.55525   0.57172   0.60396   0.61512   0.62836
 Alpha virt. eigenvalues --    0.64967   0.65979   0.69896   0.71456   0.72916
 Alpha virt. eigenvalues --    0.75509   0.77998   0.83520   0.84728   0.88338
 Alpha virt. eigenvalues --    0.94250   1.10444   1.12771   1.15978   1.17990
 Alpha virt. eigenvalues --    1.18216   1.19790   1.20472   1.21166   1.22683
 Alpha virt. eigenvalues --    1.24464   1.27399   1.28460   1.29011   1.30945
 Alpha virt. eigenvalues --    1.32280   1.35083   1.36180   1.36374   1.36853
 Alpha virt. eigenvalues --    1.37321   1.39507   1.40185   1.41191   1.41821
 Alpha virt. eigenvalues --    1.43947   1.44334   1.45438   1.45801   1.46230
 Alpha virt. eigenvalues --    1.47414   1.48906   1.51260   1.56992   1.61886
 Alpha virt. eigenvalues --    1.66335   1.69499   1.70795   1.71390   1.74146
 Alpha virt. eigenvalues --    1.78017   1.79732   1.80294   1.82553   1.83314
 Alpha virt. eigenvalues --    1.86704   1.88857   1.89525   1.89538   1.94284
 Alpha virt. eigenvalues --    1.96147   1.99201   2.01738   2.09425   2.12404
 Alpha virt. eigenvalues --    2.15523   2.16358   2.17915   2.19296   2.20465
 Alpha virt. eigenvalues --    2.22347   2.23187   2.23469   2.26432   2.27997
 Alpha virt. eigenvalues --    2.34201   2.40740   2.42517   2.43577   2.45498
 Alpha virt. eigenvalues --    2.47251   2.50274   2.51080   2.51763   2.53353
 Alpha virt. eigenvalues --    2.55772   2.56348   2.57237   2.57530   2.63670
 Alpha virt. eigenvalues --    2.65041   2.66955   2.69661   2.71517   2.78327
 Alpha virt. eigenvalues --    2.78789   2.82581   2.85323   2.86320   2.89189
 Alpha virt. eigenvalues --    2.90778   2.91651   2.93251   2.94598   2.97077
 Alpha virt. eigenvalues --    2.99835   3.01888   3.05580   3.06516   3.06890
 Alpha virt. eigenvalues --    3.09273   3.10667   3.15207   3.17097   3.21446
 Alpha virt. eigenvalues --    3.28801   3.29589   3.41779   3.47770   3.56448
 Alpha virt. eigenvalues --    3.84275   3.94405   4.05996   4.18914   4.21809
 Alpha virt. eigenvalues --   21.03997  21.51449  21.60012  21.74120  21.80259
 Alpha virt. eigenvalues --   21.83970  21.93357  43.06830  43.13558  43.23068
          Condensed to atoms (all electrons):
               1          2          3          4          5          6
     1  O    8.070186   0.530541  -0.086747  -0.126046   0.008333  -0.000428
     2  C    0.530541   4.988762   0.383628   0.087950  -0.047258   0.009392
     3  O   -0.086747   0.383628   7.833063  -0.175670   0.008409  -0.001130
     4  C   -0.126046   0.087950  -0.175670   6.713706   0.043916   0.091517
     5  C    0.008333  -0.047258   0.008409   0.043916   5.329593   0.321760
     6  C   -0.000428   0.009392  -0.001130   0.091517   0.321760   5.193630
     7  C   -0.000533   0.010381   0.000280  -0.140927   0.003181   0.347098
     8  C    0.007552   0.007833   0.000444   0.046930  -0.133227   0.040816
     9  C   -0.009173  -0.127813   0.002048  -0.224115   0.125085  -0.157591
    10  O   -0.055069  -0.016561  -0.000656  -0.116591   0.009764  -0.000150
    11  H    0.002045  -0.020869   0.289667   0.023024  -0.000665  -0.000032
    12  H    0.000403  -0.022730   0.014674  -0.052541   0.425579  -0.046155
    13  H    0.000004  -0.000902  -0.000089   0.017201  -0.055742   0.433235
    14  H   -0.000003  -0.000094  -0.000001  -0.008328   0.022213  -0.073106
    15  H    0.000150  -0.001105   0.000011   0.030010  -0.003790   0.014871
    16  H    0.062468  -0.030701   0.001130  -0.010164   0.002097   0.000125
               7          8          9         10         11         12
     1  O   -0.000533   0.007552  -0.009173  -0.055069   0.002045   0.000403
     2  C    0.010381   0.007833  -0.127813  -0.016561  -0.020869  -0.022730
     3  O    0.000280   0.000444   0.002048  -0.000656   0.289667   0.014674
     4  C   -0.140927   0.046930  -0.224115  -0.116591   0.023024  -0.052541
     5  C    0.003181  -0.133227   0.125085   0.009764  -0.000665   0.425579
     6  C    0.347098   0.040816  -0.157591  -0.000150  -0.000032  -0.046155
     7  C    5.095717   0.346792   0.072185   0.006773   0.000028   0.011854
     8  C    0.346792   5.372698   0.242643  -0.079287  -0.000021  -0.001967
     9  C    0.072185   0.242643   5.543170   0.428679  -0.000695   0.013677
    10  O    0.006773  -0.079287   0.428679   7.807048   0.000082   0.000029
    11  H    0.000028  -0.000021  -0.000695   0.000082   0.367535  -0.000228
    12  H    0.011854  -0.001967   0.013677   0.000029  -0.000228   0.498730
    13  H   -0.062710   0.015149  -0.002912   0.000011  -0.000003  -0.006083
    14  H    0.451493  -0.075702   0.025334  -0.000143   0.000000  -0.000106
    15  H   -0.054805   0.429230  -0.084859   0.004519  -0.000002   0.000008
    16  H   -0.001670   0.013353  -0.019721   0.289248   0.000114  -0.000077
              13         14         15         16
     1  O    0.000004  -0.000003   0.000150   0.062468
     2  C   -0.000902  -0.000094  -0.001105  -0.030701
     3  O   -0.000089  -0.000001   0.000011   0.001130
     4  C    0.017201  -0.008328   0.030010  -0.010164
     5  C   -0.055742   0.022213  -0.003790   0.002097
     6  C    0.433235  -0.073106   0.014871   0.000125
     7  C   -0.062710   0.451493  -0.054805  -0.001670
     8  C    0.015149  -0.075702   0.429230   0.013353
     9  C   -0.002912   0.025334  -0.084859  -0.019721
    10  O    0.000011  -0.000143   0.004519   0.289248
    11  H   -0.000003   0.000000  -0.000002   0.000114
    12  H   -0.006083  -0.000106   0.000008  -0.000077
    13  H    0.514801  -0.006937  -0.000096   0.000001
    14  H   -0.006937   0.519746  -0.008629   0.000022
    15  H   -0.000096  -0.008629   0.515316   0.000094
    16  H    0.000001   0.000022   0.000094   0.388849
 Mulliken charges:
               1
     1  O   -0.403683
     2  C    0.249545
     3  O   -0.269060
     4  C   -0.199870
     5  C   -0.059245
     6  C   -0.173853
     7  C   -0.085136
     8  C   -0.233235
     9  C    0.174059
    10  O   -0.277698
    11  H    0.340019
    12  H    0.164933
    13  H    0.155072
    14  H    0.154240
    15  H    0.159078
    16  H    0.304832
 Sum of Mulliken charges =  -0.00000
 Mulliken charges with hydrogens summed into heavy atoms:
               1
     1  O   -0.403683
     2  C    0.249545
     3  O    0.070960
     4  C   -0.199870
     5  C    0.105688
     6  C   -0.018780
     7  C    0.069105
     8  C   -0.074157
     9  C    0.174059
    10  O    0.027134
 Electronic spatial extent (au):  <R**2>=           1357.9255
 Charge=             -0.0000 electrons
 Dipole moment (field-independent basis, Debye):
    X=             -0.3110    Y=             -3.1064    Z=             -0.0005  Tot=              3.1219
 Quadrupole moment (field-independent basis, Debye-Ang):
   XX=            -44.6833   YY=            -58.9225   ZZ=            -60.2427
   XY=             -4.2113   XZ=             -0.0034   YZ=             -0.0047
 Traceless Quadrupole moment (field-independent basis, Debye-Ang):
   XX=              9.9329   YY=             -4.3064   ZZ=             -5.6265
   XY=             -4.2113   XZ=             -0.0034   YZ=             -0.0047
 Octapole moment (field-independent basis, Debye-Ang**2):
  XXX=             21.6459  YYY=            -13.6960  ZZZ=             -0.0034  XYY=              1.8463
  XXY=            -19.8672  XXZ=             -0.0248  XZZ=             12.5162  YZZ=              2.9880
  YYZ=              0.0091  XYZ=              0.0017
 Hexadecapole moment (field-independent basis, Debye-Ang**3):
 XXXX=           -874.7934 YYYY=           -595.7407 ZZZZ=            -63.0845 XXXY=            -88.1891
 XXXZ=             -0.0460 YYYX=              8.0509 YYYZ=             -0.0174 ZZZX=             -0.0058
 ZZZY=              0.0062 XXYY=           -244.9981 XXZZ=           -204.8537 YYZZ=           -116.2500
 XXYZ=             -0.0098 YYXZ=             -0.0100 ZZXY=             -3.9700
 N-N= 5.005932165210D+02 E-N=-2.162252039240D+03  KE= 4.941283863463D+02
 Unable to Open any file for archive entry.
 1\1\GINC-TCN1626\SP\RBP86\TZVP\C7H6O3\ELENAA\22-Feb-2021\0\\# BP86/TZV
 P SCRF=COSMORS geom=CHECKPOINT guess=CHECKPOINT\\COSMO-file for #YGSDE
 FSMJLZEOE-UHFFFAOYSA-N\\0,1\O,0,-1.5166512079,-1.4913403886,-2.9195158
 585\C,0,-1.2262815492,-0.4705398571,-2.2698628642\O,0,-0.9945754027,-0
 .5273312502,-0.9388739269\C,0,-1.1076855902,0.8656668057,-2.8623356843
 \C,0,-0.7751758431,2.0029477123,-2.0928860059\C,0,-0.6709424229,3.2564
 266261,-2.6829574983\C,0,-0.9005054532,3.3913570142,-4.0654962637\C,0,
 -1.2294518739,2.2884763877,-4.8477751847\C,0,-1.3380417363,1.014261691
 ,-4.2621725481\O,0,-1.6604103494,-0.0306287956,-5.0596610952\H,0,-1.10
 19823124,-1.4618246497,-0.6604680403\H,0,-0.6006915564,1.8802212768,-1
 .0235111263\H,0,-0.4131016382,4.1279303336,-2.0800458722\H,0,-0.820361
 4979,4.3737471086,-4.5356393624\H,0,-1.4086258671,2.3856299665,-5.9196
 966981\H,0,-1.6873356993,-0.8368699813,-4.4601519709\\Version=ES64L-G1
 6RevC.01\State=1-A\HF=-496.2549593\RMSD=4.520e-09\Dipole=0.2890187,0.5
 959803,1.0343561\Quadrupole=-4.1720536,3.155356,1.0166976,0.1414363,-0
 .0759183,-6.0599012\PG=C01 [X(C7H6O3)]\\@
 The archive entry for this job was punched.


 ALMOST ANYTHING IS EASIER TO GET INTO THAN OUT OF.

                         -- AGNES ALLEN'S LAW FROM
                PAUL DICKSON'S "THE OFFICIAL RULES"
 Job cpu time:       0 days  0 hours  6 minutes 24.6 seconds.
 Elapsed time:       0 days  0 hours  0 minutes 12.6 seconds.
 File lengths (MBytes):  RWF=     45 Int=      0 D2E=      0 Chk=      7 Scr=      1
 Normal termination of Gaussian 16 at Mon Feb 22 21:32:10 2021.
