 Entering Gaussian System, Link 0=g16
 Input=YMBCJWGVCUEGHA-UHFFFAOYSA-M.gjf
 Output=YMBCJWGVCUEGHA-UHFFFAOYSA-M.log
 Initial command:
 /sw/arch/RedHatEnterpriseServer7/EB_production/2020/software/Gaussian/g16.c01/l1.exe "/scratch-local/elenaa.10684711/Gau-28944.inp" -scrdir="/scratch-local/elenaa.10684711/"
 Entering Link 1 = /sw/arch/RedHatEnterpriseServer7/EB_production/2020/software/Gaussian/g16.c01/l1.exe PID=     28946.
  
 Copyright (c) 1988-2019, Gaussian, Inc.  All Rights Reserved.
  
 This is part of the Gaussian(R) 16 program.  It is based on
 the Gaussian(R) 09 system (copyright 2009, Gaussian, Inc.),
 the Gaussian(R) 03 system (copyright 2003, Gaussian, Inc.),
 the Gaussian(R) 98 system (copyright 1998, Gaussian, Inc.),
 the Gaussian(R) 94 system (copyright 1995, Gaussian, Inc.),
 the Gaussian 92(TM) system (copyright 1992, Gaussian, Inc.),
 the Gaussian 90(TM) system (copyright 1990, Gaussian, Inc.),
 the Gaussian 88(TM) system (copyright 1988, Gaussian, Inc.),
 the Gaussian 86(TM) system (copyright 1986, Carnegie Mellon
 University), and the Gaussian 82(TM) system (copyright 1983,
 Carnegie Mellon University). Gaussian is a federally registered
 trademark of Gaussian, Inc.
  
 This software contains proprietary and confidential information,
 including trade secrets, belonging to Gaussian, Inc.
  
 This software is provided under written license and may be
 used, copied, transmitted, or stored only in accord with that
 written license.
  
 The following legend is applicable only to US Government
 contracts under FAR:
  
                    RESTRICTED RIGHTS LEGEND
  
 Use, reproduction and disclosure by the US Government is
 subject to restrictions as set forth in subparagraphs (a)
 and (c) of the Commercial Computer Software - Restricted
 Rights clause in FAR 52.227-19.
  
 Gaussian, Inc.
 340 Quinnipiac St., Bldg. 40, Wallingford CT 06492
  
  
 ---------------------------------------------------------------
 Warning -- This program may not be used in any manner that
 competes with the business of Gaussian, Inc. or will provide
 assistance to any competitor of Gaussian, Inc.  The licensee
 of this program is prohibited from giving any competitor of
 Gaussian, Inc. access to this program.  By using this program,
 the user acknowledges that Gaussian, Inc. is engaged in the
 business of creating and licensing software in the field of
 computational chemistry and represents and warrants to the
 licensee that it is not a competitor of Gaussian, Inc. and that
 it will not use this program in any manner prohibited above.
 ---------------------------------------------------------------
  

 Cite this work as:
 Gaussian 16, Revision C.01,
 M. J. Frisch, G. W. Trucks, H. B. Schlegel, G. E. Scuseria, 
 M. A. Robb, J. R. Cheeseman, G. Scalmani, V. Barone, 
 G. A. Petersson, H. Nakatsuji, X. Li, M. Caricato, A. V. Marenich, 
 J. Bloino, B. G. Janesko, R. Gomperts, B. Mennucci, H. P. Hratchian, 
 J. V. Ortiz, A. F. Izmaylov, J. L. Sonnenberg, D. Williams-Young, 
 F. Ding, F. Lipparini, F. Egidi, J. Goings, B. Peng, A. Petrone, 
 T. Henderson, D. Ranasinghe, V. G. Zakrzewski, J. Gao, N. Rega, 
 G. Zheng, W. Liang, M. Hada, M. Ehara, K. Toyota, R. Fukuda, 
 J. Hasegawa, M. Ishida, T. Nakajima, Y. Honda, O. Kitao, H. Nakai, 
 T. Vreven, K. Throssell, J. A. Montgomery, Jr., J. E. Peralta, 
 F. Ogliaro, M. J. Bearpark, J. J. Heyd, E. N. Brothers, K. N. Kudin, 
 V. N. Staroverov, T. A. Keith, R. Kobayashi, J. Normand, 
 K. Raghavachari, A. P. Rendell, J. C. Burant, S. S. Iyengar, 
 J. Tomasi, M. Cossi, J. M. Millam, M. Klene, C. Adamo, R. Cammi, 
 J. W. Ochterski, R. L. Martin, K. Morokuma, O. Farkas, 
 J. B. Foresman, and D. J. Fox, Gaussian, Inc., Wallingford CT, 2019.
 
 ******************************************
 Gaussian 16:  ES64L-G16RevC.01  3-Jul-2019
                21-Aug-2021 
 ******************************************
 %chk=YMBCJWGVCUEGHA-UHFFFAOYSA-M.chk
 %NProcShared=24
 Will use up to   24 processors via shared memory.
 -------------------------------------------------------------
 #P BP86/TZVP EmpiricalDispersion=GD3 SCRF=(Solvent=Water) Opt
 -------------------------------------------------------------
 1/18=20,19=15,26=3,38=1/1,3;
 2/9=110,12=2,17=6,18=5,40=1/2;
 3/5=19,7=101,11=2,25=1,30=1,70=2201,71=1,72=1,74=404,124=31/1,2,3;
 4//1;
 5/5=2,38=5,53=1/2;
 6/7=2,8=2,9=2,10=2,28=1/1;
 7//1,2,3,16;
 1/18=20,19=15,26=3/3(2);
 2/9=110/2;
 99//99;
 2/9=110/2;
 3/5=19,7=101,11=2,25=1,30=1,70=2205,71=1,72=1,74=404,124=31/1,2,3;
 4/5=5,16=3,69=1/1;
 5/5=2,38=5,53=1/2;
 7//1,2,3,16;
 1/18=20,19=15,26=3/3(-5);
 2/9=110/2;
 6/7=2,8=2,9=2,10=2,19=2,28=1/1;
 99/9=1/99;
 Leave Link    1 at Sat Aug 21 09:33:12 2021, MaxMem=           0 cpu:               1.7 elap:               0.1
 (Enter /sw/arch/RedHatEnterpriseServer7/EB_production/2020/software/Gaussian/g16.c01/l101.exe)
 -------------------------------------
 Particle #YMBCJWGVCUEGHA-UHFFFAOYSA-M
 -------------------------------------
 Symbolic Z-matrix:
 Charge =  0 Multiplicity = 1
 C                    -0.53483   0.69275  -1.84702 
 C                     0.36054   1.0052   -0.63354 
 N                     0.54062  -0.10697   0.36764 
 C                     1.44438   0.44444   1.44044 
 C                     2.84444   0.89806   0.98668 
 C                    -0.78421  -0.5069    0.95186 
 C                    -0.76382  -1.639     1.99726 
 C                     1.17074  -1.30406  -0.28533 
 C                     2.06052  -1.0315   -1.51373 
 Cl                   -1.03954   2.89498   2.0051 
 H                    -0.12283  -0.12793  -2.46635 
 H                    -0.57805   1.59322  -2.4955 
 H                    -1.57626   0.46474  -1.54653 
 H                     1.34203   1.34872  -1.0244 
 H                    -0.04778   1.91545  -0.14485 
 H                     1.58324  -0.29368   2.25897 
 H                     0.96722   1.30484   1.95631 
 H                     3.39679   1.27849   1.87179 
 H                     2.79495   1.731     0.25826 
 H                     3.43915   0.0593    0.57479 
 H                    -1.271     0.36324   1.43646 
 H                    -1.47859  -0.82862   0.14981 
 H                    -0.39515  -2.59291   1.57176 
 H                    -0.18111  -1.36413   2.89827 
 H                    -1.80518  -1.82362   2.3363 
 H                     0.39082  -2.02108  -0.61175 
 H                     1.79733  -1.85637   0.44357 
 H                     2.94106  -0.40889  -1.26091 
 H                     1.49098  -0.57876  -2.34893 
 H                     2.45331  -2.0014   -1.8858 
 
 Add virtual bond connecting atoms H15        and Cl10       Dist= 4.84D+00.
 Add virtual bond connecting atoms H17        and Cl10       Dist= 4.84D+00.
 Add virtual bond connecting atoms H21        and Cl10       Dist= 4.92D+00.
 ITRead=  0  0  0  0  0  0  0  0  0  0  0  0  0  0  0  0  0  0  0  0
 ITRead=  0  0  0  0  0  0  0  0  0  0
 MicOpt= -1 -1 -1 -1 -1 -1 -1 -1 -1 -1 -1 -1 -1 -1 -1 -1 -1 -1 -1 -1
 MicOpt= -1 -1 -1 -1 -1 -1 -1 -1 -1 -1
 NAtoms=     30 NQM=       30 NQMF=       0 NMMI=      0 NMMIF=      0
                NMic=       0 NMicF=      0.
                    Isotopes and Nuclear Properties:
 (Nuclear quadrupole moments (NQMom) in fm**2, nuclear magnetic moments (NMagM)
  in nuclear magnetons)

  Atom         1           2           3           4           5           6           7           8           9          10
 IAtWgt=          12          12          14          12          12          12          12          12          12          35
 AtmWgt=  12.0000000  12.0000000  14.0030740  12.0000000  12.0000000  12.0000000  12.0000000  12.0000000  12.0000000  34.9688527
 NucSpn=           0           0           2           0           0           0           0           0           0           3
 AtZEff=  -0.0000000  -0.0000000  -0.0000000  -0.0000000  -0.0000000  -0.0000000  -0.0000000  -0.0000000  -0.0000000  -0.0000000
 NQMom=    0.0000000   0.0000000   2.0440000   0.0000000   0.0000000   0.0000000   0.0000000   0.0000000   0.0000000  -8.1650000
 NMagM=    0.0000000   0.0000000   0.4037610   0.0000000   0.0000000   0.0000000   0.0000000   0.0000000   0.0000000   0.8218740
 AtZNuc=   6.0000000   6.0000000   7.0000000   6.0000000   6.0000000   6.0000000   6.0000000   6.0000000   6.0000000  17.0000000

  Atom        11          12          13          14          15          16          17          18          19          20
 IAtWgt=           1           1           1           1           1           1           1           1           1           1
 AtmWgt=   1.0078250   1.0078250   1.0078250   1.0078250   1.0078250   1.0078250   1.0078250   1.0078250   1.0078250   1.0078250
 NucSpn=           1           1           1           1           1           1           1           1           1           1
 AtZEff=  -0.0000000  -0.0000000  -0.0000000  -0.0000000  -0.0000000  -0.0000000  -0.0000000  -0.0000000  -0.0000000  -0.0000000
 NQMom=    0.0000000   0.0000000   0.0000000   0.0000000   0.0000000   0.0000000   0.0000000   0.0000000   0.0000000   0.0000000
 NMagM=    2.7928460   2.7928460   2.7928460   2.7928460   2.7928460   2.7928460   2.7928460   2.7928460   2.7928460   2.7928460
 AtZNuc=   1.0000000   1.0000000   1.0000000   1.0000000   1.0000000   1.0000000   1.0000000   1.0000000   1.0000000   1.0000000

  Atom        21          22          23          24          25          26          27          28          29          30
 IAtWgt=           1           1           1           1           1           1           1           1           1           1
 AtmWgt=   1.0078250   1.0078250   1.0078250   1.0078250   1.0078250   1.0078250   1.0078250   1.0078250   1.0078250   1.0078250
 NucSpn=           1           1           1           1           1           1           1           1           1           1
 AtZEff=  -0.0000000  -0.0000000  -0.0000000  -0.0000000  -0.0000000  -0.0000000  -0.0000000  -0.0000000  -0.0000000  -0.0000000
 NQMom=    0.0000000   0.0000000   0.0000000   0.0000000   0.0000000   0.0000000   0.0000000   0.0000000   0.0000000   0.0000000
 NMagM=    2.7928460   2.7928460   2.7928460   2.7928460   2.7928460   2.7928460   2.7928460   2.7928460   2.7928460   2.7928460
 AtZNuc=   1.0000000   1.0000000   1.0000000   1.0000000   1.0000000   1.0000000   1.0000000   1.0000000   1.0000000   1.0000000
 Leave Link  101 at Sat Aug 21 09:33:12 2021, MaxMem=   104857600 cpu:               2.9 elap:               0.2
 (Enter /sw/arch/RedHatEnterpriseServer7/EB_production/2020/software/Gaussian/g16.c01/l103.exe)

 GradGradGradGradGradGradGradGradGradGradGradGradGradGradGradGradGradGrad
 Berny optimization.
 Initialization pass.
                           ----------------------------
                           !    Initial Parameters    !
                           ! (Angstroms and Degrees)  !
 --------------------------                            --------------------------
 ! Name  Definition              Value          Derivative Info.                !
 --------------------------------------------------------------------------------
 ! R1    R(1,2)                  1.5401         estimate D2E/DX2                !
 ! R2    R(1,11)                 1.1076         estimate D2E/DX2                !
 ! R3    R(1,12)                 1.1105         estimate D2E/DX2                !
 ! R4    R(1,13)                 1.1076         estimate D2E/DX2                !
 ! R5    R(2,3)                  1.5072         estimate D2E/DX2                !
 ! R6    R(2,14)                 1.1109         estimate D2E/DX2                !
 ! R7    R(2,15)                 1.1109         estimate D2E/DX2                !
 ! R8    R(3,4)                  1.5072         estimate D2E/DX2                !
 ! R9    R(3,6)                  1.5021         estimate D2E/DX2                !
 ! R10   R(3,8)                  1.5021         estimate D2E/DX2                !
 ! R11   R(4,5)                  1.5401         estimate D2E/DX2                !
 ! R12   R(4,16)                 1.1109         estimate D2E/DX2                !
 ! R13   R(4,17)                 1.1109         estimate D2E/DX2                !
 ! R14   R(5,18)                 1.1105         estimate D2E/DX2                !
 ! R15   R(5,19)                 1.1076         estimate D2E/DX2                !
 ! R16   R(5,20)                 1.1076         estimate D2E/DX2                !
 ! R17   R(6,7)                  1.5411         estimate D2E/DX2                !
 ! R18   R(6,21)                 1.1086         estimate D2E/DX2                !
 ! R19   R(6,22)                 1.1086         estimate D2E/DX2                !
 ! R20   R(7,23)                 1.1077         estimate D2E/DX2                !
 ! R21   R(7,24)                 1.1077         estimate D2E/DX2                !
 ! R22   R(7,25)                 1.1106         estimate D2E/DX2                !
 ! R23   R(8,9)                  1.5411         estimate D2E/DX2                !
 ! R24   R(8,26)                 1.1086         estimate D2E/DX2                !
 ! R25   R(8,27)                 1.1086         estimate D2E/DX2                !
 ! R26   R(9,28)                 1.1077         estimate D2E/DX2                !
 ! R27   R(9,29)                 1.1077         estimate D2E/DX2                !
 ! R28   R(9,30)                 1.1106         estimate D2E/DX2                !
 ! R29   R(10,15)                2.5623         estimate D2E/DX2                !
 ! R30   R(10,17)                2.5609         estimate D2E/DX2                !
 ! R31   R(10,21)                2.6051         estimate D2E/DX2                !
 ! A1    A(2,1,11)             112.0019         estimate D2E/DX2                !
 ! A2    A(2,1,12)             108.556          estimate D2E/DX2                !
 ! A3    A(2,1,13)             112.0017         estimate D2E/DX2                !
 ! A4    A(11,1,12)            106.7833         estimate D2E/DX2                !
 ! A5    A(11,1,13)            110.4205         estimate D2E/DX2                !
 ! A6    A(12,1,13)            106.7829         estimate D2E/DX2                !
 ! A7    A(1,2,3)              116.3049         estimate D2E/DX2                !
 ! A8    A(1,2,14)             107.4075         estimate D2E/DX2                !
 ! A9    A(1,2,15)             107.4074         estimate D2E/DX2                !
 ! A10   A(3,2,14)             110.8743         estimate D2E/DX2                !
 ! A11   A(3,2,15)             110.8745         estimate D2E/DX2                !
 ! A12   A(14,2,15)            103.0704         estimate D2E/DX2                !
 ! A13   A(2,3,4)              105.9315         estimate D2E/DX2                !
 ! A14   A(2,3,6)              110.4519         estimate D2E/DX2                !
 ! A15   A(2,3,8)              110.4517         estimate D2E/DX2                !
 ! A16   A(4,3,6)              110.4518         estimate D2E/DX2                !
 ! A17   A(4,3,8)              110.4518         estimate D2E/DX2                !
 ! A18   A(6,3,8)              109.078          estimate D2E/DX2                !
 ! A19   A(3,4,5)              116.305          estimate D2E/DX2                !
 ! A20   A(3,4,16)             110.8743         estimate D2E/DX2                !
 ! A21   A(3,4,17)             110.8745         estimate D2E/DX2                !
 ! A22   A(5,4,16)             107.4073         estimate D2E/DX2                !
 ! A23   A(5,4,17)             107.4078         estimate D2E/DX2                !
 ! A24   A(16,4,17)            103.07           estimate D2E/DX2                !
 ! A25   A(4,5,18)             108.5562         estimate D2E/DX2                !
 ! A26   A(4,5,19)             112.002          estimate D2E/DX2                !
 ! A27   A(4,5,20)             112.0013         estimate D2E/DX2                !
 ! A28   A(18,5,19)            106.7836         estimate D2E/DX2                !
 ! A29   A(18,5,20)            106.7834         estimate D2E/DX2                !
 ! A30   A(19,5,20)            110.4199         estimate D2E/DX2                !
 ! A31   A(3,6,7)              116.599          estimate D2E/DX2                !
 ! A32   A(3,6,21)             110.3847         estimate D2E/DX2                !
 ! A33   A(3,6,22)             110.3846         estimate D2E/DX2                !
 ! A34   A(7,6,21)             106.6115         estimate D2E/DX2                !
 ! A35   A(7,6,22)             106.6115         estimate D2E/DX2                !
 ! A36   A(21,6,22)            105.6049         estimate D2E/DX2                !
 ! A37   A(6,7,23)             112.1142         estimate D2E/DX2                !
 ! A38   A(6,7,24)             112.1142         estimate D2E/DX2                !
 ! A39   A(6,7,25)             108.4691         estimate D2E/DX2                !
 ! A40   A(23,7,24)            110.554          estimate D2E/DX2                !
 ! A41   A(23,7,25)            106.6306         estimate D2E/DX2                !
 ! A42   A(24,7,25)            106.6309         estimate D2E/DX2                !
 ! A43   A(3,8,9)              116.5991         estimate D2E/DX2                !
 ! A44   A(3,8,26)             110.3847         estimate D2E/DX2                !
 ! A45   A(3,8,27)             110.3846         estimate D2E/DX2                !
 ! A46   A(9,8,26)             106.6112         estimate D2E/DX2                !
 ! A47   A(9,8,27)             106.6112         estimate D2E/DX2                !
 ! A48   A(26,8,27)            105.6053         estimate D2E/DX2                !
 ! A49   A(8,9,28)             112.1145         estimate D2E/DX2                !
 ! A50   A(8,9,29)             112.1142         estimate D2E/DX2                !
 ! A51   A(8,9,30)             108.4691         estimate D2E/DX2                !
 ! A52   A(28,9,29)            110.5545         estimate D2E/DX2                !
 ! A53   A(28,9,30)            106.6303         estimate D2E/DX2                !
 ! A54   A(29,9,30)            106.6303         estimate D2E/DX2                !
 ! A55   A(15,10,17)            56.1739         estimate D2E/DX2                !
 ! A56   A(15,10,21)            58.6489         estimate D2E/DX2                !
 ! A57   A(17,10,21)            57.4535         estimate D2E/DX2                !
 ! A58   A(2,15,10)            145.5499         estimate D2E/DX2                !
 ! A59   A(4,17,10)            145.7267         estimate D2E/DX2                !
 ! A60   A(6,21,10)            145.0054         estimate D2E/DX2                !
 ! D1    D(11,1,2,3)           -62.3453         estimate D2E/DX2                !
 ! D2    D(11,1,2,14)           62.5126         estimate D2E/DX2                !
 ! D3    D(11,1,2,15)          172.7967         estimate D2E/DX2                !
 ! D4    D(12,1,2,3)           179.9994         estimate D2E/DX2                !
 ! D5    D(12,1,2,14)          -55.1426         estimate D2E/DX2                !
 ! D6    D(12,1,2,15)           55.1414         estimate D2E/DX2                !
 ! D7    D(13,1,2,3)            62.3449         estimate D2E/DX2                !
 ! D8    D(13,1,2,14)         -172.7972         estimate D2E/DX2                !
 ! D9    D(13,1,2,15)          -62.5131         estimate D2E/DX2                !
 ! D10   D(1,2,3,4)           -179.9992         estimate D2E/DX2                !
 ! D11   D(1,2,3,6)            -60.3772         estimate D2E/DX2                !
 ! D12   D(1,2,3,8)             60.379          estimate D2E/DX2                !
 ! D13   D(14,2,3,4)            56.9296         estimate D2E/DX2                !
 ! D14   D(14,2,3,6)           176.5516         estimate D2E/DX2                !
 ! D15   D(14,2,3,8)           -62.6922         estimate D2E/DX2                !
 ! D16   D(15,2,3,4)           -56.9281         estimate D2E/DX2                !
 ! D17   D(15,2,3,6)            62.6939         estimate D2E/DX2                !
 ! D18   D(15,2,3,8)          -176.5499         estimate D2E/DX2                !
 ! D19   D(1,2,15,10)          119.6421         estimate D2E/DX2                !
 ! D20   D(3,2,15,10)           -8.4265         estimate D2E/DX2                !
 ! D21   D(14,2,15,10)        -127.1137         estimate D2E/DX2                !
 ! D22   D(2,3,4,5)            -60.378          estimate D2E/DX2                !
 ! D23   D(2,3,4,16)           176.5509         estimate D2E/DX2                !
 ! D24   D(2,3,4,17)            62.6938         estimate D2E/DX2                !
 ! D25   D(6,3,4,5)            180.0            estimate D2E/DX2                !
 ! D26   D(6,3,4,16)            56.9289         estimate D2E/DX2                !
 ! D27   D(6,3,4,17)           -56.9282         estimate D2E/DX2                !
 ! D28   D(8,3,4,5)             59.2438         estimate D2E/DX2                !
 ! D29   D(8,3,4,16)           -63.8273         estimate D2E/DX2                !
 ! D30   D(8,3,4,17)          -177.6844         estimate D2E/DX2                !
 ! D31   D(2,3,6,7)            180.0            estimate D2E/DX2                !
 ! D32   D(2,3,6,21)           -58.1869         estimate D2E/DX2                !
 ! D33   D(2,3,6,22)            58.1869         estimate D2E/DX2                !
 ! D34   D(4,3,6,7)            -63.1449         estimate D2E/DX2                !
 ! D35   D(4,3,6,21)            58.6682         estimate D2E/DX2                !
 ! D36   D(4,3,6,22)           175.0421         estimate D2E/DX2                !
 ! D37   D(8,3,6,7)             58.4276         estimate D2E/DX2                !
 ! D38   D(8,3,6,21)          -179.7593         estimate D2E/DX2                !
 ! D39   D(8,3,6,22)           -63.3855         estimate D2E/DX2                !
 ! D40   D(2,3,8,9)             26.855          estimate D2E/DX2                !
 ! D41   D(2,3,8,26)           -94.9578         estimate D2E/DX2                !
 ! D42   D(2,3,8,27)           148.6678         estimate D2E/DX2                !
 ! D43   D(4,3,8,9)            -90.0            estimate D2E/DX2                !
 ! D44   D(4,3,8,26)           148.1872         estimate D2E/DX2                !
 ! D45   D(4,3,8,27)            31.8128         estimate D2E/DX2                !
 ! D46   D(6,3,8,9)            148.4275         estimate D2E/DX2                !
 ! D47   D(6,3,8,26)            26.6147         estimate D2E/DX2                !
 ! D48   D(6,3,8,27)           -89.7597         estimate D2E/DX2                !
 ! D49   D(3,4,5,18)          -179.9996         estimate D2E/DX2                !
 ! D50   D(3,4,5,19)            62.3446         estimate D2E/DX2                !
 ! D51   D(3,4,5,20)           -62.3445         estimate D2E/DX2                !
 ! D52   D(16,4,5,18)          -55.1417         estimate D2E/DX2                !
 ! D53   D(16,4,5,19)         -172.7975         estimate D2E/DX2                !
 ! D54   D(16,4,5,20)           62.5134         estimate D2E/DX2                !
 ! D55   D(17,4,5,18)           55.142          estimate D2E/DX2                !
 ! D56   D(17,4,5,19)          -62.5138         estimate D2E/DX2                !
 ! D57   D(17,4,5,20)          172.7971         estimate D2E/DX2                !
 ! D58   D(3,4,17,10)           -5.6749         estimate D2E/DX2                !
 ! D59   D(5,4,17,10)          122.3941         estimate D2E/DX2                !
 ! D60   D(16,4,17,10)        -124.3619         estimate D2E/DX2                !
 ! D61   D(3,6,7,23)           -62.5216         estimate D2E/DX2                !
 ! D62   D(3,6,7,24)            62.5205         estimate D2E/DX2                !
 ! D63   D(3,6,7,25)           179.9996         estimate D2E/DX2                !
 ! D64   D(21,6,7,23)          173.7055         estimate D2E/DX2                !
 ! D65   D(21,6,7,24)          -61.2524         estimate D2E/DX2                !
 ! D66   D(21,6,7,25)           56.2267         estimate D2E/DX2                !
 ! D67   D(22,6,7,23)           61.2512         estimate D2E/DX2                !
 ! D68   D(22,6,7,24)         -173.7066         estimate D2E/DX2                !
 ! D69   D(22,6,7,25)          -56.2276         estimate D2E/DX2                !
 ! D70   D(3,6,21,10)           -0.5736         estimate D2E/DX2                !
 ! D71   D(7,6,21,10)          126.9666         estimate D2E/DX2                !
 ! D72   D(22,6,21,10)        -119.8876         estimate D2E/DX2                !
 ! D73   D(3,8,9,28)            62.5197         estimate D2E/DX2                !
 ! D74   D(3,8,9,29)           -62.5234         estimate D2E/DX2                !
 ! D75   D(3,8,9,30)           179.9982         estimate D2E/DX2                !
 ! D76   D(26,8,9,28)         -173.7076         estimate D2E/DX2                !
 ! D77   D(26,8,9,29)           61.2494         estimate D2E/DX2                !
 ! D78   D(26,8,9,30)          -56.229          estimate D2E/DX2                !
 ! D79   D(27,8,9,28)          -61.2531         estimate D2E/DX2                !
 ! D80   D(27,8,9,29)          173.7039         estimate D2E/DX2                !
 ! D81   D(27,8,9,30)           56.2255         estimate D2E/DX2                !
 ! D82   D(17,10,15,2)          42.5581         estimate D2E/DX2                !
 ! D83   D(21,10,15,2)         -26.95           estimate D2E/DX2                !
 ! D84   D(15,10,17,4)         -33.0853         estimate D2E/DX2                !
 ! D85   D(21,10,17,4)          38.5354         estimate D2E/DX2                !
 ! D86   D(15,10,21,6)          33.033          estimate D2E/DX2                !
 ! D87   D(17,10,21,6)         -34.3563         estimate D2E/DX2                !
 --------------------------------------------------------------------------------
 Trust Radius=3.00D-01 FncErr=1.00D-07 GrdErr=1.00D-06 EigMax=2.50D+02 EigMin=1.00D-04
 Number of steps in this run=    180 maximum allowed number of steps=    180.
 GradGradGradGradGradGradGradGradGradGradGradGradGradGradGradGradGradGrad

 Leave Link  103 at Sat Aug 21 09:33:12 2021, MaxMem=   104857600 cpu:               0.4 elap:               0.0
 (Enter /sw/arch/RedHatEnterpriseServer7/EB_production/2020/software/Gaussian/g16.c01/l202.exe)
                          Input orientation:                          
 ---------------------------------------------------------------------
 Center     Atomic      Atomic             Coordinates (Angstroms)
 Number     Number       Type             X           Y           Z
 ---------------------------------------------------------------------
      1          6           0       -0.534834    0.692753   -1.847016
      2          6           0        0.360538    1.005203   -0.633540
      3          7           0        0.540624   -0.106971    0.367641
      4          6           0        1.444383    0.444435    1.440439
      5          6           0        2.844444    0.898056    0.986682
      6          6           0       -0.784209   -0.506900    0.951855
      7          6           0       -0.763824   -1.639003    1.997263
      8          6           0        1.170743   -1.304056   -0.285327
      9          6           0        2.060515   -1.031501   -1.513727
     10         17           0       -1.039537    2.894981    2.005101
     11          1           0       -0.122827   -0.127929   -2.466350
     12          1           0       -0.578053    1.593218   -2.495496
     13          1           0       -1.576256    0.464744   -1.546526
     14          1           0        1.342031    1.348715   -1.024399
     15          1           0       -0.047779    1.915451   -0.144846
     16          1           0        1.583243   -0.293685    2.258973
     17          1           0        0.967221    1.304835    1.956310
     18          1           0        3.396791    1.278493    1.871792
     19          1           0        2.794950    1.731004    0.258263
     20          1           0        3.439155    0.059299    0.574788
     21          1           0       -1.271003    0.363237    1.436456
     22          1           0       -1.478591   -0.828617    0.149808
     23          1           0       -0.395150   -2.592910    1.571756
     24          1           0       -0.181112   -1.364127    2.898269
     25          1           0       -1.805175   -1.823616    2.336297
     26          1           0        0.390824   -2.021078   -0.611754
     27          1           0        1.797328   -1.856367    0.443572
     28          1           0        2.941056   -0.408886   -1.260911
     29          1           0        1.490980   -0.578757   -2.348934
     30          1           0        2.453312   -2.001404   -1.885801
 ---------------------------------------------------------------------
                    Distance matrix (angstroms):
                    1          2          3          4          5
     1  C    0.000000
     2  C    1.540078   0.000000
     3  N    2.588605   1.507224   0.000000
     4  C    3.845299   2.406360   1.507224   0.000000
     5  C    4.414920   2.967556   2.588605   1.540077   0.000000
     6  C    3.055329   2.471918   1.502142   2.471917   3.891303
     7  C    4.502000   3.895785   2.589281   3.086575   4.525212
     8  C    3.055341   2.471915   1.502142   2.471916   3.044434
     9  C    3.133683   2.795142   2.589280   3.359331   3.254194
    10  Cl   4.465796   3.534670   3.766948   3.534667   4.484439
    11  H    1.107630   2.208353   2.910689   4.248146   4.666988
    12  H    1.110510   2.166471   3.512782   4.571820   4.931764
    13  H    1.107629   2.208350   2.910683   4.248133   5.113462
    14  H    2.151652   1.110900   2.167729   2.627475   2.550448
    15  H    2.151650   1.110899   2.167730   2.627463   3.268089
    16  H    4.724241   3.398345   2.167729   1.110901   2.151650
    17  H    4.134743   2.676782   2.167729   1.110898   2.151654
    18  H    5.443372   3.945910   3.512787   2.166476   1.110513
    19  H    4.074019   2.692297   2.910688   2.208355   1.107631
    20  H    4.696699   3.439865   2.910676   2.208347   1.107632
    21  H    3.381082   2.712735   2.155332   2.716603   4.174355
    22  H    2.681893   2.712734   2.155331   3.439501   4.729734
    23  H    4.743743   4.287285   2.916412   3.553392   4.798346
    24  H    5.183976   4.287282   2.916406   2.835207   4.233867
    25  H    5.044402   4.638153   3.510734   4.062788   5.554091
    26  H    3.122114   3.026511   2.155333   3.376424   4.134803
    27  H    4.145333   3.378330   2.155332   2.532193   2.996375
    28  H    3.693093   3.008707   2.916403   3.203979   2.601750
    29  H    2.443886   2.594109   2.916426   3.925359   3.890909
    30  H    4.023556   3.871375   3.510734   4.250169   4.100123
                    6          7          8          9         10
     6  C    0.000000
     7  C    1.541087   0.000000
     8  C    2.447022   3.010807   0.000000
     9  C    3.800889   4.546758   1.541087   0.000000
    10  Cl   3.570338   4.542365   5.269089   6.116350   0.000000
    11  H    3.502167   4.755845   2.795257   2.547728   5.474688
    12  H    4.041933   5.537747   4.041946   3.849034   4.707751
    13  H    2.795235   4.200504   3.502182   3.932675   4.336839
    14  H    3.445255   4.742523   2.759123   2.533987   4.152189
    15  H    2.759142   4.211353   3.445251   3.873405   2.562290
    16  H    2.712719   2.717921   2.768477   3.873684   4.136546
    17  H    2.712715   3.415315   3.445674   4.323762   2.560863
    18  H    4.638392   5.083134   4.034602   4.310852   4.723538
    19  H    4.277811   5.200571   3.484986   3.363150   4.371449
    20  H    4.277799   4.751073   2.782845   2.729906   5.490497
    21  H    1.108578   2.140257   3.421480   4.663463   2.605122
    22  H    1.108579   2.140258   2.726601   3.915838   4.183307
    23  H    2.210675   1.107663   2.749895   4.241285   5.542560
    24  H    2.210677   1.107666   3.459249   4.959964   4.435611
    25  H    2.166286   1.110603   3.999868   5.513048   4.791769
    26  H    2.473522   2.878570   1.108580   2.140254   5.749913
    27  H    2.956982   3.003449   1.108580   2.140255   5.749911
    28  H    4.333998   5.084784   2.210679   1.107663   6.117801
    29  H    4.009595   5.009760   2.210675   1.107664   6.117841
    30  H    4.557123   5.055639   2.166286   1.110603   7.163357
                   11         12         13         14         15
    11  H    0.000000
    12  H    1.780569   0.000000
    13  H    1.819284   1.780564   0.000000
    14  H    2.530911   2.431179   3.093610   0.000000
    15  H    3.093609   2.431168   2.530909   1.739648   0.000000
    16  H    5.026611   5.553069   5.003945   3.679156   3.649501
    17  H    4.775032   4.721187   4.409635   3.004502   2.412039
    18  H    5.760661   5.913683   6.089194   3.551745   4.041981
    19  H    4.403700   4.356527   4.895725   1.975434   2.877086
    20  H    4.687354   5.283702   5.460650   2.935629   4.015206
    21  H    4.097737   4.177712   3.000277   3.722220   2.531040
    22  H    3.028752   3.697822   2.135385   3.751725   3.108690
    23  H    4.738839   5.839491   4.524151   5.029337   4.836601
    24  H    5.505518   6.164102   5.004738   5.006676   4.475931
    25  H    5.363867   6.043742   4.512794   5.591321   4.819247
    26  H    2.699514   4.189313   3.304923   3.525702   3.988313
    27  H    3.891290   5.116658   4.552923   3.554544   4.239960
    28  H    3.304451   4.232818   4.609871   2.387882   3.947313
    29  H    1.679704   3.003307   3.337767   2.343443   3.666995
    30  H    3.237813   4.741540   4.736498   3.633215   4.962674
                   16         17         18         19         20
    16  H    0.000000
    17  H    1.739642   0.000000
    18  H    2.431175   2.431183   0.000000
    19  H    3.093613   2.530924   1.780577   0.000000
    20  H    2.530906   3.093609   1.780575   1.819282   0.000000
    21  H    3.042170   2.483245   4.776559   4.448697   4.797962
    22  H    3.756268   3.714440   5.583412   4.982627   5.015299
    23  H    3.110104   4.146849   5.427394   5.531568   4.767605
    24  H    2.160438   3.054393   4.564919   5.040478   4.531119
    25  H    3.718608   4.197354   6.074480   6.173711   5.843910
    26  H    3.556237   4.241331   5.107936   4.540361   3.876619
    27  H    2.404888   3.601479   3.798084   3.728112   2.526379
    28  H    3.774455   4.145283   3.587307   2.628377   1.958849
    29  H    4.617638   4.728358   4.989592   3.719249   3.570806
    30  H    4.566451   5.282187   5.076158   4.317939   3.357511
                   21         22         23         24         25
    21  H    0.000000
    22  H    1.766089   0.000000
    23  H    3.086135   2.511675   0.000000
    24  H    2.511683   3.086141   1.820813   0.000000
    25  H    2.424331   2.424338   1.778907   1.778911   0.000000
    26  H    3.555530   2.344494   2.390076   3.616485   3.681360
    27  H    3.914986   3.445897   2.573375   3.190935   4.069584
    28  H    5.060969   4.658281   4.891241   5.287646   6.121118
    29  H    4.779652   3.889022   4.794383   5.562898   5.862227
    30  H    5.522630   4.580283   4.518663   5.498512   5.999370
                   26         27         28         29         30
    26  H    0.000000
    27  H    1.766096   0.000000
    28  H    3.086139   2.511688   0.000000
    29  H    2.511658   3.086134   1.820816   0.000000
    30  H    2.424343   2.424320   1.778903   1.778904   0.000000
 Stoichiometry    C8H20ClN
 Framework group  C1[X(C8H20ClN)]
 Deg. of freedom    84
 Full point group                 C1      NOp   1
 Largest Abelian subgroup         C1      NOp   1
 Largest concise Abelian subgroup C1      NOp   1
                         Standard orientation:                         
 ---------------------------------------------------------------------
 Center     Atomic      Atomic             Coordinates (Angstroms)
 Number     Number       Type             X           Y           Z
 ---------------------------------------------------------------------
      1          6           0       -0.647253   -1.004546   -2.233784
      2          6           0       -0.208460   -1.013058   -0.757563
      3          7           0       -0.472910    0.247573    0.025127
      4          6           0        0.040863   -0.014569    1.417622
      5          6           0       -0.612749   -1.183944    2.177355
      6          6           0        0.251667    1.409975   -0.591510
      7          6           0        0.078585    2.776335    0.099905
      8          6           0       -1.944573    0.547009    0.056358
      9          6           0       -2.896753   -0.657034   -0.079960
     10         17           0        3.217606   -0.503328   -0.053192
     11          1           0       -1.742333   -0.877015   -2.340456
     12          1           0       -0.393602   -1.987714   -2.683533
     13          1           0       -0.109487   -0.235434   -2.822100
     14          1           0       -0.690549   -1.888556   -0.272595
     15          1           0        0.870823   -1.275066   -0.733163
     16          1           0       -0.058027    0.891252    2.053081
     17          1           0        1.136806   -0.195965    1.407567
     18          1           0       -0.141549   -1.261370    3.179959
     19          1           0       -0.445356   -2.153956    1.669513
     20          1           0       -1.694878   -1.016951    2.344569
     21          1           0        1.341346    1.209684   -0.629298
     22          1           0       -0.063257    1.546065   -1.645668
     23          1           0       -0.974372    3.119888    0.086806
     24          1           0        0.473743    2.773075    1.134681
     25          1           0        0.666583    3.532238   -0.462507
     26          1           0       -2.211725    1.255572   -0.753282
     27          1           0       -2.214467    1.059031    1.001842
     28          1           0       -2.783486   -1.374959    0.755905
     29          1           0       -2.780699   -1.172289   -1.053594
     30          1           0       -3.942410   -0.284964   -0.039897
 ---------------------------------------------------------------------
 Rotational constants (GHZ):           1.1474843           0.6476426           0.6255652
 Leave Link  202 at Sat Aug 21 09:33:13 2021, MaxMem=   104857600 cpu:               0.4 elap:               0.1
 (Enter /sw/arch/RedHatEnterpriseServer7/EB_production/2020/software/Gaussian/g16.c01/l301.exe)
 Standard basis: TZVP (5D, 7F)
 Ernie: Thresh=  0.10000D-02 Tol=  0.10000D-05 Strict=F.
 There are   323 symmetry adapted cartesian basis functions of A   symmetry.
 There are   313 symmetry adapted basis functions of A   symmetry.
   313 basis functions,   522 primitive gaussians,   323 cartesian basis functions
    46 alpha electrons       46 beta electrons
       nuclear repulsion energy       697.4960959657 Hartrees.
 IExCor=  404 DFT=T Ex=B Corr=P86 ExCW=0 ScaHFX=  0.000000
 ScaDFX=  1.000000  1.000000  1.000000  1.000000 ScalE2=  1.000000  1.000000
 IRadAn=      5 IRanWt=     -1 IRanGd=            0 ICorTp=0 IEmpDi=131
 NAtoms=   30 NActive=   30 NUniq=   30 SFac= 1.00D+00 NAtFMM=   60 NAOKFM=F Big=F
 Integral buffers will be    131072 words long.
 Raffenetti 2 integral format.
 Two-electron integral symmetry is turned on.
 R6Disp:  Grimme-D3 Dispersion energy=       -0.0394899998 Hartrees.
 Nuclear repulsion after empirical dispersion term =      697.4566059659 Hartrees.
 ------------------------------------------------------------------------------
 Polarizable Continuum Model (PCM)
 =================================
 Model                : PCM.
 Atomic radii         : UFF (Universal Force Field).
 Polarization charges : Total charges.
 Charge compensation  : None.
 Solution method      : On-the-fly selection.
 Cavity type          : Scaled VdW (van der Waals Surface) (Alpha=1.100).
 Cavity algorithm     : GePol (No added spheres)
                        Default sphere list used, NSphG=   30.
                        Lebedev-Laikov grids with approx.  5.0 points / Ang**2.
                        Smoothing algorithm: York/Karplus (Gamma=1.0000).
                        Polarization charges: spherical gaussians, with
                                              point-specific exponents (IZeta= 3).
                        Self-potential: point-specific (ISelfS= 7).
                        Self-field    : sphere-specific E.n sum rule (ISelfD= 2).
 1st derivatives      : Analytical E(r).r(x)/FMM algorithm (CHGder, D1EAlg=3).
                        Cavity 1st derivative terms included.
 Solvent              : Water, Eps=  78.355300 Eps(inf)=   1.777849
 ------------------------------------------------------------------------------
 GePol: Number of generator spheres                  =      30
 GePol: Total number of spheres                      =      30
 GePol: Number of exposed spheres                    =      29 ( 96.67%)
 GePol: Number of points                             =    1851
 GePol: Average weight of points                     =       0.14
 GePol: Minimum weight of points                     =   0.87D-09
 GePol: Maximum weight of points                     =    0.21616
 GePol: Number of points with low weight             =     125
 GePol: Fraction of low-weight points (<1% of avg)   =       6.75%
 GePol: Cavity surface area                          =    255.968 Ang**2
 GePol: Cavity volume                                =    276.971 Ang**3
 Leave Link  301 at Sat Aug 21 09:33:13 2021, MaxMem=   104857600 cpu:               1.4 elap:               0.1
 (Enter /sw/arch/RedHatEnterpriseServer7/EB_production/2020/software/Gaussian/g16.c01/l302.exe)
 NPDir=0 NMtPBC=     1 NCelOv=     1 NCel=       1 NClECP=     1 NCelD=      1
         NCelK=      1 NCelE2=     1 NClLst=     1 CellRange=     0.0.
 One-electron integrals computed using PRISM.
 One-electron integral symmetry used in STVInt
 NBasis=   313 RedAO= T EigKep=  2.07D-04  NBF=   313
 NBsUse=   313 1.00D-06 EigRej= -1.00D+00 NBFU=   313
 Precomputing XC quadrature grid using
 IXCGrd= 4 IRadAn=           5 IRanWt=          -1 IRanGd=           0 AccXCQ= 0.00D+00.
 Generated NRdTot=       0 NPtTot=           0 NUsed=           0 NTot=          32
 NSgBfM=   320   320   320   320   320 MxSgAt=    30 MxSgA2=    30.
 Leave Link  302 at Sat Aug 21 09:33:14 2021, MaxMem=   104857600 cpu:               7.7 elap:               0.4
 (Enter /sw/arch/RedHatEnterpriseServer7/EB_production/2020/software/Gaussian/g16.c01/l303.exe)
 DipDrv:  MaxL=1.
 Leave Link  303 at Sat Aug 21 09:33:14 2021, MaxMem=   104857600 cpu:               1.4 elap:               0.1
 (Enter /sw/arch/RedHatEnterpriseServer7/EB_production/2020/software/Gaussian/g16.c01/l401.exe)
 ExpMin= 9.52D-02 ExpMax= 6.95D+04 ExpMxC= 2.37D+03 IAcc=3 IRadAn=         5 AccDes= 0.00D+00
 Harris functional with IExCor=  404 and IRadAn=       5 diagonalized for initial guess.
 HarFok:  IExCor=  404 AccDes= 0.00D+00 IRadAn=         5 IDoV= 1 UseB2=F ITyADJ=14
 ICtDFT=  3500011 ScaDFX=  1.000000  1.000000  1.000000  1.000000
 FoFCou: FMM=F IPFlag=           0 FMFlag=      100000 FMFlg1=           0
         NFxFlg=           0 DoJE=T BraDBF=F KetDBF=T FulRan=T
         wScrn=  0.000000 ICntrl=       500 IOpCl=  0 I1Cent=   200000004 NGrid=           0
         NMat0=    1 NMatS0=      1 NMatT0=    0 NMatD0=    1 NMtDS0=    0 NMtDT0=    0
 Petite list used in FoFCou.
 Harris En= -832.202150506930    
 JPrj=0 DoOrth=F DoCkMO=F.
 Leave Link  401 at Sat Aug 21 09:33:15 2021, MaxMem=   104857600 cpu:              19.4 elap:               0.9
 (Enter /sw/arch/RedHatEnterpriseServer7/EB_production/2020/software/Gaussian/g16.c01/l502.exe)
 Integral symmetry usage will be decided dynamically.
 Closed shell SCF:
 Using DIIS extrapolation, IDIIS=  1040.
 NGot=   104857600 LenX=   104636982 LenY=   104532212
 Requested convergence on RMS density matrix=1.00D-08 within 128 cycles.
 Requested convergence on MAX density matrix=1.00D-06.
 Requested convergence on             energy=1.00D-06.
 No special actions if energy rises.
 Fock matrices will be formed incrementally for  20 cycles.

 Cycle   1  Pass 1  IDiag  1:
 FoFJK:  IHMeth= 1 ICntrl=     500 DoSepK=F KAlg= 0 I1Cent=           0 FoldK=F
 IRaf= 930000000 NMat=       1 IRICut=       1 DoRegI=T DoRafI=F ISym2E= 0 IDoP0=0 IntGTp=1.
 FoFCou: FMM=F IPFlag=           0 FMFlag=      100000 FMFlg1=           0
         NFxFlg=           0 DoJE=T BraDBF=F KetDBF=F FulRan=T
         wScrn=  0.000000 ICntrl=       500 IOpCl=  0 I1Cent=           0 NGrid=           0
         NMat0=    1 NMatS0=      1 NMatT0=    0 NMatD0=    1 NMtDS0=    0 NMtDT0=    0
 Symmetry not used in FoFCou.
 Inv3:  Mode=1 IEnd=    10278603.
 Iteration    1 A*A^-1 deviation from unit magnitude is 3.00D-15 for    920.
 Iteration    1 A*A^-1 deviation from orthogonality  is 2.26D-15 for   1171    255.
 Iteration    1 A^-1*A deviation from unit magnitude is 3.22D-15 for    920.
 Iteration    1 A^-1*A deviation from orthogonality  is 2.35D-15 for   1287    954.
 E= -831.744497002261    
 DIIS: error= 2.38D-02 at cycle   1 NSaved=   1.
 NSaved= 1 IEnMin= 1 EnMin= -831.744497002261     IErMin= 1 ErrMin= 2.38D-02
 ErrMax= 2.38D-02  0.00D+00 EMaxC= 1.00D-01 BMatC= 3.16D-01 BMatP= 3.16D-01
 IDIUse=3 WtCom= 7.62D-01 WtEn= 2.38D-01
 Coeff-Com:  0.100D+01
 Coeff-En:   0.100D+01
 Coeff:      0.100D+01
 Gap=     0.202 Goal=   None    Shift=    0.000
 GapD=    0.202 DampG=1.000 DampE=0.500 DampFc=0.5000 IDamp=-1.
 Damping current iteration by 5.00D-01
 RMSDP=3.65D-03 MaxDP=1.46D-01              OVMax= 1.74D-01

 Cycle   2  Pass 1  IDiag  1:
 RMSU=  1.82D-03    CP:  9.88D-01
 E= -831.838901843085     Delta-E=       -0.094404840824 Rises=F Damp=T
 DIIS: error= 1.00D-02 at cycle   2 NSaved=   2.
 NSaved= 2 IEnMin= 2 EnMin= -831.838901843085     IErMin= 2 ErrMin= 1.00D-02
 ErrMax= 1.00D-02  0.00D+00 EMaxC= 1.00D-01 BMatC= 4.05D-02 BMatP= 3.16D-01
 IDIUse=3 WtCom= 9.00D-01 WtEn= 1.00D-01
 Coeff-Com:  0.207D+00 0.793D+00
 Coeff-En:   0.326D+00 0.674D+00
 Coeff:      0.219D+00 0.781D+00
 Gap=     0.211 Goal=   None    Shift=    0.000
 RMSDP=7.28D-04 MaxDP=3.00D-02 DE=-9.44D-02 OVMax= 1.02D-01

 Cycle   3  Pass 1  IDiag  1:
 RMSU=  7.11D-04    CP:  9.92D-01  9.18D-01
 E= -832.037931173828     Delta-E=       -0.199029330743 Rises=F Damp=F
 DIIS: error= 7.44D-03 at cycle   3 NSaved=   3.
 NSaved= 3 IEnMin= 3 EnMin= -832.037931173828     IErMin= 3 ErrMin= 7.44D-03
 ErrMax= 7.44D-03  0.00D+00 EMaxC= 1.00D-01 BMatC= 1.22D-02 BMatP= 4.05D-02
 IDIUse=3 WtCom= 9.26D-01 WtEn= 7.44D-02
 Coeff-Com:  0.654D-01 0.348D+00 0.586D+00
 Coeff-En:   0.000D+00 0.000D+00 0.100D+01
 Coeff:      0.605D-01 0.322D+00 0.617D+00
 Gap=     0.214 Goal=   None    Shift=    0.000
 RMSDP=4.16D-04 MaxDP=1.83D-02 DE=-1.99D-01 OVMax= 2.56D-02

 Cycle   4  Pass 1  IDiag  1:
 RMSU=  3.31D-04    CP:  9.95D-01  8.67D-01  6.77D-01
 E= -832.042319039850     Delta-E=       -0.004387866022 Rises=F Damp=F
 DIIS: error= 5.09D-03 at cycle   4 NSaved=   4.
 NSaved= 4 IEnMin= 4 EnMin= -832.042319039850     IErMin= 4 ErrMin= 5.09D-03
 ErrMax= 5.09D-03  0.00D+00 EMaxC= 1.00D-01 BMatC= 6.44D-03 BMatP= 1.22D-02
 IDIUse=3 WtCom= 9.49D-01 WtEn= 5.09D-02
 Coeff-Com:  0.154D-01 0.913D-01 0.416D+00 0.477D+00
 Coeff-En:   0.000D+00 0.000D+00 0.382D+00 0.618D+00
 Coeff:      0.146D-01 0.866D-01 0.415D+00 0.484D+00
 Gap=     0.214 Goal=   None    Shift=    0.000
 RMSDP=2.50D-04 MaxDP=1.16D-02 DE=-4.39D-03 OVMax= 1.20D-02

 Cycle   5  Pass 1  IDiag  1:
 RMSU=  1.39D-04    CP:  9.92D-01  8.59D-01  6.70D-01  3.84D-01
 E= -832.047666866811     Delta-E=       -0.005347826961 Rises=F Damp=F
 DIIS: error= 5.24D-04 at cycle   5 NSaved=   5.
 NSaved= 5 IEnMin= 5 EnMin= -832.047666866811     IErMin= 5 ErrMin= 5.24D-04
 ErrMax= 5.24D-04  0.00D+00 EMaxC= 1.00D-01 BMatC= 1.39D-04 BMatP= 6.44D-03
 IDIUse=3 WtCom= 9.95D-01 WtEn= 5.24D-03
 Coeff-Com:  0.464D-02 0.250D-01 0.160D+00 0.232D+00 0.578D+00
 Coeff-En:   0.000D+00 0.000D+00 0.000D+00 0.000D+00 0.100D+01
 Coeff:      0.461D-02 0.249D-01 0.159D+00 0.231D+00 0.580D+00
 Gap=     0.212 Goal=   None    Shift=    0.000
 RMSDP=8.34D-05 MaxDP=4.78D-03 DE=-5.35D-03 OVMax= 2.19D-03

 Cycle   6  Pass 1  IDiag  1:
 RMSU=  2.88D-05    CP:  9.93D-01  8.74D-01  7.23D-01  4.56D-01  5.88D-01
 E= -832.047793064603     Delta-E=       -0.000126197792 Rises=F Damp=F
 DIIS: error= 2.41D-04 at cycle   6 NSaved=   6.
 NSaved= 6 IEnMin= 6 EnMin= -832.047793064603     IErMin= 6 ErrMin= 2.41D-04
 ErrMax= 2.41D-04  0.00D+00 EMaxC= 1.00D-01 BMatC= 1.40D-05 BMatP= 1.39D-04
 IDIUse=3 WtCom= 9.98D-01 WtEn= 2.41D-03
 Coeff-Com:  0.131D-02 0.666D-02 0.602D-01 0.969D-01 0.319D+00 0.516D+00
 Coeff-En:   0.000D+00 0.000D+00 0.000D+00 0.000D+00 0.000D+00 0.100D+01
 Coeff:      0.130D-02 0.664D-02 0.601D-01 0.967D-01 0.318D+00 0.518D+00
 Gap=     0.213 Goal=   None    Shift=    0.000
 RMSDP=1.75D-05 MaxDP=8.36D-04 DE=-1.26D-04 OVMax= 8.76D-04

 Cycle   7  Pass 1  IDiag  1:
 RMSU=  8.64D-06    CP:  9.93D-01  8.70D-01  7.16D-01  4.59D-01  6.41D-01
                    CP:  6.65D-01
 E= -832.047805820230     Delta-E=       -0.000012755627 Rises=F Damp=F
 DIIS: error= 3.63D-05 at cycle   7 NSaved=   7.
 NSaved= 7 IEnMin= 7 EnMin= -832.047805820230     IErMin= 7 ErrMin= 3.63D-05
 ErrMax= 3.63D-05  0.00D+00 EMaxC= 1.00D-01 BMatC= 6.30D-07 BMatP= 1.40D-05
 IDIUse=1 WtCom= 1.00D+00 WtEn= 0.00D+00
 Coeff-Com:  0.284D-03 0.134D-02 0.164D-01 0.281D-01 0.103D+00 0.252D+00
 Coeff-Com:  0.598D+00
 Coeff:      0.284D-03 0.134D-02 0.164D-01 0.281D-01 0.103D+00 0.252D+00
 Coeff:      0.598D+00
 Gap=     0.213 Goal=   None    Shift=    0.000
 RMSDP=2.68D-06 MaxDP=8.31D-05 DE=-1.28D-05 OVMax= 1.36D-04

 Cycle   8  Pass 1  IDiag  1:
 RMSU=  1.98D-06    CP:  9.93D-01  8.70D-01  7.15D-01  4.60D-01  6.44D-01
                    CP:  6.77D-01  8.15D-01
 E= -832.047806507719     Delta-E=       -0.000000687489 Rises=F Damp=F
 DIIS: error= 1.36D-05 at cycle   8 NSaved=   8.
 NSaved= 8 IEnMin= 8 EnMin= -832.047806507719     IErMin= 8 ErrMin= 1.36D-05
 ErrMax= 1.36D-05  0.00D+00 EMaxC= 1.00D-01 BMatC= 3.11D-08 BMatP= 6.30D-07
 IDIUse=1 WtCom= 1.00D+00 WtEn= 0.00D+00
 Coeff-Com:  0.589D-04 0.174D-03 0.290D-02 0.517D-02 0.214D-01 0.774D-01
 Coeff-Com:  0.265D+00 0.628D+00
 Coeff:      0.589D-04 0.174D-03 0.290D-02 0.517D-02 0.214D-01 0.774D-01
 Coeff:      0.265D+00 0.628D+00
 Gap=     0.213 Goal=   None    Shift=    0.000
 RMSDP=1.11D-06 MaxDP=6.44D-05 DE=-6.87D-07 OVMax= 5.78D-05

 Cycle   9  Pass 1  IDiag  1:
 RMSU=  5.56D-07    CP:  9.93D-01  8.70D-01  7.16D-01  4.59D-01  6.44D-01
                    CP:  6.92D-01  7.85D-01  7.19D-01
 E= -832.047806449985     Delta-E=        0.000000057733 Rises=F Damp=F
 DIIS: error= 5.30D-06 at cycle   9 NSaved=   9.
 NSaved= 9 IEnMin= 8 EnMin= -832.047806507719     IErMin= 9 ErrMin= 5.30D-06
 ErrMax= 5.30D-06  0.00D+00 EMaxC= 1.00D-01 BMatC= 4.07D-09 BMatP= 3.11D-08
 IDIUse=1 WtCom= 1.00D+00 WtEn= 0.00D+00
 Coeff-Com:  0.904D-05-0.113D-04 0.502D-03 0.959D-03 0.446D-02 0.221D-01
 Coeff-Com:  0.909D-01 0.335D+00 0.546D+00
 Coeff:      0.904D-05-0.113D-04 0.502D-03 0.959D-03 0.446D-02 0.221D-01
 Coeff:      0.909D-01 0.335D+00 0.546D+00
 Gap=     0.213 Goal=   None    Shift=    0.000
 RMSDP=3.58D-07 MaxDP=1.74D-05 DE= 5.77D-08 OVMax= 1.46D-05

 Cycle  10  Pass 1  IDiag  1:
 RMSU=  1.15D-07    CP:  9.93D-01  8.70D-01  7.16D-01  4.59D-01  6.44D-01
                    CP:  6.92D-01  8.07D-01  7.38D-01  6.01D-01
 E= -832.047806482516     Delta-E=       -0.000000032531 Rises=F Damp=F
 DIIS: error= 3.96D-07 at cycle  10 NSaved=  10.
 NSaved=10 IEnMin= 8 EnMin= -832.047806507719     IErMin=10 ErrMin= 3.96D-07
 ErrMax= 3.96D-07  0.00D+00 EMaxC= 1.00D-01 BMatC= 7.70D-11 BMatP= 4.07D-09
 IDIUse=1 WtCom= 1.00D+00 WtEn= 0.00D+00
 Coeff-Com:  0.107D-05-0.129D-04 0.106D-04 0.366D-04 0.321D-03 0.269D-02
 Coeff-Com:  0.154D-01 0.860D-01 0.171D+00 0.724D+00
 Coeff:      0.107D-05-0.129D-04 0.106D-04 0.366D-04 0.321D-03 0.269D-02
 Coeff:      0.154D-01 0.860D-01 0.171D+00 0.724D+00
 Gap=     0.213 Goal=   None    Shift=    0.000
 RMSDP=5.46D-08 MaxDP=1.43D-06 DE=-3.25D-08 OVMax= 1.98D-06

 Cycle  11  Pass 1  IDiag  1:
 RMSU=  3.20D-08    CP:  9.93D-01  8.70D-01  7.16D-01  4.59D-01  6.44D-01
                    CP:  6.91D-01  8.08D-01  7.50D-01  6.17D-01  7.97D-01
 E= -832.047806482571     Delta-E=       -0.000000000055 Rises=F Damp=F
 DIIS: error= 1.97D-07 at cycle  11 NSaved=  11.
 NSaved=11 IEnMin= 8 EnMin= -832.047806507719     IErMin=11 ErrMin= 1.97D-07
 ErrMax= 1.97D-07  0.00D+00 EMaxC= 1.00D-01 BMatC= 2.48D-11 BMatP= 7.70D-11
 IDIUse=1 WtCom= 1.00D+00 WtEn= 0.00D+00
 Coeff-Com:  0.297D-06-0.649D-05-0.266D-04-0.421D-04-0.875D-04 0.259D-03
 Coeff-Com:  0.387D-02 0.316D-01 0.653D-01 0.417D+00 0.482D+00
 Coeff:      0.297D-06-0.649D-05-0.266D-04-0.421D-04-0.875D-04 0.259D-03
 Coeff:      0.387D-02 0.316D-01 0.653D-01 0.417D+00 0.482D+00
 Gap=     0.213 Goal=   None    Shift=    0.000
 RMSDP=1.60D-08 MaxDP=5.31D-07 DE=-5.46D-11 OVMax= 7.59D-07

 Cycle  12  Pass 1  IDiag  1:
 RMSU=  8.19D-09    CP:  9.93D-01  8.70D-01  7.16D-01  4.59D-01  6.44D-01
                    CP:  6.91D-01  8.07D-01  7.51D-01  6.21D-01  8.28D-01
                    CP:  6.51D-01
 E= -832.047806482601     Delta-E=       -0.000000000030 Rises=F Damp=F
 DIIS: error= 4.48D-08 at cycle  12 NSaved=  12.
 NSaved=12 IEnMin= 8 EnMin= -832.047806507719     IErMin=12 ErrMin= 4.48D-08
 ErrMax= 4.48D-08  0.00D+00 EMaxC= 1.00D-01 BMatC= 6.43D-13 BMatP= 2.48D-11
 IDIUse=1 WtCom= 1.00D+00 WtEn= 0.00D+00
 Coeff-Com: -0.513D-08-0.193D-05-0.107D-04-0.185D-04-0.479D-04-0.612D-04
 Coeff-Com:  0.645D-03 0.820D-02 0.170D-01 0.139D+00 0.216D+00 0.620D+00
 Coeff:     -0.513D-08-0.193D-05-0.107D-04-0.185D-04-0.479D-04-0.612D-04
 Coeff:      0.645D-03 0.820D-02 0.170D-01 0.139D+00 0.216D+00 0.620D+00
 Gap=     0.213 Goal=   None    Shift=    0.000
 RMSDP=5.03D-09 MaxDP=1.63D-07 DE=-3.05D-11 OVMax= 1.67D-07

 Error on total polarization charges =  0.01748
 SCF Done:  E(RB-P86) =  -832.047806483     A.U. after   12 cycles
            NFock= 12  Conv=0.50D-08     -V/T= 2.0044
 KE= 8.283850548625D+02 PE=-3.348631572777D+03 EE= 9.907421054659D+02
 Leave Link  502 at Sat Aug 21 09:33:44 2021, MaxMem=   104857600 cpu:             672.9 elap:              28.4
 (Enter /sw/arch/RedHatEnterpriseServer7/EB_production/2020/software/Gaussian/g16.c01/l601.exe)
 Copying SCF densities to generalized density rwf, IOpCl= 0 IROHF=0.

 **********************************************************************

            Population analysis using the SCF Density.

 **********************************************************************

 Orbital symmetries:
       Occupied  (A) (A) (A) (A) (A) (A) (A) (A) (A) (A) (A) (A)
                 (A) (A) (A) (A) (A) (A) (A) (A) (A) (A) (A) (A)
                 (A) (A) (A) (A) (A) (A) (A) (A) (A) (A) (A) (A)
                 (A) (A) (A) (A) (A) (A) (A) (A) (A) (A)
       Virtual   (A) (A) (A) (A) (A) (A) (A) (A) (A) (A) (A) (A)
                 (A) (A) (A) (A) (A) (A) (A) (A) (A) (A) (A) (A)
                 (A) (A) (A) (A) (A) (A) (A) (A) (A) (A) (A) (A)
                 (A) (A) (A) (A) (A) (A) (A) (A) (A) (A) (A) (A)
                 (A) (A) (A) (A) (A) (A) (A) (A) (A) (A) (A) (A)
                 (A) (A) (A) (A) (A) (A) (A) (A) (A) (A) (A) (A)
                 (A) (A) (A) (A) (A) (A) (A) (A) (A) (A) (A) (A)
                 (A) (A) (A) (A) (A) (A) (A) (A) (A) (A) (A) (A)
                 (A) (A) (A) (A) (A) (A) (A) (A) (A) (A) (A) (A)
                 (A) (A) (A) (A) (A) (A) (A) (A) (A) (A) (A) (A)
                 (A) (A) (A) (A) (A) (A) (A) (A) (A) (A) (A) (A)
                 (A) (A) (A) (A) (A) (A) (A) (A) (A) (A) (A) (A)
                 (A) (A) (A) (A) (A) (A) (A) (A) (A) (A) (A) (A)
                 (A) (A) (A) (A) (A) (A) (A) (A) (A) (A) (A) (A)
                 (A) (A) (A) (A) (A) (A) (A) (A) (A) (A) (A) (A)
                 (A) (A) (A) (A) (A) (A) (A) (A) (A) (A) (A) (A)
                 (A) (A) (A) (A) (A) (A) (A) (A) (A) (A) (A) (A)
                 (A) (A) (A) (A) (A) (A) (A) (A) (A) (A) (A) (A)
                 (A) (A) (A) (A) (A) (A) (A) (A) (A) (A) (A) (A)
                 (A) (A) (A) (A) (A) (A) (A) (A) (A) (A) (A) (A)
                 (A) (A) (A) (A) (A) (A) (A) (A) (A) (A) (A) (A)
                 (A) (A) (A) (A) (A) (A) (A) (A) (A) (A) (A) (A)
                 (A) (A) (A)
 The electronic state is 1-A.
 Alpha  occ. eigenvalues -- -100.63748 -14.14148  -9.96287  -9.95386  -9.95328
 Alpha  occ. eigenvalues --   -9.95213  -9.91013  -9.90955  -9.90937  -9.90828
 Alpha  occ. eigenvalues --   -9.07618  -6.89436  -6.89434  -6.89426  -0.94885
 Alpha  occ. eigenvalues --   -0.72767  -0.72321  -0.71842  -0.67722  -0.62728
 Alpha  occ. eigenvalues --   -0.60686  -0.59662  -0.59326  -0.53063  -0.48659
 Alpha  occ. eigenvalues --   -0.48080  -0.46933  -0.43688  -0.42245  -0.39943
 Alpha  occ. eigenvalues --   -0.38969  -0.37075  -0.36496  -0.36208  -0.36042
 Alpha  occ. eigenvalues --   -0.35041  -0.34708  -0.34198  -0.33160  -0.32166
 Alpha  occ. eigenvalues --   -0.31689  -0.31677  -0.30544  -0.20620  -0.20604
 Alpha  occ. eigenvalues --   -0.20274
 Alpha virt. eigenvalues --    0.01001   0.01745   0.02626   0.03463   0.04162
 Alpha virt. eigenvalues --    0.04851   0.05835   0.05964   0.06539   0.06670
 Alpha virt. eigenvalues --    0.07669   0.08240   0.08457   0.09009   0.09588
 Alpha virt. eigenvalues --    0.10357   0.10772   0.11389   0.11812   0.12507
 Alpha virt. eigenvalues --    0.12576   0.13155   0.13715   0.14746   0.15353
 Alpha virt. eigenvalues --    0.16305   0.17617   0.19411   0.20697   0.21308
 Alpha virt. eigenvalues --    0.22039   0.23188   0.23401   0.24236   0.24591
 Alpha virt. eigenvalues --    0.25920   0.26791   0.27435   0.28298   0.29008
 Alpha virt. eigenvalues --    0.30433   0.31097   0.32401   0.35309   0.35943
 Alpha virt. eigenvalues --    0.36301   0.36702   0.36720   0.38083   0.38411
 Alpha virt. eigenvalues --    0.38771   0.39017   0.39543   0.40200   0.40313
 Alpha virt. eigenvalues --    0.41352   0.41468   0.41848   0.42047   0.42438
 Alpha virt. eigenvalues --    0.43194   0.43473   0.44107   0.44739   0.45013
 Alpha virt. eigenvalues --    0.45596   0.46270   0.46939   0.47652   0.47859
 Alpha virt. eigenvalues --    0.49045   0.49606   0.50188   0.50745   0.51324
 Alpha virt. eigenvalues --    0.54743   0.55015   0.56880   0.57870   0.58733
 Alpha virt. eigenvalues --    0.61325   0.62572   0.65608   0.71064   0.71849
 Alpha virt. eigenvalues --    0.72613   0.75692   0.80366   0.81286   0.81569
 Alpha virt. eigenvalues --    0.88441   0.89048   0.89327   1.01190   1.03114
 Alpha virt. eigenvalues --    1.11893   1.12691   1.14890   1.16403   1.17797
 Alpha virt. eigenvalues --    1.18300   1.19993   1.20839   1.21542   1.22797
 Alpha virt. eigenvalues --    1.23304   1.24586   1.24959   1.25640   1.26266
 Alpha virt. eigenvalues --    1.26804   1.27888   1.29100   1.30165   1.30575
 Alpha virt. eigenvalues --    1.31660   1.32102   1.32826   1.34068   1.35107
 Alpha virt. eigenvalues --    1.35408   1.36916   1.38934   1.39784   1.40631
 Alpha virt. eigenvalues --    1.41773   1.45747   1.47299   1.48237   1.50320
 Alpha virt. eigenvalues --    1.51044   1.52512   1.53322   1.55203   1.56699
 Alpha virt. eigenvalues --    1.57037   1.58418   1.59165   1.60167   1.61322
 Alpha virt. eigenvalues --    1.62682   1.64144   1.65457   1.67444   1.68263
 Alpha virt. eigenvalues --    1.68639   1.69666   1.69873   1.70409   1.70685
 Alpha virt. eigenvalues --    1.71123   1.71529   1.72397   1.72751   1.73357
 Alpha virt. eigenvalues --    1.73601   1.75020   1.75326   1.76828   1.77029
 Alpha virt. eigenvalues --    1.78428   1.79051   1.79879   1.80062   1.82080
 Alpha virt. eigenvalues --    1.84913   1.85838   1.88309   1.91813   1.92513
 Alpha virt. eigenvalues --    1.93487   1.95717   1.98366   1.99691   2.03016
 Alpha virt. eigenvalues --    2.03354   2.06790   2.08289   2.11053   2.13215
 Alpha virt. eigenvalues --    2.15777   2.16569   2.18367   2.19421   2.22257
 Alpha virt. eigenvalues --    2.23496   2.23967   2.24978   2.26576   2.27962
 Alpha virt. eigenvalues --    2.28005   2.29267   2.29734   2.30920   2.32587
 Alpha virt. eigenvalues --    2.34732   2.37739   2.38072   2.38533   2.40778
 Alpha virt. eigenvalues --    2.42541   2.43840   2.44901   2.46595   2.47128
 Alpha virt. eigenvalues --    2.48580   2.49438   2.49756   2.50452   2.51671
 Alpha virt. eigenvalues --    2.53096   2.53698   2.56773   2.58829   2.59742
 Alpha virt. eigenvalues --    2.60286   2.62015   2.63197   2.66399   2.67183
 Alpha virt. eigenvalues --    2.67795   2.69691   2.72293   2.73601   2.76350
 Alpha virt. eigenvalues --    2.76785   2.83168   2.86261   2.88851   2.90946
 Alpha virt. eigenvalues --    2.92657   2.95185   2.96986   3.02953   3.07659
 Alpha virt. eigenvalues --    3.12386   3.13351   3.15822   3.19445   3.21822
 Alpha virt. eigenvalues --    3.22311   3.23051   3.24125   3.24718   3.27096
 Alpha virt. eigenvalues --    3.28145   3.28261   3.28925   3.31545   3.31879
 Alpha virt. eigenvalues --    3.33605   3.34974   3.36632   3.39109   3.62125
 Alpha virt. eigenvalues --    3.62852   3.63526  21.72514  21.75353  21.76841
 Alpha virt. eigenvalues --   21.77775  21.84660  21.88130  21.89889  21.91477
 Alpha virt. eigenvalues --   24.21909  31.74699
          Condensed to atoms (all electrons):
               1          2          3          4          5          6
     1  C    5.121478   0.184455  -0.026149   0.014534   0.002388   0.013132
     2  C    0.184455   5.657305   0.168778  -0.136784  -0.004419  -0.141970
     3  N   -0.026149   0.168778   6.673675   0.234909  -0.036046   0.230536
     4  C    0.014534  -0.136784   0.234909   5.508129   0.170946  -0.122060
     5  C    0.002388  -0.004419  -0.036046   0.170946   5.183956   0.017120
     6  C    0.013132  -0.141970   0.230536  -0.122060   0.017120   5.484426
     7  C    0.000615   0.016898  -0.032306   0.005493   0.000540   0.205125
     8  C    0.002357  -0.084698   0.100409  -0.076337   0.000645  -0.100046
     9  C   -0.055130   0.020868  -0.030697  -0.020261  -0.002863   0.015073
    10  Cl   0.002392  -0.054176   0.003724  -0.053129   0.002723  -0.049388
    11  H    0.386774  -0.026692  -0.012537   0.000192  -0.000327  -0.006719
    12  H    0.393378  -0.029140   0.006338  -0.000414   0.000113   0.001092
    13  H    0.421569  -0.054774  -0.003817  -0.000481   0.000021   0.007029
    14  H   -0.028010   0.396380  -0.010421  -0.013264   0.008854   0.011198
    15  H   -0.028136   0.338843  -0.029167   0.013866  -0.007529  -0.006243
    16  H   -0.000408   0.010458  -0.018437   0.398583  -0.027758  -0.010033
    17  H    0.000616  -0.005754  -0.027406   0.343350  -0.029270   0.008745
    18  H   -0.000024   0.000883   0.006186  -0.017604   0.380921  -0.000009
    19  H    0.000173   0.010114  -0.005145  -0.057845   0.421773  -0.001194
    20  H   -0.000166  -0.006137  -0.009568  -0.047527   0.407868  -0.000239
    21  H   -0.006164   0.011473  -0.028702  -0.006815   0.000722   0.349979
    22  H    0.005761  -0.011748  -0.016715   0.010969  -0.000566   0.400473
    23  H   -0.000120   0.000081  -0.010185  -0.005317   0.000066  -0.033822
    24  H    0.000042  -0.000681  -0.003068   0.008454   0.000029  -0.053931
    25  H    0.000121  -0.000364   0.006384   0.001139  -0.000028  -0.028191
    26  H    0.002671  -0.017647  -0.023126   0.004952   0.001138   0.021380
    27  H   -0.000328   0.012484  -0.027539   0.009460  -0.009891  -0.011770
    28  H    0.003760  -0.018182   0.000715  -0.004615   0.007916   0.000291
    29  H   -0.023200   0.037717  -0.018100   0.000669  -0.002083  -0.003692
    30  H    0.001569  -0.001561   0.006066   0.000596   0.000248  -0.000141
               7          8          9         10         11         12
     1  C    0.000615   0.002357  -0.055130   0.002392   0.386774   0.393378
     2  C    0.016898  -0.084698   0.020868  -0.054176  -0.026692  -0.029140
     3  N   -0.032306   0.100409  -0.030697   0.003724  -0.012537   0.006338
     4  C    0.005493  -0.076337  -0.020261  -0.053129   0.000192  -0.000414
     5  C    0.000540   0.000645  -0.002863   0.002723  -0.000327   0.000113
     6  C    0.205125  -0.100046   0.015073  -0.049388  -0.006719   0.001092
     7  C    5.107947  -0.011204   0.001034   0.002235  -0.000011  -0.000029
     8  C   -0.011204   5.603862   0.196857  -0.000392   0.031730  -0.001578
     9  C    0.001034   0.196857   5.134950   0.000081  -0.027738   0.002541
    10  Cl   0.002235  -0.000392   0.000081  17.816469   0.000058   0.000070
    11  H   -0.000011   0.031730  -0.027738   0.000058   0.548853  -0.023031
    12  H   -0.000029  -0.001578   0.002541   0.000070  -0.023031   0.500645
    13  H    0.000394  -0.007544   0.003335   0.001338  -0.024720  -0.017834
    14  H   -0.000477  -0.038063   0.004830   0.000616  -0.004271  -0.001496
    15  H    0.000705   0.013978  -0.000690   0.062488   0.006402  -0.002948
    16  H    0.004116  -0.022991   0.001040   0.000574  -0.000000   0.000019
    17  H   -0.004634   0.012111  -0.001154   0.060070  -0.000168  -0.000004
    18  H    0.000034  -0.002509   0.001962   0.000063  -0.000003  -0.000000
    19  H    0.000066  -0.007071  -0.001201   0.001048   0.000080   0.000106
    20  H   -0.000075   0.031727  -0.021174   0.000009  -0.000025  -0.000004
    21  H   -0.035369   0.012262  -0.000412   0.057872   0.000390  -0.000081
    22  H   -0.031051  -0.025612   0.000398   0.000266  -0.000000   0.000166
    23  H    0.393591   0.021624   0.000709   0.000008   0.000023  -0.000004
    24  H    0.419102  -0.007126  -0.000198   0.000853   0.000003   0.000002
    25  H    0.393869  -0.000952   0.000004   0.000073  -0.000009   0.000000
    26  H   -0.011827   0.377976  -0.017023   0.000006  -0.002492  -0.000047
    27  H    0.000362   0.392330  -0.029326   0.000003  -0.000001   0.000025
    28  H   -0.000135  -0.043471   0.427729  -0.000003   0.001208  -0.000157
    29  H    0.000059  -0.026930   0.380792  -0.000017   0.012036   0.000698
    30  H   -0.000022  -0.024440   0.387707   0.000001   0.000276  -0.000038
              13         14         15         16         17         18
     1  C    0.421569  -0.028010  -0.028136  -0.000408   0.000616  -0.000024
     2  C   -0.054774   0.396380   0.338843   0.010458  -0.005754   0.000883
     3  N   -0.003817  -0.010421  -0.029167  -0.018437  -0.027406   0.006186
     4  C   -0.000481  -0.013264   0.013866   0.398583   0.343350  -0.017604
     5  C    0.000021   0.008854  -0.007529  -0.027758  -0.029270   0.380921
     6  C    0.007029   0.011198  -0.006243  -0.010033   0.008745  -0.000009
     7  C    0.000394  -0.000477   0.000705   0.004116  -0.004634   0.000034
     8  C   -0.007544  -0.038063   0.013978  -0.022991   0.012111  -0.002509
     9  C    0.003335   0.004830  -0.000690   0.001040  -0.001154   0.001962
    10  Cl   0.001338   0.000616   0.062488   0.000574   0.060070   0.000063
    11  H   -0.024720  -0.004271   0.006402  -0.000000  -0.000168  -0.000003
    12  H   -0.017834  -0.001496  -0.002948   0.000019  -0.000004  -0.000000
    13  H    0.503473   0.005271  -0.003209  -0.000018  -0.000011   0.000003
    14  H    0.005271   0.486684  -0.018005  -0.000074  -0.000118   0.000376
    15  H   -0.003209  -0.018005   0.494118   0.000687  -0.005311  -0.000104
    16  H   -0.000018  -0.000074   0.000687   0.478520  -0.014443  -0.001819
    17  H   -0.000011  -0.000118  -0.005311  -0.014443   0.501301  -0.002800
    18  H    0.000003   0.000376  -0.000104  -0.001819  -0.002800   0.496480
    19  H   -0.000059  -0.002577   0.000725   0.004555  -0.001950  -0.015467
    20  H    0.000005  -0.000573   0.000326  -0.001946   0.005098  -0.019759
    21  H    0.000116   0.000583  -0.004260  -0.000382  -0.004110  -0.000019
    22  H   -0.001349  -0.000065  -0.000268  -0.000020   0.000513   0.000016
    23  H    0.000001  -0.000020  -0.000079   0.000275   0.000225  -0.000007
    24  H   -0.000037  -0.000010  -0.000008  -0.000575  -0.000172   0.000086
    25  H    0.000059   0.000022  -0.000030   0.000115  -0.000076   0.000001
    26  H    0.000535   0.000485  -0.000263   0.000148  -0.000214   0.000040
    27  H    0.000009   0.000398  -0.000137   0.001498   0.000161  -0.000043
    28  H   -0.000076  -0.002962   0.000163   0.000274  -0.000064   0.000929
    29  H    0.000550  -0.007364   0.000596  -0.000048   0.000107  -0.000073
    30  H   -0.000043   0.000634  -0.000027  -0.000032   0.000024  -0.000021
              19         20         21         22         23         24
     1  C    0.000173  -0.000166  -0.006164   0.005761  -0.000120   0.000042
     2  C    0.010114  -0.006137   0.011473  -0.011748   0.000081  -0.000681
     3  N   -0.005145  -0.009568  -0.028702  -0.016715  -0.010185  -0.003068
     4  C   -0.057845  -0.047527  -0.006815   0.010969  -0.005317   0.008454
     5  C    0.421773   0.407868   0.000722  -0.000566   0.000066   0.000029
     6  C   -0.001194  -0.000239   0.349979   0.400473  -0.033822  -0.053931
     7  C    0.000066  -0.000075  -0.035369  -0.031051   0.393591   0.419102
     8  C   -0.007071   0.031727   0.012262  -0.025612   0.021624  -0.007126
     9  C   -0.001201  -0.021174  -0.000412   0.000398   0.000709  -0.000198
    10  Cl   0.001048   0.000009   0.057872   0.000266   0.000008   0.000853
    11  H    0.000080  -0.000025   0.000390  -0.000000   0.000023   0.000003
    12  H    0.000106  -0.000004  -0.000081   0.000166  -0.000004   0.000002
    13  H   -0.000059   0.000005   0.000116  -0.001349   0.000001  -0.000037
    14  H   -0.002577  -0.000573   0.000583  -0.000065  -0.000020  -0.000010
    15  H    0.000725   0.000326  -0.004260  -0.000268  -0.000079  -0.000008
    16  H    0.004555  -0.001946  -0.000382  -0.000020   0.000275  -0.000575
    17  H   -0.001950   0.005098  -0.004110   0.000513   0.000225  -0.000172
    18  H   -0.015467  -0.019759  -0.000019   0.000016  -0.000007   0.000086
    19  H    0.499342  -0.025788  -0.000033   0.000009   0.000001  -0.000027
    20  H   -0.025788   0.520807  -0.000101  -0.000007   0.000009   0.000011
    21  H   -0.000033  -0.000101   0.507031  -0.015196   0.005474  -0.002968
    22  H    0.000009  -0.000007  -0.015196   0.479586  -0.003021   0.005284
    23  H    0.000001   0.000009   0.005474  -0.003021   0.518880  -0.022021
    24  H   -0.000027   0.000011  -0.002968   0.005284  -0.022021   0.510452
    25  H    0.000001  -0.000004  -0.002343  -0.001638  -0.022699  -0.019541
    26  H   -0.000163   0.000125   0.000229   0.000191  -0.000615   0.000639
    27  H    0.000874  -0.002301  -0.000257   0.000606  -0.004421   0.000716
    28  H   -0.003374  -0.000452   0.000004  -0.000023   0.000004   0.000003
    29  H    0.000573   0.000961  -0.000047   0.000271  -0.000035   0.000005
    30  H   -0.000102   0.001063   0.000015  -0.000053   0.000065  -0.000003
              25         26         27         28         29         30
     1  C    0.000121   0.002671  -0.000328   0.003760  -0.023200   0.001569
     2  C   -0.000364  -0.017647   0.012484  -0.018182   0.037717  -0.001561
     3  N    0.006384  -0.023126  -0.027539   0.000715  -0.018100   0.006066
     4  C    0.001139   0.004952   0.009460  -0.004615   0.000669   0.000596
     5  C   -0.000028   0.001138  -0.009891   0.007916  -0.002083   0.000248
     6  C   -0.028191   0.021380  -0.011770   0.000291  -0.003692  -0.000141
     7  C    0.393869  -0.011827   0.000362  -0.000135   0.000059  -0.000022
     8  C   -0.000952   0.377976   0.392330  -0.043471  -0.026930  -0.024440
     9  C    0.000004  -0.017023  -0.029326   0.427729   0.380792   0.387707
    10  Cl   0.000073   0.000006   0.000003  -0.000003  -0.000017   0.000001
    11  H   -0.000009  -0.002492  -0.000001   0.001208   0.012036   0.000276
    12  H    0.000000  -0.000047   0.000025  -0.000157   0.000698  -0.000038
    13  H    0.000059   0.000535   0.000009  -0.000076   0.000550  -0.000043
    14  H    0.000022   0.000485   0.000398  -0.002962  -0.007364   0.000634
    15  H   -0.000030  -0.000263  -0.000137   0.000163   0.000596  -0.000027
    16  H    0.000115   0.000148   0.001498   0.000274  -0.000048  -0.000032
    17  H   -0.000076  -0.000214   0.000161  -0.000064   0.000107   0.000024
    18  H    0.000001   0.000040  -0.000043   0.000929  -0.000073  -0.000021
    19  H    0.000001  -0.000163   0.000874  -0.003374   0.000573  -0.000102
    20  H   -0.000004   0.000125  -0.002301  -0.000452   0.000961   0.001063
    21  H   -0.002343   0.000229  -0.000257   0.000004  -0.000047   0.000015
    22  H   -0.001638   0.000191   0.000606  -0.000023   0.000271  -0.000053
    23  H   -0.022699  -0.000615  -0.004421   0.000004  -0.000035   0.000065
    24  H   -0.019541   0.000639   0.000716   0.000003   0.000005  -0.000003
    25  H    0.502651   0.000181   0.000096   0.000000  -0.000001  -0.000001
    26  H    0.000181   0.466332  -0.018456   0.004873  -0.008253  -0.002183
    27  H    0.000096  -0.018456   0.465689  -0.005019   0.005614  -0.001925
    28  H    0.000000   0.004873  -0.005019   0.496949  -0.026122  -0.017067
    29  H   -0.000001  -0.008253   0.005614  -0.026122   0.552448  -0.020738
    30  H   -0.000001  -0.002183  -0.001925  -0.017067  -0.020738   0.499292
 Mulliken charges:
               1
     1  C   -0.389948
     2  C   -0.272010
     3  N   -0.068592
     4  C   -0.163786
     5  C   -0.487208
     6  C   -0.196150
     7  C   -0.425046
     8  C   -0.316905
     9  C   -0.372041
    10  Cl  -0.855934
    11  H    0.140719
    12  H    0.171609
    13  H    0.170265
    14  H    0.211439
    15  H    0.173515
    16  H    0.198122
    17  H    0.165335
    18  H    0.172280
    19  H    0.182556
    20  H    0.167837
    21  H    0.161109
    22  H    0.202823
    23  H    0.161326
    24  H    0.164685
    25  H    0.171160
    26  H    0.220405
    27  H    0.221087
    28  H    0.176903
    29  H    0.143604
    30  H    0.170840
 Sum of Mulliken charges =  -0.00000
 Mulliken charges with hydrogens summed into heavy atoms:
               1
     1  C    0.092646
     2  C    0.112944
     3  N   -0.068592
     4  C    0.199671
     5  C    0.035464
     6  C    0.167782
     7  C    0.072126
     8  C    0.124587
     9  C    0.119307
    10  Cl  -0.855934
 Electronic spatial extent (au):  <R**2>=           2271.6315
 Charge=              0.0000 electrons
 Dipole moment (field-independent basis, Debye):
    X=            -16.2371    Y=              3.0263    Z=              0.4022  Tot=             16.5216
 Quadrupole moment (field-independent basis, Debye-Ang):
   XX=           -111.6644   YY=            -67.7681   ZZ=            -67.1965
   XY=              7.2395   XZ=              0.8389   YZ=             -0.4019
 Traceless Quadrupole moment (field-independent basis, Debye-Ang):
   XX=            -29.4547   YY=             14.4415   ZZ=             15.0132
   XY=              7.2395   XZ=              0.8389   YZ=             -0.4019
 Octapole moment (field-independent basis, Debye-Ang**2):
  XXX=           -188.6496  YYY=             11.6841  ZZZ=              6.2729  XYY=            -10.6120
  XXY=             27.5897  XXZ=              2.7872  XZZ=             -8.1533  YZZ=             -1.4295
  YYZ=             -4.5157  XYZ=             -1.2170
 Hexadecapole moment (field-independent basis, Debye-Ang**3):
 XXXX=          -2088.3961 YYYY=           -740.2627 ZZZZ=           -663.9002 XXXY=             73.5450
 XXXZ=              7.7088 YYYX=             16.2287 YYYZ=             -3.2051 ZZZX=              3.2258
 ZZZY=             -1.0314 XXYY=           -418.4317 XXZZ=           -395.6821 YYZZ=           -232.9601
 XXYZ=             -1.9817 YYXZ=             -0.9592 ZZXY=              5.2315
 N-N= 6.974566059659D+02 E-N=-3.348631574883D+03  KE= 8.283850548625D+02
 No NMR shielding tensors so no spin-rotation constants.
 Leave Link  601 at Sat Aug 21 09:33:44 2021, MaxMem=   104857600 cpu:               4.0 elap:               0.2
 (Enter /sw/arch/RedHatEnterpriseServer7/EB_production/2020/software/Gaussian/g16.c01/l701.exe)
 ... and contract with generalized density number  0.
 Compute integral first derivatives.
 R6Disp: Adding Grimme-D3 dispersion energy 1st derivatives to the gradient.
 D1PCM: PCM CHGder 1st derivatives, ID1Alg=3 FixD1E=F DoIter=F DoCFld=F I1PDM=0.
 GePol: Maximum number of non-zero 1st derivatives   =     261
 Leave Link  701 at Sat Aug 21 09:33:45 2021, MaxMem=   104857600 cpu:              28.7 elap:               1.3
 (Enter /sw/arch/RedHatEnterpriseServer7/EB_production/2020/software/Gaussian/g16.c01/l702.exe)
 L702 exits ... SP integral derivatives will be done elsewhere.
 Leave Link  702 at Sat Aug 21 09:33:46 2021, MaxMem=   104857600 cpu:               0.4 elap:               0.0
 (Enter /sw/arch/RedHatEnterpriseServer7/EB_production/2020/software/Gaussian/g16.c01/l703.exe)
 Integral derivatives from FoFJK, PRISM(SPDF).
 Compute integral first derivatives, UseDBF=F ICtDFT=           0.
 Calling FoFJK, ICntrl=      2527 FMM=F ISym2X=0 I1Cent= 0 IOpClX= 0 NMat=1 NMatS=1 NMatT=0.
 FoFJK:  IHMeth= 1 ICntrl=    2527 DoSepK=F KAlg= 0 I1Cent=           0 FoldK=F
 IRaf=         0 NMat=       1 IRICut=       1 DoRegI=T DoRafI=F ISym2E= 0 IDoP0=0 IntGTp=1.
 FoFCou: FMM=F IPFlag=           0 FMFlag=      100000 FMFlg1=         800
         NFxFlg=           0 DoJE=F BraDBF=F KetDBF=F FulRan=T
         wScrn=  0.000000 ICntrl=      2527 IOpCl=  0 I1Cent=           0 NGrid=           0
         NMat0=    1 NMatS0=      1 NMatT0=    0 NMatD0=    1 NMtDS0=    0 NMtDT0=    0
 Symmetry not used in FoFCou.
 Leave Link  703 at Sat Aug 21 09:33:51 2021, MaxMem=   104857600 cpu:             117.6 elap:               5.0
 (Enter /sw/arch/RedHatEnterpriseServer7/EB_production/2020/software/Gaussian/g16.c01/l716.exe)
 Dipole        =-6.38818245D+00 1.19063514D+00 1.58230367D-01
 ***** Axes restored to original set *****
 -------------------------------------------------------------------
 Center     Atomic                   Forces (Hartrees/Bohr)
 Number     Number              X              Y              Z
 -------------------------------------------------------------------
      1        6          -0.004621975   -0.001559066    0.001061971
      2        6          -0.009873493    0.028688122   -0.029207662
      3        7           0.004761819    0.009549407   -0.001391344
      4        6           0.022197184    0.010214399    0.033311843
      5        6           0.001848950   -0.001468092   -0.000712492
      6        6          -0.033552815   -0.008805049    0.017760083
      7        6           0.004875699   -0.002160684   -0.000087956
      8        6           0.017726911   -0.029421955   -0.019281276
      9        6           0.006821825   -0.000145948   -0.003027910
     10       17          -0.001806152    0.003051783    0.001699335
     11        1          -0.010109908    0.004489132    0.003603366
     12        1           0.001853891   -0.004145334    0.005884608
     13        1           0.005537838   -0.000318473   -0.003144354
     14        1          -0.005112477   -0.011632583    0.006872300
     15        1           0.000038766   -0.012496155    0.009353819
     16        1          -0.004486056   -0.003147590   -0.012200717
     17        1          -0.008269098   -0.004814572   -0.012239838
     18        1          -0.006055074   -0.003004268   -0.003719444
     19        1           0.002864189   -0.005712739    0.003564433
     20        1          -0.001986696    0.006791102    0.002220541
     21        1           0.011191712    0.003887407   -0.006746359
     22        1           0.011402664    0.003736312   -0.001708886
[...]
 Alpha virt. eigenvalues --    0.44239   0.44500   0.44701   0.45401   0.45541
 Alpha virt. eigenvalues --    0.46019   0.46628   0.47997   0.48158   0.49252
 Alpha virt. eigenvalues --    0.49779   0.50430   0.51043   0.51155   0.52192
 Alpha virt. eigenvalues --    0.54613   0.55048   0.56173   0.58939   0.61267
 Alpha virt. eigenvalues --    0.62579   0.63185   0.66009   0.70285   0.70556
 Alpha virt. eigenvalues --    0.72630   0.74569   0.78577   0.80336   0.80429
 Alpha virt. eigenvalues --    0.88599   0.88966   0.92271   1.04148   1.04687
 Alpha virt. eigenvalues --    1.13070   1.14310   1.15719   1.16423   1.17683
 Alpha virt. eigenvalues --    1.19926   1.20333   1.21520   1.22813   1.23249
 Alpha virt. eigenvalues --    1.24297   1.25340   1.25954   1.26621   1.26948
 Alpha virt. eigenvalues --    1.27592   1.29160   1.29659   1.29867   1.30487
 Alpha virt. eigenvalues --    1.32044   1.33237   1.33726   1.34860   1.36668
 Alpha virt. eigenvalues --    1.38567   1.38657   1.39793   1.41460   1.43213
 Alpha virt. eigenvalues --    1.43846   1.46618   1.47511   1.49762   1.50979
 Alpha virt. eigenvalues --    1.52182   1.52535   1.54156   1.55146   1.56012
 Alpha virt. eigenvalues --    1.56630   1.57445   1.59159   1.61041   1.61700
 Alpha virt. eigenvalues --    1.62469   1.63240   1.65607   1.68022   1.68272
 Alpha virt. eigenvalues --    1.69614   1.70692   1.71300   1.71755   1.72549
 Alpha virt. eigenvalues --    1.72741   1.73084   1.73870   1.74335   1.74858
 Alpha virt. eigenvalues --    1.75112   1.75699   1.77671   1.78080   1.78747
 Alpha virt. eigenvalues --    1.79506   1.80175   1.80716   1.80998   1.82513
 Alpha virt. eigenvalues --    1.83744   1.88458   1.89748   1.91315   1.93158
 Alpha virt. eigenvalues --    1.93818   1.94987   1.98575   2.01554   2.02346
 Alpha virt. eigenvalues --    2.05062   2.10656   2.13188   2.14353   2.15637
 Alpha virt. eigenvalues --    2.17403   2.18367   2.20547   2.21439   2.21832
 Alpha virt. eigenvalues --    2.24394   2.26187   2.26305   2.26508   2.26864
 Alpha virt. eigenvalues --    2.28111   2.28269   2.30866   2.33231   2.35453
 Alpha virt. eigenvalues --    2.36658   2.37552   2.39194   2.40706   2.42927
 Alpha virt. eigenvalues --    2.44940   2.45601   2.46565   2.48411   2.49168
 Alpha virt. eigenvalues --    2.50505   2.50824   2.51718   2.52287   2.53614
 Alpha virt. eigenvalues --    2.54540   2.56589   2.58857   2.60199   2.61661
 Alpha virt. eigenvalues --    2.63122   2.64390   2.66680   2.66730   2.67836
 Alpha virt. eigenvalues --    2.69256   2.70205   2.70792   2.73543   2.74891
 Alpha virt. eigenvalues --    2.80458   2.82929   2.84578   2.90535   2.93768
 Alpha virt. eigenvalues --    2.95984   2.99633   3.01799   3.04547   3.09121
 Alpha virt. eigenvalues --    3.14716   3.16067   3.17222   3.21829   3.24255
 Alpha virt. eigenvalues --    3.25369   3.25865   3.26049   3.26534   3.28240
 Alpha virt. eigenvalues --    3.29253   3.29801   3.30477   3.32168   3.33590
 Alpha virt. eigenvalues --    3.35321   3.36731   3.38438   3.39100   3.59909
 Alpha virt. eigenvalues --    3.60584   3.61791  21.76302  21.78646  21.79556
 Alpha virt. eigenvalues --   21.81250  21.87825  21.88642  21.89992  21.92737
 Alpha virt. eigenvalues --   24.21319  31.78827
          Condensed to atoms (all electrons):
               1          2          3          4          5          6
     1  C    5.135745   0.188775  -0.037961   0.015886   0.001883   0.014326
     2  C    0.188775   5.527469   0.161930  -0.113651   0.002289  -0.132682
     3  N   -0.037961   0.161930   6.834952   0.204405  -0.042610   0.202963
     4  C    0.015886  -0.113651   0.204405   5.423376   0.199747  -0.110129
     5  C    0.001883   0.002289  -0.042610   0.199747   5.143677   0.015123
     6  C    0.014326  -0.132682   0.202963  -0.110129   0.015123   5.460293
     7  C    0.000878   0.017435  -0.039506   0.003901   0.001148   0.209615
     8  C    0.005245  -0.076113   0.120887  -0.076150   0.005766  -0.095252
     9  C   -0.024065   0.026304  -0.034418  -0.014970  -0.003856   0.012381
    10  Cl   0.001527  -0.039272   0.003749  -0.039476   0.002574  -0.040730
    11  H    0.404253  -0.038483  -0.006332   0.000492  -0.000124  -0.010721
    12  H    0.392654  -0.032598   0.006772  -0.000163   0.000012   0.000929
    13  H    0.412879  -0.040548  -0.006161  -0.000932   0.000022   0.008666
    14  H   -0.028382   0.409908  -0.021293  -0.009085   0.003661   0.010847
    15  H   -0.034316   0.354142  -0.026360   0.009462  -0.006430  -0.014574
    16  H   -0.000688   0.009659  -0.021478   0.410670  -0.025215  -0.015693
    17  H   -0.000173  -0.016423  -0.028610   0.354397  -0.033077   0.011151
    18  H    0.000001  -0.000336   0.006982  -0.025215   0.386208  -0.000159
    19  H    0.000165   0.012857  -0.006461  -0.051340   0.420346  -0.001143
    20  H   -0.000162  -0.004477  -0.006744  -0.045039   0.411913   0.000219
    21  H   -0.010863   0.014172  -0.028778  -0.015974   0.000485   0.355723
    22  H    0.009813  -0.018521  -0.020945   0.010267  -0.000715   0.410141
    23  H   -0.000248   0.000403  -0.007291  -0.007127  -0.000002  -0.041619
    24  H    0.000145  -0.001439  -0.005818   0.010024   0.000029  -0.045706
    25  H    0.000108  -0.000191   0.007002   0.000921  -0.000034  -0.032728
    26  H    0.002108  -0.019015  -0.024446   0.007283   0.000313   0.020153
    27  H    0.000129   0.011883  -0.025775   0.004325  -0.006537  -0.013846
    28  H    0.001478  -0.015048   0.000545  -0.001684   0.006302   0.000403
    29  H   -0.005280   0.021191  -0.012649   0.000147  -0.001297  -0.002380
    30  H    0.000385  -0.000184   0.006106   0.000296   0.000187  -0.000144
               7          8          9         10         11         12
     1  C    0.000878   0.005245  -0.024065   0.001527   0.404253   0.392654
     2  C    0.017435  -0.076113   0.026304  -0.039272  -0.038483  -0.032598
     3  N   -0.039506   0.120887  -0.034418   0.003749  -0.006332   0.006772
     4  C    0.003901  -0.076150  -0.014970  -0.039476   0.000492  -0.000163
     5  C    0.001148   0.005766  -0.003856   0.002574  -0.000124   0.000012
     6  C    0.209615  -0.095252   0.012381  -0.040730  -0.010721   0.000929
     7  C    5.118779  -0.003895   0.001713   0.001782  -0.000075  -0.000037
     8  C   -0.003895   5.456573   0.212686  -0.000402   0.023008  -0.001414
     9  C    0.001713   0.212686   5.112658   0.000047  -0.008475   0.001126
    10  Cl   0.001782  -0.000402   0.000047  17.838637   0.000069  -0.000001
    11  H   -0.000075   0.023008  -0.008475   0.000069   0.505822  -0.018967
    12  H   -0.000037  -0.001414   0.001126  -0.000001  -0.018967   0.499719
    13  H    0.000210  -0.005131   0.001404   0.002577  -0.026176  -0.019124
    14  H   -0.000735  -0.029766   0.004825   0.000399  -0.001252  -0.003125
    15  H    0.000120   0.013294  -0.000635   0.048014   0.005319   0.000570
    16  H    0.005892  -0.019819   0.000866   0.000163   0.000006   0.000021
    17  H   -0.007694   0.013306  -0.000978   0.047379  -0.000134  -0.000025
    18  H    0.000098  -0.001378   0.001297   0.000206  -0.000001  -0.000001
    19  H    0.000062  -0.005143  -0.000382   0.000495   0.000027   0.000090
    20  H   -0.000190   0.019292  -0.013096   0.000032  -0.000012  -0.000003
    21  H   -0.033204   0.012156  -0.000762   0.048641   0.000750   0.000010
    22  H   -0.027034  -0.020383   0.000305   0.000153   0.000373   0.000429
    23  H    0.406837   0.018429   0.000519   0.000028   0.000018  -0.000002
    24  H    0.416610  -0.005343  -0.000140   0.001070  -0.000005   0.000002
    25  H    0.393622  -0.000888  -0.000004   0.000070  -0.000012  -0.000000
    26  H   -0.010077   0.390563  -0.029611   0.000010  -0.003699  -0.000007
    27  H    0.001120   0.394222  -0.022536   0.000003   0.000168   0.000015
    28  H   -0.000105  -0.037841   0.417081  -0.000002   0.000153  -0.000037
    29  H    0.000049  -0.034698   0.403708  -0.000004   0.002365   0.000169
    30  H   -0.000036  -0.028657   0.390575   0.000000   0.000201  -0.000028
              13         14         15         16         17         18
     1  C    0.412879  -0.028382  -0.034316  -0.000688  -0.000173   0.000001
     2  C   -0.040548   0.409908   0.354142   0.009659  -0.016423  -0.000336
     3  N   -0.006161  -0.021293  -0.026360  -0.021478  -0.028610   0.006982
     4  C   -0.000932  -0.009085   0.009462   0.410670   0.354397  -0.025215
     5  C    0.000022   0.003661  -0.006430  -0.025215  -0.033077   0.386208
     6  C    0.008666   0.010847  -0.014574  -0.015693   0.011151  -0.000159
     7  C    0.000210  -0.000735   0.000120   0.005892  -0.007694   0.000098
     8  C   -0.005131  -0.029766   0.013294  -0.019819   0.013306  -0.001378
     9  C    0.001404   0.004825  -0.000635   0.000866  -0.000978   0.001297
    10  Cl   0.002577   0.000399   0.048014   0.000163   0.047379   0.000206
    11  H   -0.026176  -0.001252   0.005319   0.000006  -0.000134  -0.000001
    12  H   -0.019124  -0.003125   0.000570   0.000021  -0.000025  -0.000001
    13  H    0.502685   0.004641  -0.005391  -0.000012   0.000017   0.000000
    14  H    0.004641   0.461962  -0.014429  -0.000188  -0.000068   0.000111
    15  H   -0.005391  -0.014429   0.513654   0.000760  -0.000713  -0.000021
    16  H   -0.000012  -0.000188   0.000760   0.463901  -0.014130  -0.001409
    17  H    0.000017  -0.000068  -0.000713  -0.014130   0.524497  -0.002950
    18  H    0.000000   0.000111  -0.000021  -0.001409  -0.002950   0.501203
    19  H   -0.000029  -0.002226  -0.000545   0.004401  -0.002553  -0.018291
    20  H    0.000002  -0.000116   0.000388  -0.002525   0.005582  -0.020501
    21  H   -0.000383   0.000746  -0.001695   0.000341  -0.001871  -0.000035
    22  H   -0.005871  -0.000284   0.000558  -0.000103   0.000650   0.000019
    23  H   -0.000012  -0.000004  -0.000080   0.000474   0.000464  -0.000008
    24  H   -0.000040  -0.000006   0.000023  -0.003844  -0.000943   0.000117
    25  H    0.000087   0.000023  -0.000040   0.000325  -0.000016  -0.000001
    26  H    0.000521   0.001023  -0.000319   0.000173  -0.000451   0.000041
    27  H   -0.000009  -0.000009  -0.000267   0.002355   0.000176  -0.000077
    28  H   -0.000030   0.000011   0.000038   0.000258  -0.000102   0.000778
    29  H    0.000116  -0.006262   0.000197  -0.000038   0.000073  -0.000055
    30  H   -0.000007   0.000546  -0.000012  -0.000019   0.000024  -0.000015
              19         20         21         22         23         24
     1  C    0.000165  -0.000162  -0.010863   0.009813  -0.000248   0.000145
     2  C    0.012857  -0.004477   0.014172  -0.018521   0.000403  -0.001439
     3  N   -0.006461  -0.006744  -0.028778  -0.020945  -0.007291  -0.005818
     4  C   -0.051340  -0.045039  -0.015974   0.010267  -0.007127   0.010024
     5  C    0.420346   0.411913   0.000485  -0.000715  -0.000002   0.000029
     6  C   -0.001143   0.000219   0.355723   0.410141  -0.041619  -0.045706
     7  C    0.000062  -0.000190  -0.033204  -0.027034   0.406837   0.416610
     8  C   -0.005143   0.019292   0.012156  -0.020383   0.018429  -0.005343
     9  C   -0.000382  -0.013096  -0.000762   0.000305   0.000519  -0.000140
    10  Cl   0.000495   0.000032   0.048641   0.000153   0.000028   0.001070
    11  H    0.000027  -0.000012   0.000750   0.000373   0.000018  -0.000005
    12  H    0.000090  -0.000003   0.000010   0.000429  -0.000002   0.000002
    13  H   -0.000029   0.000002  -0.000383  -0.005871  -0.000012  -0.000040
    14  H   -0.002226  -0.000116   0.000746  -0.000284  -0.000004  -0.000006
    15  H   -0.000545   0.000388  -0.001695   0.000558  -0.000080   0.000023
    16  H    0.004401  -0.002525   0.000341  -0.000103   0.000474  -0.003844
    17  H   -0.002553   0.005582  -0.001871   0.000650   0.000464  -0.000943
    18  H   -0.018291  -0.020501  -0.000035   0.000019  -0.000008   0.000117
    19  H    0.497558  -0.026482   0.000027  -0.000003  -0.000003  -0.000033
    20  H   -0.026482   0.512045  -0.000100   0.000011   0.000018   0.000023
    21  H    0.000027  -0.000100   0.513372  -0.012024   0.004879  -0.003878
    22  H   -0.000003   0.000011  -0.012024   0.453928  -0.000871   0.004394
    23  H   -0.000003   0.000018   0.004879  -0.000871   0.500208  -0.024437
    24  H   -0.000033   0.000023  -0.003878   0.004394  -0.024437   0.506380
    25  H    0.000002  -0.000004  -0.000099  -0.002788  -0.019770  -0.020437
    26  H   -0.000102  -0.000065   0.000424   0.001556  -0.000986   0.000567
    27  H    0.000611  -0.001313  -0.000363   0.000646  -0.004722   0.000637
    28  H   -0.002448  -0.001019   0.000017  -0.000021   0.000011  -0.000001
    29  H    0.000374   0.000629  -0.000039   0.000211  -0.000037   0.000004
    30  H   -0.000057   0.000661   0.000019  -0.000032   0.000071  -0.000003
              25         26         27         28         29         30
     1  C    0.000108   0.002108   0.000129   0.001478  -0.005280   0.000385
     2  C   -0.000191  -0.019015   0.011883  -0.015048   0.021191  -0.000184
     3  N    0.007002  -0.024446  -0.025775   0.000545  -0.012649   0.006106
     4  C    0.000921   0.007283   0.004325  -0.001684   0.000147   0.000296
     5  C   -0.000034   0.000313  -0.006537   0.006302  -0.001297   0.000187
     6  C   -0.032728   0.020153  -0.013846   0.000403  -0.002380  -0.000144
     7  C    0.393622  -0.010077   0.001120  -0.000105   0.000049  -0.000036
     8  C   -0.000888   0.390563   0.394222  -0.037841  -0.034698  -0.028657
     9  C   -0.000004  -0.029611  -0.022536   0.417081   0.403708   0.390575
    10  Cl   0.000070   0.000010   0.000003  -0.000002  -0.000004   0.000000
    11  H   -0.000012  -0.003699   0.000168   0.000153   0.002365   0.000201
    12  H   -0.000000  -0.000007   0.000015  -0.000037   0.000169  -0.000028
    13  H    0.000087   0.000521  -0.000009  -0.000030   0.000116  -0.000007
    14  H    0.000023   0.001023  -0.000009   0.000011  -0.006262   0.000546
    15  H   -0.000040  -0.000319  -0.000267   0.000038   0.000197  -0.000012
    16  H    0.000325   0.000173   0.002355   0.000258  -0.000038  -0.000019
    17  H   -0.000016  -0.000451   0.000176  -0.000102   0.000073   0.000024
    18  H   -0.000001   0.000041  -0.000077   0.000778  -0.000055  -0.000015
    19  H    0.000002  -0.000102   0.000611  -0.002448   0.000374  -0.000057
    20  H   -0.000004  -0.000065  -0.001313  -0.001019   0.000629   0.000661
    21  H   -0.000099   0.000424  -0.000363   0.000017  -0.000039   0.000019
    22  H   -0.002788   0.001556   0.000646  -0.000021   0.000211  -0.000032
    23  H   -0.019770  -0.000986  -0.004722   0.000011  -0.000037   0.000071
    24  H   -0.020437   0.000567   0.000637  -0.000001   0.000004  -0.000003
    25  H    0.501498   0.000135   0.000121   0.000001  -0.000000  -0.000001
    26  H    0.000135   0.470758  -0.019784   0.004682  -0.007119  -0.001108
    27  H    0.000121  -0.019784   0.471720  -0.004057   0.004971  -0.002403
    28  H    0.000001   0.004682  -0.004057   0.497368  -0.028354  -0.017498
    29  H   -0.000000  -0.007119   0.004971  -0.028354   0.515239  -0.019923
    30  H   -0.000001  -0.001108  -0.002403  -0.017498  -0.019923   0.497479
 Mulliken charges:
               1
     1  C   -0.446243
     2  C   -0.209435
     3  N   -0.152658
     4  C   -0.144666
     5  C   -0.481791
     6  C   -0.175424
     7  C   -0.457280
     8  C   -0.243155
     9  C   -0.433568
    10  Cl  -0.877738
    11  H    0.171445
    12  H    0.173012
    13  H    0.176026
    14  H    0.218524
    15  H    0.159286
    16  H    0.204895
    17  H    0.153195
    18  H    0.173390
    19  H    0.180227
    20  H    0.171032
    21  H    0.158309
    22  H    0.216143
    23  H    0.174860
    24  H    0.172048
    25  H    0.173099
    26  H    0.216482
    27  H    0.208596
    28  H    0.179122
    29  H    0.168692
    30  H    0.173576
 Sum of Mulliken charges =  -0.00000
 Mulliken charges with hydrogens summed into heavy atoms:
               1
     1  C    0.074239
     2  C    0.168375
     3  N   -0.152658
     4  C    0.213424
     5  C    0.042858
     6  C    0.199027
     7  C    0.062726
     8  C    0.181923
     9  C    0.087823
    10  Cl  -0.877738
 Electronic spatial extent (au):  <R**2>=           2335.4094
 Charge=              0.0000 electrons
 Dipole moment (field-independent basis, Debye):
    X=            -17.6015    Y=             -2.9072    Z=             -0.1307  Tot=             17.8404
 Quadrupole moment (field-independent basis, Debye-Ang):
   XX=           -114.5574   YY=            -67.7621   ZZ=            -66.7677
   XY=             -6.6707   XZ=             -0.2846   YZ=             -0.0816
 Traceless Quadrupole moment (field-independent basis, Debye-Ang):
   XX=            -31.5283   YY=             15.2670   ZZ=             16.2614
   XY=             -6.6707   XZ=             -0.2846   YZ=             -0.0816
 Octapole moment (field-independent basis, Debye-Ang**2):
  XXX=           -209.3543  YYY=            -11.4636  ZZZ=             -3.1209  XYY=            -12.9576
  XXY=            -26.1408  XXZ=             -1.0213  XZZ=            -10.6703  YZZ=              1.5378
  YYZ=              2.3952  XYZ=             -0.7676
 Hexadecapole moment (field-independent basis, Debye-Ang**3):
 XXXX=          -2252.0165 YYYY=           -710.1039 ZZZZ=           -690.8454 XXXY=            -74.1855
 XXXZ=             -1.0799 YYYX=            -14.8344 YYYZ=             -0.2202 ZZZX=             -3.9399
 ZZZY=              0.0982 XXYY=           -427.3138 XXZZ=           -413.8497 YYZZ=           -232.3636
 XXYZ=             -1.5116 YYXZ=              1.7048 ZZXY=             -3.7491
 N-N= 6.909484141690D+02 E-N=-3.335648523472D+03  KE= 8.285672674378D+02
 Unable to Open any file for archive entry.
 1\1\GINC-TCN1459\SP\RBP86\TZVP\C8H20Cl1N1\ELENAA\21-Aug-2021\0\\# BP86
 /TZVP SCRF=COSMORS geom=CHECKPOINT guess=CHECKPOINT\\COSMO-file for #Y
 MBCJWGVCUEGHA-UHFFFAOYSA-M\\0,1\C,0,-0.7000668257,0.7372177513,-1.7712
 617722\C,0,0.3347287072,1.0279827348,-0.6906381007\N,0,0.5874518742,-0
 .1173350758,0.2932685634\C,0,1.4718603233,0.4071134207,1.4342295747\C,
 0,2.8549550075,0.9186291567,1.0583362592\C,0,-0.766189861,-0.508182458
 6,0.913841341\C,0,-0.7150765793,-1.5789707133,1.9956593815\C,0,1.19764
 66568,-1.3517973583,-0.3877624484\C,0,2.1871716109,-1.0979105667,-1.51
 98886825\Cl,0,-1.1093594613,2.9570445915,2.0589334861\H,0,-0.518740236
 ,-0.2089339337,-2.300160516\H,0,-0.638149746,1.5454607049,-2.513874367
 7\H,0,-1.7245948723,0.7293000662,-1.3782652025\H,0,1.3043671527,1.2676
 488663,-1.1385401967\H,0,0.0170171741,1.874972111,-0.0623565145\H,0,1.
 5675129059,-0.4239207779,2.1422575408\H,0,0.8703290995,1.2034800916,1.
 9005414439\H,0,3.2962808997,1.3400251659,1.9734829031\H,0,2.8317747795
 ,1.7216727929,0.3104405498\H,0,3.5235499931,0.1199718558,0.7138983328\
 H,0,-1.1824340278,0.4344101202,1.3031601877\H,0,-1.384792828,-0.852469
 6802,0.0773656273\H,0,-0.2441647728,-2.5113598208,1.6558759256\H,0,-0.
 2168220633,-1.2382186158,2.9120323433\H,0,-1.7555431063,-1.8169579571,
 2.2604673852\H,0,0.3496417115,-1.9374168189,-0.7655437102\H,0,1.668470
 4795,-1.9310588281,0.416066313\H,0,3.0451115358,-0.4866132931,-1.22050
 46389\H,0,1.715514804,-0.636174474,-2.3965888983\H,0,2.5723363737,-2.0
 789922496,-1.8338370598\\Version=ES64L-G16RevC.01\State=1-A\HF=-832.03
 86642\RMSD=9.924e-09\Dipole=3.0367081,-5.4798402,-3.1647428\Quadrupole
 =4.9048811,-9.1273283,4.2224472,12.346922,7.5221881,-12.8549306\PG=C01
  [X(C8H20Cl1N1)]\\@
 The archive entry for this job was punched.


 QED = W**5 (WHICH WAS WHAT WE WANTED)
 Job cpu time:       0 days  0 hours  8 minutes 34.9 seconds.
 Elapsed time:       0 days  0 hours  0 minutes 22.1 seconds.
 File lengths (MBytes):  RWF=     79 Int=      0 D2E=      0 Chk=     12 Scr=      1
 Normal termination of Gaussian 16 at Sat Aug 21 09:43:19 2021.
