 Entering Gaussian System, Link 0=g16
 Input=ZQBAKBUEJOMQEX-UHFFFAOYSA-N.gjf
 Output=ZQBAKBUEJOMQEX-UHFFFAOYSA-N.log
 Initial command:
 /sw/arch/RedHatEnterpriseServer7/EB_production/2019/software/Gaussian/g16.c01/l1.exe "/scratch-local/elenaa.9715307/Gau-22831.inp" -scrdir="/scratch-local/elenaa.9715307/"
 Entering Link 1 = /sw/arch/RedHatEnterpriseServer7/EB_production/2019/software/Gaussian/g16.c01/l1.exe PID=     22832.
  
 Copyright (c) 1988-2019, Gaussian, Inc.  All Rights Reserved.
  
 This is part of the Gaussian(R) 16 program.  It is based on
 the Gaussian(R) 09 system (copyright 2009, Gaussian, Inc.),
 the Gaussian(R) 03 system (copyright 2003, Gaussian, Inc.),
 the Gaussian(R) 98 system (copyright 1998, Gaussian, Inc.),
 the Gaussian(R) 94 system (copyright 1995, Gaussian, Inc.),
 the Gaussian 92(TM) system (copyright 1992, Gaussian, Inc.),
 the Gaussian 90(TM) system (copyright 1990, Gaussian, Inc.),
 the Gaussian 88(TM) system (copyright 1988, Gaussian, Inc.),
 the Gaussian 86(TM) system (copyright 1986, Carnegie Mellon
 University), and the Gaussian 82(TM) system (copyright 1983,
 Carnegie Mellon University). Gaussian is a federally registered
 trademark of Gaussian, Inc.
  
 This software contains proprietary and confidential information,
 including trade secrets, belonging to Gaussian, Inc.
  
 This software is provided under written license and may be
 used, copied, transmitted, or stored only in accord with that
 written license.
  
 The following legend is applicable only to US Government
 contracts under FAR:
  
                    RESTRICTED RIGHTS LEGEND
  
 Use, reproduction and disclosure by the US Government is
 subject to restrictions as set forth in subparagraphs (a)
 and (c) of the Commercial Computer Software - Restricted
 Rights clause in FAR 52.227-19.
  
 Gaussian, Inc.
 340 Quinnipiac St., Bldg. 40, Wallingford CT 06492
  
  
 ---------------------------------------------------------------
 Warning -- This program may not be used in any manner that
 competes with the business of Gaussian, Inc. or will provide
 assistance to any competitor of Gaussian, Inc.  The licensee
 of this program is prohibited from giving any competitor of
 Gaussian, Inc. access to this program.  By using this program,
 the user acknowledges that Gaussian, Inc. is engaged in the
 business of creating and licensing software in the field of
 computational chemistry and represents and warrants to the
 licensee that it is not a competitor of Gaussian, Inc. and that
 it will not use this program in any manner prohibited above.
 ---------------------------------------------------------------
  

 Cite this work as:
 Gaussian 16, Revision C.01,
 M. J. Frisch, G. W. Trucks, H. B. Schlegel, G. E. Scuseria, 
 M. A. Robb, J. R. Cheeseman, G. Scalmani, V. Barone, 
 G. A. Petersson, H. Nakatsuji, X. Li, M. Caricato, A. V. Marenich, 
 J. Bloino, B. G. Janesko, R. Gomperts, B. Mennucci, H. P. Hratchian, 
 J. V. Ortiz, A. F. Izmaylov, J. L. Sonnenberg, D. Williams-Young, 
 F. Ding, F. Lipparini, F. Egidi, J. Goings, B. Peng, A. Petrone, 
 T. Henderson, D. Ranasinghe, V. G. Zakrzewski, J. Gao, N. Rega, 
 G. Zheng, W. Liang, M. Hada, M. Ehara, K. Toyota, R. Fukuda, 
 J. Hasegawa, M. Ishida, T. Nakajima, Y. Honda, O. Kitao, H. Nakai, 
 T. Vreven, K. Throssell, J. A. Montgomery, Jr., J. E. Peralta, 
 F. Ogliaro, M. J. Bearpark, J. J. Heyd, E. N. Brothers, K. N. Kudin, 
 V. N. Staroverov, T. A. Keith, R. Kobayashi, J. Normand, 
 K. Raghavachari, A. P. Rendell, J. C. Burant, S. S. Iyengar, 
 J. Tomasi, M. Cossi, J. M. Millam, M. Klene, C. Adamo, R. Cammi, 
 J. W. Ochterski, R. L. Martin, K. Morokuma, O. Farkas, 
 J. B. Foresman, and D. J. Fox, Gaussian, Inc., Wallingford CT, 2019.
 
 ******************************************
 Gaussian 16:  ES64L-G16RevC.01  3-Jul-2019
                22-Feb-2021 
 ******************************************
 %chk=ZQBAKBUEJOMQEX-UHFFFAOYSA-N.chk
 %NProcShared=32
 Will use up to   32 processors via shared memory.
 -------------------------------------------------------------
 #P BP86/TZVP EmpiricalDispersion=GD3 SCRF=(Solvent=Water) Opt
 -------------------------------------------------------------
 1/18=20,19=15,26=3,38=1/1,3;
 2/9=110,12=2,17=6,18=5,40=1/2;
 3/5=19,7=101,11=2,25=1,30=1,70=2201,71=1,72=1,74=404,124=31/1,2,3;
 4//1;
 5/5=2,38=5,53=1/2;
 6/7=2,8=2,9=2,10=2,28=1/1;
 7//1,2,3,16;
 1/18=20,19=15,26=3/3(2);
 2/9=110/2;
 99//99;
 2/9=110/2;
 3/5=19,7=101,11=2,25=1,30=1,70=2205,71=1,72=1,74=404,124=31/1,2,3;
 4/5=5,16=3,69=1/1;
 5/5=2,38=5,53=1/2;
 7//1,2,3,16;
 1/18=20,19=15,26=3/3(-5);
 2/9=110/2;
 6/7=2,8=2,9=2,10=2,19=2,28=1/1;
 99/9=1/99;
 Leave Link    1 at Mon Feb 22 21:30:28 2021, MaxMem=           0 cpu:               2.0 elap:               0.1
 (Enter /sw/arch/RedHatEnterpriseServer7/EB_production/2019/software/Gaussian/g16.c01/l101.exe)
 -------------------------------------
 Particle #ZQBAKBUEJOMQEX-UHFFFAOYSA-N
 -------------------------------------
 Symbolic Z-matrix:
 Charge =  0 Multiplicity = 1
 O                     1.93894   2.48731   0.91976 
 C                     0.86421   1.95719   0.553 
 O                     0.5253    0.70464   0.98616 
 C                     1.20494  -0.24621   1.69658 
 C                     0.41523  -1.23875   2.31347 
 C                     1.01215  -2.24721   3.09036 
 C                     2.40961  -2.27714   3.24917 
 C                     3.2083   -1.30315   2.62413 
 C                     2.61056  -0.29577   1.84368 
 C                    -0.05558   2.68578  -0.24739 
 C                    -1.26444   2.07798  -0.67461 
 C                    -2.16763   2.76604  -1.50411 
 C                    -1.88276   4.07789  -1.91584 
 C                    -0.70024   4.70365  -1.48933 
 C                     0.20771   4.02314  -0.65442 
 O                     1.32115   4.6892   -0.24278 
 H                    -0.60246  -1.22495   2.2067 
 H                     0.43004  -2.9563    3.54098 
 H                     2.84231  -3.01064   3.81454 
 H                     4.22391  -1.32748   2.73445 
 H                     3.21009   0.38756   1.3813 
 H                    -1.49618   1.11972  -0.39675 
 H                    -3.02999   2.30948  -1.80937 
 H                    -2.53645   4.57837  -2.52057 
 H                    -0.50549   5.6606   -1.78842 
 H                     1.81616   4.06876   0.33204 
 
 ITRead=  0  0  0  0  0  0  0  0  0  0  0  0  0  0  0  0  0  0  0  0
 ITRead=  0  0  0  0  0  0
 MicOpt= -1 -1 -1 -1 -1 -1 -1 -1 -1 -1 -1 -1 -1 -1 -1 -1 -1 -1 -1 -1
 MicOpt= -1 -1 -1 -1 -1 -1
 NAtoms=     26 NQM=       26 NQMF=       0 NMMI=      0 NMMIF=      0
                NMic=       0 NMicF=      0.
                    Isotopes and Nuclear Properties:
 (Nuclear quadrupole moments (NQMom) in fm**2, nuclear magnetic moments (NMagM)
  in nuclear magnetons)

  Atom         1           2           3           4           5           6           7           8           9          10
 IAtWgt=          16          12          16          12          12          12          12          12          12          12
 AtmWgt=  15.9949146  12.0000000  15.9949146  12.0000000  12.0000000  12.0000000  12.0000000  12.0000000  12.0000000  12.0000000
 NucSpn=           0           0           0           0           0           0           0           0           0           0
 AtZEff=  -0.0000000  -0.0000000  -0.0000000  -0.0000000  -0.0000000  -0.0000000  -0.0000000  -0.0000000  -0.0000000  -0.0000000
 NQMom=    0.0000000   0.0000000   0.0000000   0.0000000   0.0000000   0.0000000   0.0000000   0.0000000   0.0000000   0.0000000
 NMagM=    0.0000000   0.0000000   0.0000000   0.0000000   0.0000000   0.0000000   0.0000000   0.0000000   0.0000000   0.0000000
 AtZNuc=   8.0000000   6.0000000   8.0000000   6.0000000   6.0000000   6.0000000   6.0000000   6.0000000   6.0000000   6.0000000

  Atom        11          12          13          14          15          16          17          18          19          20
 IAtWgt=          12          12          12          12          12          16           1           1           1           1
 AtmWgt=  12.0000000  12.0000000  12.0000000  12.0000000  12.0000000  15.9949146   1.0078250   1.0078250   1.0078250   1.0078250
 NucSpn=           0           0           0           0           0           0           1           1           1           1
 AtZEff=  -0.0000000  -0.0000000  -0.0000000  -0.0000000  -0.0000000  -0.0000000  -0.0000000  -0.0000000  -0.0000000  -0.0000000
 NQMom=    0.0000000   0.0000000   0.0000000   0.0000000   0.0000000   0.0000000   0.0000000   0.0000000   0.0000000   0.0000000
 NMagM=    0.0000000   0.0000000   0.0000000   0.0000000   0.0000000   0.0000000   2.7928460   2.7928460   2.7928460   2.7928460
 AtZNuc=   6.0000000   6.0000000   6.0000000   6.0000000   6.0000000   8.0000000   1.0000000   1.0000000   1.0000000   1.0000000

  Atom        21          22          23          24          25          26
 IAtWgt=           1           1           1           1           1           1
 AtmWgt=   1.0078250   1.0078250   1.0078250   1.0078250   1.0078250   1.0078250
 NucSpn=           1           1           1           1           1           1
 AtZEff=  -0.0000000  -0.0000000  -0.0000000  -0.0000000  -0.0000000  -0.0000000
 NQMom=    0.0000000   0.0000000   0.0000000   0.0000000   0.0000000   0.0000000
 NMagM=    2.7928460   2.7928460   2.7928460   2.7928460   2.7928460   2.7928460
 AtZNuc=   1.0000000   1.0000000   1.0000000   1.0000000   1.0000000   1.0000000
 Leave Link  101 at Mon Feb 22 21:30:28 2021, MaxMem=   104857600 cpu:               3.1 elap:               0.1
 (Enter /sw/arch/RedHatEnterpriseServer7/EB_production/2019/software/Gaussian/g16.c01/l103.exe)

 GradGradGradGradGradGradGradGradGradGradGradGradGradGradGradGradGradGrad
 Berny optimization.
 Initialization pass.
                           ----------------------------
                           !    Initial Parameters    !
                           ! (Angstroms and Degrees)  !
 --------------------------                            --------------------------
 ! Name  Definition              Value          Derivative Info.                !
 --------------------------------------------------------------------------------
 ! R1    R(1,2)                  1.2532         estimate D2E/DX2                !
 ! R2    R(2,3)                  1.368          estimate D2E/DX2                !
 ! R3    R(2,10)                 1.4204         estimate D2E/DX2                !
 ! R4    R(3,4)                  1.3677         estimate D2E/DX2                !
 ! R5    R(4,5)                  1.4104         estimate D2E/DX2                !
 ! R6    R(4,9)                  1.4142         estimate D2E/DX2                !
 ! R7    R(5,6)                  1.406          estimate D2E/DX2                !
 ! R8    R(5,17)                 1.0234         estimate D2E/DX2                !
 ! R9    R(6,7)                  1.4068         estimate D2E/DX2                !
 ! R10   R(6,18)                 1.0221         estimate D2E/DX2                !
 ! R11   R(7,8)                  1.4061         estimate D2E/DX2                !
 ! R12   R(7,19)                 1.0222         estimate D2E/DX2                !
 ! R13   R(8,9)                  1.4076         estimate D2E/DX2                !
 ! R14   R(8,20)                 1.0219         estimate D2E/DX2                !
 ! R15   R(9,21)                 1.0199         estimate D2E/DX2                !
 ! R16   R(10,11)                1.4189         estimate D2E/DX2                !
 ! R17   R(10,15)                1.4225         estimate D2E/DX2                !
 ! R18   R(11,12)                1.4061         estimate D2E/DX2                !
 ! R19   R(11,22)                1.0243         estimate D2E/DX2                !
 ! R20   R(12,13)                1.4041         estimate D2E/DX2                !
 ! R21   R(12,23)                1.0224         estimate D2E/DX2                !
 ! R22   R(13,14)                1.4042         estimate D2E/DX2                !
 ! R23   R(13,24)                1.0215         estimate D2E/DX2                !
 ! R24   R(14,15)                1.4087         estimate D2E/DX2                !
 ! R25   R(14,25)                1.0213         estimate D2E/DX2                !
 ! R26   R(15,16)                1.3612         estimate D2E/DX2                !
 ! R27   R(16,26)                0.98           estimate D2E/DX2                !
 ! A1    A(1,2,3)              120.471          estimate D2E/DX2                !
 ! A2    A(1,2,10)             120.2161         estimate D2E/DX2                !
 ! A3    A(3,2,10)             119.1874         estimate D2E/DX2                !
 ! A4    A(2,3,4)              132.6794         estimate D2E/DX2                !
 ! A5    A(3,4,5)              115.9876         estimate D2E/DX2                !
 ! A6    A(3,4,9)              124.9102         estimate D2E/DX2                !
 ! A7    A(5,4,9)              119.102          estimate D2E/DX2                !
 ! A8    A(4,5,6)              120.5774         estimate D2E/DX2                !
 ! A9    A(4,5,17)             120.1108         estimate D2E/DX2                !
 ! A10   A(6,5,17)             119.3087         estimate D2E/DX2                !
 ! A11   A(5,6,7)              119.959          estimate D2E/DX2                !
 ! A12   A(5,6,18)             119.961          estimate D2E/DX2                !
 ! A13   A(7,6,18)             120.0799         estimate D2E/DX2                !
 ! A14   A(6,7,8)              119.9551         estimate D2E/DX2                !
 ! A15   A(6,7,19)             119.8817         estimate D2E/DX2                !
 ! A16   A(8,7,19)             120.1622         estimate D2E/DX2                !
 ! A17   A(7,8,9)              120.0659         estimate D2E/DX2                !
 ! A18   A(7,8,20)             120.0031         estimate D2E/DX2                !
 ! A19   A(9,8,20)             119.9308         estimate D2E/DX2                !
 ! A20   A(4,9,8)              120.3216         estimate D2E/DX2                !
 ! A21   A(4,9,21)             120.9074         estimate D2E/DX2                !
 ! A22   A(8,9,21)             118.7679         estimate D2E/DX2                !
 ! A23   A(2,10,11)            120.1088         estimate D2E/DX2                !
 ! A24   A(2,10,15)            121.5762         estimate D2E/DX2                !
 ! A25   A(11,10,15)           118.3109         estimate D2E/DX2                !
 ! A26   A(10,11,12)           121.0138         estimate D2E/DX2                !
 ! A27   A(10,11,22)           120.7852         estimate D2E/DX2                !
 ! A28   A(12,11,22)           118.1956         estimate D2E/DX2                !
 ! A29   A(11,12,13)           119.9884         estimate D2E/DX2                !
 ! A30   A(11,12,23)           119.9598         estimate D2E/DX2                !
 ! A31   A(13,12,23)           120.0515         estimate D2E/DX2                !
 ! A32   A(12,13,14)           119.8758         estimate D2E/DX2                !
 ! A33   A(12,13,24)           120.0991         estimate D2E/DX2                !
 ! A34   A(14,13,24)           120.0244         estimate D2E/DX2                !
 ! A35   A(13,14,15)           120.4976         estimate D2E/DX2                !
 ! A36   A(13,14,25)           119.2856         estimate D2E/DX2                !
 ! A37   A(15,14,25)           120.2165         estimate D2E/DX2                !
 ! A38   A(10,15,14)           120.2941         estimate D2E/DX2                !
 ! A39   A(10,15,16)           121.6617         estimate D2E/DX2                !
 ! A40   A(14,15,16)           118.0383         estimate D2E/DX2                !
 ! A41   A(15,16,26)           106.3057         estimate D2E/DX2                !
 ! D1    D(1,2,3,4)             -7.7524         estimate D2E/DX2                !
 ! D2    D(10,2,3,4)           176.311          estimate D2E/DX2                !
 ! D3    D(1,2,10,11)          179.2508         estimate D2E/DX2                !
 ! D4    D(1,2,10,15)            0.0            estimate D2E/DX2                !
 ! D5    D(3,2,10,11)           -4.802          estimate D2E/DX2                !
 ! D6    D(3,2,10,15)          175.9472         estimate D2E/DX2                !
 ! D7    D(2,3,4,5)            160.9141         estimate D2E/DX2                !
 ! D8    D(2,3,4,9)            -19.2432         estimate D2E/DX2                !
 ! D9    D(3,4,5,6)           -178.6869         estimate D2E/DX2                !
 ! D10   D(3,4,5,17)             0.6726         estimate D2E/DX2                !
 ! D11   D(9,4,5,6)              1.4607         estimate D2E/DX2                !
 ! D12   D(9,4,5,17)          -179.1798         estimate D2E/DX2                !
 ! D13   D(3,4,9,8)            178.5425         estimate D2E/DX2                !
 ! D14   D(3,4,9,21)            -2.111          estimate D2E/DX2                !
 ! D15   D(5,4,9,8)             -1.6193         estimate D2E/DX2                !
 ! D16   D(5,4,9,21)           177.7272         estimate D2E/DX2                !
 ! D17   D(4,5,6,7)             -0.4692         estimate D2E/DX2                !
 ! D18   D(4,5,6,18)           179.3779         estimate D2E/DX2                !
 ! D19   D(17,5,6,7)          -179.8338         estimate D2E/DX2                !
 ! D20   D(17,5,6,18)            0.0133         estimate D2E/DX2                !
 ! D21   D(5,6,7,8)             -0.3816         estimate D2E/DX2                !
 ! D22   D(5,6,7,19)           179.9769         estimate D2E/DX2                !
 ! D23   D(18,6,7,8)           179.7715         estimate D2E/DX2                !
 ! D24   D(18,6,7,19)            0.13           estimate D2E/DX2                !
 ! D25   D(6,7,8,9)              0.22           estimate D2E/DX2                !
 ! D26   D(6,7,8,20)          -179.6361         estimate D2E/DX2                !
 ! D27   D(19,7,8,9)           179.8605         estimate D2E/DX2                !
 ! D28   D(19,7,8,20)            0.0044         estimate D2E/DX2                !
 ! D29   D(7,8,9,4)              0.7903         estimate D2E/DX2                !
 ! D30   D(7,8,9,21)          -178.57           estimate D2E/DX2                !
 ! D31   D(20,8,9,4)          -179.3535         estimate D2E/DX2                !
 ! D32   D(20,8,9,21)            1.2862         estimate D2E/DX2                !
 ! D33   D(2,10,11,12)        -177.8604         estimate D2E/DX2                !
 ! D34   D(2,10,11,22)           1.2816         estimate D2E/DX2                !
 ! D35   D(15,10,11,12)          1.4146         estimate D2E/DX2                !
 ! D36   D(15,10,11,22)       -179.4435         estimate D2E/DX2                !
 ! D37   D(2,10,15,14)         177.6356         estimate D2E/DX2                !
 ! D38   D(2,10,15,16)          -3.2598         estimate D2E/DX2                !
 ! D39   D(11,10,15,14)         -1.6282         estimate D2E/DX2                !
 ! D40   D(11,10,15,16)        177.4764         estimate D2E/DX2                !
 ! D41   D(10,11,12,13)         -0.3697         estimate D2E/DX2                !
 ! D42   D(10,11,12,23)        179.4379         estimate D2E/DX2                !
 ! D43   D(22,11,12,13)       -179.5333         estimate D2E/DX2                !
 ! D44   D(22,11,12,23)          0.2744         estimate D2E/DX2                !
 ! D45   D(11,12,13,14)         -0.4878         estimate D2E/DX2                !
 ! D46   D(11,12,13,24)        179.8285         estimate D2E/DX2                !
 ! D47   D(23,12,13,14)        179.7048         estimate D2E/DX2                !
 ! D48   D(23,12,13,24)          0.0211         estimate D2E/DX2                !
 ! D49   D(12,13,14,15)          0.2649         estimate D2E/DX2                !
 ! D50   D(12,13,14,25)       -179.534          estimate D2E/DX2                !
 ! D51   D(24,13,14,15)        179.9489         estimate D2E/DX2                !
 ! D52   D(24,13,14,25)          0.15           estimate D2E/DX2                !
 ! D53   D(13,14,15,10)          0.8129         estimate D2E/DX2                !
 ! D54   D(13,14,15,16)       -178.3236         estimate D2E/DX2                !
 ! D55   D(25,14,15,10)       -179.3901         estimate D2E/DX2                !
 ! D56   D(25,14,15,16)          1.4734         estimate D2E/DX2                !
 ! D57   D(10,15,16,26)          0.0            estimate D2E/DX2                !
 ! D58   D(14,15,16,26)        179.1241         estimate D2E/DX2                !
 --------------------------------------------------------------------------------
 Trust Radius=3.00D-01 FncErr=1.00D-07 GrdErr=1.00D-06 EigMax=2.50D+02 EigMin=1.00D-04
 Number of steps in this run=    136 maximum allowed number of steps=    156.
 GradGradGradGradGradGradGradGradGradGradGradGradGradGradGradGradGradGrad

 Leave Link  103 at Mon Feb 22 21:30:28 2021, MaxMem=   104857600 cpu:               0.7 elap:               0.1
 (Enter /sw/arch/RedHatEnterpriseServer7/EB_production/2019/software/Gaussian/g16.c01/l202.exe)
                          Input orientation:                          
 ---------------------------------------------------------------------
 Center     Atomic      Atomic             Coordinates (Angstroms)
 Number     Number       Type             X           Y           Z
 ---------------------------------------------------------------------
      1          8           0        1.938941    2.487307    0.919759
      2          6           0        0.864210    1.957190    0.553000
      3          8           0        0.525299    0.704640    0.986156
      4          6           0        1.204939   -0.246212    1.696575
      5          6           0        0.415229   -1.238754    2.313469
      6          6           0        1.012149   -2.247206    3.090364
      7          6           0        2.409608   -2.277143    3.249172
      8          6           0        3.208299   -1.303153    2.624133
      9          6           0        2.610558   -0.295766    1.843676
     10          6           0       -0.055580    2.685780   -0.247390
     11          6           0       -1.264440    2.077980   -0.674610
     12          6           0       -2.167630    2.766040   -1.504110
     13          6           0       -1.882760    4.077890   -1.915840
     14          6           0       -0.700240    4.703650   -1.489330
     15          6           0        0.207710    4.023140   -0.654420
     16          8           0        1.321150    4.689200   -0.242780
     17          1           0       -0.602465   -1.224952    2.206702
     18          1           0        0.430043   -2.956302    3.540985
     19          1           0        2.842310   -3.010640    3.814541
     20          1           0        4.223912   -1.327478    2.734448
     21          1           0        3.210086    0.387557    1.381298
     22          1           0       -1.496180    1.119720   -0.396750
     23          1           0       -3.029990    2.309480   -1.809370
     24          1           0       -2.536450    4.578370   -2.520570
     25          1           0       -0.505490    5.660600   -1.788420
     26          1           0        1.816158    4.068757    0.332036
 ---------------------------------------------------------------------
                    Distance matrix (angstroms):
                    1          2          3          4          5
     1  O    0.000000
     2  C    1.253229   0.000000
     3  O    2.276114   1.367979   0.000000
     4  C    2.935018   2.505762   1.367745   0.000000
     5  C    4.260007   3.676261   2.355983   1.410440   0.000000
     6  C    5.290187   4.912946   3.657609   2.446178   1.406005
     7  C    5.324253   5.252349   4.190810   2.826033   2.435433
     8  C    4.345543   4.518206   3.729972   2.447639   2.811031
     9  C    3.008353   3.129119   2.466670   1.414164   2.435036
    10  C    2.319428   1.420381   2.404989   3.736909   4.709738
    11  C    3.601557   2.460237   2.801316   4.137901   4.769762
    12  C    4.776689   3.752065   4.207453   5.540061   6.106018
    13  C    5.017567   4.258918   5.059560   6.425052   7.171786
    14  C    4.204898   3.763198   4.860253   6.187151   7.142669
    15  C    2.798926   2.481331   3.715480   4.974838   6.044747
    16  O    2.565443   2.882003   4.245042   5.304045   6.518876
    17  H    4.679298   3.874518   2.546548   2.117751   1.023373
    18  H    6.227397   5.767058   4.465279   3.368515   2.111157
    19  H    6.278794   6.263374   5.212639   3.848223   3.359094
    20  H    4.802788   5.180285   4.567906   3.370536   3.832905
    21  H    2.497554   2.941591   2.732171   2.126424   3.365272
    22  H    3.924736   2.678586   2.484169   3.680194   4.069542
    23  H    5.671865   4.568336   4.799016   6.062824   6.438735
    24  H    6.019762   5.280332   6.056172   7.420168   8.119069
    25  H    4.835211   4.590596   5.772550   7.068323   8.079252
    26  H    1.691591   2.326745   3.662168   4.566674   5.835954
                    6          7          8          9         10
     6  C    0.000000
     7  C    1.406772   0.000000
     8  C    2.435504   1.406142   0.000000
     9  C    2.813762   2.437550   1.407564   0.000000
    10  C    6.051032   6.552381   5.900012   4.513365   0.000000
    11  C    6.169693   6.918221   6.505318   5.195387   1.418901
    12  C    7.506851   8.305328   7.905779   6.588885   2.458972
    13  C    8.570263   9.245983   8.688260   7.311138   2.839064
    14  C    8.498250   8.991997   8.263107   6.860355   2.455565
    15  C    7.347636   7.731749   6.936991   5.537790   1.422507
    16  O    7.701886   7.868189   6.905709   5.555696   2.430864
    17  H    2.105430   3.356550   3.834356   3.364326   4.649245
    18  H    1.022117   2.113075   3.360390   3.835877   6.813274
    19  H    2.111103   1.022199   2.113416   3.362820   7.572730
    20  H    3.359762   2.111517   1.021876   2.112064   6.581159
    21  H    3.833250   3.351170   2.098367   1.019881   4.312659
    22  H    5.457826   6.331398   6.093289   4.887577   2.133115
    23  H    7.817267   8.730130   8.463056   7.207485   3.380606
    24  H    9.521744  10.234816   9.698579   8.324394   3.860565
    25  H    9.414836   9.842910   9.041942   7.640692   3.380347
    26  H    6.938745   7.009444   6.004097   4.686703   2.398283
                   11         12         13         14         15
    11  C    0.000000
    12  C    1.406147   0.000000
    13  C    2.433642   1.404145   0.000000
    14  C    2.806463   2.430593   1.404222   0.000000
    15  C    2.439525   2.818601   2.442180   1.408738   0.000000
    16  O    3.700030   4.178646   3.665770   2.374892   1.361188
    17  H    4.432779   5.669910   6.837736   6.987026   6.031987
    18  H    6.781335   8.058913   9.198144   9.233443   8.146377
    19  H    7.931703   9.314374  10.266976  10.009544   8.739953
    20  H    7.303481   8.693335   9.388004   8.857882   7.499561
    21  H    5.206310   6.550007   7.101180   6.493059   5.135744
    22  H    1.024291   2.094627   3.347812   3.830379   3.376312
    23  H    2.111502   1.022397   2.110627   3.355922   3.840995
    24  H    3.358203   2.110393   1.021513   2.109696   3.364701
    25  H    3.827760   3.349928   2.101923   1.021340   2.115629
    26  H    3.803500   4.575923   4.328397   3.170603   1.887400
                   16         17         18         19         20
    16  O    0.000000
    17  H    6.684119   0.000000
    18  H    8.576983   2.417428   0.000000
    19  H    8.835344   4.200036   2.428336   0.000000
    20  H    7.313708   4.856227   4.206781   2.430732   0.000000
    21  H    4.970899   4.221021   4.855335   4.195673   2.408361
    22  H    4.549972   3.615823   5.985820   7.322386   6.965101
    23  H    5.200932   5.874855   8.265990   9.716787   9.300153
    24  H    4.481260   7.730844  10.115029  11.254233  10.401767
    25  H    2.582486   7.961233  10.174909  10.853172   9.573756
    26  H    0.979998   6.114529   7.846663   7.956047   6.378731
                   21         22         23         24         25
    21  H    0.000000
    22  H    5.083941   0.000000
    23  H    7.267234   2.400749   0.000000
    24  H    8.112346   4.189873   2.428425   0.000000
    25  H    7.187322   4.851577   4.195658   2.414967   0.000000
    26  H    4.073723   4.494389   5.582636   5.228983   3.524251
                   26
    26  H    0.000000
 Stoichiometry    C13H10O3
 Framework group  C1[X(C13H10O3)]
 Deg. of freedom    72
 Full point group                 C1      NOp   1
 Largest Abelian subgroup         C1      NOp   1
 Largest concise Abelian subgroup C1      NOp   1
                         Standard orientation:                         
 ---------------------------------------------------------------------
 Center     Atomic      Atomic             Coordinates (Angstroms)
 Number     Number       Type             X           Y           Z
 ---------------------------------------------------------------------
      1          8           0        0.157358    1.688921   -0.164461
      2          6           0        0.360819    0.459172   -0.034446
      3          8           0       -0.688124   -0.418551   -0.008199
      4          6           0       -2.043747   -0.242243    0.035712
      5          6           0       -2.823958   -1.347524   -0.362992
      6          6           0       -4.227300   -1.262994   -0.381364
      7          6           0       -4.864485   -0.071316    0.009668
      8          6           0       -4.097322    1.031098    0.426057
      9          6           0       -2.692565    0.944892    0.447541
     10          6           0        1.687840   -0.046120   -0.000140
     11          6           0        1.915858   -1.437035    0.163094
     12          6           0        3.221578   -1.952529    0.244388
     13          6           0        4.324292   -1.087736    0.156193
     14          6           0        4.120192    0.289913   -0.023435
     15          6           0        2.815471    0.813981   -0.110597
     16          8           0        2.675930    2.151774   -0.319567
     17          1           0       -2.370724   -2.218383   -0.651914
     18          1           0       -4.783210   -2.066662   -0.681040
     19          1           0       -5.884808   -0.011045   -0.004479
     20          1           0       -4.559609    1.895223    0.715556
     21          1           0       -2.156417    1.748728    0.773964
     22          1           0        1.131584   -2.091616    0.237996
     23          1           0        3.367161   -2.956601    0.370646
     24          1           0        5.273538   -1.460081    0.217666
     25          1           0        4.928860    0.909808   -0.093596
     26          1           0        1.712278    2.324113   -0.365049
 ---------------------------------------------------------------------
 Rotational constants (GHZ):           1.5073346           0.2586316           0.2234607
 Leave Link  202 at Mon Feb 22 21:30:29 2021, MaxMem=   104857600 cpu:               1.5 elap:               0.1
 (Enter /sw/arch/RedHatEnterpriseServer7/EB_production/2019/software/Gaussian/g16.c01/l301.exe)
 Standard basis: TZVP (5D, 7F)
 Ernie: Thresh=  0.10000D-02 Tol=  0.10000D-05 Strict=F.
 There are   380 symmetry adapted cartesian basis functions of A   symmetry.
 There are   364 symmetry adapted basis functions of A   symmetry.
   364 basis functions,   640 primitive gaussians,   380 cartesian basis functions
    56 alpha electrons       56 beta electrons
       nuclear repulsion energy       990.2239268386 Hartrees.
 IExCor=  404 DFT=T Ex=B Corr=P86 ExCW=0 ScaHFX=  0.000000
 ScaDFX=  1.000000  1.000000  1.000000  1.000000 ScalE2=  1.000000  1.000000
 IRadAn=      5 IRanWt=     -1 IRanGd=            0 ICorTp=0 IEmpDi=131
 NAtoms=   26 NActive=   26 NUniq=   26 SFac= 1.00D+00 NAtFMM=   60 NAOKFM=F Big=F
 Integral buffers will be    131072 words long.
 Raffenetti 2 integral format.
 Two-electron integral symmetry is turned on.
 R6Disp:  Grimme-D3 Dispersion energy=       -0.0230789428 Hartrees.
 Nuclear repulsion after empirical dispersion term =      990.2008478958 Hartrees.
 ------------------------------------------------------------------------------
 Polarizable Continuum Model (PCM)
 =================================
 Model                : PCM.
 Atomic radii         : UFF (Universal Force Field).
 Polarization charges : Total charges.
 Charge compensation  : None.
 Solution method      : On-the-fly selection.
 Cavity type          : Scaled VdW (van der Waals Surface) (Alpha=1.100).
 Cavity algorithm     : GePol (No added spheres)
                        Default sphere list used, NSphG=   26.
                        Lebedev-Laikov grids with approx.  5.0 points / Ang**2.
                        Smoothing algorithm: York/Karplus (Gamma=1.0000).
                        Polarization charges: spherical gaussians, with
                                              point-specific exponents (IZeta= 3).
                        Self-potential: point-specific (ISelfS= 7).
                        Self-field    : sphere-specific E.n sum rule (ISelfD= 2).
 1st derivatives      : Analytical E(r).r(x)/FMM algorithm (CHGder, D1EAlg=3).
                        Cavity 1st derivative terms included.
 Solvent              : Water, Eps=  78.355300 Eps(inf)=   1.777849
 ------------------------------------------------------------------------------
 GePol: Number of generator spheres                  =      26
 GePol: Total number of spheres                      =      26
 GePol: Number of exposed spheres                    =      26 (100.00%)
 GePol: Number of points                             =    2212
 GePol: Average weight of points                     =       0.12
 GePol: Minimum weight of points                     =   0.12D-08
 GePol: Maximum weight of points                     =    0.20577
 GePol: Number of points with low weight             =     173
 GePol: Fraction of low-weight points (<1% of avg)   =       7.82%
 GePol: Cavity surface area                          =    274.108 Ang**2
 GePol: Cavity volume                                =    288.252 Ang**3
 Leave Link  301 at Mon Feb 22 21:30:29 2021, MaxMem=   104857600 cpu:               1.8 elap:               0.1
 (Enter /sw/arch/RedHatEnterpriseServer7/EB_production/2019/software/Gaussian/g16.c01/l302.exe)
 NPDir=0 NMtPBC=     1 NCelOv=     1 NCel=       1 NClECP=     1 NCelD=      1
         NCelK=      1 NCelE2=     1 NClLst=     1 CellRange=     0.0.
 One-electron integrals computed using PRISM.
 One-electron integral symmetry used in STVInt
 PrsmSu:  requested number of processors reduced to:  27 ShMem   1 Linda.
 NBasis=   364 RedAO= T EigKep=  9.72D-06  NBF=   364
 NBsUse=   364 1.00D-06 EigRej= -1.00D+00 NBFU=   364
 Precomputing XC quadrature grid using
 IXCGrd= 4 IRadAn=           5 IRanWt=          -1 IRanGd=           0 AccXCQ= 0.00D+00.
 Generated NRdTot=       0 NPtTot=           0 NUsed=           0 NTot=          32
 NSgBfM=   369   369   369   369   369 MxSgAt=    26 MxSgA2=    26.
 Leave Link  302 at Mon Feb 22 21:30:29 2021, MaxMem=   104857600 cpu:              14.2 elap:               0.5
 (Enter /sw/arch/RedHatEnterpriseServer7/EB_production/2019/software/Gaussian/g16.c01/l303.exe)
 DipDrv:  MaxL=1.
 Leave Link  303 at Mon Feb 22 21:30:30 2021, MaxMem=   104857600 cpu:               1.5 elap:               0.1
 (Enter /sw/arch/RedHatEnterpriseServer7/EB_production/2019/software/Gaussian/g16.c01/l401.exe)
 ExpMin= 9.52D-02 ExpMax= 2.70D+04 ExpMxC= 9.22D+02 IAcc=3 IRadAn=         5 AccDes= 0.00D+00
 Harris functional with IExCor=  404 and IRadAn=       5 diagonalized for initial guess.
 HarFok:  IExCor=  404 AccDes= 0.00D+00 IRadAn=         5 IDoV= 1 UseB2=F ITyADJ=14
 ICtDFT=  3500011 ScaDFX=  1.000000  1.000000  1.000000  1.000000
 FoFCou: FMM=F IPFlag=           0 FMFlag=      100000 FMFlg1=           0
         NFxFlg=           0 DoJE=T BraDBF=F KetDBF=T FulRan=T
         wScrn=  0.000000 ICntrl=       500 IOpCl=  0 I1Cent=   200000004 NGrid=           0
         NMat0=    1 NMatS0=      1 NMatT0=    0 NMatD0=    1 NMtDS0=    0 NMtDT0=    0
 Petite list used in FoFCou.
 Harris En= -727.578395192852    
 JPrj=0 DoOrth=F DoCkMO=F.
 Leave Link  401 at Mon Feb 22 21:30:30 2021, MaxMem=   104857600 cpu:              18.6 elap:               0.6
 (Enter /sw/arch/RedHatEnterpriseServer7/EB_production/2019/software/Gaussian/g16.c01/l502.exe)
 Integral symmetry usage will be decided dynamically.
 Closed shell SCF:
 Using DIIS extrapolation, IDIIS=  1040.
 NGot=   104857600 LenX=   104552294 LenY=   104407453
 Requested convergence on RMS density matrix=1.00D-08 within 128 cycles.
 Requested convergence on MAX density matrix=1.00D-06.
 Requested convergence on             energy=1.00D-06.
 No special actions if energy rises.
 Fock matrices will be formed incrementally for  20 cycles.

 Cycle   1  Pass 1  IDiag  1:
 FoFJK:  IHMeth= 1 ICntrl=     500 DoSepK=F KAlg= 0 I1Cent=           0 FoldK=F
 IRaf= 810000000 NMat=       1 IRICut=       1 DoRegI=T DoRafI=F ISym2E= 0 IDoP0=0 IntGTp=1.
 FoFCou: FMM=F IPFlag=           0 FMFlag=      100000 FMFlg1=           0
         NFxFlg=           0 DoJE=T BraDBF=F KetDBF=F FulRan=T
         wScrn=  0.000000 ICntrl=       500 IOpCl=  0 I1Cent=           0 NGrid=           0
         NMat0=    1 NMatS0=      1 NMatT0=    0 NMatD0=    1 NMtDS0=    0 NMtDT0=    0
 Symmetry not used in FoFCou.
 Inv3:  Mode=1 IEnd=    14678832.
 Iteration    1 A*A^-1 deviation from unit magnitude is 3.00D-15 for    596.
 Iteration    1 A*A^-1 deviation from orthogonality  is 1.79D-15 for   1767   1712.
 Iteration    1 A^-1*A deviation from unit magnitude is 2.89D-15 for    850.
 Iteration    1 A^-1*A deviation from orthogonality  is 1.55D-15 for   1235    150.
 E= -726.985475094041    
 DIIS: error= 3.01D-02 at cycle   1 NSaved=   1.
 NSaved= 1 IEnMin= 1 EnMin= -726.985475094041     IErMin= 1 ErrMin= 3.01D-02
 ErrMax= 3.01D-02  0.00D+00 EMaxC= 1.00D-01 BMatC= 3.73D-01 BMatP= 3.73D-01
 IDIUse=3 WtCom= 6.99D-01 WtEn= 3.01D-01
 Coeff-Com:  0.100D+01
 Coeff-En:   0.100D+01
 Coeff:      0.100D+01
 Gap=     0.100 Goal=   None    Shift=    0.000
 GapD=    0.100 DampG=1.000 DampE=0.500 DampFc=0.5000 IDamp=-1.
 Damping current iteration by 5.00D-01
 RMSDP=9.03D-03 MaxDP=7.35D-01              OVMax= 2.93D-01

 Cycle   2  Pass 1  IDiag  1:
 RMSU=  4.49D-03    CP:  1.04D+00
 E= -727.030046232935     Delta-E=       -0.044571138894 Rises=F Damp=T
 DIIS: error= 1.25D-02 at cycle   2 NSaved=   2.
 NSaved= 2 IEnMin= 2 EnMin= -727.030046232935     IErMin= 2 ErrMin= 1.25D-02
 ErrMax= 1.25D-02  0.00D+00 EMaxC= 1.00D-01 BMatC= 9.85D-02 BMatP= 3.73D-01
 IDIUse=3 WtCom= 8.75D-01 WtEn= 1.25D-01
 Coeff-Com:  0.295D+00 0.705D+00
 Coeff-En:   0.443D+00 0.557D+00
 Coeff:      0.314D+00 0.686D+00
 Gap=     0.093 Goal=   None    Shift=    0.000
 RMSDP=2.98D-03 MaxDP=2.47D-01 DE=-4.46D-02 OVMax= 2.45D-01

 Cycle   3  Pass 1  IDiag  1:
 RMSU=  2.18D-03    CP:  9.99D-01  5.60D-01
 E= -727.241945586640     Delta-E=       -0.211899353705 Rises=F Damp=F
 DIIS: error= 1.78D-02 at cycle   3 NSaved=   3.
 NSaved= 3 IEnMin= 3 EnMin= -727.241945586640     IErMin= 2 ErrMin= 1.25D-02
 ErrMax= 1.78D-02  0.00D+00 EMaxC= 1.00D-01 BMatC= 1.04D-01 BMatP= 9.85D-02
 IDIUse=3 WtCom= 8.22D-01 WtEn= 1.78D-01
 Coeff-Com:  0.130D+00 0.485D+00 0.384D+00
 Coeff-En:   0.000D+00 0.636D-02 0.994D+00
 Coeff:      0.107D+00 0.400D+00 0.493D+00
 Gap=     0.119 Goal=   None    Shift=    0.000
 RMSDP=2.13D-03 MaxDP=1.15D-01 DE=-2.12D-01 OVMax= 1.47D-01

 Cycle   4  Pass 1  IDiag  1:
 RMSU=  1.31D-03    CP:  1.02D+00  6.87D-01  2.87D-01
 E= -727.289518861335     Delta-E=       -0.047573274695 Rises=F Damp=F
 DIIS: error= 1.22D-02 at cycle   4 NSaved=   4.
 NSaved= 4 IEnMin= 4 EnMin= -727.289518861335     IErMin= 4 ErrMin= 1.22D-02
 ErrMax= 1.22D-02  0.00D+00 EMaxC= 1.00D-01 BMatC= 5.45D-02 BMatP= 9.85D-02
 IDIUse=3 WtCom= 8.78D-01 WtEn= 1.22D-01
 Coeff-Com:  0.555D-01 0.165D+00 0.382D+00 0.397D+00
 Coeff-En:   0.000D+00 0.000D+00 0.366D+00 0.634D+00
 Coeff:      0.487D-01 0.145D+00 0.380D+00 0.426D+00
 Gap=     0.108 Goal=   None    Shift=    0.000
 RMSDP=1.10D-03 MaxDP=4.82D-02 DE=-4.76D-02 OVMax= 6.11D-02

 Cycle   5  Pass 1  IDiag  1:
 RMSU=  4.11D-04    CP:  1.01D+00  5.62D-01  5.28D-01  5.07D-01
 E= -727.329072743484     Delta-E=       -0.039553882150 Rises=F Damp=F
 DIIS: error= 2.16D-03 at cycle   5 NSaved=   5.
 NSaved= 5 IEnMin= 5 EnMin= -727.329072743484     IErMin= 5 ErrMin= 2.16D-03
 ErrMax= 2.16D-03  0.00D+00 EMaxC= 1.00D-01 BMatC= 2.40D-03 BMatP= 5.45D-02
 IDIUse=3 WtCom= 9.78D-01 WtEn= 2.16D-02
 Coeff-Com:  0.186D-01 0.353D-01 0.194D+00 0.284D+00 0.468D+00
 Coeff-En:   0.000D+00 0.000D+00 0.000D+00 0.000D+00 0.100D+01
 Coeff:      0.182D-01 0.345D-01 0.190D+00 0.278D+00 0.479D+00
 Gap=     0.112 Goal=   None    Shift=    0.000
 RMSDP=2.83D-04 MaxDP=8.28D-03 DE=-3.96D-02 OVMax= 2.89D-02

 Cycle   6  Pass 1  IDiag  1:
 RMSU=  1.62D-04    CP:  1.01D+00  5.80D-01  5.19D-01  5.75D-01  5.25D-01
 E= -727.331071885704     Delta-E=       -0.001999142219 Rises=F Damp=F
 DIIS: error= 8.54D-04 at cycle   6 NSaved=   6.
 NSaved= 6 IEnMin= 6 EnMin= -727.331071885704     IErMin= 6 ErrMin= 8.54D-04
 ErrMax= 8.54D-04  0.00D+00 EMaxC= 1.00D-01 BMatC= 3.40D-04 BMatP= 2.40D-03
 IDIUse=3 WtCom= 9.91D-01 WtEn= 8.54D-03
 Coeff-Com:  0.410D-02 0.162D-02 0.660D-01 0.114D+00 0.320D+00 0.495D+00
 Coeff-En:   0.000D+00 0.000D+00 0.000D+00 0.000D+00 0.142D+00 0.858D+00
 Coeff:      0.407D-02 0.160D-02 0.654D-01 0.113D+00 0.319D+00 0.498D+00
 Gap=     0.111 Goal=   None    Shift=    0.000
 RMSDP=7.71D-05 MaxDP=3.75D-03 DE=-2.00D-03 OVMax= 8.83D-03

 Cycle   7  Pass 1  IDiag  1:
 RMSU=  4.61D-05    CP:  1.01D+00  5.84D-01  5.24D-01  5.57D-01  6.02D-01
                    CP:  7.34D-01
 E= -727.331370393865     Delta-E=       -0.000298508162 Rises=F Damp=F
 DIIS: error= 2.47D-04 at cycle   7 NSaved=   7.
 NSaved= 7 IEnMin= 7 EnMin= -727.331370393865     IErMin= 7 ErrMin= 2.47D-04
 ErrMax= 2.47D-04  0.00D+00 EMaxC= 1.00D-01 BMatC= 3.20D-05 BMatP= 3.40D-04
 IDIUse=3 WtCom= 9.98D-01 WtEn= 2.47D-03
 Coeff-Com:  0.550D-03-0.145D-02 0.161D-01 0.308D-01 0.139D+00 0.303D+00
 Coeff-Com:  0.513D+00
 Coeff-En:   0.000D+00 0.000D+00 0.000D+00 0.000D+00 0.000D+00 0.253D-01
 Coeff-En:   0.975D+00
 Coeff:      0.549D-03-0.144D-02 0.160D-01 0.307D-01 0.138D+00 0.302D+00
 Coeff:      0.514D+00
 Gap=     0.111 Goal=   None    Shift=    0.000
 RMSDP=3.15D-05 MaxDP=2.13D-03 DE=-2.99D-04 OVMax= 2.11D-03

 Cycle   8  Pass 1  IDiag  1:
 RMSU=  1.62D-05    CP:  1.01D+00  5.83D-01  5.24D-01  5.66D-01  5.87D-01
                    CP:  6.87D-01  5.33D-01
 E= -727.331396907750     Delta-E=       -0.000026513884 Rises=F Damp=F
 DIIS: error= 6.01D-05 at cycle   8 NSaved=   8.
 NSaved= 8 IEnMin= 8 EnMin= -727.331396907750     IErMin= 8 ErrMin= 6.01D-05
 ErrMax= 6.01D-05  0.00D+00 EMaxC= 1.00D-01 BMatC= 2.36D-06 BMatP= 3.20D-05
 IDIUse=1 WtCom= 1.00D+00 WtEn= 0.00D+00
 Coeff-Com:  0.161D-03-0.687D-03 0.488D-02 0.917D-02 0.566D-01 0.133D+00
 Coeff-Com:  0.293D+00 0.504D+00
 Coeff:      0.161D-03-0.687D-03 0.488D-02 0.917D-02 0.566D-01 0.133D+00
 Coeff:      0.293D+00 0.504D+00
 Gap=     0.111 Goal=   None    Shift=    0.000
 RMSDP=1.05D-05 MaxDP=6.00D-04 DE=-2.65D-05 OVMax= 8.72D-04

 Cycle   9  Pass 1  IDiag  1:
 RMSU=  4.85D-06    CP:  1.01D+00  5.83D-01  5.24D-01  5.63D-01  5.98D-01
                    CP:  6.90D-01  6.03D-01  6.14D-01
 E= -727.331398517862     Delta-E=       -0.000001610112 Rises=F Damp=F
 DIIS: error= 2.65D-05 at cycle   9 NSaved=   9.
 NSaved= 9 IEnMin= 9 EnMin= -727.331398517862     IErMin= 9 ErrMin= 2.65D-05
 ErrMax= 2.65D-05  0.00D+00 EMaxC= 1.00D-01 BMatC= 5.21D-07 BMatP= 2.36D-06
 IDIUse=1 WtCom= 1.00D+00 WtEn= 0.00D+00
 Coeff-Com:  0.385D-04-0.242D-03 0.594D-03 0.771D-03 0.156D-01 0.393D-01
 Coeff-Com:  0.114D+00 0.341D+00 0.490D+00
 Coeff:      0.385D-04-0.242D-03 0.594D-03 0.771D-03 0.156D-01 0.393D-01
 Coeff:      0.114D+00 0.341D+00 0.490D+00
 Gap=     0.111 Goal=   None    Shift=    0.000
 RMSDP=3.65D-06 MaxDP=1.91D-04 DE=-1.61D-06 OVMax= 3.78D-04

 Cycle  10  Pass 1  IDiag  1:
 RMSU=  1.26D-06    CP:  1.01D+00  5.83D-01  5.24D-01  5.63D-01  5.96D-01
                    CP:  6.97D-01  5.86D-01  6.97D-01  5.14D-01
 E= -727.331399041755     Delta-E=       -0.000000523894 Rises=F Damp=F
 DIIS: error= 9.89D-06 at cycle  10 NSaved=  10.
 NSaved=10 IEnMin=10 EnMin= -727.331399041755     IErMin=10 ErrMin= 9.89D-06
 ErrMax= 9.89D-06  0.00D+00 EMaxC= 1.00D-01 BMatC= 4.08D-08 BMatP= 5.21D-07
 IDIUse=1 WtCom= 1.00D+00 WtEn= 0.00D+00
 Coeff-Com:  0.284D-04-0.103D-03 0.170D-03 0.730D-05 0.694D-02 0.179D-01
 Coeff-Com:  0.578D-01 0.191D+00 0.318D+00 0.408D+00
 Coeff:      0.284D-04-0.103D-03 0.170D-03 0.730D-05 0.694D-02 0.179D-01
 Coeff:      0.578D-01 0.191D+00 0.318D+00 0.408D+00
 Gap=     0.111 Goal=   None    Shift=    0.000
 RMSDP=9.26D-07 MaxDP=5.80D-05 DE=-5.24D-07 OVMax= 1.02D-04

 Cycle  11  Pass 1  IDiag  1:
 RMSU=  4.31D-07    CP:  1.01D+00  5.83D-01  5.24D-01  5.63D-01  5.96D-01
                    CP:  6.97D-01  5.93D-01  6.89D-01  5.86D-01  6.49D-01
 E= -727.331399065442     Delta-E=       -0.000000023687 Rises=F Damp=F
 DIIS: error= 2.06D-06 at cycle  11 NSaved=  11.
 NSaved=11 IEnMin=11 EnMin= -727.331399065442     IErMin=11 ErrMin= 2.06D-06
 ErrMax= 2.06D-06  0.00D+00 EMaxC= 1.00D-01 BMatC= 1.92D-09 BMatP= 4.08D-08
 IDIUse=1 WtCom= 1.00D+00 WtEn= 0.00D+00
 Coeff-Com:  0.148D-04-0.284D-04 0.203D-04-0.923D-04 0.132D-02 0.340D-02
 Coeff-Com:  0.129D-01 0.460D-01 0.907D-01 0.212D+00 0.634D+00
 Coeff:      0.148D-04-0.284D-04 0.203D-04-0.923D-04 0.132D-02 0.340D-02
 Coeff:      0.129D-01 0.460D-01 0.907D-01 0.212D+00 0.634D+00
 Gap=     0.111 Goal=   None    Shift=    0.000
 RMSDP=2.54D-07 MaxDP=1.61D-05 DE=-2.37D-08 OVMax= 2.00D-05

 Cycle  12  Pass 1  IDiag  1:
 RMSU=  1.18D-07    CP:  1.01D+00  5.83D-01  5.24D-01  5.63D-01  5.96D-01
                    CP:  6.97D-01  5.92D-01  6.93D-01  5.81D-01  6.76D-01
                    CP:  7.20D-01
 E= -727.331399067051     Delta-E=       -0.000000001609 Rises=F Damp=F
 DIIS: error= 7.75D-07 at cycle  12 NSaved=  12.
 NSaved=12 IEnMin=12 EnMin= -727.331399067051     IErMin=12 ErrMin= 7.75D-07
 ErrMax= 7.75D-07  0.00D+00 EMaxC= 1.00D-01 BMatC= 2.57D-10 BMatP= 1.92D-09
 IDIUse=1 WtCom= 1.00D+00 WtEn= 0.00D+00
 Coeff-Com:  0.852D-05-0.128D-04 0.686D-05-0.555D-04 0.499D-03 0.129D-02
 Coeff-Com:  0.539D-02 0.197D-01 0.417D-01 0.113D+00 0.393D+00 0.425D+00
 Coeff:      0.852D-05-0.128D-04 0.686D-05-0.555D-04 0.499D-03 0.129D-02
 Coeff:      0.539D-02 0.197D-01 0.417D-01 0.113D+00 0.393D+00 0.425D+00
 Gap=     0.111 Goal=   None    Shift=    0.000
 RMSDP=9.04D-08 MaxDP=4.44D-06 DE=-1.61D-09 OVMax= 8.46D-06

 Cycle  13  Pass 1  IDiag  1:
 RMSU=  4.66D-08    CP:  1.01D+00  5.83D-01  5.24D-01  5.63D-01  5.96D-01
                    CP:  6.97D-01  5.93D-01  6.93D-01  5.84D-01  6.77D-01
                    CP:  7.69D-01  6.43D-01
 E= -727.331399067278     Delta-E=       -0.000000000226 Rises=F Damp=F
 DIIS: error= 3.26D-07 at cycle  13 NSaved=  13.
 NSaved=13 IEnMin=13 EnMin= -727.331399067278     IErMin=13 ErrMin= 3.26D-07
 ErrMax= 3.26D-07  0.00D+00 EMaxC= 1.00D-01 BMatC= 2.61D-11 BMatP= 2.57D-10
 IDIUse=1 WtCom= 1.00D+00 WtEn= 0.00D+00
 Coeff-Com:  0.263D-05-0.372D-05 0.930D-06-0.132D-04 0.594D-04 0.161D-03
 Coeff-Com:  0.871D-03 0.340D-02 0.851D-02 0.298D-01 0.124D+00 0.263D+00
 Coeff-Com:  0.570D+00
 Coeff:      0.263D-05-0.372D-05 0.930D-06-0.132D-04 0.594D-04 0.161D-03
 Coeff:      0.871D-03 0.340D-02 0.851D-02 0.298D-01 0.124D+00 0.263D+00
 Coeff:      0.570D+00
 Gap=     0.111 Goal=   None    Shift=    0.000
 RMSDP=2.49D-08 MaxDP=1.16D-06 DE=-2.26D-10 OVMax= 2.11D-06

 Cycle  14  Pass 1  IDiag  1:
 RMSU=  1.20D-08    CP:  1.01D+00  5.83D-01  5.24D-01  5.63D-01  5.96D-01
                    CP:  6.97D-01  5.93D-01  6.93D-01  5.83D-01  6.82D-01
                    CP:  7.62D-01  6.87D-01  7.21D-01
 E= -727.331399067290     Delta-E=       -0.000000000013 Rises=F Damp=F
 DIIS: error= 5.78D-08 at cycle  14 NSaved=  14.
 NSaved=14 IEnMin=14 EnMin= -727.331399067290     IErMin=14 ErrMin= 5.78D-08
 ErrMax= 5.78D-08  0.00D+00 EMaxC= 1.00D-01 BMatC= 2.29D-12 BMatP= 2.61D-11
 IDIUse=1 WtCom= 1.00D+00 WtEn= 0.00D+00
 Coeff-Com:  0.105D-05-0.140D-05-0.244D-07-0.463D-05 0.114D-05 0.872D-05
 Coeff-Com:  0.164D-03 0.804D-03 0.247D-02 0.109D-01 0.500D-01 0.133D+00
 Coeff-Com:  0.341D+00 0.462D+00
 Coeff:      0.105D-05-0.140D-05-0.244D-07-0.463D-05 0.114D-05 0.872D-05
 Coeff:      0.164D-03 0.804D-03 0.247D-02 0.109D-01 0.500D-01 0.133D+00
 Coeff:      0.341D+00 0.462D+00
 Gap=     0.111 Goal=   None    Shift=    0.000
 RMSDP=8.28D-09 MaxDP=5.75D-07 DE=-1.25D-11 OVMax= 6.79D-07

 Error on total polarization charges =  0.01617
 SCF Done:  E(RB-P86) =  -727.331399067     A.U. after   14 cycles
            NFock= 14  Conv=0.83D-08     -V/T= 2.0033
 KE= 7.249151967578D+02 PE=-3.677703411593D+03 EE= 1.235255967872D+03
 Leave Link  502 at Mon Feb 22 21:30:59 2021, MaxMem=   104857600 cpu:             879.3 elap:              28.1
 (Enter /sw/arch/RedHatEnterpriseServer7/EB_production/2019/software/Gaussian/g16.c01/l601.exe)
 Copying SCF densities to generalized density rwf, IOpCl= 0 IROHF=0.

 **********************************************************************

            Population analysis using the SCF Density.

 **********************************************************************

 Orbital symmetries:
       Occupied  (A) (A) (A) (A) (A) (A) (A) (A) (A) (A) (A) (A)
                 (A) (A) (A) (A) (A) (A) (A) (A) (A) (A) (A) (A)
                 (A) (A) (A) (A) (A) (A) (A) (A) (A) (A) (A) (A)
                 (A) (A) (A) (A) (A) (A) (A) (A) (A) (A) (A) (A)
                 (A) (A) (A) (A) (A) (A) (A) (A)
       Virtual   (A) (A) (A) (A) (A) (A) (A) (A) (A) (A) (A) (A)
                 (A) (A) (A) (A) (A) (A) (A) (A) (A) (A) (A) (A)
                 (A) (A) (A) (A) (A) (A) (A) (A) (A) (A) (A) (A)
                 (A) (A) (A) (A) (A) (A) (A) (A) (A) (A) (A) (A)
                 (A) (A) (A) (A) (A) (A) (A) (A) (A) (A) (A) (A)
                 (A) (A) (A) (A) (A) (A) (A) (A) (A) (A) (A) (A)
                 (A) (A) (A) (A) (A) (A) (A) (A) (A) (A) (A) (A)
                 (A) (A) (A) (A) (A) (A) (A) (A) (A) (A) (A) (A)
                 (A) (A) (A) (A) (A) (A) (A) (A) (A) (A) (A) (A)
                 (A) (A) (A) (A) (A) (A) (A) (A) (A) (A) (A) (A)
                 (A) (A) (A) (A) (A) (A) (A) (A) (A) (A) (A) (A)
                 (A) (A) (A) (A) (A) (A) (A) (A) (A) (A) (A) (A)
                 (A) (A) (A) (A) (A) (A) (A) (A) (A) (A) (A) (A)
                 (A) (A) (A) (A) (A) (A) (A) (A) (A) (A) (A) (A)
                 (A) (A) (A) (A) (A) (A) (A) (A) (A) (A) (A) (A)
                 (A) (A) (A) (A) (A) (A) (A) (A) (A) (A) (A) (A)
                 (A) (A) (A) (A) (A) (A) (A) (A) (A) (A) (A) (A)
                 (A) (A) (A) (A) (A) (A) (A) (A) (A) (A) (A) (A)
                 (A) (A) (A) (A) (A) (A) (A) (A) (A) (A) (A) (A)
                 (A) (A) (A) (A) (A) (A) (A) (A) (A) (A) (A) (A)
                 (A) (A) (A) (A) (A) (A) (A) (A) (A) (A) (A) (A)
                 (A) (A) (A) (A) (A) (A) (A) (A) (A) (A) (A) (A)
                 (A) (A) (A) (A) (A) (A) (A) (A) (A) (A) (A) (A)
                 (A) (A) (A) (A) (A) (A) (A) (A) (A) (A) (A) (A)
                 (A) (A) (A) (A) (A) (A) (A) (A) (A) (A) (A) (A)
                 (A) (A) (A) (A) (A) (A) (A) (A)
 The electronic state is 1-A.
 Alpha  occ. eigenvalues --  -18.84596 -18.80504 -18.78073 -10.05152  -9.98897
 Alpha  occ. eigenvalues --   -9.98511  -9.93474  -9.91985  -9.91715  -9.90984
 Alpha  occ. eigenvalues --   -9.90971  -9.90883  -9.90826  -9.90790  -9.90517
 Alpha  occ. eigenvalues --   -9.90287  -1.04485  -0.99247  -0.95403  -0.80137
 Alpha  occ. eigenvalues --   -0.79018  -0.73328  -0.69976  -0.69409  -0.69218
 Alpha  occ. eigenvalues --   -0.63153  -0.60024  -0.57362  -0.56707  -0.54109
 Alpha  occ. eigenvalues --   -0.51880  -0.48872  -0.47335  -0.45763  -0.45240
 Alpha  occ. eigenvalues --   -0.44352  -0.43116  -0.41771  -0.41339  -0.40849
 Alpha  occ. eigenvalues --   -0.39458  -0.38604  -0.36171  -0.35976  -0.35026
 Alpha  occ. eigenvalues --   -0.34472  -0.33663  -0.32435  -0.31864  -0.31648
 Alpha  occ. eigenvalues --   -0.30841  -0.25913  -0.25617  -0.24322  -0.22792
 Alpha  occ. eigenvalues --   -0.21988
 Alpha virt. eigenvalues --   -0.10886  -0.05786  -0.05549  -0.04666  -0.00701
 Alpha virt. eigenvalues --    0.04152   0.04683   0.05073   0.07025   0.07643
 Alpha virt. eigenvalues --    0.08276   0.08555   0.09263   0.10103   0.10174
 Alpha virt. eigenvalues --    0.10999   0.11277   0.11643   0.11715   0.13849
 Alpha virt. eigenvalues --    0.14330   0.15526   0.16223   0.17342   0.17843
 Alpha virt. eigenvalues --    0.18042   0.18572   0.19181   0.19673   0.20038
 Alpha virt. eigenvalues --    0.20419   0.20794   0.21200   0.21932   0.22443
 Alpha virt. eigenvalues --    0.22914   0.23425   0.23816   0.24241   0.25238
 Alpha virt. eigenvalues --    0.26036   0.26885   0.27407   0.28562   0.28903
 Alpha virt. eigenvalues --    0.29269   0.30216   0.30991   0.31356   0.31853
 Alpha virt. eigenvalues --    0.32273   0.32335   0.33549   0.34697   0.35228
 Alpha virt. eigenvalues --    0.36305   0.36646   0.37879   0.39081   0.39352
 Alpha virt. eigenvalues --    0.40270   0.40566   0.40804   0.41823   0.41931
 Alpha virt. eigenvalues --    0.42882   0.43734   0.44353   0.44818   0.45393
 Alpha virt. eigenvalues --    0.45690   0.46136   0.46584   0.47007   0.47942
 Alpha virt. eigenvalues --    0.48420   0.49273   0.49762   0.50664   0.52971
 Alpha virt. eigenvalues --    0.53681   0.54834   0.55342   0.57676   0.59173
 Alpha virt. eigenvalues --    0.59583   0.61579   0.61971   0.62459   0.62876
 Alpha virt. eigenvalues --    0.63530   0.65085   0.65660   0.66847   0.69700
 Alpha virt. eigenvalues --    0.71257   0.71828   0.73790   0.75506   0.77580
 Alpha virt. eigenvalues --    0.79199   0.80451   0.82640   0.85067   0.86584
 Alpha virt. eigenvalues --    0.87781   0.91769   0.95571   1.07932   1.11600
 Alpha virt. eigenvalues --    1.12605   1.13769   1.15746   1.16152   1.17153
 Alpha virt. eigenvalues --    1.17755   1.17880   1.18531   1.18942   1.20326
 Alpha virt. eigenvalues --    1.20504   1.21396   1.22282   1.22884   1.23045
 Alpha virt. eigenvalues --    1.23620   1.23967   1.25734   1.28579   1.29163
 Alpha virt. eigenvalues --    1.30677   1.32015   1.32998   1.34131   1.34683
 Alpha virt. eigenvalues --    1.35541   1.36097   1.36934   1.37199   1.37551
 Alpha virt. eigenvalues --    1.37738   1.38052   1.38521   1.38967   1.39273
 Alpha virt. eigenvalues --    1.40960   1.41386   1.41929   1.42839   1.43457
 Alpha virt. eigenvalues --    1.43995   1.44396   1.44757   1.45079   1.45555
 Alpha virt. eigenvalues --    1.46058   1.46593   1.46832   1.46972   1.47632
 Alpha virt. eigenvalues --    1.48799   1.51529   1.52630   1.56830   1.58325
 Alpha virt. eigenvalues --    1.59819   1.61040   1.67770   1.71541   1.72661
 Alpha virt. eigenvalues --    1.72847   1.73326   1.73963   1.75072   1.75296
 Alpha virt. eigenvalues --    1.77473   1.78344   1.80619   1.80818   1.80952
 Alpha virt. eigenvalues --    1.81168   1.82445   1.83108   1.83605   1.83884
 Alpha virt. eigenvalues --    1.85155   1.85962   1.87676   1.88711   1.91944
 Alpha virt. eigenvalues --    1.94516   1.94978   1.95677   1.97034   1.97587
 Alpha virt. eigenvalues --    1.98629   2.00283   2.01565   2.07163   2.08916
 Alpha virt. eigenvalues --    2.11958   2.14787   2.16268   2.17382   2.18904
 Alpha virt. eigenvalues --    2.19490   2.19677   2.20053   2.20411   2.21167
 Alpha virt. eigenvalues --    2.21907   2.22055   2.22552   2.23146   2.23561
 Alpha virt. eigenvalues --    2.26437   2.28884   2.29501   2.31472   2.32250
 Alpha virt. eigenvalues --    2.38812   2.42205   2.43479   2.44486   2.46963
 Alpha virt. eigenvalues --    2.48114   2.48471   2.49042   2.49846   2.50480
 Alpha virt. eigenvalues --    2.50973   2.52428   2.54503   2.55963   2.56562
 Alpha virt. eigenvalues --    2.57176   2.58107   2.59688   2.61057   2.61672
 Alpha virt. eigenvalues --    2.65709   2.66356   2.67134   2.69422   2.70268
 Alpha virt. eigenvalues --    2.72553   2.72638   2.75760   2.77260   2.79438
 Alpha virt. eigenvalues --    2.81996   2.86136   2.87093   2.87489   2.89098
 Alpha virt. eigenvalues --    2.89575   2.92342   2.93985   2.97255   2.99340
 Alpha virt. eigenvalues --    2.99723   3.01461   3.03276   3.04677   3.04757
 Alpha virt. eigenvalues --    3.06183   3.06787   3.07336   3.08049   3.09131
 Alpha virt. eigenvalues --    3.09669   3.12104   3.13340   3.14528   3.17459
 Alpha virt. eigenvalues --    3.21467   3.23180   3.29328   3.30300   3.31659
 Alpha virt. eigenvalues --    3.32594   3.33720   3.38717   3.43928   3.49627
 Alpha virt. eigenvalues --    3.63231   3.66246   3.93507   3.96575   4.01658
 Alpha virt. eigenvalues --    4.13215   4.26382  21.08471  21.14757  21.54319
 Alpha virt. eigenvalues --   21.63398  21.65431  21.68258  21.77761  21.83578
 Alpha virt. eigenvalues --   21.83983  21.85060  21.90852  21.96126  21.97952
 Alpha virt. eigenvalues --   43.12182  43.21834  43.26517
          Condensed to atoms (all electrons):
               1          2          3          4          5          6
     1  O    8.096374   0.511760  -0.090060  -0.001494   0.004767  -0.000417
     2  C    0.511760   5.360056   0.374348  -0.073240   0.015095  -0.001124
     3  O   -0.090060   0.374348   7.851438   0.257392  -0.069284   0.008713
     4  C   -0.001494  -0.073240   0.257392   5.143307   0.196605   0.125104
     5  C    0.004767   0.015095  -0.069284   0.196605   5.522645   0.196582
     6  C   -0.000417  -0.001124   0.008713   0.125104   0.196582   5.230973
     7  C    0.000592   0.001245   0.000544  -0.164212   0.097697   0.297271
     8  C   -0.007167  -0.000840   0.011410   0.132332  -0.190511   0.083007
     9  C   -0.002518  -0.026297  -0.052476   0.272899   0.064313  -0.182930
    10  C   -0.109828  -0.209989  -0.182497   0.024096   0.004187  -0.002259
    11  C    0.017571  -0.013323   0.030534  -0.002824  -0.001802   0.000365
    12  C   -0.001394   0.005121  -0.003304  -0.000205  -0.000053  -0.000009
    13  C   -0.000337   0.016351   0.000360   0.000039   0.000008   0.000001
    14  C    0.008240   0.006025   0.000594  -0.000192  -0.000034   0.000000
    15  C   -0.044370  -0.200311  -0.007267   0.001754   0.000540  -0.000026
    16  O   -0.054545  -0.007379  -0.000671   0.000170   0.000008  -0.000000
    17  H    0.000031  -0.001260   0.002175  -0.076187   0.448234  -0.047386
    18  H   -0.000003  -0.000001  -0.000095   0.020394  -0.068739   0.455773
    19  H    0.000004   0.000003   0.000004  -0.006596   0.019885  -0.067359
    20  H   -0.000148  -0.000215  -0.000198   0.015694  -0.004180   0.016353
    21  H    0.017677  -0.004797  -0.005397  -0.050627   0.015924  -0.003927
    22  H    0.000417  -0.042828   0.011783   0.001380  -0.000456   0.000156
    23  H   -0.000002  -0.001991  -0.000120   0.000006   0.000000  -0.000000
    24  H   -0.000003  -0.000125   0.000000   0.000000  -0.000000  -0.000000
    25  H    0.000220  -0.001732   0.000012  -0.000003  -0.000000  -0.000000
    26  H    0.063434  -0.037804   0.000968  -0.000503  -0.000031  -0.000004
               7          8          9         10         11         12
     1  O    0.000592  -0.007167  -0.002518  -0.109828   0.017571  -0.001394
     2  C    0.001245  -0.000840  -0.026297  -0.209989  -0.013323   0.005121
     3  O    0.000544   0.011410  -0.052476  -0.182497   0.030534  -0.003304
     4  C   -0.164212   0.132332   0.272899   0.024096  -0.002824  -0.000205
     5  C    0.097697  -0.190511   0.064313   0.004187  -0.001802  -0.000053
     6  C    0.297271   0.083007  -0.182930  -0.002259   0.000365  -0.000009
     7  C    5.193369   0.325149   0.075588   0.000867  -0.000094   0.000002
     8  C    0.325149   5.254091   0.155472  -0.003727   0.000328  -0.000007
     9  C    0.075588   0.155472   5.507453   0.008503  -0.000714   0.000060
    10  C    0.000867  -0.003727   0.008503   6.987292   0.024611   0.074659
    11  C   -0.000094   0.000328  -0.000714   0.024611   5.393267   0.306091
    12  C    0.000002  -0.000007   0.000060   0.074659   0.306091   5.160541
    13  C   -0.000000   0.000000  -0.000011  -0.099511  -0.002504   0.380897
    14  C   -0.000000   0.000002   0.000042   0.018275  -0.109800   0.023138
    15  C    0.000007  -0.000065  -0.000065  -0.153233   0.007461  -0.102585
    16  O    0.000000  -0.000003  -0.000072  -0.129118   0.007163   0.000499
    17  H    0.014717  -0.004107   0.013376   0.001818  -0.000446   0.000027
    18  H   -0.067879   0.017828  -0.006360  -0.000020   0.000002  -0.000000
    19  H    0.445162  -0.066783   0.022796   0.000003  -0.000000   0.000000
    20  H   -0.062380   0.446341  -0.060669  -0.000042   0.000002  -0.000000
    21  H    0.013048  -0.040876   0.414507   0.003283  -0.000490   0.000011
    22  H   -0.000016   0.000006  -0.000029  -0.027608   0.432337  -0.049974
    23  H    0.000000  -0.000000  -0.000000   0.016428  -0.054636   0.436865
    24  H    0.000000  -0.000000  -0.000000  -0.007474   0.021214  -0.070945
    25  H    0.000000   0.000000   0.000000   0.028512  -0.001593   0.012436
    26  H    0.000003   0.000001   0.000411  -0.002948   0.002804   0.000116
              13         14         15         16         17         18
     1  O   -0.000337   0.008240  -0.044370  -0.054545   0.000031  -0.000003
     2  C    0.016351   0.006025  -0.200311  -0.007379  -0.001260  -0.000001
     3  O    0.000360   0.000594  -0.007267  -0.000671   0.002175  -0.000095
     4  C    0.000039  -0.000192   0.001754   0.000170  -0.076187   0.020394
     5  C    0.000008  -0.000034   0.000540   0.000008   0.448234  -0.068739
     6  C    0.000001   0.000000  -0.000026  -0.000000  -0.047386   0.455773
     7  C   -0.000000  -0.000000   0.000007   0.000000   0.014717  -0.067879
     8  C    0.000000   0.000002  -0.000065  -0.000003  -0.004107   0.017828
     9  C   -0.000011   0.000042  -0.000065  -0.000072   0.013376  -0.006360
    10  C   -0.099511   0.018275  -0.153233  -0.129118   0.001818  -0.000020
    11  C   -0.002504  -0.109800   0.007461   0.007163  -0.000446   0.000002
    12  C    0.380897   0.023138  -0.102585   0.000499   0.000027  -0.000000
    13  C    5.012600   0.372923   0.028841   0.005950  -0.000002   0.000000
    14  C    0.372923   5.330183   0.273362  -0.076800  -0.000003   0.000000
    15  C    0.028841   0.273362   5.628234   0.440181   0.000049  -0.000000
    16  O    0.005950  -0.076800   0.440181   7.774016   0.000000  -0.000000
    17  H   -0.000002  -0.000003   0.000049   0.000000   0.489736  -0.007722
    18  H    0.000000   0.000000  -0.000000  -0.000000  -0.007722   0.510829
    19  H    0.000000  -0.000000   0.000000   0.000000  -0.000065  -0.006610
    20  H    0.000000   0.000000  -0.000000  -0.000000  -0.000004  -0.000128
    21  H   -0.000001  -0.000011   0.000286   0.000016  -0.000010  -0.000049
    22  H    0.008886  -0.000290   0.010029   0.000057   0.000088   0.000001
    23  H   -0.061421   0.014548  -0.000914   0.000011   0.000003  -0.000000
    24  H    0.455229  -0.073275   0.024018  -0.000128   0.000000   0.000000
    25  H   -0.053627   0.427708  -0.074721   0.004013  -0.000000   0.000000
    26  H   -0.001605   0.013257  -0.025032   0.297299  -0.000000  -0.000000
              19         20         21         22         23         24
     1  O    0.000004  -0.000148   0.017677   0.000417  -0.000002  -0.000003
     2  C    0.000003  -0.000215  -0.004797  -0.042828  -0.001991  -0.000125
     3  O    0.000004  -0.000198  -0.005397   0.011783  -0.000120   0.000000
     4  C   -0.006596   0.015694  -0.050627   0.001380   0.000006   0.000000
     5  C    0.019885  -0.004180   0.015924  -0.000456   0.000000  -0.000000
     6  C   -0.067359   0.016353  -0.003927   0.000156  -0.000000  -0.000000
     7  C    0.445162  -0.062380   0.013048  -0.000016   0.000000   0.000000
     8  C   -0.066783   0.446341  -0.040876   0.000006  -0.000000  -0.000000
     9  C    0.022796  -0.060669   0.414507  -0.000029  -0.000000  -0.000000
    10  C    0.000003  -0.000042   0.003283  -0.027608   0.016428  -0.007474
    11  C   -0.000000   0.000002  -0.000490   0.432337  -0.054636   0.021214
    12  C    0.000000  -0.000000   0.000011  -0.049974   0.436865  -0.070945
    13  C    0.000000   0.000000  -0.000001   0.008886  -0.061421   0.455229
    14  C   -0.000000   0.000000  -0.000011  -0.000290   0.014548  -0.073275
    15  C    0.000000  -0.000000   0.000286   0.010029  -0.000914   0.024018
    16  O    0.000000  -0.000000   0.000016   0.000057   0.000011  -0.000128
    17  H   -0.000065  -0.000004  -0.000010   0.000088   0.000003   0.000000
    18  H   -0.006610  -0.000128  -0.000049   0.000001  -0.000000   0.000000
    19  H    0.512594  -0.006525  -0.000060  -0.000000   0.000000   0.000000
    20  H   -0.006525   0.509588  -0.005611   0.000000  -0.000000  -0.000000
    21  H   -0.000060  -0.005611   0.475610  -0.000029   0.000000   0.000000
    22  H   -0.000000   0.000000  -0.000029   0.488401  -0.004239  -0.000112
    23  H    0.000000  -0.000000   0.000000  -0.004239   0.510447  -0.006469
    24  H    0.000000  -0.000000   0.000000  -0.000112  -0.006469   0.513815
    25  H   -0.000000  -0.000000  -0.000000   0.000034  -0.000137  -0.007502
    26  H   -0.000000  -0.000001   0.000220  -0.000047   0.000001   0.000019
              25         26
     1  O    0.000220   0.063434
     2  C   -0.001732  -0.037804
     3  O    0.000012   0.000968
     4  C   -0.000003  -0.000503
     5  C   -0.000000  -0.000031
     6  C   -0.000000  -0.000004
     7  C    0.000000   0.000003
     8  C    0.000000   0.000001
     9  C    0.000000   0.000411
    10  C    0.028512  -0.002948
    11  C   -0.001593   0.002804
    12  C    0.012436   0.000116
    13  C   -0.053627  -0.001605
    14  C    0.427708   0.013257
    15  C   -0.074721  -0.025032
    16  O    0.004013   0.297299
    17  H   -0.000000  -0.000000
    18  H    0.000000  -0.000000
    19  H   -0.000000  -0.000000
    20  H   -0.000000  -0.000001
    21  H   -0.000000   0.000220
    22  H    0.000034  -0.000047
    23  H   -0.000137   0.000001
    24  H   -0.007502   0.000019
    25  H    0.508613   0.000140
    26  H    0.000140   0.393814
 Mulliken charges:
               1
     1  O   -0.408798
     2  C    0.333253
     3  O   -0.138905
     4  C    0.184910
     5  C   -0.251399
     6  C   -0.108857
     7  C   -0.170679
     8  C   -0.111881
     9  C   -0.203279
    10  C   -0.264280
    11  C   -0.055523
    12  C   -0.171985
    13  C   -0.063066
    14  C   -0.227893
    15  C    0.193827
    16  O   -0.260666
    17  H    0.166939
    18  H    0.152780
    19  H    0.153548
    20  H    0.152122
    21  H    0.171302
    22  H    0.172053
    23  H    0.151622
    24  H    0.151738
    25  H    0.157627
    26  H    0.295491
 Sum of Mulliken charges =  -0.00000
 Mulliken charges with hydrogens summed into heavy atoms:
               1
     1  O   -0.408798
     2  C    0.333253
     3  O   -0.138905
     4  C    0.184910
     5  C   -0.084460
     6  C    0.043923
     7  C   -0.017131
     8  C    0.040241
     9  C   -0.031977
    10  C   -0.264280
    11  C    0.116529
    12  C   -0.020363
    13  C    0.088672
    14  C   -0.070266
    15  C    0.193827
    16  O    0.034826
 Electronic spatial extent (au):  <R**2>=           4601.6469
 Charge=             -0.0000 electrons
 Dipole moment (field-independent basis, Debye):
    X=             -0.6203    Y=             -3.5246    Z=              0.4926  Tot=              3.6125
 Quadrupole moment (field-independent basis, Debye-Ang):
   XX=            -72.3435   YY=            -88.8624   ZZ=            -96.0623
   XY=             -6.9041   XZ=              1.1811   YZ=              2.7011
 Traceless Quadrupole moment (field-independent basis, Debye-Ang):
   XX=             13.4126   YY=             -3.1064   ZZ=            -10.3062
   XY=             -6.9041   XZ=              1.1811   YZ=              2.7011
 Octapole moment (field-independent basis, Debye-Ang**2):
  XXX=             -1.6429  YYY=            -16.2055  ZZZ=             -2.9700  XYY=            -12.0329
  XXY=            -27.4975  XXZ=              2.6494  XZZ=              2.5795  YZZ=              6.9548
  YYZ=              2.0814  XYZ=            -12.1935
 Hexadecapole moment (field-independent basis, Debye-Ang**3):
 XXXX=          -4446.4854 YYYY=           -872.0363 ZZZZ=           -147.2098 XXXY=            -86.5687
 XXXZ=             28.4633 YYYX=            -37.1722 YYYZ=              7.1217 ZZZX=             -5.0165
 ZZZY=             -1.6781 XXYY=           -962.9094 XXZZ=           -985.0427 YYZZ=           -181.4520
 XXYZ=             36.9067 YYXZ=             12.6027 ZZXY=             11.4136
 N-N= 9.902008478958D+02 E-N=-3.677703408829D+03  KE= 7.249151967578D+02
 No NMR shielding tensors so no spin-rotation constants.
 Leave Link  601 at Mon Feb 22 21:30:59 2021, MaxMem=   104857600 cpu:               7.1 elap:               0.3
 (Enter /sw/arch/RedHatEnterpriseServer7/EB_production/2019/software/Gaussian/g16.c01/l701.exe)
 ... and contract with generalized density number  0.
 Compute integral first derivatives.
 R6Disp: Adding Grimme-D3 dispersion energy 1st derivatives to the gradient.
 PrsmSu:  requested number of processors reduced to:  28 ShMem   1 Linda.
 D1PCM: PCM CHGder 1st derivatives, ID1Alg=3 FixD1E=F DoIter=F DoCFld=F I1PDM=0.
 GePol: Maximum number of non-zero 1st derivatives   =     202
 CoulSu:  requested number of processors reduced to:  28 ShMem   1 Linda.
 CoulSu:  requested number of processors reduced to:  29 ShMem   1 Linda.
 Leave Link  701 at Mon Feb 22 21:31:00 2021, MaxMem=   104857600 cpu:              36.8 elap:               1.2
 (Enter /sw/arch/RedHatEnterpriseServer7/EB_production/2019/software/Gaussian/g16.c01/l702.exe)
 L702 exits ... SP integral derivatives will be done elsewhere.
 Leave Link  702 at Mon Feb 22 21:31:01 2021, MaxMem=   104857600 cpu:               0.5 elap:               0.0
 (Enter /sw/arch/RedHatEnterpriseServer7/EB_production/2019/software/Gaussian/g16.c01/l703.exe)
 Integral derivatives from FoFJK, PRISM(SPDF).
 Compute integral first derivatives, UseDBF=F ICtDFT=           0.
 Calling FoFJK, ICntrl=      2527 FMM=F ISym2X=0 I1Cent= 0 IOpClX= 0 NMat=1 NMatS=1 NMatT=0.
 FoFJK:  IHMeth= 1 ICntrl=    2527 DoSepK=F KAlg= 0 I1Cent=           0 FoldK=F
 IRaf=         0 NMat=       1 IRICut=       1 DoRegI=T DoRafI=F ISym2E= 0 IDoP0=0 IntGTp=1.
 FoFCou: FMM=F IPFlag=           0 FMFlag=      100000 FMFlg1=         800
         NFxFlg=           0 DoJE=F BraDBF=F KetDBF=F FulRan=T
         wScrn=  0.000000 ICntrl=      2527 IOpCl=  0 I1Cent=           0 NGrid=           0
         NMat0=    1 NMatS0=      1 NMatT0=    0 NMatD0=    1 NMtDS0=    0 NMtDT0=    0
 Symmetry not used in FoFCou.
 Leave Link  703 at Mon Feb 22 21:31:05 2021, MaxMem=   104857600 cpu:             135.5 elap:               4.3
 (Enter /sw/arch/RedHatEnterpriseServer7/EB_production/2019/software/Gaussian/g16.c01/l716.exe)
 Dipole        =-2.44061660D-01-1.38667063D+00 1.93819926D-01
 ***** Axes restored to original set *****
 -------------------------------------------------------------------
 Center     Atomic                   Forces (Hartrees/Bohr)
 Number     Number              X              Y              Z
 -------------------------------------------------------------------
      1        8          -0.001752845   -0.008427831    0.000179853
      2        6           0.049421780    0.000386416    0.035725340
      3        8          -0.032248785    0.009639093   -0.025025254
      4        6           0.024196277   -0.012118026    0.018511550
      5        6           0.050911030   -0.000418343    0.006213634
      6        6           0.037828522    0.045006129   -0.029117468
      7        6          -0.023871316    0.040520417   -0.031229455
      8        6          -0.066588156   -0.000381173   -0.006789230
      9        6          -0.031147447   -0.034996929    0.022536556
     10        6          -0.036111371   -0.010543206   -0.017131987
     11        6           0.000812927    0.056896960   -0.025774599
     12        6           0.050926253    0.017177851    0.022531798
     13        6           0.045274931   -0.026784628    0.038664556
     14        6          -0.017789113   -0.054670032    0.012912314
     15        6           0.007253693    0.008403349    0.002446633
     16        8          -0.013927381    0.012101391   -0.013915040
     17        1          -0.053591986    0.003165868   -0.006841465
     18        1          -0.032323611   -0.037667981    0.023392701
     19        1           0.023533222   -0.039313356    0.030775973
     20        1           0.054947785   -0.000311875    0.004707783
     21        1           0.030094489    0.039607010   -0.024967866
     22        1          -0.008022054   -0.049142010    0.016320516
     23        1          -0.045823940   -0.024963088   -0.015645037
     24        1          -0.034850304    0.028167067   -0.033065907
     25        1           0.013920209    0.051917019   -0.013898319
     26        1           0.008927193   -0.013250092    0.008482420
 -------------------------------------------------------------------
 Cartesian Forces:  Max     0.066588156 RMS     0.029674932
 Leave Link  716 at Mon Feb 22 21:31:05 2021, MaxMem=   104857600 cpu:               3.4 elap:               0.2
 (Enter /sw/arch/RedHatEnterpriseServer7/EB_production/2019/software/Gaussian/g16.c01/l103.exe)

 GradGradGradGradGradGradGradGradGradGradGradGradGradGradGradGradGradGrad
 Berny optimization.
 FormGI is forming the generalized inverse of G from B-inverse, IUseBI=4.
 GSVD:  received Info=                   1 from GESDD.
 Internal  Forces:  Max     0.055676510 RMS     0.015852018
 Search for a local minimum.
 Step number   1 out of a maximum of  136
 All quantities printed in internal units (Hartrees-Bohrs-Radians)
 RMS Force = .15852D-01 SwitMx=.10000D-02 MixMth= 1
 Mixed Optimization -- RFO/linear search
 Second derivative matrix not updated -- first step.
 ITU=  0
     Eigenvalues ---    0.01815   0.01819   0.01850   0.01915   0.01928
     Eigenvalues ---    0.01937   0.01938   0.01948   0.01967   0.01972
     Eigenvalues ---    0.01979   0.01988   0.01997   0.02001   0.02003
     Eigenvalues ---    0.02003   0.02006   0.02020   0.02023   0.02033
     Eigenvalues ---    0.02115   0.02118   0.02205   0.15998   0.15999
     Eigenvalues ---    0.15999   0.16000   0.16000   0.16000   0.16000
     Eigenvalues ---    0.16000   0.16000   0.16000   0.21998   0.22000
     Eigenvalues ---    0.22000   0.22484   0.23473   0.24470   0.24974
     Eigenvalues ---    0.24997   0.24998   0.25000   0.25000   0.25000
     Eigenvalues ---    0.39776   0.40157   0.40304   0.40506   0.42403
     Eigenvalues ---    0.42929   0.43660   0.43752   0.43804   0.43958
     Eigenvalues ---    0.43989   0.44002   0.44004   0.44040   0.44098
     Eigenvalues ---    0.44125   0.44218   0.44357   0.44409   0.44485
     Eigenvalues ---    0.44598   0.44857   0.51367   0.51385   0.51412
     Eigenvalues ---    0.52708   0.82055
 RFO step:  Lambda=-6.63290714D-02 EMin= 1.81489887D-02
 Linear search not attempted -- first point.
 Maximum step size (   0.300) exceeded in Quadratic search.
    -- Step size scaled by   0.799
 Iteration  1 RMS(Cart)=  0.04770743 RMS(Int)=  0.00073614
 Iteration  2 RMS(Cart)=  0.00162323 RMS(Int)=  0.00004146
 Iteration  3 RMS(Cart)=  0.00000078 RMS(Int)=  0.00004146
 ITry= 1 IFail=0 DXMaxC= 2.05D-01 DCOld= 1.00D+10 DXMaxT= 3.00D-01 DXLimC= 3.00D+00 Rises=F
 Variable       Old X    -DE/DX   Delta X   Delta X   Delta X     New X
                                 (Linear)    (Quad)   (Total)
    R1        2.36826  -0.00502   0.00000  -0.00452  -0.00452   2.36374
    R2        2.58511  -0.01278   0.00000  -0.01760  -0.01760   2.56751
    R3        2.68413   0.02682   0.00000   0.04369   0.04369   2.72782
    R4        2.58466   0.00854   0.00000   0.01175   0.01175   2.59641
    R5        2.66534  -0.00850   0.00000  -0.01358  -0.01355   2.65179
    R6        2.67238  -0.00994   0.00000  -0.01603  -0.01601   2.65637
    R7        2.65697  -0.00682   0.00000  -0.01063  -0.01063   2.64634
    R8        1.93389   0.05405   0.00000   0.08558   0.08558   2.01948
    R9        2.65841  -0.00371   0.00000  -0.00565  -0.00567   2.65274
   R10        1.93152   0.05485   0.00000   0.08652   0.08652   2.01804
   R11        2.65722  -0.00382   0.00000  -0.00581  -0.00583   2.65139
   R12        1.93168   0.05519   0.00000   0.08708   0.08708   2.01875
   R13        2.65991  -0.00613   0.00000  -0.00959  -0.00959   2.65032
   R14        1.93107   0.05513   0.00000   0.08688   0.08688   2.01795
   R15        1.92730   0.05555   0.00000   0.08700   0.08700   2.01430
   R16        2.68133  -0.00157   0.00000  -0.00238  -0.00239   2.67895
   R17        2.68815   0.00408   0.00000   0.00701   0.00700   2.69515
   R18        2.65723  -0.01267   0.00000  -0.01989  -0.01988   2.63735
   R19        1.93563   0.05222   0.00000   0.08292   0.08292   2.01855
   R20        2.65345   0.00265   0.00000   0.00380   0.00380   2.65725
   R21        1.93205   0.05447   0.00000   0.08599   0.08599   2.01804
   R22        2.65360  -0.00693   0.00000  -0.01089  -0.01088   2.64271
   R23        1.93038   0.05568   0.00000   0.08765   0.08765   2.01803
   R24        2.66213  -0.00608   0.00000  -0.00940  -0.00940   2.65273
   R25        1.93005   0.05537   0.00000   0.08712   0.08712   2.01717
   R26        2.57227  -0.00630   0.00000  -0.00847  -0.00847   2.56380
   R27        1.85193   0.01787   0.00000   0.02460   0.02460   1.87653
    A1        2.10262   0.00601   0.00000   0.01561   0.01549   2.11811
    A2        2.09817   0.02174   0.00000   0.05536   0.05524   2.15341
    A3        2.08021  -0.02758   0.00000  -0.06917  -0.06929   2.01093
    A4        2.31569  -0.03224   0.00000  -0.08138  -0.08138   2.23431
    A5        2.02437  -0.00460   0.00000  -0.01156  -0.01159   2.01278
    A6        2.18010  -0.00437   0.00000  -0.01098  -0.01101   2.16909
    A7        2.07872   0.00896   0.00000   0.02252   0.02255   2.10127
    A8        2.10447  -0.00497   0.00000  -0.01372  -0.01370   2.09077
    A9        2.09633  -0.00012   0.00000  -0.00232  -0.00233   2.09400
   A10        2.08233   0.00509   0.00000   0.01607   0.01606   2.09839
   A11        2.09368   0.00132   0.00000   0.00434   0.00432   2.09800
   A12        2.09371  -0.00197   0.00000  -0.00679  -0.00678   2.08693
   A13        2.09579   0.00065   0.00000   0.00245   0.00246   2.09825
   A14        2.09361  -0.00171   0.00000  -0.00384  -0.00388   2.08973
   A15        2.09233   0.00107   0.00000   0.00267   0.00269   2.09502
   A16        2.09723   0.00064   0.00000   0.00118   0.00120   2.09842
   A17        2.09555   0.00227   0.00000   0.00700   0.00698   2.10253
   A18        2.09445   0.00036   0.00000   0.00176   0.00177   2.09622
   A19        2.09319  -0.00262   0.00000  -0.00876  -0.00875   2.08444
   A20        2.10001  -0.00586   0.00000  -0.01620  -0.01618   2.08383
   A21        2.11023   0.00000   0.00000  -0.00223  -0.00224   2.10799
   A22        2.07289   0.00586   0.00000   0.01845   0.01844   2.09133
   A23        2.09629   0.00398   0.00000   0.00966   0.00967   2.10596
[...]
                 (A) (A) (A) (A) (A) (A) (A) (A)
 The electronic state is 1-A.
 Alpha  occ. eigenvalues --  -18.84106 -18.80509 -18.78757 -10.04912  -9.98355
 Alpha  occ. eigenvalues --   -9.97385  -9.93171  -9.92082  -9.91931  -9.91485
 Alpha  occ. eigenvalues --   -9.91455  -9.91353  -9.91347  -9.91073  -9.90979
 Alpha  occ. eigenvalues --   -9.90803  -1.04249  -0.98931  -0.95696  -0.79895
 Alpha  occ. eigenvalues --   -0.79085  -0.72259  -0.69263  -0.68921  -0.68527
 Alpha  occ. eigenvalues --   -0.61750  -0.58421  -0.56610  -0.55769  -0.53077
 Alpha  occ. eigenvalues --   -0.50355  -0.47899  -0.47041  -0.45113  -0.44438
 Alpha  occ. eigenvalues --   -0.43899  -0.42077  -0.40889  -0.40436  -0.39914
 Alpha  occ. eigenvalues --   -0.38787  -0.37697  -0.37197  -0.35845  -0.34230
 Alpha  occ. eigenvalues --   -0.33875  -0.32742  -0.32414  -0.31757  -0.31593
 Alpha  occ. eigenvalues --   -0.29263  -0.26605  -0.25201  -0.24489  -0.23743
 Alpha  occ. eigenvalues --   -0.21821
 Alpha virt. eigenvalues --   -0.09981  -0.05642  -0.05302  -0.04618  -0.00794
 Alpha virt. eigenvalues --    0.03251   0.04110   0.04814   0.07104   0.07488
 Alpha virt. eigenvalues --    0.07834   0.08191   0.08604   0.10105   0.10274
 Alpha virt. eigenvalues --    0.10535   0.10715   0.11282   0.12115   0.12675
 Alpha virt. eigenvalues --    0.13702   0.15950   0.16795   0.17159   0.17487
 Alpha virt. eigenvalues --    0.18376   0.18443   0.18992   0.19722   0.19929
 Alpha virt. eigenvalues --    0.20104   0.20685   0.21341   0.21894   0.22638
 Alpha virt. eigenvalues --    0.22828   0.23262   0.23612   0.24020   0.25242
 Alpha virt. eigenvalues --    0.26128   0.26957   0.27895   0.28435   0.28870
 Alpha virt. eigenvalues --    0.29664   0.30489   0.30497   0.30954   0.31333
 Alpha virt. eigenvalues --    0.32148   0.32245   0.33004   0.33448   0.34212
 Alpha virt. eigenvalues --    0.35664   0.36506   0.37202   0.38596   0.38858
 Alpha virt. eigenvalues --    0.39262   0.39782   0.39955   0.40553   0.40978
 Alpha virt. eigenvalues --    0.42014   0.42615   0.42795   0.44361   0.44410
 Alpha virt. eigenvalues --    0.44836   0.45775   0.45966   0.46631   0.46795
 Alpha virt. eigenvalues --    0.46864   0.47387   0.48992   0.51770   0.51833
 Alpha virt. eigenvalues --    0.52774   0.53359   0.55456   0.56539   0.57565
 Alpha virt. eigenvalues --    0.59675   0.60599   0.60940   0.62568   0.62656
 Alpha virt. eigenvalues --    0.63286   0.64158   0.65034   0.68069   0.68501
 Alpha virt. eigenvalues --    0.69865   0.71233   0.72501   0.73781   0.74808
 Alpha virt. eigenvalues --    0.78831   0.79859   0.83244   0.85083   0.86047
 Alpha virt. eigenvalues --    0.88021   0.90984   0.93816   1.07715   1.11442
 Alpha virt. eigenvalues --    1.12608   1.14976   1.15758   1.16307   1.17144
 Alpha virt. eigenvalues --    1.18201   1.19004   1.19049   1.19266   1.20554
 Alpha virt. eigenvalues --    1.21552   1.22226   1.22726   1.23646   1.23899
 Alpha virt. eigenvalues --    1.24679   1.24834   1.25405   1.29095   1.30047
 Alpha virt. eigenvalues --    1.30300   1.32357   1.32489   1.34055   1.35383
 Alpha virt. eigenvalues --    1.35871   1.36422   1.37044   1.37216   1.37357
 Alpha virt. eigenvalues --    1.37622   1.37893   1.37994   1.39935   1.40461
 Alpha virt. eigenvalues --    1.41009   1.41623   1.41962   1.42407   1.43518
 Alpha virt. eigenvalues --    1.43966   1.44673   1.45058   1.45196   1.45627
 Alpha virt. eigenvalues --    1.45983   1.46284   1.47460   1.48026   1.48860
 Alpha virt. eigenvalues --    1.49790   1.50035   1.52125   1.56317   1.56870
 Alpha virt. eigenvalues --    1.58650   1.64917   1.67973   1.69368   1.69569
 Alpha virt. eigenvalues --    1.69873   1.70645   1.71108   1.72112   1.72509
 Alpha virt. eigenvalues --    1.74793   1.76319   1.78294   1.78660   1.79399
 Alpha virt. eigenvalues --    1.79596   1.79721   1.80905   1.82123   1.82543
 Alpha virt. eigenvalues --    1.83292   1.84082   1.86165   1.86886   1.89520
 Alpha virt. eigenvalues --    1.89839   1.91105   1.92784   1.94091   1.96160
 Alpha virt. eigenvalues --    1.97270   1.98319   2.00785   2.01912   2.08432
 Alpha virt. eigenvalues --    2.11186   2.12567   2.15205   2.16565   2.17042
 Alpha virt. eigenvalues --    2.18101   2.19136   2.20183   2.20571   2.20969
 Alpha virt. eigenvalues --    2.21469   2.22345   2.22839   2.23653   2.24209
 Alpha virt. eigenvalues --    2.25745   2.26776   2.27583   2.28876   2.34362
 Alpha virt. eigenvalues --    2.39013   2.39245   2.40017   2.41182   2.43073
 Alpha virt. eigenvalues --    2.43701   2.46022   2.48061   2.50426   2.50761
 Alpha virt. eigenvalues --    2.51419   2.52356   2.52828   2.53207   2.53821
 Alpha virt. eigenvalues --    2.56419   2.56755   2.57236   2.57754   2.60643
 Alpha virt. eigenvalues --    2.62348   2.64262   2.66237   2.67421   2.68759
 Alpha virt. eigenvalues --    2.69627   2.71165   2.72543   2.78040   2.80385
 Alpha virt. eigenvalues --    2.81998   2.85065   2.86283   2.88511   2.88995
 Alpha virt. eigenvalues --    2.89481   2.91104   2.92716   2.93449   2.94012
 Alpha virt. eigenvalues --    2.95174   2.96033   2.97837   2.98833   3.00309
 Alpha virt. eigenvalues --    3.02889   3.05174   3.05531   3.06115   3.06702
 Alpha virt. eigenvalues --    3.09124   3.09710   3.10458   3.11854   3.14906
 Alpha virt. eigenvalues --    3.17881   3.21315   3.23138   3.24566   3.29021
 Alpha virt. eigenvalues --    3.29228   3.31076   3.40422   3.41799   3.48166
 Alpha virt. eigenvalues --    3.56195   3.56455   3.88513   3.94368   4.02567
 Alpha virt. eigenvalues --    4.11826   4.21035  21.03971  21.08540  21.52509
 Alpha virt. eigenvalues --   21.56864  21.58901  21.61865  21.74863  21.79755
 Alpha virt. eigenvalues --   21.80861  21.81852  21.85605  21.93511  21.96103
 Alpha virt. eigenvalues --   43.13190  43.25622  43.31141
          Condensed to atoms (all electrons):
               1          2          3          4          5          6
     1  O    8.051483   0.538726  -0.091807   0.002759   0.014820  -0.002824
     2  C    0.538726   5.428353   0.382634  -0.099197   0.006763  -0.002929
     3  O   -0.091807   0.382634   7.957870   0.173046  -0.063816   0.011548
     4  C    0.002759  -0.099197   0.173046   5.366194   0.273728   0.057467
     5  C    0.014820   0.006763  -0.063816   0.273728   5.293329   0.303260
     6  C   -0.002824  -0.002929   0.011548   0.057467   0.303260   5.193013
     7  C    0.001203   0.001643  -0.000005  -0.138468   0.037926   0.336505
     8  C   -0.005881  -0.004913   0.016172   0.075701  -0.147873   0.037054
     9  C    0.006935  -0.015818  -0.029288   0.287686   0.043811  -0.145159
    10  C   -0.136371  -0.313396  -0.222888  -0.010761   0.012708  -0.001154
    11  C    0.009995  -0.069568   0.018775  -0.001578  -0.001496   0.000169
    12  C   -0.000324   0.007590  -0.002297  -0.000255  -0.000067  -0.000003
    13  C   -0.000608   0.021737   0.000495   0.000089   0.000008   0.000000
    14  C    0.006891  -0.010731   0.000282  -0.000180  -0.000059   0.000000
    15  C   -0.022153  -0.059173   0.000134   0.001514   0.000666   0.000003
    16  O   -0.053050  -0.012609  -0.000640   0.000328   0.000045  -0.000000
    17  H    0.000071  -0.001515   0.001883  -0.065174   0.431551  -0.041545
    18  H   -0.000015  -0.000105  -0.000180   0.018958  -0.060729   0.436519
    19  H    0.000003   0.000001   0.000007  -0.004771   0.016937  -0.060243
    20  H   -0.000024  -0.000143  -0.000224   0.017336  -0.003282   0.015354
    21  H    0.001196  -0.000602  -0.007382  -0.051654   0.013121  -0.002798
    22  H    0.000350  -0.035005   0.016646   0.000418   0.000224   0.000049
    23  H    0.000002  -0.001714  -0.000121  -0.000007   0.000000   0.000000
    24  H   -0.000003  -0.000131  -0.000001   0.000000   0.000000  -0.000000
    25  H    0.000154  -0.002287   0.000011  -0.000004  -0.000000  -0.000000
    26  H    0.061397  -0.030051   0.001101  -0.000450  -0.000051  -0.000012
               7          8          9         10         11         12
     1  O    0.001203  -0.005881   0.006935  -0.136371   0.009995  -0.000324
     2  C    0.001643  -0.004913  -0.015818  -0.313396  -0.069568   0.007590
     3  O   -0.000005   0.016172  -0.029288  -0.222888   0.018775  -0.002297
     4  C   -0.138468   0.075701   0.287686  -0.010761  -0.001578  -0.000255
     5  C    0.037926  -0.147873   0.043811   0.012708  -0.001496  -0.000067
     6  C    0.336505   0.037054  -0.145159  -0.001154   0.000169  -0.000003
     7  C    5.191274   0.344249   0.032068   0.000430  -0.000041   0.000001
     8  C    0.344249   5.234500   0.243212  -0.002843   0.000224  -0.000005
     9  C    0.032068   0.243212   5.348815  -0.008105   0.000420  -0.000066
    10  C    0.000430  -0.002843  -0.008105   7.247911   0.073784   0.101490
    11  C   -0.000041   0.000224   0.000420   0.073784   5.351608   0.295648
    12  C    0.000001  -0.000005  -0.000066   0.101490   0.295648   5.236753
    13  C   -0.000000   0.000001   0.000023  -0.155048   0.012058   0.319600
    14  C   -0.000000   0.000001  -0.000052   0.106711  -0.141911   0.064588
    15  C    0.000002   0.000016   0.000755  -0.361766   0.096910  -0.177827
    16  O    0.000000  -0.000005  -0.000088  -0.123616   0.007787  -0.000204
    17  H    0.013005  -0.003489   0.012265   0.000627  -0.000029   0.000003
    18  H   -0.063093   0.015317  -0.003790  -0.000018   0.000001  -0.000000
    19  H    0.435245  -0.061473   0.017659   0.000001  -0.000000  -0.000000
    20  H   -0.062607   0.434952  -0.059109  -0.000021   0.000001  -0.000000
    21  H    0.012092  -0.046840   0.425475   0.001923  -0.000024   0.000005
    22  H   -0.000004   0.000033   0.000132  -0.041035   0.429460  -0.049881
    23  H   -0.000000  -0.000000  -0.000002   0.016340  -0.054091   0.433280
    24  H    0.000000  -0.000000   0.000000  -0.009038   0.023003  -0.073353
    25  H    0.000000  -0.000000  -0.000000   0.031574  -0.003611   0.015619
    26  H    0.000005  -0.000010   0.000126  -0.009250   0.002820   0.000113
              13         14         15         16         17         18
     1  O   -0.000608   0.006891  -0.022153  -0.053050   0.000071  -0.000015
     2  C    0.021737  -0.010731  -0.059173  -0.012609  -0.001515  -0.000105
     3  O    0.000495   0.000282   0.000134  -0.000640   0.001883  -0.000180
     4  C    0.000089  -0.000180   0.001514   0.000328  -0.065174   0.018958
     5  C    0.000008  -0.000059   0.000666   0.000045   0.431551  -0.060729
     6  C    0.000000   0.000000   0.000003  -0.000000  -0.041545   0.436519
     7  C   -0.000000  -0.000000   0.000002   0.000000   0.013005  -0.063093
     8  C    0.000001   0.000001   0.000016  -0.000005  -0.003489   0.015317
     9  C    0.000023  -0.000052   0.000755  -0.000088   0.012265  -0.003790
    10  C   -0.155048   0.106711  -0.361766  -0.123616   0.000627  -0.000018
    11  C    0.012058  -0.141911   0.096910   0.007787  -0.000029   0.000001
    12  C    0.319600   0.064588  -0.177827  -0.000204   0.000003  -0.000000
    13  C    5.128554   0.304849   0.104566   0.007018   0.000000   0.000000
    14  C    0.304849   5.413965   0.176975  -0.078362  -0.000004   0.000000
    15  C    0.104566   0.176975   5.711735   0.434183   0.000014   0.000000
    16  O    0.007018  -0.078362   0.434183   7.799243   0.000002  -0.000000
    17  H    0.000000  -0.000004   0.000014   0.000002   0.495917  -0.006944
    18  H    0.000000   0.000000   0.000000  -0.000000  -0.006944   0.514738
    19  H   -0.000000   0.000000  -0.000000   0.000000  -0.000110  -0.006591
    20  H    0.000000  -0.000000   0.000000  -0.000000   0.000019  -0.000171
    21  H   -0.000002  -0.000006   0.000042   0.000020  -0.000090   0.000000
    22  H    0.011348  -0.001913   0.011372   0.000002   0.000064  -0.000000
    23  H   -0.063892   0.016092  -0.003092   0.000011  -0.000000   0.000000
    24  H    0.452563  -0.076975   0.025929  -0.000138   0.000000  -0.000000
    25  H   -0.059106   0.434218  -0.088233   0.004289   0.000000   0.000000
    26  H   -0.001705   0.013380  -0.022549   0.290868  -0.000004  -0.000000
              19         20         21         22         23         24
     1  O    0.000003  -0.000024   0.001196   0.000350   0.000002  -0.000003
     2  C    0.000001  -0.000143  -0.000602  -0.035005  -0.001714  -0.000131
     3  O    0.000007  -0.000224  -0.007382   0.016646  -0.000121  -0.000001
     4  C   -0.004771   0.017336  -0.051654   0.000418  -0.000007   0.000000
     5  C    0.016937  -0.003282   0.013121   0.000224   0.000000   0.000000
     6  C   -0.060243   0.015354  -0.002798   0.000049   0.000000  -0.000000
     7  C    0.435245  -0.062607   0.012092  -0.000004  -0.000000   0.000000
     8  C   -0.061473   0.434952  -0.046840   0.000033  -0.000000  -0.000000
     9  C    0.017659  -0.059109   0.425475   0.000132  -0.000002   0.000000
    10  C    0.000001  -0.000021   0.001923  -0.041035   0.016340  -0.009038
    11  C   -0.000000   0.000001  -0.000024   0.429460  -0.054091   0.023003
    12  C   -0.000000  -0.000000   0.000005  -0.049881   0.433280  -0.073353
    13  C   -0.000000   0.000000  -0.000002   0.011348  -0.063892   0.452563
    14  C    0.000000  -0.000000  -0.000006  -0.001913   0.016092  -0.076975
    15  C   -0.000000   0.000000   0.000042   0.011372  -0.003092   0.025929
    16  O    0.000000  -0.000000   0.000020   0.000002   0.000011  -0.000138
    17  H   -0.000110   0.000019  -0.000090   0.000064  -0.000000   0.000000
    18  H   -0.006591  -0.000171   0.000000  -0.000000   0.000000  -0.000000
    19  H    0.513332  -0.006789  -0.000101  -0.000000   0.000000   0.000000
    20  H   -0.006789   0.514414  -0.006051   0.000000  -0.000000  -0.000000
    21  H   -0.000101  -0.006051   0.489342   0.000018   0.000000   0.000000
    22  H   -0.000000   0.000000   0.000018   0.498203  -0.005528  -0.000087
    23  H    0.000000  -0.000000   0.000000  -0.005528   0.515500  -0.006819
    24  H    0.000000  -0.000000   0.000000  -0.000087  -0.006819   0.519272
    25  H    0.000000   0.000000   0.000000   0.000023  -0.000068  -0.008640
    26  H    0.000000  -0.000001   0.000008  -0.000048  -0.000000   0.000022
              25         26
     1  O    0.000154   0.061397
     2  C   -0.002287  -0.030051
     3  O    0.000011   0.001101
     4  C   -0.000004  -0.000450
     5  C   -0.000000  -0.000051
     6  C   -0.000000  -0.000012
     7  C    0.000000   0.000005
     8  C   -0.000000  -0.000010
     9  C   -0.000000   0.000126
    10  C    0.031574  -0.009250
    11  C   -0.003611   0.002820
    12  C    0.015619   0.000113
    13  C   -0.059106  -0.001705
    14  C    0.434218   0.013380
    15  C   -0.088233  -0.022549
    16  O    0.004289   0.290868
    17  H    0.000000  -0.000004
    18  H    0.000000  -0.000000
    19  H    0.000000   0.000000
    20  H    0.000000  -0.000001
    21  H    0.000000   0.000008
    22  H    0.000023  -0.000048
    23  H   -0.000068  -0.000000
    24  H   -0.008640   0.000022
    25  H    0.518310   0.000107
    26  H    0.000107   0.387892
 Mulliken charges:
               1
     1  O   -0.382924
     2  C    0.272437
     3  O   -0.161953
     4  C    0.097275
     5  C   -0.171525
     6  C   -0.134273
     7  C   -0.141431
     8  C   -0.128100
     9  C   -0.157906
    10  C   -0.198187
    11  C   -0.050313
    12  C   -0.170408
    13  C   -0.082550
    14  C   -0.227760
    15  C    0.169976
    16  O   -0.275084
    17  H    0.163484
    18  H    0.156102
    19  H    0.156894
    20  H    0.156343
    21  H    0.172307
    22  H    0.165158
    23  H    0.154109
    24  H    0.154396
    25  H    0.157644
    26  H    0.306292
 Sum of Mulliken charges =  -0.00000
 Mulliken charges with hydrogens summed into heavy atoms:
               1
     1  O   -0.382924
     2  C    0.272437
     3  O   -0.161953
     4  C    0.097275
     5  C   -0.008041
     6  C    0.021828
     7  C    0.015463
     8  C    0.028242
     9  C    0.014400
    10  C   -0.198187
    11  C    0.114846
    12  C   -0.016299
    13  C    0.071846
    14  C   -0.070116
    15  C    0.169976
    16  O    0.031207
 Electronic spatial extent (au):  <R**2>=           4456.7573
 Charge=             -0.0000 electrons
 Dipole moment (field-independent basis, Debye):
    X=             -0.9192    Y=             -3.0745    Z=              0.5468  Tot=              3.2552
 Quadrupole moment (field-independent basis, Debye-Ang):
   XX=            -70.6802   YY=            -95.8687   ZZ=            -89.0117
   XY=             -6.8214   XZ=              1.4633   YZ=              3.8158
 Traceless Quadrupole moment (field-independent basis, Debye-Ang):
   XX=             14.5066   YY=            -10.6818   ZZ=             -3.8248
   XY=             -6.8214   XZ=              1.4633   YZ=              3.8158
 Octapole moment (field-independent basis, Debye-Ang**2):
  XXX=             -5.8050  YYY=            -12.5369  ZZZ=             -2.2397  XYY=             11.4339
  XXY=            -14.2790  XXZ=             -0.2679  XZZ=            -25.0675  YZZ=              4.7074
  YYZ=              2.6199  XYZ=            -15.1917
 Hexadecapole moment (field-independent basis, Debye-Ang**3):
 XXXX=          -4244.1425 YYYY=           -708.2014 ZZZZ=           -307.9654 XXXY=           -105.8365
 XXXZ=             34.2445 YYYX=            -50.3720 YYYZ=             -8.0571 ZZZX=             -4.3820
 ZZZY=             19.1768 XXYY=           -994.6510 XXZZ=           -893.0309 YYZZ=           -176.0711
 XXYZ=             41.7310 YYXZ=             13.7825 ZZXY=             11.9817
 N-N= 9.945596876892D+02 E-N=-3.686200097603D+03  KE= 7.241255587862D+02
 Unable to Open any file for archive entry.
 1\1\GINC-TCN1638\SP\RBP86\TZVP\C13H10O3\ELENAA\22-Feb-2021\0\\# BP86/T
 ZVP SCRF=COSMORS geom=CHECKPOINT guess=CHECKPOINT\\COSMO-file for #ZQB
 AKBUEJOMQEX-UHFFFAOYSA-N\\0,1\O,0,1.5089635772,2.3195247806,1.47705225
 1\C,0,0.6545593637,1.8205906515,0.7314004803\O,0,0.3798986209,0.483535
 9896,0.7310952109\C,0,1.1351549959,-0.346119193,1.5918081107\C,0,0.498
 7058822,-0.8741450774,2.7134370088\C,0,1.2087451044,-1.7595483713,3.53
 39530693\C,0,2.532067937,-2.0988555467,3.2261628807\C,0,3.1502358814,-
 1.5547518155,2.0923607694\C,0,2.4510603168,-0.6713916217,1.2624961169\
 C,0,-0.1577123964,2.586781378,-0.2190199898\C,0,-1.1167878803,1.976312
 7686,-1.057857934\C,0,-1.8687938495,2.7326120809,-1.9480392699\C,0,-1.
 6697937989,4.1248433512,-2.013350432\C,0,-0.7314494303,4.7525222313,-1
 .1997622454\C,0,0.0365708388,3.9981039845,-0.2947281424\O,0,0.93815765
 88,4.6508808785,0.4757980242\H,0,-0.5327663077,-0.5938817908,2.9315099
 118\H,0,0.7232264696,-2.1832568054,4.4150284513\H,0,3.0818049347,-2.78
 94348249,3.8682473101\H,0,4.1809012916,-1.8192599536,1.8486691735\H,0,
 2.9123479264,-0.2387948656,0.3737451459\H,0,-1.2576342864,0.8970762196
 ,-0.9932848441\H,0,-2.6067672372,2.2511933507,-2.5908424793\H,0,-2.257
 7186585,4.7252661332,-2.7107969385\H,0,-0.5711985041,5.8308993692,-1.2
 450088328\H,0,1.3775961667,3.9489926825,1.0426520751\\Version=ES64L-G1
 6RevC.01\State=1-A\HF=-727.3554965\RMSD=1.521e-09\Dipole=-0.5686074,-1
 .0748494,-0.4019473\Quadrupole=1.525689,-3.1455455,1.6198565,-6.461842
 ,3.304639,-8.2820947\PG=C01 [X(C13H10O3)]\\@
 The archive entry for this job was punched.


 AND HERE I AM, FOR ALL MY LORE,
 THE WRETCHED FOOL I WAS BEFORE.
 CALLED MASTER OF ARTS, AND DOCTOR TO BOOT,
 FOR TEN YEARS ALMOST I CONFUTE
 AND UP AND DOWN, WHEREVER IT GOES
 I DRAG MY STUDENTS BY THE NOSE --
 AND SEE THAT FOR ALL OUR SCIENCE AND ART
 WE CAN KNOW NOTHING.  IT BURNS MY HEART.

                                       -- FAUST
 Job cpu time:       0 days  0 hours 12 minutes 34.7 seconds.
 Elapsed time:       0 days  0 hours  0 minutes 24.4 seconds.
 File lengths (MBytes):  RWF=    102 Int=      0 D2E=      0 Chk=     14 Scr=      1
 Normal termination of Gaussian 16 at Mon Feb 22 21:39:09 2021.
