 Entering Gaussian System, Link 0=g16
 Input=AOCYKHQUTWXPMC-UHFFFAOYSA-M.gjf
 Output=AOCYKHQUTWXPMC-UHFFFAOYSA-M.log
 Initial command:
 /sw/arch/RedHatEnterpriseServer7/EB_production/2020/software/Gaussian/g16.c01/l1.exe "/scratch-local/elenaa.10684686/Gau-2187.inp" -scrdir="/scratch-local/elenaa.10684686/"
 Entering Link 1 = /sw/arch/RedHatEnterpriseServer7/EB_production/2020/software/Gaussian/g16.c01/l1.exe PID=      2189.
  
 Copyright (c) 1988-2019, Gaussian, Inc.  All Rights Reserved.
  
 This is part of the Gaussian(R) 16 program.  It is based on
 the Gaussian(R) 09 system (copyright 2009, Gaussian, Inc.),
 the Gaussian(R) 03 system (copyright 2003, Gaussian, Inc.),
 the Gaussian(R) 98 system (copyright 1998, Gaussian, Inc.),
 the Gaussian(R) 94 system (copyright 1995, Gaussian, Inc.),
 the Gaussian 92(TM) system (copyright 1992, Gaussian, Inc.),
 the Gaussian 90(TM) system (copyright 1990, Gaussian, Inc.),
 the Gaussian 88(TM) system (copyright 1988, Gaussian, Inc.),
 the Gaussian 86(TM) system (copyright 1986, Carnegie Mellon
 University), and the Gaussian 82(TM) system (copyright 1983,
 Carnegie Mellon University). Gaussian is a federally registered
 trademark of Gaussian, Inc.
  
 This software contains proprietary and confidential information,
 including trade secrets, belonging to Gaussian, Inc.
  
 This software is provided under written license and may be
 used, copied, transmitted, or stored only in accord with that
 written license.
  
 The following legend is applicable only to US Government
 contracts under FAR:
  
                    RESTRICTED RIGHTS LEGEND
  
 Use, reproduction and disclosure by the US Government is
 subject to restrictions as set forth in subparagraphs (a)
 and (c) of the Commercial Computer Software - Restricted
 Rights clause in FAR 52.227-19.
  
 Gaussian, Inc.
 340 Quinnipiac St., Bldg. 40, Wallingford CT 06492
  
  
 ---------------------------------------------------------------
 Warning -- This program may not be used in any manner that
 competes with the business of Gaussian, Inc. or will provide
 assistance to any competitor of Gaussian, Inc.  The licensee
 of this program is prohibited from giving any competitor of
 Gaussian, Inc. access to this program.  By using this program,
 the user acknowledges that Gaussian, Inc. is engaged in the
 business of creating and licensing software in the field of
 computational chemistry and represents and warrants to the
 licensee that it is not a competitor of Gaussian, Inc. and that
 it will not use this program in any manner prohibited above.
 ---------------------------------------------------------------
  

 Cite this work as:
 Gaussian 16, Revision C.01,
 M. J. Frisch, G. W. Trucks, H. B. Schlegel, G. E. Scuseria, 
 M. A. Robb, J. R. Cheeseman, G. Scalmani, V. Barone, 
 G. A. Petersson, H. Nakatsuji, X. Li, M. Caricato, A. V. Marenich, 
 J. Bloino, B. G. Janesko, R. Gomperts, B. Mennucci, H. P. Hratchian, 
 J. V. Ortiz, A. F. Izmaylov, J. L. Sonnenberg, D. Williams-Young, 
 F. Ding, F. Lipparini, F. Egidi, J. Goings, B. Peng, A. Petrone, 
 T. Henderson, D. Ranasinghe, V. G. Zakrzewski, J. Gao, N. Rega, 
 G. Zheng, W. Liang, M. Hada, M. Ehara, K. Toyota, R. Fukuda, 
 J. Hasegawa, M. Ishida, T. Nakajima, Y. Honda, O. Kitao, H. Nakai, 
 T. Vreven, K. Throssell, J. A. Montgomery, Jr., J. E. Peralta, 
 F. Ogliaro, M. J. Bearpark, J. J. Heyd, E. N. Brothers, K. N. Kudin, 
 V. N. Staroverov, T. A. Keith, R. Kobayashi, J. Normand, 
 K. Raghavachari, A. P. Rendell, J. C. Burant, S. S. Iyengar, 
 J. Tomasi, M. Cossi, J. M. Millam, M. Klene, C. Adamo, R. Cammi, 
 J. W. Ochterski, R. L. Martin, K. Morokuma, O. Farkas, 
 J. B. Foresman, and D. J. Fox, Gaussian, Inc., Wallingford CT, 2019.
 
 ******************************************
 Gaussian 16:  ES64L-G16RevC.01  3-Jul-2019
                21-Aug-2021 
 ******************************************
 %chk=AOCYKHQUTWXPMC-UHFFFAOYSA-M.chk
 %NProcShared=24
 Will use up to   24 processors via shared memory.
 -------------------------------------------------------------
 #P BP86/TZVP EmpiricalDispersion=GD3 SCRF=(Solvent=Water) Opt
 -------------------------------------------------------------
 1/18=20,19=15,26=3,38=1/1,3;
 2/9=110,12=2,17=6,18=5,40=1/2;
 3/5=19,7=101,11=2,25=1,30=1,70=2201,71=1,72=1,74=404,124=31/1,2,3;
 4//1;
 5/5=2,38=5,53=1/2;
 6/7=2,8=2,9=2,10=2,28=1/1;
 7//1,2,3,16;
 1/18=20,19=15,26=3/3(2);
 2/9=110/2;
 99//99;
 2/9=110/2;
 3/5=19,7=101,11=2,25=1,30=1,70=2205,71=1,72=1,74=404,124=31/1,2,3;
 4/5=5,16=3,69=1/1;
 5/5=2,38=5,53=1/2;
 7//1,2,3,16;
 1/18=20,19=15,26=3/3(-5);
 2/9=110/2;
 6/7=2,8=2,9=2,10=2,19=2,28=1/1;
 99/9=1/99;
 Leave Link    1 at Sat Aug 21 09:31:10 2021, MaxMem=           0 cpu:               2.1 elap:               0.1
 (Enter /sw/arch/RedHatEnterpriseServer7/EB_production/2020/software/Gaussian/g16.c01/l101.exe)
 -------------------------------------
 Particle #AOCYKHQUTWXPMC-UHFFFAOYSA-M
 -------------------------------------
 Symbolic Z-matrix:
 Charge =  0 Multiplicity = 1
 C                    -0.534    -0.54228  -2.209 
 N                    -1.12338  -0.45979  -0.8492 
 C                    -2.33538  -1.31218  -0.83618 
 C                    -1.46842   0.95203  -0.56227 
 C                    -0.17855  -1.00018   0.17966 
 C                     1.2105   -0.33231   0.23567 
 F                     2.00646  -0.75429  -0.81407 
 Cl                   -3.47226   0.88361  -3.40696 
 H                     0.31099   0.16876  -2.33521 
 H                    -0.15929  -1.56848  -2.42276 
 H                    -1.28767  -0.28263  -2.98661 
 H                    -2.10035  -2.34648  -1.17613 
 H                    -3.11987  -0.9143   -1.51779 
 H                    -2.74977  -1.406     0.19044 
 H                    -2.2979    1.30078  -1.21591 
 H                    -1.74767   1.08826   0.50445 
 H                    -0.617     1.63486  -0.76759 
 H                    -0.01419  -2.09078   0.01881 
 H                    -0.63346  -0.9049    1.19248 
 H                     1.15067   0.77273   0.24369 
 H                     1.71139  -0.63797   1.1786 
 
 Add virtual bond connecting atoms H11        and Cl8        Dist= 4.75D+00.
 Add virtual bond connecting atoms H13        and Cl8        Dist= 4.97D+00.
 Add virtual bond connecting atoms H15        and Cl8        Dist= 4.76D+00.
 ITRead=  0  0  0  0  0  0  0  0  0  0  0  0  0  0  0  0  0  0  0  0
 ITRead=  0
 MicOpt= -1 -1 -1 -1 -1 -1 -1 -1 -1 -1 -1 -1 -1 -1 -1 -1 -1 -1 -1 -1
 MicOpt= -1
 NAtoms=     21 NQM=       21 NQMF=       0 NMMI=      0 NMMIF=      0
                NMic=       0 NMicF=      0.
                    Isotopes and Nuclear Properties:
 (Nuclear quadrupole moments (NQMom) in fm**2, nuclear magnetic moments (NMagM)
  in nuclear magnetons)

  Atom         1           2           3           4           5           6           7           8           9          10
 IAtWgt=          12          14          12          12          12          12          19          35           1           1
 AtmWgt=  12.0000000  14.0030740  12.0000000  12.0000000  12.0000000  12.0000000  18.9984032  34.9688527   1.0078250   1.0078250
 NucSpn=           0           2           0           0           0           0           1           3           1           1
 AtZEff=  -0.0000000  -0.0000000  -0.0000000  -0.0000000  -0.0000000  -0.0000000  -0.0000000  -0.0000000  -0.0000000  -0.0000000
 NQMom=    0.0000000   2.0440000   0.0000000   0.0000000   0.0000000   0.0000000   0.0000000  -8.1650000   0.0000000   0.0000000
 NMagM=    0.0000000   0.4037610   0.0000000   0.0000000   0.0000000   0.0000000   2.6288670   0.8218740   2.7928460   2.7928460
 AtZNuc=   6.0000000   7.0000000   6.0000000   6.0000000   6.0000000   6.0000000   9.0000000  17.0000000   1.0000000   1.0000000

  Atom        11          12          13          14          15          16          17          18          19          20
 IAtWgt=           1           1           1           1           1           1           1           1           1           1
 AtmWgt=   1.0078250   1.0078250   1.0078250   1.0078250   1.0078250   1.0078250   1.0078250   1.0078250   1.0078250   1.0078250
 NucSpn=           1           1           1           1           1           1           1           1           1           1
 AtZEff=  -0.0000000  -0.0000000  -0.0000000  -0.0000000  -0.0000000  -0.0000000  -0.0000000  -0.0000000  -0.0000000  -0.0000000
 NQMom=    0.0000000   0.0000000   0.0000000   0.0000000   0.0000000   0.0000000   0.0000000   0.0000000   0.0000000   0.0000000
 NMagM=    2.7928460   2.7928460   2.7928460   2.7928460   2.7928460   2.7928460   2.7928460   2.7928460   2.7928460   2.7928460
 AtZNuc=   1.0000000   1.0000000   1.0000000   1.0000000   1.0000000   1.0000000   1.0000000   1.0000000   1.0000000   1.0000000

  Atom        21
 IAtWgt=           1
 AtmWgt=   1.0078250
 NucSpn=           1
 AtZEff=  -0.0000000
 NQMom=    0.0000000
 NMagM=    2.7928460
 AtZNuc=   1.0000000
 Leave Link  101 at Sat Aug 21 09:31:10 2021, MaxMem=   104857600 cpu:               2.6 elap:               0.2
 (Enter /sw/arch/RedHatEnterpriseServer7/EB_production/2020/software/Gaussian/g16.c01/l103.exe)

 GradGradGradGradGradGradGradGradGradGradGradGradGradGradGradGradGradGrad
 Berny optimization.
 Initialization pass.
                           ----------------------------
                           !    Initial Parameters    !
                           ! (Angstroms and Degrees)  !
 --------------------------                            --------------------------
 ! Name  Definition              Value          Derivative Info.                !
 --------------------------------------------------------------------------------
 ! R1    R(1,2)                  1.4843         estimate D2E/DX2                !
 ! R2    R(1,9)                  1.1115         estimate D2E/DX2                !
 ! R3    R(1,10)                 1.1132         estimate D2E/DX2                !
 ! R4    R(1,11)                 1.1136         estimate D2E/DX2                !
 ! R5    R(2,3)                  1.4818         estimate D2E/DX2                !
 ! R6    R(2,4)                  1.4814         estimate D2E/DX2                !
 ! R7    R(2,5)                  1.4978         estimate D2E/DX2                !
 ! R8    R(3,12)                 1.1138         estimate D2E/DX2                !
 ! R9    R(3,13)                 1.1128         estimate D2E/DX2                !
 ! R10   R(3,14)                 1.1111         estimate D2E/DX2                !
 ! R11   R(4,15)                 1.1122         estimate D2E/DX2                !
 ! R12   R(4,16)                 1.111          estimate D2E/DX2                !
 ! R13   R(4,17)                 1.1105         estimate D2E/DX2                !
 ! R14   R(5,6)                  1.5423         estimate D2E/DX2                !
 ! R15   R(5,18)                 1.1146         estimate D2E/DX2                !
 ! R16   R(5,19)                 1.1144         estimate D2E/DX2                !
 ! R17   R(6,7)                  1.3833         estimate D2E/DX2                !
 ! R18   R(6,20)                 1.1067         estimate D2E/DX2                !
 ! R19   R(6,21)                 1.1106         estimate D2E/DX2                !
 ! R20   R(8,11)                 2.5118         estimate D2E/DX2                !
 ! R21   R(8,13)                 2.6316         estimate D2E/DX2                !
 ! R22   R(8,15)                 2.5207         estimate D2E/DX2                !
 ! A1    A(2,1,9)              111.736          estimate D2E/DX2                !
 ! A2    A(2,1,10)             111.1497         estimate D2E/DX2                !
 ! A3    A(2,1,11)             110.9783         estimate D2E/DX2                !
 ! A4    A(9,1,10)             108.1801         estimate D2E/DX2                !
 ! A5    A(9,1,11)             106.6212         estimate D2E/DX2                !
 ! A6    A(10,1,11)            107.9789         estimate D2E/DX2                !
 ! A7    A(1,2,3)              107.5095         estimate D2E/DX2                !
 ! A8    A(1,2,4)              108.8374         estimate D2E/DX2                !
 ! A9    A(1,2,5)              111.0243         estimate D2E/DX2                !
 ! A10   A(3,2,4)              110.8555         estimate D2E/DX2                !
 ! A11   A(3,2,5)              107.6015         estimate D2E/DX2                !
 ! A12   A(4,2,5)              110.96           estimate D2E/DX2                !
 ! A13   A(2,3,12)             111.0326         estimate D2E/DX2                !
 ! A14   A(2,3,13)             111.4419         estimate D2E/DX2                !
 ! A15   A(2,3,14)             111.2087         estimate D2E/DX2                !
 ! A16   A(12,3,13)            107.0871         estimate D2E/DX2                !
 ! A17   A(12,3,14)            106.3976         estimate D2E/DX2                !
 ! A18   A(13,3,14)            109.4647         estimate D2E/DX2                !
 ! A19   A(2,4,15)             111.0216         estimate D2E/DX2                !
 ! A20   A(2,4,16)             111.1836         estimate D2E/DX2                !
 ! A21   A(2,4,17)             111.8141         estimate D2E/DX2                !
 ! A22   A(15,4,16)            109.7773         estimate D2E/DX2                !
 ! A23   A(15,4,17)            105.6835         estimate D2E/DX2                !
 ! A24   A(16,4,17)            107.1462         estimate D2E/DX2                !
 ! A25   A(2,5,6)              115.9042         estimate D2E/DX2                !
 ! A26   A(2,5,18)             110.2991         estimate D2E/DX2                !
 ! A27   A(2,5,19)             109.6311         estimate D2E/DX2                !
 ! A28   A(6,5,18)             107.2267         estimate D2E/DX2                !
 ! A29   A(6,5,19)             107.3156         estimate D2E/DX2                !
 ! A30   A(18,5,19)            105.9627         estimate D2E/DX2                !
 ! A31   A(5,6,7)              111.0123         estimate D2E/DX2                !
 ! A32   A(5,6,20)             112.5793         estimate D2E/DX2                !
 ! A33   A(5,6,21)             108.533          estimate D2E/DX2                !
 ! A34   A(7,6,20)             109.9503         estimate D2E/DX2                !
 ! A35   A(7,6,21)             107.5072         estimate D2E/DX2                !
 ! A36   A(20,6,21)            107.0403         estimate D2E/DX2                !
 ! A37   A(11,8,13)             56.3724         estimate D2E/DX2                !
 ! A38   A(11,8,15)             61.7177         estimate D2E/DX2                !
 ! A39   A(13,8,15)             55.0192         estimate D2E/DX2                !
 ! A40   A(1,11,8)             144.4616         estimate D2E/DX2                !
 ! A41   A(3,13,8)             141.1117         estimate D2E/DX2                !
 ! A42   A(4,15,8)             143.7491         estimate D2E/DX2                !
 ! D1    D(9,1,2,3)            173.049          estimate D2E/DX2                !
 ! D2    D(9,1,2,4)             52.9123         estimate D2E/DX2                !
 ! D3    D(9,1,2,5)            -69.5022         estimate D2E/DX2                !
 ! D4    D(10,1,2,3)           -65.9951         estimate D2E/DX2                !
 ! D5    D(10,1,2,4)           173.8683         estimate D2E/DX2                !
 ! D6    D(10,1,2,5)            51.4538         estimate D2E/DX2                !
 ! D7    D(11,1,2,3)            54.1896         estimate D2E/DX2                !
 ! D8    D(11,1,2,4)           -65.947          estimate D2E/DX2                !
 ! D9    D(11,1,2,5)           171.6385         estimate D2E/DX2                !
 ! D10   D(2,1,11,8)            20.2536         estimate D2E/DX2                !
 ! D11   D(9,1,11,8)          -101.6421         estimate D2E/DX2                !
 ! D12   D(10,1,11,8)          142.3053         estimate D2E/DX2                !
 ! D13   D(1,2,3,12)            54.0175         estimate D2E/DX2                !
 ! D14   D(1,2,3,13)           -65.2718         estimate D2E/DX2                !
 ! D15   D(1,2,3,14)           172.2881         estimate D2E/DX2                !
 ! D16   D(4,2,3,12)           172.8662         estimate D2E/DX2                !
 ! D17   D(4,2,3,13)            53.5768         estimate D2E/DX2                !
 ! D18   D(4,2,3,14)           -68.8632         estimate D2E/DX2                !
 ! D19   D(5,2,3,12)           -65.6363         estimate D2E/DX2                !
 ! D20   D(5,2,3,13)           175.0744         estimate D2E/DX2                !
 ! D21   D(5,2,3,14)            52.6344         estimate D2E/DX2                !
 ! D22   D(1,2,4,15)            67.3186         estimate D2E/DX2                !
 ! D23   D(1,2,4,16)          -170.1548         estimate D2E/DX2                !
 ! D24   D(1,2,4,17)           -50.4402         estimate D2E/DX2                !
 ! D25   D(3,2,4,15)           -50.7255         estimate D2E/DX2                !
 ! D26   D(3,2,4,16)            71.8012         estimate D2E/DX2                !
 ! D27   D(3,2,4,17)          -168.4843         estimate D2E/DX2                !
 ! D28   D(5,2,4,15)          -170.2281         estimate D2E/DX2                !
 ! D29   D(5,2,4,16)           -47.7015         estimate D2E/DX2                !
 ! D30   D(5,2,4,17)            72.0131         estimate D2E/DX2                !
 ! D31   D(1,2,5,6)             57.0233         estimate D2E/DX2                !
 ! D32   D(1,2,5,18)           -65.0281         estimate D2E/DX2                !
 ! D33   D(1,2,5,19)           178.66           estimate D2E/DX2                !
 ! D34   D(3,2,5,6)            174.416          estimate D2E/DX2                !
 ! D35   D(3,2,5,18)            52.3647         estimate D2E/DX2                !
 ! D36   D(3,2,5,19)           -63.9472         estimate D2E/DX2                !
 ! D37   D(4,2,5,6)            -64.1516         estimate D2E/DX2                !
 ! D38   D(4,2,5,18)           173.797          estimate D2E/DX2                !
 ! D39   D(4,2,5,19)            57.4851         estimate D2E/DX2                !
 ! D40   D(2,3,13,8)            10.6289         estimate D2E/DX2                !
 ! D41   D(12,3,13,8)         -110.9799         estimate D2E/DX2                !
 ! D42   D(14,3,13,8)          134.0666         estimate D2E/DX2                !
 ! D43   D(2,4,15,8)           -23.324          estimate D2E/DX2                !
 ! D44   D(16,4,15,8)         -146.6615         estimate D2E/DX2                !
 ! D45   D(17,4,15,8)           98.1014         estimate D2E/DX2                !
 ! D46   D(2,5,6,7)            -75.8771         estimate D2E/DX2                !
 ! D47   D(2,5,6,20)            47.8735         estimate D2E/DX2                !
 ! D48   D(2,5,6,21)           166.1764         estimate D2E/DX2                !
 ! D49   D(18,5,6,7)            47.7904         estimate D2E/DX2                !
 ! D50   D(18,5,6,20)          171.541          estimate D2E/DX2                !
 ! D51   D(18,5,6,21)          -70.1561         estimate D2E/DX2                !
 ! D52   D(19,5,6,7)           161.26           estimate D2E/DX2                !
 ! D53   D(19,5,6,20)          -74.9894         estimate D2E/DX2                !
 ! D54   D(19,5,6,21)           43.3135         estimate D2E/DX2                !
 ! D55   D(13,8,11,1)          -51.6103         estimate D2E/DX2                !
 ! D56   D(15,8,11,1)           13.3018         estimate D2E/DX2                !
 ! D57   D(11,8,13,3)           30.4628         estimate D2E/DX2                !
 ! D58   D(15,8,13,3)          -46.2908         estimate D2E/DX2                !
 ! D59   D(11,8,15,4)          -11.3729         estimate D2E/DX2                !
 ! D60   D(13,8,15,4)           55.6075         estimate D2E/DX2                !
 --------------------------------------------------------------------------------
 Trust Radius=3.00D-01 FncErr=1.00D-07 GrdErr=1.00D-06 EigMax=2.50D+02 EigMin=1.00D-04
 Number of steps in this run=    126 maximum allowed number of steps=    126.
 GradGradGradGradGradGradGradGradGradGradGradGradGradGradGradGradGradGrad

 Leave Link  103 at Sat Aug 21 09:31:11 2021, MaxMem=   104857600 cpu:               0.2 elap:               0.0
 (Enter /sw/arch/RedHatEnterpriseServer7/EB_production/2020/software/Gaussian/g16.c01/l202.exe)
                          Input orientation:                          
 ---------------------------------------------------------------------
 Center     Atomic      Atomic             Coordinates (Angstroms)
 Number     Number       Type             X           Y           Z
 ---------------------------------------------------------------------
      1          6           0       -0.534001   -0.542279   -2.208995
      2          7           0       -1.123384   -0.459790   -0.849202
      3          6           0       -2.335380   -1.312176   -0.836175
      4          6           0       -1.468417    0.952028   -0.562266
      5          6           0       -0.178545   -1.000175    0.179660
      6          6           0        1.210500   -0.332311    0.235673
      7          9           0        2.006456   -0.754293   -0.814071
      8         17           0       -3.472256    0.883608   -3.406955
      9          1           0        0.310990    0.168761   -2.335213
     10          1           0       -0.159287   -1.568484   -2.422758
     11          1           0       -1.287668   -0.282626   -2.986611
     12          1           0       -2.100347   -2.346481   -1.176134
     13          1           0       -3.119875   -0.914298   -1.517792
     14          1           0       -2.749771   -1.406004    0.190436
     15          1           0       -2.297898    1.300783   -1.215909
     16          1           0       -1.747666    1.088262    0.504448
     17          1           0       -0.617003    1.634857   -0.767594
     18          1           0       -0.014191   -2.090778    0.018814
     19          1           0       -0.633459   -0.904901    1.192476
     20          1           0        1.150666    0.772730    0.243694
     21          1           0        1.711389   -0.637974    1.178600
 ---------------------------------------------------------------------
                    Distance matrix (angstroms):
                    1          2          3          4          5
     1  C    0.000000
     2  N    1.484323   0.000000
     3  C    2.392142   1.481778   0.000000
     4  C    2.412012   1.481422   2.439933   0.000000
     5  C    2.457985   1.497763   2.404413   2.454653   0.000000
     6  C    3.010610   2.576862   3.831744   3.076171   1.542279
     7  F    2.905974   3.143861   4.377586   3.879392   2.412921
     8  Cl   3.478736   3.723442   3.566913   3.480274   5.221205
     9  H    1.111539   2.158873   3.382834   2.631186   2.816140
    10  H    1.113194   2.152850   2.705239   3.395325   2.663818
    11  H    1.113607   2.151022   2.604237   2.726626   3.430787
    12  H    2.602957   2.149638   1.113822   3.414137   2.709989
    13  H    2.702389   2.153965   1.112808   2.668992   3.397078
    14  H    3.378302   2.149722   1.111060   2.787247   2.603078
    15  H    2.737596   2.147923   2.640674   1.112168   3.425446
    16  H    3.390342   2.149084   2.811544   1.111044   2.632337
    17  H    2.612364   2.156531   3.412115   1.110550   2.834242
    18  H    2.762460   2.154967   2.593289   3.422148   1.114584
    19  H    3.422191   2.146299   2.679148   2.687835   1.114370
    20  H    3.253158   2.807994   4.203031   2.746145   2.216776
    21  H    4.065309   3.489938   4.570580   3.958521   2.168161
                    6          7          8          9         10
     6  C    0.000000
     7  F    1.383321   0.000000
     8  Cl   6.056022   6.278698   0.000000
     9  H    2.769413   2.457744   3.996572   0.000000
    10  H    3.236000   2.818018   4.237589   1.801900   0.000000
    11  H    4.077551   3.974123   2.511815   1.784314   1.801279
    12  H    4.124535   4.419500   4.158386   3.672118   2.434556
    13  H    4.708025   5.176881   2.631649   3.689448   3.164175
    14  H    4.103487   4.904636   4.324989   4.269314   3.683177
    15  H    4.133152   4.786677   2.520681   3.056241   3.776617
    16  H    3.292569   4.384853   4.279623   3.625910   4.260256
    17  H    2.866367   3.548624   3.960186   2.338384   3.634620
    18  H    2.153857   2.561817   5.704479   3.279131   2.501023
    19  H    2.154882   3.319347   5.693180   3.806484   3.706089
    20  H    1.106689   2.045249   5.891599   2.778596   3.782489
    21  H    1.110599   2.017754   7.086092   3.867663   4.163539
                   11         12         13         14         15
    11  H    0.000000
    12  H    2.863175   0.000000
    13  H    2.431753   1.790898   0.000000
    14  H    3.673330   1.781506   1.815708   0.000000
    15  H    2.581305   3.652827   2.381882   3.083617   0.000000
    16  H    3.778680   3.840078   3.159535   2.706322   1.818667
    17  H    3.008416   4.268286   3.650391   3.835799   1.771440
    18  H    3.731452   2.417712   3.659308   2.825202   4.271129
    19  H    4.275510   3.136914   3.678030   2.394570   3.665476
    20  H    4.182597   4.723820   4.917969   4.468012   3.781782
    21  H    5.144861   4.795112   5.539675   4.633388   5.056366
                   16         17         18         19         20
    16  H    0.000000
    17  H    1.787528   0.000000
    18  H    3.653364   3.855149   0.000000
    19  H    2.384856   3.208195   1.779685   0.000000
    20  H    2.927094   2.211475   3.099539   2.626354   0.000000
    21  H    3.924211   3.791417   2.536409   2.360033   1.782848
                   21
    21  H    0.000000
 Stoichiometry    C5H13ClFN
 Framework group  C1[X(C5H13ClFN)]
 Deg. of freedom    57
 Full point group                 C1      NOp   1
 Largest Abelian subgroup         C1      NOp   1
 Largest concise Abelian subgroup C1      NOp   1
                         Standard orientation:                         
 ---------------------------------------------------------------------
 Center     Atomic      Atomic             Coordinates (Angstroms)
 Number     Number       Type             X           Y           Z
 ---------------------------------------------------------------------
      1          6           0       -0.034743   -0.832387   -0.722000
      2          7           0       -0.258354    0.474108   -0.053956
      3          6           0        0.505994    1.496299   -0.806660
      4          6           0        0.218633    0.383524    1.345647
      5          6           0       -1.704088    0.862336   -0.103216
      6          6           0       -2.694278   -0.147677    0.511619
      7          9           0       -2.886740   -1.228635   -0.329847
      8         17           0        3.335744   -0.491028    0.068505
      9          1           0       -0.476549   -1.671877   -0.142704
     10          1           0       -0.479131   -0.842906   -1.742593
     11          1           0        1.053164   -1.049779   -0.818537
     12          1           0        0.239797    1.478526   -1.888059
     13          1           0        1.602164    1.317780   -0.736785
     14          1           0        0.273730    2.520235   -0.443256
     15          1           0        1.324253    0.269186    1.383729
     16          1           0       -0.087479    1.275777    1.932672
     17          1           0       -0.193375   -0.507336    1.865204
     18          1           0       -2.022009    1.036449   -1.157213
     19          1           0       -1.849355    1.832756    0.424990
     20          1           0       -2.376381   -0.499469    1.511591
     21          1           0       -3.676440    0.354536    0.640347
 ---------------------------------------------------------------------
 Rotational constants (GHZ):           2.9619722           0.6567946           0.6204161
 Leave Link  202 at Sat Aug 21 09:31:11 2021, MaxMem=   104857600 cpu:               0.2 elap:               0.0
 (Enter /sw/arch/RedHatEnterpriseServer7/EB_production/2020/software/Gaussian/g16.c01/l301.exe)
 Standard basis: TZVP (5D, 7F)
 Ernie: Thresh=  0.10000D-02 Tol=  0.10000D-05 Strict=F.
 There are   241 symmetry adapted cartesian basis functions of A   symmetry.
 There are   233 symmetry adapted basis functions of A   symmetry.
   233 basis functions,   396 primitive gaussians,   241 cartesian basis functions
    38 alpha electrons       38 beta electrons
       nuclear repulsion energy       483.6068575619 Hartrees.
 IExCor=  404 DFT=T Ex=B Corr=P86 ExCW=0 ScaHFX=  0.000000
 ScaDFX=  1.000000  1.000000  1.000000  1.000000 ScalE2=  1.000000  1.000000
 IRadAn=      5 IRanWt=     -1 IRanGd=            0 ICorTp=0 IEmpDi=131
 NAtoms=   21 NActive=   21 NUniq=   21 SFac= 1.00D+00 NAtFMM=   60 NAOKFM=F Big=F
 Integral buffers will be    131072 words long.
 Raffenetti 2 integral format.
 Two-electron integral symmetry is turned on.
 R6Disp:  Grimme-D3 Dispersion energy=       -0.0254481633 Hartrees.
 Nuclear repulsion after empirical dispersion term =      483.5814093986 Hartrees.
 ------------------------------------------------------------------------------
 Polarizable Continuum Model (PCM)
 =================================
 Model                : PCM.
 Atomic radii         : UFF (Universal Force Field).
 Polarization charges : Total charges.
 Charge compensation  : None.
 Solution method      : On-the-fly selection.
 Cavity type          : Scaled VdW (van der Waals Surface) (Alpha=1.100).
 Cavity algorithm     : GePol (No added spheres)
                        Default sphere list used, NSphG=   21.
                        Lebedev-Laikov grids with approx.  5.0 points / Ang**2.
                        Smoothing algorithm: York/Karplus (Gamma=1.0000).
                        Polarization charges: spherical gaussians, with
                                              point-specific exponents (IZeta= 3).
                        Self-potential: point-specific (ISelfS= 7).
                        Self-field    : sphere-specific E.n sum rule (ISelfD= 2).
 1st derivatives      : Analytical E(r).r(x)/FMM algorithm (CHGder, D1EAlg=3).
                        Cavity 1st derivative terms included.
 Solvent              : Water, Eps=  78.355300 Eps(inf)=   1.777849
 ------------------------------------------------------------------------------
 GePol: Number of generator spheres                  =      21
 GePol: Total number of spheres                      =      21
 GePol: Number of exposed spheres                    =      21 (100.00%)
 GePol: Number of points                             =    1478
 GePol: Average weight of points                     =       0.14
 GePol: Minimum weight of points                     =   0.51D-10
 GePol: Maximum weight of points                     =    0.21616
 GePol: Number of points with low weight             =      80
 GePol: Fraction of low-weight points (<1% of avg)   =       5.41%
 GePol: Cavity surface area                          =    210.360 Ang**2
 GePol: Cavity volume                                =    214.771 Ang**3
 Leave Link  301 at Sat Aug 21 09:31:11 2021, MaxMem=   104857600 cpu:               1.5 elap:               0.1
 (Enter /sw/arch/RedHatEnterpriseServer7/EB_production/2020/software/Gaussian/g16.c01/l302.exe)
 NPDir=0 NMtPBC=     1 NCelOv=     1 NCel=       1 NClECP=     1 NCelD=      1
         NCelK=      1 NCelE2=     1 NClLst=     1 CellRange=     0.0.
 One-electron integrals computed using PRISM.
 One-electron integral symmetry used in STVInt
 NBasis=   233 RedAO= T EigKep=  3.80D-04  NBF=   233
 NBsUse=   233 1.00D-06 EigRej= -1.00D+00 NBFU=   233
 Precomputing XC quadrature grid using
 IXCGrd= 4 IRadAn=           5 IRanWt=          -1 IRanGd=           0 AccXCQ= 0.00D+00.
 Generated NRdTot=       0 NPtTot=           0 NUsed=           0 NTot=          32
 NSgBfM=   238   238   238   238   238 MxSgAt=    21 MxSgA2=    21.
 Leave Link  302 at Sat Aug 21 09:31:12 2021, MaxMem=   104857600 cpu:               4.6 elap:               0.2
 (Enter /sw/arch/RedHatEnterpriseServer7/EB_production/2020/software/Gaussian/g16.c01/l303.exe)
 DipDrv:  MaxL=1.
 Leave Link  303 at Sat Aug 21 09:31:12 2021, MaxMem=   104857600 cpu:               1.6 elap:               0.1
 (Enter /sw/arch/RedHatEnterpriseServer7/EB_production/2020/software/Gaussian/g16.c01/l401.exe)
 ExpMin= 9.52D-02 ExpMax= 6.95D+04 ExpMxC= 2.37D+03 IAcc=3 IRadAn=         5 AccDes= 0.00D+00
 Harris functional with IExCor=  404 and IRadAn=       5 diagonalized for initial guess.
 HarFok:  IExCor=  404 AccDes= 0.00D+00 IRadAn=         5 IDoV= 1 UseB2=F ITyADJ=14
 ICtDFT=  3500011 ScaDFX=  1.000000  1.000000  1.000000  1.000000
 FoFCou: FMM=F IPFlag=           0 FMFlag=      100000 FMFlg1=           0
         NFxFlg=           0 DoJE=T BraDBF=F KetDBF=T FulRan=T
         wScrn=  0.000000 ICntrl=       500 IOpCl=  0 I1Cent=   200000004 NGrid=           0
         NMat0=    1 NMatS0=      1 NMatT0=    0 NMatD0=    1 NMtDS0=    0 NMtDT0=    0
 Petite list used in FoFCou.
 Harris En= -813.374985939159    
 JPrj=0 DoOrth=F DoCkMO=F.
 Leave Link  401 at Sat Aug 21 09:31:13 2021, MaxMem=   104857600 cpu:              12.0 elap:               0.5
 (Enter /sw/arch/RedHatEnterpriseServer7/EB_production/2020/software/Gaussian/g16.c01/l502.exe)
 Integral symmetry usage will be decided dynamically.
 Closed shell SCF:
 Using DIIS extrapolation, IDIIS=  1040.
 NGot=   104857600 LenX=   104732550 LenY=   104674028
 Requested convergence on RMS density matrix=1.00D-08 within 128 cycles.
 Requested convergence on MAX density matrix=1.00D-06.
 Requested convergence on             energy=1.00D-06.
 No special actions if energy rises.
 Fock matrices will be formed incrementally for  20 cycles.

 Cycle   1  Pass 1  IDiag  1:
 FoFJK:  IHMeth= 1 ICntrl=     500 DoSepK=F KAlg= 0 I1Cent=           0 FoldK=F
 IRaf= 940000000 NMat=       1 IRICut=       1 DoRegI=T DoRafI=F ISym2E= 0 IDoP0=0 IntGTp=1.
 FoFCou: FMM=F IPFlag=           0 FMFlag=      100000 FMFlg1=           0
         NFxFlg=           0 DoJE=T BraDBF=F KetDBF=F FulRan=T
         wScrn=  0.000000 ICntrl=       500 IOpCl=  0 I1Cent=           0 NGrid=           0
         NMat0=    1 NMatS0=      1 NMatT0=    0 NMatD0=    1 NMtDS0=    0 NMtDT0=    0
 Symmetry not used in FoFCou.
 Inv3:  Mode=1 IEnd=     6553452.
 Iteration    1 A*A^-1 deviation from unit magnitude is 3.22D-15 for    729.
 Iteration    1 A*A^-1 deviation from orthogonality  is 1.96D-15 for   1025    616.
 Iteration    1 A^-1*A deviation from unit magnitude is 3.11D-15 for    373.
 Iteration    1 A^-1*A deviation from orthogonality  is 2.22D-15 for   1155    322.
 E= -813.202354799468    
 DIIS: error= 2.45D-02 at cycle   1 NSaved=   1.
 NSaved= 1 IEnMin= 1 EnMin= -813.202354799468     IErMin= 1 ErrMin= 2.45D-02
 ErrMax= 2.45D-02  0.00D+00 EMaxC= 1.00D-01 BMatC= 1.69D-01 BMatP= 1.69D-01
 IDIUse=3 WtCom= 7.55D-01 WtEn= 2.45D-01
 Coeff-Com:  0.100D+01
 Coeff-En:   0.100D+01
 Coeff:      0.100D+01
 Gap=     0.180 Goal=   None    Shift=    0.000
 GapD=    0.180 DampG=1.000 DampE=0.500 DampFc=0.5000 IDamp=-1.
 Damping current iteration by 5.00D-01
 RMSDP=3.59D-03 MaxDP=1.12D-01              OVMax= 1.31D-01

 Cycle   2  Pass 1  IDiag  1:
 RMSU=  1.79D-03    CP:  9.94D-01
 E= -813.253868614014     Delta-E=       -0.051513814546 Rises=F Damp=T
 DIIS: error= 1.09D-02 at cycle   2 NSaved=   2.
 NSaved= 2 IEnMin= 2 EnMin= -813.253868614014     IErMin= 2 ErrMin= 1.09D-02
 ErrMax= 1.09D-02  0.00D+00 EMaxC= 1.00D-01 BMatC= 2.38D-02 BMatP= 1.69D-01
 IDIUse=3 WtCom= 8.91D-01 WtEn= 1.09D-01
 Coeff-Com:  0.186D+00 0.814D+00
 Coeff-En:   0.282D+00 0.718D+00
 Coeff:      0.197D+00 0.803D+00
 Gap=     0.202 Goal=   None    Shift=    0.000
 RMSDP=6.03D-04 MaxDP=2.49D-02 DE=-5.15D-02 OVMax= 8.54D-02

 Cycle   3  Pass 1  IDiag  1:
 RMSU=  6.02D-04    CP:  9.94D-01  9.86D-01
 E= -813.345607671775     Delta-E=       -0.091739057760 Rises=F Damp=F
 DIIS: error= 6.74D-03 at cycle   3 NSaved=   3.
 NSaved= 3 IEnMin= 3 EnMin= -813.345607671775     IErMin= 3 ErrMin= 6.74D-03
 ErrMax= 6.74D-03  0.00D+00 EMaxC= 1.00D-01 BMatC= 6.41D-03 BMatP= 2.38D-02
 IDIUse=3 WtCom= 9.33D-01 WtEn= 6.74D-02
 Coeff-Com:  0.324D-01 0.318D+00 0.649D+00
 Coeff-En:   0.000D+00 0.000D+00 0.100D+01
 Coeff:      0.303D-01 0.297D+00 0.673D+00
 Gap=     0.209 Goal=   None    Shift=    0.000
 RMSDP=3.99D-04 MaxDP=1.29D-02 DE=-9.17D-02 OVMax= 1.77D-02

 Cycle   4  Pass 1  IDiag  1:
 RMSU=  3.00D-04    CP:  9.97D-01  8.98D-01  6.60D-01
 E= -813.347678136204     Delta-E=       -0.002070464429 Rises=F Damp=F
 DIIS: error= 4.09D-03 at cycle   4 NSaved=   4.
 NSaved= 4 IEnMin= 4 EnMin= -813.347678136204     IErMin= 4 ErrMin= 4.09D-03
 ErrMax= 4.09D-03  0.00D+00 EMaxC= 1.00D-01 BMatC= 3.36D-03 BMatP= 6.41D-03
 IDIUse=3 WtCom= 9.59D-01 WtEn= 4.09D-02
 Coeff-Com:  0.943D-02 0.102D+00 0.428D+00 0.461D+00
 Coeff-En:   0.000D+00 0.000D+00 0.385D+00 0.615D+00
 Coeff:      0.905D-02 0.981D-01 0.426D+00 0.467D+00
 Gap=     0.208 Goal=   None    Shift=    0.000
 RMSDP=2.12D-04 MaxDP=5.80D-03 DE=-2.07D-03 OVMax= 9.02D-03

 Cycle   5  Pass 1  IDiag  1:
 RMSU=  1.08D-04    CP:  9.95D-01  9.18D-01  7.17D-01  4.24D-01
 E= -813.350479400952     Delta-E=       -0.002801264748 Rises=F Damp=F
 DIIS: error= 8.71D-04 at cycle   5 NSaved=   5.
 NSaved= 5 IEnMin= 5 EnMin= -813.350479400952     IErMin= 5 ErrMin= 8.71D-04
 ErrMax= 8.71D-04  0.00D+00 EMaxC= 1.00D-01 BMatC= 8.35D-05 BMatP= 3.36D-03
 IDIUse=3 WtCom= 9.91D-01 WtEn= 8.71D-03
 Coeff-Com:  0.299D-02 0.254D-01 0.148D+00 0.221D+00 0.603D+00
 Coeff-En:   0.000D+00 0.000D+00 0.000D+00 0.000D+00 0.100D+01
 Coeff:      0.296D-02 0.252D-01 0.147D+00 0.219D+00 0.606D+00
 Gap=     0.206 Goal=   None    Shift=    0.000
 RMSDP=5.27D-05 MaxDP=1.23D-03 DE=-2.80D-03 OVMax= 1.64D-03

 Cycle   6  Pass 1  IDiag  1:
 RMSU=  2.23D-05    CP:  9.95D-01  9.29D-01  7.37D-01  4.63D-01  6.27D-01
 E= -813.350556046465     Delta-E=       -0.000076645513 Rises=F Damp=F
 DIIS: error= 1.99D-04 at cycle   6 NSaved=   6.
 NSaved= 6 IEnMin= 6 EnMin= -813.350556046465     IErMin= 6 ErrMin= 1.99D-04
 ErrMax= 1.99D-04  0.00D+00 EMaxC= 1.00D-01 BMatC= 6.24D-06 BMatP= 8.35D-05
 IDIUse=3 WtCom= 9.98D-01 WtEn= 1.99D-03
 Coeff-Com:  0.709D-03 0.704D-02 0.570D-01 0.941D-01 0.320D+00 0.521D+00
 Coeff-En:   0.000D+00 0.000D+00 0.000D+00 0.000D+00 0.000D+00 0.100D+01
 Coeff:      0.708D-03 0.702D-02 0.569D-01 0.939D-01 0.320D+00 0.522D+00
 Gap=     0.207 Goal=   None    Shift=    0.000
 RMSDP=1.85D-05 MaxDP=9.06D-04 DE=-7.66D-05 OVMax= 8.82D-04

 Cycle   7  Pass 1  IDiag  1:
 RMSU=  6.68D-06    CP:  9.95D-01  9.23D-01  7.35D-01  4.79D-01  6.54D-01
                    CP:  4.49D-01
 E= -813.350561884181     Delta-E=       -0.000005837715 Rises=F Damp=F
 DIIS: error= 3.19D-05 at cycle   7 NSaved=   7.
 NSaved= 7 IEnMin= 7 EnMin= -813.350561884181     IErMin= 7 ErrMin= 3.19D-05
 ErrMax= 3.19D-05  0.00D+00 EMaxC= 1.00D-01 BMatC= 1.84D-07 BMatP= 6.24D-06
 IDIUse=1 WtCom= 1.00D+00 WtEn= 0.00D+00
 Coeff-Com:  0.740D-04 0.106D-02 0.101D-01 0.174D-01 0.685D-01 0.210D+00
 Coeff-Com:  0.692D+00
 Coeff:      0.740D-04 0.106D-02 0.101D-01 0.174D-01 0.685D-01 0.210D+00
 Coeff:      0.692D+00
 Gap=     0.207 Goal=   None    Shift=    0.000
 RMSDP=3.06D-06 MaxDP=1.28D-04 DE=-5.84D-06 OVMax= 1.26D-04

 Cycle   8  Pass 1  IDiag  1:
 RMSU=  1.06D-06    CP:  9.95D-01  9.24D-01  7.35D-01  4.77D-01  6.59D-01
                    CP:  5.15D-01  7.54D-01
 E= -813.350562014241     Delta-E=       -0.000000130060 Rises=F Damp=F
 DIIS: error= 6.47D-06 at cycle   8 NSaved=   8.
 NSaved= 8 IEnMin= 8 EnMin= -813.350562014241     IErMin= 8 ErrMin= 6.47D-06
 ErrMax= 6.47D-06  0.00D+00 EMaxC= 1.00D-01 BMatC= 7.51D-09 BMatP= 1.84D-07
 IDIUse=1 WtCom= 1.00D+00 WtEn= 0.00D+00
 Coeff-Com:  0.844D-05 0.207D-03 0.250D-02 0.451D-02 0.197D-01 0.786D-01
 Coeff-Com:  0.314D+00 0.581D+00
 Coeff:      0.844D-05 0.207D-03 0.250D-02 0.451D-02 0.197D-01 0.786D-01
 Coeff:      0.314D+00 0.581D+00
 Gap=     0.207 Goal=   None    Shift=    0.000
 RMSDP=5.32D-07 MaxDP=1.24D-05 DE=-1.30D-07 OVMax= 2.23D-05

 Cycle   9  Pass 1  IDiag  1:
 RMSU=  2.68D-07    CP:  9.95D-01  9.24D-01  7.35D-01  4.77D-01  6.58D-01
                    CP:  5.25D-01  7.73D-01  7.18D-01
 E= -813.350562018978     Delta-E=       -0.000000004737 Rises=F Damp=F
 DIIS: error= 4.14D-06 at cycle   9 NSaved=   9.
 NSaved= 9 IEnMin= 9 EnMin= -813.350562018978     IErMin= 9 ErrMin= 4.14D-06
 ErrMax= 4.14D-06  0.00D+00 EMaxC= 1.00D-01 BMatC= 2.02D-09 BMatP= 7.51D-09
 IDIUse=1 WtCom= 1.00D+00 WtEn= 0.00D+00
 Coeff-Com:  0.230D-06 0.433D-04 0.692D-03 0.127D-02 0.567D-02 0.270D-01
 Coeff-Com:  0.123D+00 0.368D+00 0.474D+00
 Coeff:      0.230D-06 0.433D-04 0.692D-03 0.127D-02 0.567D-02 0.270D-01
 Coeff:      0.123D+00 0.368D+00 0.474D+00
 Gap=     0.207 Goal=   None    Shift=    0.000
 RMSDP=1.62D-07 MaxDP=4.67D-06 DE=-4.74D-09 OVMax= 6.66D-06

 Cycle  10  Pass 1  IDiag  1:
 RMSU=  8.06D-08    CP:  9.95D-01  9.24D-01  7.35D-01  4.77D-01  6.58D-01
                    CP:  5.23D-01  7.78D-01  7.18D-01  5.69D-01
 E= -813.350562020255     Delta-E=       -0.000000001277 Rises=F Damp=F
 DIIS: error= 6.57D-07 at cycle  10 NSaved=  10.
 NSaved=10 IEnMin=10 EnMin= -813.350562020255     IErMin=10 ErrMin= 6.57D-07
 ErrMax= 6.57D-07  0.00D+00 EMaxC= 1.00D-01 BMatC= 7.64D-11 BMatP= 2.02D-09
 IDIUse=1 WtCom= 1.00D+00 WtEn= 0.00D+00
 Coeff-Com: -0.626D-07-0.342D-05 0.677D-04 0.146D-03 0.642D-03 0.393D-02
 Coeff-Com:  0.245D-01 0.112D+00 0.214D+00 0.645D+00
 Coeff:     -0.626D-07-0.342D-05 0.677D-04 0.146D-03 0.642D-03 0.393D-02
 Coeff:      0.245D-01 0.112D+00 0.214D+00 0.645D+00
 Gap=     0.207 Goal=   None    Shift=    0.000
 RMSDP=5.14D-08 MaxDP=1.56D-06 DE=-1.28D-09 OVMax= 1.90D-06

 Cycle  11  Pass 1  IDiag  1:
 RMSU=  2.68D-08    CP:  9.95D-01  9.24D-01  7.35D-01  4.77D-01  6.58D-01
                    CP:  5.22D-01  7.79D-01  7.34D-01  5.86D-01  7.92D-01
 E= -813.350562020304     Delta-E=       -0.000000000050 Rises=F Damp=F
 DIIS: error= 2.84D-07 at cycle  11 NSaved=  11.
 NSaved=11 IEnMin=11 EnMin= -813.350562020304     IErMin=11 ErrMin= 2.84D-07
 ErrMax= 2.84D-07  0.00D+00 EMaxC= 1.00D-01 BMatC= 1.47D-11 BMatP= 7.64D-11
 IDIUse=1 WtCom= 1.00D+00 WtEn= 0.00D+00
 Coeff-Com:  0.606D-07-0.523D-05-0.169D-04-0.198D-04-0.931D-04 0.204D-03
 Coeff-Com:  0.539D-02 0.383D-01 0.871D-01 0.376D+00 0.493D+00
 Coeff:      0.606D-07-0.523D-05-0.169D-04-0.198D-04-0.931D-04 0.204D-03
 Coeff:      0.539D-02 0.383D-01 0.871D-01 0.376D+00 0.493D+00
 Gap=     0.207 Goal=   None    Shift=    0.000
 RMSDP=1.30D-08 MaxDP=4.73D-07 DE=-4.96D-11 OVMax= 7.33D-07

 Cycle  12  Pass 1  IDiag  1:
 RMSU=  5.77D-09    CP:  9.95D-01  9.24D-01  7.35D-01  4.77D-01  6.58D-01
                    CP:  5.22D-01  7.79D-01  7.37D-01  5.98D-01  8.08D-01
                    CP:  6.20D-01
 E= -813.350562020315     Delta-E=       -0.000000000011 Rises=F Damp=F
 DIIS: error= 2.21D-08 at cycle  12 NSaved=  12.
 NSaved=12 IEnMin=12 EnMin= -813.350562020315     IErMin=12 ErrMin= 2.21D-08
 ErrMax= 2.21D-08  0.00D+00 EMaxC= 1.00D-01 BMatC= 1.78D-13 BMatP= 1.47D-11
 IDIUse=1 WtCom= 1.00D+00 WtEn= 0.00D+00
 Coeff-Com:  0.309D-07-0.183D-05-0.800D-05-0.127D-04-0.526D-04-0.791D-04
 Coeff-Com:  0.977D-03 0.888D-02 0.232D-01 0.105D+00 0.176D+00 0.687D+00
 Coeff:      0.309D-07-0.183D-05-0.800D-05-0.127D-04-0.526D-04-0.791D-04
 Coeff:      0.977D-03 0.888D-02 0.232D-01 0.105D+00 0.176D+00 0.687D+00
 Gap=     0.207 Goal=   None    Shift=    0.000
 RMSDP=2.50D-09 MaxDP=4.12D-08 DE=-1.11D-11 OVMax= 7.64D-08

 Error on total polarization charges =  0.01470
 SCF Done:  E(RB-P86) =  -813.350562020     A.U. after   12 cycles
            NFock= 12  Conv=0.25D-08     -V/T= 2.0039
 KE= 8.101989418590D+02 PE=-2.885469308799D+03 EE= 7.783383955209D+02
 Leave Link  502 at Sat Aug 21 09:31:27 2021, MaxMem=   104857600 cpu:             337.6 elap:              14.3
 (Enter /sw/arch/RedHatEnterpriseServer7/EB_production/2020/software/Gaussian/g16.c01/l601.exe)
 Copying SCF densities to generalized density rwf, IOpCl= 0 IROHF=0.

 **********************************************************************

            Population analysis using the SCF Density.

 **********************************************************************

 Orbital symmetries:
       Occupied  (A) (A) (A) (A) (A) (A) (A) (A) (A) (A) (A) (A)
                 (A) (A) (A) (A) (A) (A) (A) (A) (A) (A) (A) (A)
                 (A) (A) (A) (A) (A) (A) (A) (A) (A) (A) (A) (A)
                 (A) (A)
       Virtual   (A) (A) (A) (A) (A) (A) (A) (A) (A) (A) (A) (A)
                 (A) (A) (A) (A) (A) (A) (A) (A) (A) (A) (A) (A)
                 (A) (A) (A) (A) (A) (A) (A) (A) (A) (A) (A) (A)
                 (A) (A) (A) (A) (A) (A) (A) (A) (A) (A) (A) (A)
                 (A) (A) (A) (A) (A) (A) (A) (A) (A) (A) (A) (A)
                 (A) (A) (A) (A) (A) (A) (A) (A) (A) (A) (A) (A)
                 (A) (A) (A) (A) (A) (A) (A) (A) (A) (A) (A) (A)
                 (A) (A) (A) (A) (A) (A) (A) (A) (A) (A) (A) (A)
                 (A) (A) (A) (A) (A) (A) (A) (A) (A) (A) (A) (A)
                 (A) (A) (A) (A) (A) (A) (A) (A) (A) (A) (A) (A)
                 (A) (A) (A) (A) (A) (A) (A) (A) (A) (A) (A) (A)
                 (A) (A) (A) (A) (A) (A) (A) (A) (A) (A) (A) (A)
                 (A) (A) (A) (A) (A) (A) (A) (A) (A) (A) (A) (A)
                 (A) (A) (A) (A) (A) (A) (A) (A) (A) (A) (A) (A)
                 (A) (A) (A) (A) (A) (A) (A) (A) (A) (A) (A) (A)
                 (A) (A) (A) (A) (A) (A) (A) (A) (A) (A) (A) (A)
                 (A) (A) (A)
 The electronic state is 1-A.
 Alpha  occ. eigenvalues -- -100.63932 -24.28549 -14.15352  -9.99692  -9.97617
 Alpha  occ. eigenvalues --   -9.95269  -9.95142  -9.94863  -9.07806  -6.89625
 Alpha  occ. eigenvalues --   -6.89620  -6.89612  -1.12065  -0.96569  -0.73086
 Alpha  occ. eigenvalues --   -0.69513  -0.68770  -0.63415  -0.62447  -0.56957
 Alpha  occ. eigenvalues --   -0.50624  -0.49483  -0.48547  -0.46914  -0.44132
 Alpha  occ. eigenvalues --   -0.42378  -0.39971  -0.38364  -0.37158  -0.37064
 Alpha  occ. eigenvalues --   -0.36084  -0.35689  -0.35493  -0.31610  -0.31129
 Alpha  occ. eigenvalues --   -0.20812  -0.20796  -0.20566
 Alpha virt. eigenvalues --    0.00099   0.02337   0.02778   0.04011   0.04325
 Alpha virt. eigenvalues --    0.04796   0.05454   0.06313   0.06996   0.08864
 Alpha virt. eigenvalues --    0.09580   0.09694   0.10551   0.11658   0.12248
 Alpha virt. eigenvalues --    0.12531   0.13538   0.14132   0.15286   0.18047
 Alpha virt. eigenvalues --    0.21034   0.21774   0.23279   0.24287   0.25168
 Alpha virt. eigenvalues --    0.25877   0.27186   0.28895   0.30791   0.31245
 Alpha virt. eigenvalues --    0.31878   0.33850   0.34037   0.35466   0.36125
 Alpha virt. eigenvalues --    0.37022   0.38031   0.38599   0.38783   0.39305
 Alpha virt. eigenvalues --    0.40296   0.40959   0.41979   0.42379   0.42514
 Alpha virt. eigenvalues --    0.43490   0.44504   0.44902   0.45559   0.45995
 Alpha virt. eigenvalues --    0.46224   0.47062   0.49394   0.52248   0.55459
 Alpha virt. eigenvalues --    0.56063   0.63798   0.64874   0.66732   0.67945
 Alpha virt. eigenvalues --    0.72374   0.77173   0.78694   0.80877   0.81688
 Alpha virt. eigenvalues --    0.85045   0.86375   0.88230   0.98330   1.00404
 Alpha virt. eigenvalues --    1.02905   1.12714   1.14297   1.16548   1.17174
 Alpha virt. eigenvalues --    1.17289   1.19281   1.20379   1.21820   1.22919
 Alpha virt. eigenvalues --    1.24203   1.26234   1.26978   1.27383   1.29216
 Alpha virt. eigenvalues --    1.30490   1.32434   1.33587   1.34751   1.39469
 Alpha virt. eigenvalues --    1.44074   1.44529   1.45567   1.46290   1.48254
 Alpha virt. eigenvalues --    1.49320   1.52680   1.53455   1.54049   1.59205
 Alpha virt. eigenvalues --    1.61387   1.64093   1.64464   1.67014   1.67744
 Alpha virt. eigenvalues --    1.67853   1.68985   1.69356   1.69819   1.70282
 Alpha virt. eigenvalues --    1.71324   1.71624   1.72426   1.73136   1.73983
 Alpha virt. eigenvalues --    1.80180   1.83859   1.86031   1.86555   1.88809
 Alpha virt. eigenvalues --    1.92116   1.93151   1.97609   1.98371   2.00338
 Alpha virt. eigenvalues --    2.05503   2.12583   2.14838   2.15398   2.16285
 Alpha virt. eigenvalues --    2.19819   2.23401   2.26513   2.27263   2.27497
 Alpha virt. eigenvalues --    2.27872   2.30457   2.30934   2.32021   2.34059
 Alpha virt. eigenvalues --    2.35256   2.37561   2.39849   2.41346   2.42771
 Alpha virt. eigenvalues --    2.44556   2.47624   2.52984   2.53547   2.54945
 Alpha virt. eigenvalues --    2.59453   2.60844   2.61192   2.61862   2.64900
 Alpha virt. eigenvalues --    2.69742   2.70027   2.78558   2.84201   2.85477
 Alpha virt. eigenvalues --    2.88110   2.91166   2.96252   3.00151   3.03393
 Alpha virt. eigenvalues --    3.04801   3.05932   3.10051   3.13195   3.14684
 Alpha virt. eigenvalues --    3.16186   3.19305   3.19941   3.20999   3.24279
 Alpha virt. eigenvalues --    3.26070   3.26702   3.28293   3.28587   3.31696
 Alpha virt. eigenvalues --    3.39628   3.44731   3.57584   3.59529   3.60266
 Alpha virt. eigenvalues --    3.89807   4.31264  21.60983  21.75889  21.78266
 Alpha virt. eigenvalues --   21.81471  21.82483  24.13793  31.63416  56.48808
          Condensed to atoms (all electrons):
               1          2          3          4          5          6
     1  C    5.348938   0.260187  -0.124392  -0.152575  -0.088675  -0.010421
     2  N    0.260187   6.440458   0.264071   0.232801   0.193682  -0.024290
     3  C   -0.124392   0.264071   5.258434  -0.080209  -0.120293   0.015276
     4  C   -0.152575   0.232801  -0.080209   5.321974  -0.082426  -0.003028
     5  C   -0.088675   0.193682  -0.120293  -0.082426   5.533878   0.189149
     6  C   -0.010421  -0.024290   0.015276  -0.003028   0.189149   4.892788
     7  F    0.016340  -0.012819  -0.001872  -0.004840  -0.045212   0.220857
     8  Cl  -0.053655   0.005346  -0.038280  -0.049063   0.000529  -0.000112
     9  H    0.380520  -0.009170   0.010729  -0.004181  -0.021310   0.005712
    10  H    0.368224  -0.016960  -0.005230   0.012314   0.002791  -0.005250
    11  H    0.331050  -0.021535  -0.002281   0.006300   0.008920  -0.000591
    12  H   -0.006608  -0.011274   0.386699   0.010156  -0.016714  -0.000527
    13  H   -0.002920  -0.015252   0.343084  -0.007602   0.007663  -0.000469
    14  H    0.011179  -0.018476   0.374138  -0.005914  -0.002363   0.001279
    15  H    0.008039  -0.018809  -0.005274   0.331995   0.009419   0.000725
    16  H    0.011679  -0.017143  -0.005308   0.368209   0.003254  -0.005829
    17  H   -0.005553  -0.015591   0.009757   0.386088  -0.015433   0.002589
    18  H   -0.018164  -0.021397   0.000770   0.012501   0.384027  -0.023224
    19  H    0.011382  -0.021836  -0.010921  -0.014420   0.375539  -0.011614
    20  H   -0.005673  -0.007602  -0.000513   0.015432  -0.068174   0.425931
    21  H    0.002029   0.005813  -0.000454  -0.002020  -0.022761   0.387378
               7          8          9         10         11         12
     1  C    0.016340  -0.053655   0.380520   0.368224   0.331050  -0.006608
     2  N   -0.012819   0.005346  -0.009170  -0.016960  -0.021535  -0.011274
     3  C   -0.001872  -0.038280   0.010729  -0.005230  -0.002281   0.386699
     4  C   -0.004840  -0.049063  -0.004181   0.012314   0.006300   0.010156
     5  C   -0.045212   0.000529  -0.021310   0.002791   0.008920  -0.016714
     6  C    0.220857  -0.000112   0.005712  -0.005250  -0.000591  -0.000527
     7  F    9.114051  -0.000001   0.001137  -0.001635   0.001043  -0.000000
     8  Cl  -0.000001  17.814071   0.000943   0.001504   0.058522   0.000696
     9  H    0.001137   0.000943   0.482348  -0.018709  -0.016852   0.000311
    10  H   -0.001635   0.001504  -0.018709   0.491813  -0.017463   0.003058
    11  H    0.001043   0.058522  -0.016852  -0.017463   0.504421  -0.001559
    12  H   -0.000000   0.000696   0.000311   0.003058  -0.001559   0.486693
    13  H    0.000013   0.051688   0.000348  -0.000869  -0.002222  -0.017017
    14  H    0.000029   0.000970  -0.000442   0.000002   0.000699  -0.025033
    15  H   -0.000062   0.058078  -0.001273   0.000109  -0.007698   0.000515
    16  H    0.000206   0.001330   0.000242  -0.000387   0.000292  -0.000085
    17  H    0.000489   0.001117   0.002803   0.000172  -0.001390  -0.000378
    18  H   -0.002628   0.000015   0.000623   0.003325  -0.000245   0.004414
    19  H    0.003798   0.000004  -0.000271   0.000212  -0.000261  -0.000412
    20  H   -0.038250   0.000018  -0.002579   0.000757  -0.000081  -0.000040
    21  H   -0.037163   0.000000   0.000392  -0.000194   0.000069  -0.000010
              13         14         15         16         17         18
     1  C   -0.002920   0.011179   0.008039   0.011679  -0.005553  -0.018164
     2  N   -0.015252  -0.018476  -0.018809  -0.017143  -0.015591  -0.021397
     3  C    0.343084   0.374138  -0.005274  -0.005308   0.009757   0.000770
     4  C   -0.007602  -0.005914   0.331995   0.368209   0.386088   0.012501
     5  C    0.007663  -0.002363   0.009419   0.003254  -0.015433   0.384027
     6  C   -0.000469   0.001279   0.000725  -0.005829   0.002589  -0.023224
     7  F    0.000013   0.000029  -0.000062   0.000206   0.000489  -0.002628
     8  Cl   0.051688   0.000970   0.058078   0.001330   0.001117   0.000015
     9  H    0.000348  -0.000442  -0.001273   0.000242   0.002803   0.000623
    10  H   -0.000869   0.000002   0.000109  -0.000387   0.000172   0.003325
    11  H   -0.002222   0.000699  -0.007698   0.000292  -0.001390  -0.000245
    12  H   -0.017017  -0.025033   0.000515  -0.000085  -0.000378   0.004414
    13  H    0.493749  -0.015126  -0.000882  -0.000438   0.000495  -0.000070
    14  H   -0.015126   0.495357  -0.000754   0.002148  -0.000085  -0.002178
    15  H   -0.000882  -0.000754   0.492594  -0.013418  -0.016279  -0.000153
    16  H   -0.000438   0.002148  -0.013418   0.492763  -0.024045   0.000193
    17  H    0.000495  -0.000085  -0.016279  -0.024045   0.488608  -0.000290
    18  H   -0.000070  -0.002178  -0.000153   0.000193  -0.000290   0.460553
    19  H   -0.000036   0.004665   0.000090   0.001399   0.000720  -0.011225
    20  H   -0.000045   0.000061   0.000403  -0.001512  -0.002243   0.004920
    21  H    0.000026  -0.000040  -0.000051   0.000348   0.000179  -0.004208
              19         20         21
     1  C    0.011382  -0.005673   0.002029
     2  N   -0.021836  -0.007602   0.005813
     3  C   -0.010921  -0.000513  -0.000454
     4  C   -0.014420   0.015432  -0.002020
     5  C    0.375539  -0.068174  -0.022761
     6  C   -0.011614   0.425931   0.387378
     7  F    0.003798  -0.038250  -0.037163
     8  Cl   0.000004   0.000018   0.000000
     9  H   -0.000271  -0.002579   0.000392
    10  H    0.000212   0.000757  -0.000194
    11  H   -0.000261  -0.000081   0.000069
    12  H   -0.000412  -0.000040  -0.000010
    13  H   -0.000036  -0.000045   0.000026
    14  H    0.004665   0.000061  -0.000040
    15  H    0.000090   0.000403  -0.000051
    16  H    0.001399  -0.001512   0.000348
    17  H    0.000720  -0.002243   0.000179
    18  H   -0.011225   0.004920  -0.004208
    19  H    0.460198   0.004038  -0.001542
    20  H    0.004038   0.547225  -0.038586
    21  H   -0.001542  -0.038586   0.542562
 Mulliken charges:
               1
     1  C   -0.280930
     2  N   -0.170202
     3  C   -0.267932
     4  C   -0.291491
     5  C   -0.225490
     6  C   -0.056329
     7  F   -0.213480
     8  Cl  -0.853721
     9  H    0.188677
    10  H    0.182415
    11  H    0.160863
    12  H    0.187113
    13  H    0.165884
    14  H    0.179885
    15  H    0.162687
    16  H    0.186103
    17  H    0.188270
    18  H    0.212443
    19  H    0.210493
    20  H    0.166513
    21  H    0.168230
 Sum of Mulliken charges =  -0.00000
 Mulliken charges with hydrogens summed into heavy atoms:
               1
     1  C    0.251024
     2  N   -0.170202
     3  C    0.264950
     4  C    0.245569
     5  C    0.197446
     6  C    0.278414
     7  F   -0.213480
     8  Cl  -0.853721
 Electronic spatial extent (au):  <R**2>=           1820.3378
 Charge=              0.0000 electrons
 Dipole moment (field-independent basis, Debye):
    X=            -15.4588    Y=              5.7604    Z=              0.6460  Tot=             16.5098
 Quadrupole moment (field-independent basis, Debye-Ang):
   XX=           -101.3004   YY=            -55.4241   ZZ=            -52.7747
   XY=              1.4808   XZ=             -4.5391   YZ=             -1.1181
 Traceless Quadrupole moment (field-independent basis, Debye-Ang):
   XX=            -31.4674   YY=             14.4090   ZZ=             17.0584
   XY=              1.4808   XZ=             -4.5391   YZ=             -1.1181
 Octapole moment (field-independent basis, Debye-Ang**2):
  XXX=           -213.7805  YYY=              8.5915  ZZZ=             -1.3915  XYY=            -14.6685
  XXY=             41.1236  XXZ=              6.0214  XZZ=            -17.0052  YZZ=              1.4478
  YYZ=             -1.3812  XYZ=              2.2902
 Hexadecapole moment (field-independent basis, Debye-Ang**3):
 XXXX=          -2294.4876 YYYY=           -319.6006 ZZZZ=           -231.6682 XXXY=             58.9089
 XXXZ=            -39.3003 YYYX=             22.9805 YYYZ=              2.0246 ZZZX=              4.7658
 ZZZY=              0.1656 XXYY=           -379.0891 XXZZ=           -336.3171 YYZZ=            -91.4288
 XXYZ=             -4.4514 YYXZ=             -5.0422 ZZXY=             11.1347
 N-N= 4.835814093986D+02 E-N=-2.885469310434D+03  KE= 8.101989418590D+02
 No NMR shielding tensors so no spin-rotation constants.
 Leave Link  601 at Sat Aug 21 09:31:28 2021, MaxMem=   104857600 cpu:               4.7 elap:               0.2
 (Enter /sw/arch/RedHatEnterpriseServer7/EB_production/2020/software/Gaussian/g16.c01/l701.exe)
 ... and contract with generalized density number  0.
 Compute integral first derivatives.
 R6Disp: Adding Grimme-D3 dispersion energy 1st derivatives to the gradient.
 D1PCM: PCM CHGder 1st derivatives, ID1Alg=3 FixD1E=F DoIter=F DoCFld=F I1PDM=0.
 GePol: Maximum number of non-zero 1st derivatives   =     257
 Leave Link  701 at Sat Aug 21 09:31:29 2021, MaxMem=   104857600 cpu:              22.4 elap:               1.0
 (Enter /sw/arch/RedHatEnterpriseServer7/EB_production/2020/software/Gaussian/g16.c01/l702.exe)
 L702 exits ... SP integral derivatives will be done elsewhere.
 Leave Link  702 at Sat Aug 21 09:31:30 2021, MaxMem=   104857600 cpu:               0.5 elap:               0.1
 (Enter /sw/arch/RedHatEnterpriseServer7/EB_production/2020/software/Gaussian/g16.c01/l703.exe)
 Integral derivatives from FoFJK, PRISM(SPDF).
 Compute integral first derivatives, UseDBF=F ICtDFT=           0.
 Calling FoFJK, ICntrl=      2527 FMM=F ISym2X=0 I1Cent= 0 IOpClX= 0 NMat=1 NMatS=1 NMatT=0.
 FoFJK:  IHMeth= 1 ICntrl=    2527 DoSepK=F KAlg= 0 I1Cent=           0 FoldK=F
 IRaf=         0 NMat=       1 IRICut=       1 DoRegI=T DoRafI=F ISym2E= 0 IDoP0=0 IntGTp=1.
 FoFCou: FMM=F IPFlag=           0 FMFlag=      100000 FMFlg1=         800
         NFxFlg=           0 DoJE=F BraDBF=F KetDBF=F FulRan=T
         wScrn=  0.000000 ICntrl=      2527 IOpCl=  0 I1Cent=           0 NGrid=           0
         NMat0=    1 NMatS0=      1 NMatT0=    0 NMatD0=    1 NMtDS0=    0 NMtDT0=    0
 Symmetry not used in FoFCou.
 Leave Link  703 at Sat Aug 21 09:31:32 2021, MaxMem=   104857600 cpu:              47.8 elap:               2.0
 (Enter /sw/arch/RedHatEnterpriseServer7/EB_production/2020/software/Gaussian/g16.c01/l716.exe)
 Dipole        =-6.08194677D+00 2.26631672D+00 2.54162390D-01
 ***** Axes restored to original set *****
 -------------------------------------------------------------------
 Center     Atomic                   Forces (Hartrees/Bohr)
 Number     Number              X              Y              Z
 -------------------------------------------------------------------
      1        6           0.017900064   -0.002591059   -0.036169333
      2        7           0.002116239   -0.004053440   -0.004023770
      3        6          -0.031252833   -0.023685719    0.003756483
      4        6          -0.008000344    0.035026783    0.010373682
      5        6           0.024436906   -0.009082381    0.022477659
      6        6          -0.013478165    0.003127485    0.017974317
      7        9           0.009830543   -0.002685730   -0.012801414
      8       17          -0.003219746    0.001226385   -0.002692318
      9        1          -0.006897263   -0.006277607    0.007050477
     10        1          -0.003847975    0.008033927    0.007390048
     11        1          -0.000244114   -0.000290368    0.012352811
     12        1           0.004252366    0.010692151    0.002500400
     13        1           0.010350796    0.003186447    0.004430421
     14        1           0.005264926    0.005871618   -0.006243268
     15        1           0.004922812   -0.009898620    0.002106121
     16        1           0.000804065   -0.006224220   -0.007860041
     17        1          -0.002670419   -0.010502025    0.001145285
     18        1          -0.005159382    0.009461679   -0.004346366
     19        1          -0.000639272    0.002345204   -0.010672872
     20        1           0.000813688   -0.003513349   -0.002987896
     21        1          -0.005282896   -0.000167161   -0.003760426
 -------------------------------------------------------------------
 Cartesian Forces:  Max     0.036169333 RMS     0.011321161
 Leave Link  716 at Sat Aug 21 09:31:32 2021, MaxMem=   104857600 cpu:               0.6 elap:               0.1
 (Enter /sw/arch/RedHatEnterpriseServer7/EB_production/2020/software/Gaussian/g16.c01/l103.exe)

 GradGradGradGradGradGradGradGradGradGradGradGradGradGradGradGradGradGrad
 Berny optimization.
 FormGI is forming the generalized inverse of G from B-inverse, IUseBI=4.
 Internal  Forces:  Max     0.016187082 RMS     0.004504762
 Search for a local minimum.
 Step number   1 out of a maximum of  126
 All quantities printed in internal units (Hartrees-Bohrs-Radians)
 RMS Force = .45048D-02 SwitMx=.10000D-02 MixMth= 1
 Mixed Optimization -- RFO/linear search
 Second derivative matrix not updated -- first step.
 ITU=  0
     Eigenvalues ---    0.00230   0.00358   0.00394   0.00399   0.00454
     Eigenvalues ---    0.01638   0.02077   0.02693   0.03191   0.03380
     Eigenvalues ---    0.03960   0.04003   0.04635   0.04712   0.05065
     Eigenvalues ---    0.05287   0.05370   0.05907   0.05923   0.05952
     Eigenvalues ---    0.07232   0.08808   0.08868   0.09530   0.11361
     Eigenvalues ---    0.11388   0.11416   0.11589   0.12183   0.12276
     Eigenvalues ---    0.12581   0.16000   0.16000   0.16796   0.17696
     Eigenvalues ---    0.19702   0.21955   0.22279   0.27866   0.28318
     Eigenvalues ---    0.28921   0.32119   0.32142   0.32199   0.32241
     Eigenvalues ---    0.32264   0.32438   0.32488   0.32490   0.32537
     Eigenvalues ---    0.32542   0.32568   0.32613   0.32733   0.32953
     Eigenvalues ---    0.32957   0.48500
 RFO step:  Lambda=-1.10857376D-02 EMin= 2.30000000D-03
 Linear search not attempted -- first point.
 Iteration  1 RMS(Cart)=  0.02750044 RMS(Int)=  0.00082551
 Iteration  2 RMS(Cart)=  0.00065325 RMS(Int)=  0.00038941
 Iteration  3 RMS(Cart)=  0.00000036 RMS(Int)=  0.00038941
 ITry= 1 IFail=0 DXMaxC= 1.09D-01 DCOld= 1.00D+10 DXMaxT= 3.00D-01 DXLimC= 3.00D+00 Rises=F
 Variable       Old X    -DE/DX   Delta X   Delta X   Delta X     New X
                                 (Linear)    (Quad)   (Total)
    R1        2.80496   0.01196   0.00000   0.03521   0.03515   2.84012
    R2        2.10050  -0.01006   0.00000  -0.02998  -0.02998   2.07052
    R3        2.10363  -0.01012   0.00000  -0.03033  -0.03033   2.07330
    R4        2.10441  -0.00548   0.00000  -0.02040  -0.02047   2.08394
    R5        2.80015   0.01204   0.00000   0.03631   0.03627   2.83643
    R6        2.79948   0.01107   0.00000   0.03294   0.03293   2.83241
    R7        2.83036   0.01085   0.00000   0.03216   0.03216   2.86252
    R8        2.10482  -0.00978   0.00000  -0.02937  -0.02937   2.07545
    R9        2.10290  -0.00880   0.00000  -0.02303  -0.02300   2.07990
   R10        2.09960  -0.00823   0.00000  -0.02450  -0.02450   2.07510
   R11        2.10169  -0.00684   0.00000  -0.01948  -0.01944   2.08226
   R12        2.09957  -0.00851   0.00000  -0.02532  -0.02532   2.07424
   R13        2.09863  -0.00873   0.00000  -0.02593  -0.02593   2.07270
   R14        2.91449  -0.00874   0.00000  -0.02971  -0.02971   2.88477
   R15        2.10626  -0.00939   0.00000  -0.02827  -0.02827   2.07799
   R16        2.10585  -0.00924   0.00000  -0.02779  -0.02779   2.07806
   R17        2.61410   0.01619   0.00000   0.03263   0.03263   2.64673
   R18        2.09134  -0.00356   0.00000  -0.01045  -0.01045   2.08089
   R19        2.09873  -0.00553   0.00000  -0.01645  -0.01645   2.08228
   R20        4.74664   0.00280   0.00000   0.03177   0.03173   4.77837
   R21        4.97310  -0.00015   0.00000   0.01213   0.01219   4.98528
   R22        4.76340   0.00080   0.00000   0.01939   0.01945   4.78284
    A1        1.95016  -0.00357   0.00000  -0.03205  -0.03205   1.91811
    A2        1.93993  -0.00331   0.00000  -0.03499  -0.03511   1.90481
    A3        1.93694  -0.00626   0.00000  -0.02765  -0.02765   1.90928
    A4        1.88810   0.00228   0.00000   0.01851   0.01682   1.90492
    A5        1.86089   0.00589   0.00000   0.04523   0.04464   1.90553
    A6        1.88459   0.00583   0.00000   0.03736   0.03659   1.92117
    A7        1.87639   0.00147   0.00000   0.02179   0.02195   1.89835
    A8        1.89957   0.00092   0.00000   0.01924   0.01943   1.91900
    A9        1.93774  -0.00042   0.00000  -0.00296  -0.00296   1.93478
   A10        1.93479  -0.00220   0.00000  -0.02548  -0.02582   1.90898
   A11        1.87800   0.00008   0.00000  -0.00436  -0.00460   1.87340
   A12        1.93662   0.00014   0.00000  -0.00800  -0.00821   1.92841
   A13        1.93788  -0.00503   0.00000  -0.03750  -0.03745   1.90044
   A14        1.94503  -0.00335   0.00000  -0.01938  -0.01962   1.92541
   A15        1.94096  -0.00302   0.00000  -0.03071  -0.03092   1.91004
   A16        1.86902   0.00467   0.00000   0.03868   0.03824   1.90727
   A17        1.85699   0.00406   0.00000   0.03992   0.03895   1.89594
   A18        1.91052   0.00335   0.00000   0.01455   0.01380   1.92432
   A19        1.93769  -0.00390   0.00000  -0.02156  -0.02177   1.91593
   A20        1.94052  -0.00276   0.00000  -0.03065  -0.03089   1.90963
   A21        1.95152  -0.00485   0.00000  -0.03535  -0.03528   1.91624
   A22        1.91597   0.00342   0.00000   0.01501   0.01420   1.93018
   A23        1.84452   0.00524   0.00000   0.04450   0.04413   1.88865
   A24        1.87005   0.00359   0.00000   0.03406   0.03300   1.90306
   A25        2.02291   0.00585   0.00000   0.02216   0.02249   2.04540
   A26        1.92508  -0.00580   0.00000  -0.04535  -0.04582   1.87926
   A27        1.91342  -0.00519   0.00000  -0.04559  -0.04592   1.86750
   A28        1.87146   0.00171   0.00000   0.02853   0.02874   1.90020
   A29        1.87301   0.00058   0.00000   0.01570   0.01587   1.88888
   A30        1.84940   0.00298   0.00000   0.02842   0.02671   1.87611
   A31        1.93753   0.00313   0.00000   0.01234   0.01239   1.94992
   A32        1.96488   0.00065   0.00000   0.00277   0.00278   1.96766
   A33        1.89426  -0.00499   0.00000  -0.02533  -0.02527   1.86899
   A34        1.91899  -0.00284   0.00000  -0.02025  -0.02024   1.89875
   A35        1.87635   0.00159   0.00000   0.01477   0.01487   1.89122
   A36        1.86821   0.00245   0.00000   0.01639   0.01640   1.88461
   A37        0.98388   0.00084   0.00000   0.00123   0.00134   0.98522
   A38        1.07718  -0.00012   0.00000  -0.00383  -0.00372   1.07346
   A39        0.96027   0.00020   0.00000  -0.01459  -0.01457   0.94570
   A40        2.52133   0.00499   0.00000   0.02206   0.02204   2.54337
   A41        2.46286   0.00429   0.00000   0.02147   0.02149   2.48436
   A42        2.50889   0.00396   0.00000   0.02047   0.02051   2.52941
    D1        3.02027   0.00053   0.00000   0.01390   0.01392   3.03419
    D2        0.92349   0.00179   0.00000   0.02099   0.02078   0.94428
    D3       -1.21304   0.00127   0.00000   0.02001   0.01990  -1.19314
    D4       -1.15183  -0.00133   0.00000  -0.00893  -0.00877  -1.16060
    D5        3.03457  -0.00007   0.00000  -0.00184  -0.00191   3.03267
    D6        0.89804  -0.00059   0.00000  -0.00283  -0.00279   0.89525
    D7        0.94579  -0.00038   0.00000  -0.00366  -0.00348   0.94230
    D8       -1.15099   0.00089   0.00000   0.00343   0.00338  -1.14761
    D9        2.99566   0.00037   0.00000   0.00244   0.00250   2.99816
   D10        0.35349  -0.00013   0.00000   0.00412   0.00414   0.35763
   D11       -1.77399   0.00418   0.00000   0.03079   0.03202  -1.74197
   D12        2.48370  -0.00431   0.00000  -0.03197  -0.03317   2.45053
   D13        0.94278   0.00075   0.00000   0.01612   0.01619   0.95898
   D14       -1.13921   0.00042   0.00000   0.00511   0.00521  -1.13400
   D15        3.00700   0.00063   0.00000   0.02200   0.02202   3.02901
   D16        3.01708   0.00151   0.00000   0.03819   0.03803   3.05512
   D17        0.93509   0.00118   0.00000   0.02718   0.02705   0.96214
   D18       -1.20189   0.00139   0.00000   0.04406   0.04386  -1.15803
   D19       -1.14557   0.00041   0.00000   0.01013   0.01018  -1.13539
   D20        3.05562   0.00007   0.00000  -0.00088  -0.00080   3.05482
   D21        0.91864   0.00029   0.00000   0.01600   0.01601   0.93465
   D22        1.17493  -0.00000   0.00000  -0.00288  -0.00299   1.17194
   D23       -2.96976  -0.00032   0.00000  -0.02036  -0.02036  -2.99012
   D24       -0.88035  -0.00090   0.00000  -0.02183  -0.02184  -0.90219
   D25       -0.88533  -0.00107   0.00000  -0.02628  -0.02617  -0.91149
   D26        1.25317  -0.00138   0.00000  -0.04376  -0.04353   1.20963
   D27       -2.94061  -0.00197   0.00000  -0.04523  -0.04502  -2.98563
   D28       -2.97104   0.00017   0.00000   0.00113   0.00098  -2.97006
   D29       -0.83255  -0.00014   0.00000  -0.01635  -0.01639  -0.84894
   D30        1.25687  -0.00073   0.00000  -0.01782  -0.01787   1.23899
   D31        0.99524   0.00029   0.00000   0.01328   0.01324   1.00848
   D32       -1.13495  -0.00165   0.00000  -0.00475  -0.00422  -1.13918
   D33        3.11821   0.00116   0.00000   0.01394   0.01349   3.13169
   D34        3.04413   0.00188   0.00000   0.03533   0.03534   3.07948
   D35        0.91394  -0.00006   0.00000   0.01730   0.01788   0.93182
   D36       -1.11609   0.00275   0.00000   0.03599   0.03560  -1.08049
   D37       -1.11966  -0.00068   0.00000  -0.00367  -0.00380  -1.12346
   D38        3.03333  -0.00262   0.00000  -0.02170  -0.02126   3.01207
   D39        1.00330   0.00019   0.00000  -0.00301  -0.00355   0.99976
   D40        0.18551  -0.00048   0.00000  -0.00588  -0.00597   0.17954
   D41       -1.93697   0.00469   0.00000   0.02684   0.02765  -1.90931
   D42        2.33990  -0.00425   0.00000  -0.04797  -0.04869   2.29121
   D43       -0.40708   0.00040   0.00000   0.00021   0.00030  -0.40678
   D44       -2.55973   0.00420   0.00000   0.04342   0.04418  -2.51554
   D45        1.71219  -0.00441   0.00000  -0.02707  -0.02792   1.68427
   D46       -1.32431   0.00029   0.00000  -0.00971  -0.00980  -1.33411
   D47        0.83555  -0.00058   0.00000  -0.02488  -0.02495   0.81060
   D48        2.90033  -0.00041   0.00000  -0.01941  -0.01946   2.88087
   D49        0.83410  -0.00190   0.00000  -0.03123  -0.03130   0.80280
   D50        2.99395  -0.00278   0.00000  -0.04640  -0.04645   2.94751
   D51       -1.22446  -0.00261   0.00000  -0.04093  -0.04095  -1.26541
   D52        2.81452   0.00261   0.00000   0.02240   0.02249   2.83701
   D53       -1.30881   0.00174   0.00000   0.00723   0.00734  -1.30147
   D54        0.75596   0.00190   0.00000   0.01270   0.01284   0.76880
   D55       -0.90077  -0.00065   0.00000   0.00115   0.00120  -0.89957
   D56        0.23216  -0.00057   0.00000  -0.01535  -0.01537   0.21679
   D57        0.53168  -0.00140   0.00000  -0.01069  -0.01062   0.52106
   D58       -0.80793  -0.00066   0.00000  -0.01249  -0.01242  -0.82034
   D59       -0.19850   0.00038   0.00000   0.01301   0.01290  -0.18560
   D60        0.97053   0.00144   0.00000   0.02077   0.02080   0.99133
         Item               Value     Threshold  Converged?
 Maximum Force            0.016187     0.000450     NO 
 RMS     Force            0.004505     0.000300     NO 
 Maximum Displacement     0.108978     0.001800     NO 
 RMS     Displacement     0.027645     0.001200     NO 
 Predicted change in Energy=-5.994903D-03
 Lowest energy point so far.  Saving SCF results.
 GradGradGradGradGradGradGradGradGradGradGradGradGradGradGradGradGradGrad

 Leave Link  103 at Sat Aug 21 09:31:32 2021, MaxMem=   104857600 cpu:               0.7 elap:               0.1
 (Enter /sw/arch/RedHatEnterpriseServer7/EB_production/2020/software/Gaussian/g16.c01/l202.exe)
                          Input orientation:                          
 ---------------------------------------------------------------------
 Center     Atomic      Atomic             Coordinates (Angstroms)
 Number     Number       Type             X           Y           Z
 ---------------------------------------------------------------------
      1          6           0       -0.522006   -0.543436   -2.248647
      2          7           0       -1.116782   -0.457103   -0.871124
      3          6           0       -2.350435   -1.310770   -0.823420
      4          6           0       -1.482267    0.962799   -0.559936
      5          6           0       -0.154170   -0.996481    0.166668
      6          6           0        1.220562   -0.338283    0.251874
      7          9           0        2.058890   -0.751971   -0.791062
      8         17           0       -3.499959    0.873767   -3.406984
      9          1           0        0.315990    0.156816   -2.337601
     10          1           0       -0.157735   -1.564084   -2.419831
     11          1           0       -1.290601   -0.285473   -2.996194
     12          1           0       -2.089883   -2.330015   -1.138805
     13          1           0       -3.120695   -0.907315   -1.498198
     14          1           0       -2.729212   -1.348336    0.206596
     15          1           0       -2.309783    1.286153   -1.211708
     16          1           0       -1.769186    1.042535    0.496539
     17          1           0       -0.622341    1.617304   -0.747498
     18          1           0       -0.022723   -2.071005   -0.026441
     19          1           0       -0.645688   -0.894168    1.145034
     20          1           0        1.166807    0.761558    0.248730
     21          1           0        1.672072   -0.654034    1.206134
 ---------------------------------------------------------------------
                    Distance matrix (angstroms):
                    1          2          3          4          5
     1  C    0.000000
     2  N    1.502925   0.000000
     3  C    2.441972   1.500974   0.000000
     4  C    2.458168   1.498846   2.447909   0.000000
     5  C    2.484815   1.514782   2.429533   2.476000   0.000000
     6  C    3.054708   2.595847   3.854090   3.107593   1.526556
     7  F    2.971374   3.190337   4.444710   3.941275   2.423771
     8  Cl   3.495484   3.725766   3.573291   3.490657   5.240527
     9  H    1.095674   2.140160   3.399467   2.653946   2.796875
    10  H    1.097142   2.131589   2.724083   3.405692   2.648049
    11  H    1.102774   2.139063   2.625915   2.744134   3.435216
    12  H    2.623329   2.127529   1.098279   3.398076   2.688784
    13  H    2.729243   2.147459   1.100638   2.657464   3.402940
    14  H    3.398212   2.134411   1.098097   2.735652   2.599277
    15  H    2.760214   2.139670   2.626105   1.101883   3.428849
    16  H    3.406877   2.131912   2.760106   1.097643   2.621961
    17  H    2.632928   2.136099   3.400836   1.096826   2.808337
    18  H    2.742435   2.124885   2.575146   3.408644   1.099623
    19  H    3.413998   2.116093   2.637144   2.656147   1.099662
    20  H    3.285117   2.820282   4.220787   2.777055   2.200549
    21  H    4.094109   3.483029   4.553126   3.960178   2.129065
                    6          7          8          9         10
     6  C    0.000000
     7  F    1.400588   0.000000
     8  Cl   6.094229   6.355067   0.000000
     9  H    2.787248   2.501075   4.027290   0.000000
    10  H    3.246583   2.868073   4.253005   1.786806   0.000000
    11  H    4.105932   4.037242   2.528606   1.791787   1.802895
    12  H    4.106098   4.452355   4.170992   3.661921   2.441490
    13  H    4.715196   5.229940   2.638097   3.694290   3.171732
    14  H    4.077129   4.927159   4.311584   4.244017   3.682005
    15  H    4.152614   4.839028   2.530971   3.072087   3.770242
    16  H    3.302290   4.419540   4.273353   3.628334   4.230420
    17  H    2.866942   3.578318   3.988282   2.354127   3.624056
    18  H    2.150708   2.580234   5.673705   3.227905   2.450206
    19  H    2.142343   3.329179   5.656264   3.762730   3.659938
    20  H    1.101158   2.041507   5.929211   2.789034   3.779450
    21  H    1.101895   2.036668   7.096826   3.880012   4.162212
                   11         12         13         14         15
    11  H    0.000000
    12  H    2.875570   0.000000
    13  H    2.445388   1.793269   0.000000
    14  H    3.668398   1.783968   1.803908   0.000000
    15  H    2.587108   3.623582   2.356047   3.021264   0.000000
    16  H    3.767205   3.761820   3.099592   2.592678   1.808232
    17  H    3.020557   4.229436   3.630293   3.760880   1.781183
    18  H    3.689861   2.361693   3.621833   2.810986   4.231549
    19  H    4.235114   3.059947   3.621120   2.329808   3.616247
    20  H    4.202936   4.699906   4.921339   4.430846   3.807198
    21  H    5.154885   4.739194   5.508919   4.566447   5.046331
                   16         17         18         19         20
    16  H    0.000000
    17  H    1.786964   0.000000
    18  H    3.608015   3.805665   0.000000
    19  H    2.331011   3.144791   1.773523   0.000000
    20  H    2.959800   2.219420   3.084496   2.613413   0.000000
    21  H    3.901811   3.773590   2.529699   2.330967   1.782082
                   21
    21  H    0.000000
 Stoichiometry    C5H13ClFN
 Framework group  C1[X(C5H13ClFN)]
 Deg. of freedom    57
 Full point group                 C1      NOp   1
 RotChk:  IX=0 Diff= 4.07D-02
 Largest Abelian subgroup         C1      NOp   1
 Largest concise Abelian subgroup C1      NOp   1
                         Standard orientation:                         
 ---------------------------------------------------------------------
 Center     Atomic      Atomic             Coordinates (Angstroms)
 Number     Number       Type             X           Y           Z
 ---------------------------------------------------------------------
      1          6           0       -0.028013   -0.886932   -0.714744
      2          7           0       -0.246973    0.454258   -0.072835
      3          6           0        0.525129    1.488301   -0.839342
      4          6           0        0.233098    0.426290    1.346774
      5          6           0       -1.708658    0.847578   -0.130613
      6          6           0       -2.713256   -0.104450    0.513437
[...]
 Solution method      : On-the-fly selection.
 Cavity type          : VdW (van der Waals Surface) (Alpha=1.000).
 Cavity algorithm     : GePol (No added spheres)
                        Default sphere list used, NSphG=   21.
                        Tesserae with average area of 0.200 Ang**2.
                        Smoothing algorithm: None.
                        Polarization charges: point-like.
                        Self-potential: constant (ISelfS= 1).
                        Self-field    : global E.n sum rule (ISelfD= 3).
 Solvent              : Water, Eps=  78.355300 Eps(inf)=   1.777849
 ------------------------------------------------------------------------------
 One-electron integrals computed using PRISM.
 NBasis=   233 RedAO= T EigKep=  3.52D-04  NBF=   233
 NBsUse=   233 1.00D-06 EigRej= -1.00D+00 NBFU=   233
 Initial guess from the checkpoint file:  "AOCYKHQUTWXPMC-UHFFFAOYSA-M.chk"
 B after Tr=     0.000000   -0.000000    0.000000
         Rot=    1.000000   -0.000000   -0.000000    0.000000 Ang=   0.00 deg.
 Requested convergence on RMS density matrix=1.00D-08 within 128 cycles.
 Requested convergence on MAX density matrix=1.00D-06.
 Requested convergence on             energy=1.00D-06.
 No special actions if energy rises.
 Inv3:  Mode=1 IEnd=     5410947.
 Iteration    1 A*A^-1 deviation from unit magnitude is 1.51D-14 for    459.
 Iteration    1 A*A^-1 deviation from orthogonality  is 5.32D-15 for    459     87.
 Iteration    1 A^-1*A deviation from unit magnitude is 6.22D-15 for    459.
 Iteration    1 A^-1*A deviation from orthogonality  is 3.35D-15 for    459     85.
 Error on nuclear    polarization charges =  0.02369
 Error on electronic polarization charges = -0.05481
 SCF Done:  E(RB-P86) =  -813.348052676     A.U. after   10 cycles
            NFock= 10  Conv=0.54D-08     -V/T= 2.0038
 --------------------------------------------------------------------
 Variational C-PCM results
 =========================
 <psi(f)|   H    |psi(f)>                     (a.u.) =    -813.270536
 <psi(f)|H+V(f)/2|psi(f)>                     (a.u.) =    -813.348053
 Total free energy in solution:
 - with all non electrostatic terms           (a.u.) =    -813.334005
 --------------------------------------------------------------------
 (Polarized solute)-Solvent               (kcal/mol) =     -48.64
 --------------------------------------------------------------------
 Cavitation energy                        (kcal/mol) =      24.45
 Dispersion energy                        (kcal/mol) =     -17.03
 Repulsion energy                         (kcal/mol) =       1.39
 Total non electrostatic                  (kcal/mol) =       8.81
 --------------------------------------------------------------------
 Partition over spheres:
 Sphere  on Atom  Surface  Charge   GEl     GCav    GDR
    1      C1      13.20  -0.047   -0.50    1.55   -1.01
    2      N2       0.00   0.000    0.00    0.00    0.00
    3      C3      14.33  -0.056   -0.97    1.68   -1.13
    4      C4      13.99  -0.055   -0.94    1.64   -1.07
    5      C5       6.77  -0.057   -1.83    0.80   -0.36
    6      C6      11.88  -0.069   -1.85    1.40   -0.72
    7      F7      19.10   0.133    0.52    2.37   -1.62
    8     Cl8      43.18   0.747  -28.63    5.03   -3.31
    9      H9       5.08  -0.044   -0.74    0.72   -0.43
   10      H10      6.48  -0.055   -1.14    0.91   -0.64
   11      H11      3.15  -0.012    0.12    0.44   -0.05
   12      H12      6.45  -0.055   -1.32    0.91   -0.66
   13      H13      3.06  -0.011    0.08    0.43   -0.05
   14      H14      6.46  -0.040   -0.81    0.91   -0.67
   15      H15      3.01  -0.012    0.11    0.42   -0.04
   16      H16      6.48  -0.054   -1.43    0.91   -0.69
   17      H17      5.61  -0.054   -1.31    0.79   -0.52
   18      H18      6.41  -0.063   -1.91    0.91   -0.63
   19      H19      6.46  -0.082   -2.97    0.91   -0.66
   20      H20      5.53  -0.054   -1.53    0.78   -0.56
   21      H21      6.54  -0.058   -1.59    0.92   -0.84
 --------------------------------------------------------------------
 - cavitation energy not included in the total energy.
 - dispersion energy not included in the total energy.
 - repulsion  energy not included in the total energy.
 After PCM corrections, the energy is  -813.348052676     a.u.
 --------------------------------------------------------------------
 Writing COSMO formatted file "AOCYKHQUTWXPMC-UHFFFAOYSA-M.cosmo"
 Recomputed dielectric energy= -0.077605 old= -0.077517 diff=-8.82D-05

 **********************************************************************

            Population analysis using the SCF Density.

 **********************************************************************

 Orbital symmetries:
       Occupied  (A) (A) (A) (A) (A) (A) (A) (A) (A) (A) (A) (A)
                 (A) (A) (A) (A) (A) (A) (A) (A) (A) (A) (A) (A)
                 (A) (A) (A) (A) (A) (A) (A) (A) (A) (A) (A) (A)
                 (A) (A)
       Virtual   (A) (A) (A) (A) (A) (A) (A) (A) (A) (A) (A) (A)
                 (A) (A) (A) (A) (A) (A) (A) (A) (A) (A) (A) (A)
                 (A) (A) (A) (A) (A) (A) (A) (A) (A) (A) (A) (A)
                 (A) (A) (A) (A) (A) (A) (A) (A) (A) (A) (A) (A)
                 (A) (A) (A) (A) (A) (A) (A) (A) (A) (A) (A) (A)
                 (A) (A) (A) (A) (A) (A) (A) (A) (A) (A) (A) (A)
                 (A) (A) (A) (A) (A) (A) (A) (A) (A) (A) (A) (A)
                 (A) (A) (A) (A) (A) (A) (A) (A) (A) (A) (A) (A)
                 (A) (A) (A) (A) (A) (A) (A) (A) (A) (A) (A) (A)
                 (A) (A) (A) (A) (A) (A) (A) (A) (A) (A) (A) (A)
                 (A) (A) (A) (A) (A) (A) (A) (A) (A) (A) (A) (A)
                 (A) (A) (A) (A) (A) (A) (A) (A) (A) (A) (A) (A)
                 (A) (A) (A) (A) (A) (A) (A) (A) (A) (A) (A) (A)
                 (A) (A) (A) (A) (A) (A) (A) (A) (A) (A) (A) (A)
                 (A) (A) (A) (A) (A) (A) (A) (A) (A) (A) (A) (A)
                 (A) (A) (A) (A) (A) (A) (A) (A) (A) (A) (A) (A)
                 (A) (A) (A)
 The electronic state is 1-A.
 Alpha  occ. eigenvalues -- -100.64590 -24.27555 -14.13472  -9.98511  -9.96039
 Alpha  occ. eigenvalues --   -9.93975  -9.93953  -9.93828  -9.08465  -6.90283
 Alpha  occ. eigenvalues --   -6.90277  -6.90276  -1.10183  -0.93542  -0.72301
 Alpha  occ. eigenvalues --   -0.67769  -0.67637  -0.63631  -0.61792  -0.55678
 Alpha  occ. eigenvalues --   -0.49023  -0.47921  -0.46783  -0.45322  -0.42767
 Alpha  occ. eigenvalues --   -0.41344  -0.39054  -0.37720  -0.36191  -0.35912
 Alpha  occ. eigenvalues --   -0.35575  -0.35475  -0.35381  -0.31089  -0.30572
 Alpha  occ. eigenvalues --   -0.21530  -0.21526  -0.21309
 Alpha virt. eigenvalues --    0.00603   0.02810   0.03371   0.05274   0.05389
 Alpha virt. eigenvalues --    0.05750   0.06766   0.07247   0.07477   0.09990
 Alpha virt. eigenvalues --    0.10442   0.11035   0.11805   0.12112   0.12905
 Alpha virt. eigenvalues --    0.13333   0.14597   0.15059   0.17004   0.18269
 Alpha virt. eigenvalues --    0.21456   0.22529   0.23820   0.25178   0.25643
 Alpha virt. eigenvalues --    0.26258   0.27456   0.28718   0.30430   0.30661
 Alpha virt. eigenvalues --    0.32649   0.33999   0.34299   0.36435   0.36633
 Alpha virt. eigenvalues --    0.37895   0.38338   0.39333   0.39615   0.39989
 Alpha virt. eigenvalues --    0.41305   0.42098   0.42949   0.43614   0.44385
 Alpha virt. eigenvalues --    0.44673   0.45754   0.45972   0.46267   0.46687
 Alpha virt. eigenvalues --    0.47853   0.48623   0.51144   0.52886   0.56136
 Alpha virt. eigenvalues --    0.57161   0.64974   0.65326   0.67488   0.68556
 Alpha virt. eigenvalues --    0.72584   0.75927   0.77607   0.80108   0.80162
 Alpha virt. eigenvalues --    0.87243   0.87273   0.87813   0.99527   1.01161
 Alpha virt. eigenvalues --    1.02559   1.14076   1.16124   1.17634   1.18310
 Alpha virt. eigenvalues --    1.18612   1.19986   1.20648   1.22579   1.23254
 Alpha virt. eigenvalues --    1.25313   1.27120   1.28135   1.28584   1.30084
 Alpha virt. eigenvalues --    1.30588   1.31073   1.32438   1.33500   1.40950
 Alpha virt. eigenvalues --    1.43915   1.45072   1.45306   1.46241   1.47935
 Alpha virt. eigenvalues --    1.48839   1.52790   1.53889   1.55223   1.59064
 Alpha virt. eigenvalues --    1.62825   1.65305   1.66894   1.67960   1.68679
 Alpha virt. eigenvalues --    1.70177   1.70595   1.71975   1.72147   1.72764
 Alpha virt. eigenvalues --    1.73254   1.73764   1.74765   1.76072   1.76419
 Alpha virt. eigenvalues --    1.81406   1.83513   1.87203   1.87668   1.89897
 Alpha virt. eigenvalues --    1.92179   1.93141   1.98155   2.00371   2.01385
 Alpha virt. eigenvalues --    2.07304   2.11002   2.13388   2.17015   2.19487
 Alpha virt. eigenvalues --    2.21615   2.25010   2.26221   2.26761   2.27631
 Alpha virt. eigenvalues --    2.29927   2.31042   2.31214   2.32790   2.35590
 Alpha virt. eigenvalues --    2.38153   2.39972   2.40936   2.41977   2.42700
 Alpha virt. eigenvalues --    2.46505   2.51259   2.54896   2.56736   2.58798
 Alpha virt. eigenvalues --    2.62531   2.63301   2.64809   2.65039   2.66796
 Alpha virt. eigenvalues --    2.70384   2.70478   2.80424   2.86101   2.86176
 Alpha virt. eigenvalues --    2.92751   2.93354   2.98379   3.01299   3.06534
 Alpha virt. eigenvalues --    3.07620   3.08376   3.12084   3.14109   3.15794
 Alpha virt. eigenvalues --    3.18550   3.19644   3.21758   3.22579   3.23920
 Alpha virt. eigenvalues --    3.25687   3.27587   3.28830   3.30031   3.35167
 Alpha virt. eigenvalues --    3.40585   3.45367   3.57705   3.58922   3.59455
 Alpha virt. eigenvalues --    3.88838   4.27172  21.61621  21.79813  21.82144
 Alpha virt. eigenvalues --   21.83892  21.85010  24.12554  31.66636  56.46774
          Condensed to atoms (all electrons):
               1          2          3          4          5          6
     1  C    5.249671   0.243529  -0.102091  -0.120842  -0.085736  -0.007384
     2  N    0.243529   6.553350   0.249244   0.227492   0.172871  -0.024870
     3  C   -0.102091   0.249244   5.211883  -0.089302  -0.101872   0.012891
     4  C   -0.120842   0.227492  -0.089302   5.243055  -0.070722  -0.001288
     5  C   -0.085736   0.172871  -0.101872  -0.070722   5.475167   0.201377
     6  C   -0.007384  -0.024870   0.012891  -0.001288   0.201377   4.875910
     7  F    0.009648  -0.009233  -0.001170  -0.003742  -0.044560   0.214504
     8  Cl  -0.034725   0.003510  -0.034594  -0.035989   0.000070  -0.000021
     9  H    0.387193  -0.012797   0.008725  -0.004345  -0.017631   0.004066
    10  H    0.380378  -0.019712  -0.003175   0.010622   0.000153  -0.003142
    11  H    0.342671  -0.021400  -0.006236  -0.000589   0.009077  -0.000437
    12  H   -0.005980  -0.015649   0.388086   0.009524  -0.011469  -0.000009
    13  H   -0.003903  -0.018611   0.349004  -0.006366   0.009478  -0.000776
    14  H    0.009957  -0.017886   0.385491  -0.005252  -0.008526   0.000994
    15  H   -0.001016  -0.021169  -0.003145   0.345526   0.009917   0.000470
    16  H    0.010358  -0.016010  -0.006160   0.380224  -0.003451  -0.003167
    17  H   -0.004344  -0.019313   0.009281   0.390438  -0.010155   0.000336
    18  H   -0.015229  -0.025101  -0.001602   0.011715   0.387438  -0.018802
    19  H    0.011563  -0.021777  -0.007502  -0.013132   0.370780  -0.010581
    20  H   -0.003318  -0.009025  -0.000314   0.012919  -0.062892   0.428867
    21  H    0.000963   0.006625  -0.000465  -0.001225  -0.028385   0.389766
               7          8          9         10         11         12
     1  C    0.009648  -0.034725   0.387193   0.380378   0.342671  -0.005980
     2  N   -0.009233   0.003510  -0.012797  -0.019712  -0.021400  -0.015649
     3  C   -0.001170  -0.034594   0.008725  -0.003175  -0.006236   0.388086
     4  C   -0.003742  -0.035989  -0.004345   0.010622  -0.000589   0.009524
     5  C   -0.044560   0.000070  -0.017631   0.000153   0.009077  -0.011469
     6  C    0.214504  -0.000021   0.004066  -0.003142  -0.000437  -0.000009
     7  F    9.148815  -0.000000   0.005680  -0.001459   0.000918  -0.000030
     8  Cl  -0.000000  17.836861   0.000555   0.000658   0.045844   0.000674
     9  H    0.005680   0.000555   0.469402  -0.020295  -0.015984   0.000108
    10  H   -0.001459   0.000658  -0.020295   0.479184  -0.018749   0.002675
    11  H    0.000918   0.045844  -0.015984  -0.018749   0.525396  -0.000732
    12  H   -0.000030   0.000674   0.000108   0.002675  -0.000732   0.475386
    13  H    0.000025   0.046139   0.000556  -0.000718  -0.000713  -0.017734
    14  H    0.000012   0.000642  -0.000417  -0.000015   0.000494  -0.021195
    15  H   -0.000040   0.047463  -0.001059   0.000316  -0.002749   0.000442
    16  H    0.000184   0.000688   0.000159  -0.000425   0.000451   0.000030
    17  H    0.000454   0.000591   0.002580   0.000022  -0.001172  -0.000380
    18  H   -0.003264   0.000009   0.000441   0.003563  -0.000254   0.004674
    19  H    0.003914  -0.000001  -0.000294  -0.000004  -0.000289  -0.001073
    20  H   -0.038499   0.000010  -0.002557   0.000448  -0.000049  -0.000051
    21  H   -0.034004   0.000000   0.000557  -0.000140   0.000064   0.000001
              13         14         15         16         17         18
     1  C   -0.003903   0.009957  -0.001016   0.010358  -0.004344  -0.015229
     2  N   -0.018611  -0.017886  -0.021169  -0.016010  -0.019313  -0.025101
     3  C    0.349004   0.385491  -0.003145  -0.006160   0.009281  -0.001602
     4  C   -0.006366  -0.005252   0.345526   0.380224   0.390438   0.011715
     5  C    0.009478  -0.008526   0.009917  -0.003451  -0.010155   0.387438
     6  C   -0.000776   0.000994   0.000470  -0.003167   0.000336  -0.018802
     7  F    0.000025   0.000012  -0.000040   0.000184   0.000454  -0.003264
     8  Cl   0.046139   0.000642   0.047463   0.000688   0.000591   0.000009
     9  H    0.000556  -0.000417  -0.001059   0.000159   0.002580   0.000441
    10  H   -0.000718  -0.000015   0.000316  -0.000425   0.000022   0.003563
    11  H   -0.000713   0.000494  -0.002749   0.000451  -0.001172  -0.000254
    12  H   -0.017734  -0.021195   0.000442   0.000030  -0.000380   0.004674
    13  H    0.515476  -0.018268  -0.002133  -0.000217   0.000490  -0.000170
    14  H   -0.018268   0.478137  -0.000609   0.002434   0.000011  -0.001130
    15  H   -0.002133  -0.000609   0.514963  -0.017135  -0.017878  -0.000312
    16  H   -0.000217   0.002434  -0.017135   0.477047  -0.020622  -0.000041
    17  H    0.000490   0.000011  -0.017878  -0.020622   0.473382  -0.000191
    18  H   -0.000170  -0.001130  -0.000312  -0.000041  -0.000191   0.454979
    19  H    0.000079   0.005285   0.000088   0.002442   0.000418  -0.012148
    20  H   -0.000047   0.000059   0.000194  -0.001489  -0.001021   0.005196
    21  H    0.000030  -0.000048  -0.000033   0.000241   0.000138  -0.004532
              19         20         21
     1  C    0.011563  -0.003318   0.000963
     2  N   -0.021777  -0.009025   0.006625
     3  C   -0.007502  -0.000314  -0.000465
     4  C   -0.013132   0.012919  -0.001225
     5  C    0.370780  -0.062892  -0.028385
     6  C   -0.010581   0.428867   0.389766
     7  F    0.003914  -0.038499  -0.034004
     8  Cl  -0.000001   0.000010   0.000000
     9  H   -0.000294  -0.002557   0.000557
    10  H   -0.000004   0.000448  -0.000140
    11  H   -0.000289  -0.000049   0.000064
    12  H   -0.001073  -0.000051   0.000001
    13  H    0.000079  -0.000047   0.000030
    14  H    0.005285   0.000059  -0.000048
    15  H    0.000088   0.000194  -0.000033
    16  H    0.002442  -0.001489   0.000241
    17  H    0.000418  -0.001021   0.000138
    18  H   -0.012148   0.005196  -0.004532
    19  H    0.459679   0.002523  -0.000337
    20  H    0.002523   0.532642  -0.037041
    21  H   -0.000337  -0.037041   0.528914
 Mulliken charges:
               1
     1  C   -0.261365
     2  N   -0.204068
     3  C   -0.256977
     4  C   -0.278722
     5  C   -0.190929
     6  C   -0.058705
     7  F   -0.248150
     8  Cl  -0.878384
     9  H    0.195357
    10  H    0.189814
    11  H    0.144439
    12  H    0.192702
    13  H    0.148381
    14  H    0.189829
    15  H    0.147900
    16  H    0.194458
    17  H    0.196933
    18  H    0.214762
    19  H    0.210368
    20  H    0.173447
    21  H    0.178910
 Sum of Mulliken charges =  -0.00000
 Mulliken charges with hydrogens summed into heavy atoms:
               1
     1  C    0.268245
     2  N   -0.204068
     3  C    0.273934
     4  C    0.260569
     5  C    0.234201
     6  C    0.293652
     7  F   -0.248150
     8  Cl  -0.878384
 Electronic spatial extent (au):  <R**2>=           1909.5619
 Charge=              0.0000 electrons
 Dipole moment (field-independent basis, Debye):
    X=            -16.7246    Y=              6.0991    Z=              0.5161  Tot=             17.8095
 Quadrupole moment (field-independent basis, Debye-Ang):
   XX=           -107.0643   YY=            -55.3676   ZZ=            -52.5886
   XY=              0.3611   XZ=             -4.6974   YZ=             -0.7918
 Traceless Quadrupole moment (field-independent basis, Debye-Ang):
   XX=            -35.3908   YY=             16.3059   ZZ=             19.0849
   XY=              0.3611   XZ=             -4.6974   YZ=             -0.7918
 Octapole moment (field-independent basis, Debye-Ang**2):
  XXX=           -240.1259  YYY=              9.9160  ZZZ=             -1.9959  XYY=            -14.9638
  XXY=             45.6263  XXZ=              5.4042  XZZ=            -19.4167  YZZ=              1.6296
  YYZ=             -0.5135  XYZ=              2.4569
 Hexadecapole moment (field-independent basis, Debye-Ang**3):
 XXXX=          -2545.2513 YYYY=           -314.1790 ZZZZ=           -227.6427 XXXY=             50.8032
 XXXZ=            -45.4994 YYYX=             22.1448 YYYZ=              4.1442 ZZZX=              2.4089
 ZZZY=             -0.9215 XXYY=           -403.3340 XXZZ=           -357.6664 YYZZ=            -90.6116
 XXYZ=             -3.7840 YYXZ=             -4.2076 ZZXY=             11.3339
 N-N= 4.768303720259D+02 E-N=-2.871880489859D+03  KE= 8.102565585804D+02
 Unable to Open any file for archive entry.
 1\1\GINC-TCN1209\SP\RBP86\TZVP\C5H13Cl1F1N1\ELENAA\21-Aug-2021\0\\# BP
 86/TZVP SCRF=COSMORS geom=CHECKPOINT guess=CHECKPOINT\\COSMO-file for 
 #AOCYKHQUTWXPMC-UHFFFAOYSA-M\\0,1\C,0,-0.5162384624,-0.5438487496,-2.2
 616599519\N,0,-1.0927053236,-0.4640384675,-0.8648898819\C,0,-2.3520620
 927,-1.3039072339,-0.8165167357\C,0,-1.4647154497,0.9703181514,-0.5672
 066658\C,0,-0.1235132675,-1.0170026777,0.1747170914\C,0,1.2231786764,-
 0.3330699284,0.2844630231\F,0,2.065526506,-0.6845919722,-0.7974994211\
 Cl,0,-3.6896840673,0.8355045696,-3.4371096525\H,0,0.3672080485,0.09865
 13956,-2.318963537\H,0,-0.2367631416,-1.5836703905,-2.4637877523\H,0,-
 1.2981567036,-0.2004105163,-2.953600232\H,0,-2.088223999,-2.342159789,
 -1.0478913285\H,0,-3.0466468092,-0.8990098927,-1.5661479697\H,0,-2.779
 6745411,-1.2369368681,0.1903722659\H,0,-2.229579139,1.2647291047,-1.30
 01094089\H,0,-1.8541028877,1.0285419893,0.4554832071\H,0,-0.5795877259
 ,1.6048727137,-0.6754280523\H,0,0.0199143173,-2.0800828745,-0.06098809
 56\H,0,-0.6345483297,-0.9418543099,1.1446579118\H,0,1.1581941424,0.763
 6516006,0.3172179628\H,0,1.7030333515,-0.6872265185,1.2090129573\\Vers
 ion=ES64L-G16RevC.01\State=1-A\HF=-813.3480527\RMSD=5.438e-09\Dipole=4
 .0509777,-2.1153245,5.3113455\Quadrupole=-13.6788292,10.7297101,2.9491
 191,10.1616257,-15.2619714,6.4248076\PG=C01 [X(C5H13Cl1F1N1)]\\@
 The archive entry for this job was punched.


 TIME GOES, YOU SAY?  AH NO!
 ALAS, TIME STAYS, WE GO.
    -- A. DOBSON (1840-1921)
 Job cpu time:       0 days  0 hours  4 minutes 54.1 seconds.
 Elapsed time:       0 days  0 hours  0 minutes 12.8 seconds.
 File lengths (MBytes):  RWF=     49 Int=      0 D2E=      0 Chk=      8 Scr=      1
 Normal termination of Gaussian 16 at Sat Aug 21 09:36:16 2021.
