 Entering Gaussian System, Link 0=g16
 Input=AYFVYJQAPQTCCC-STHAYSLISA-N.gjf
 Output=AYFVYJQAPQTCCC-STHAYSLISA-N.log
 Initial command:
 /sw/arch/RedHatEnterpriseServer7/EB_production/2019/software/Gaussian/g16.c01/l1.exe "/scratch-local/elenaa.9715180/Gau-32559.inp" -scrdir="/scratch-local/elenaa.9715180/"
 Entering Link 1 = /sw/arch/RedHatEnterpriseServer7/EB_production/2019/software/Gaussian/g16.c01/l1.exe PID=     32561.
  
 Copyright (c) 1988-2019, Gaussian, Inc.  All Rights Reserved.
  
 This is part of the Gaussian(R) 16 program.  It is based on
 the Gaussian(R) 09 system (copyright 2009, Gaussian, Inc.),
 the Gaussian(R) 03 system (copyright 2003, Gaussian, Inc.),
 the Gaussian(R) 98 system (copyright 1998, Gaussian, Inc.),
 the Gaussian(R) 94 system (copyright 1995, Gaussian, Inc.),
 the Gaussian 92(TM) system (copyright 1992, Gaussian, Inc.),
 the Gaussian 90(TM) system (copyright 1990, Gaussian, Inc.),
 the Gaussian 88(TM) system (copyright 1988, Gaussian, Inc.),
 the Gaussian 86(TM) system (copyright 1986, Carnegie Mellon
 University), and the Gaussian 82(TM) system (copyright 1983,
 Carnegie Mellon University). Gaussian is a federally registered
 trademark of Gaussian, Inc.
  
 This software contains proprietary and confidential information,
 including trade secrets, belonging to Gaussian, Inc.
  
 This software is provided under written license and may be
 used, copied, transmitted, or stored only in accord with that
 written license.
  
 The following legend is applicable only to US Government
 contracts under FAR:
  
                    RESTRICTED RIGHTS LEGEND
  
 Use, reproduction and disclosure by the US Government is
 subject to restrictions as set forth in subparagraphs (a)
 and (c) of the Commercial Computer Software - Restricted
 Rights clause in FAR 52.227-19.
  
 Gaussian, Inc.
 340 Quinnipiac St., Bldg. 40, Wallingford CT 06492
  
  
 ---------------------------------------------------------------
 Warning -- This program may not be used in any manner that
 competes with the business of Gaussian, Inc. or will provide
 assistance to any competitor of Gaussian, Inc.  The licensee
 of this program is prohibited from giving any competitor of
 Gaussian, Inc. access to this program.  By using this program,
 the user acknowledges that Gaussian, Inc. is engaged in the
 business of creating and licensing software in the field of
 computational chemistry and represents and warrants to the
 licensee that it is not a competitor of Gaussian, Inc. and that
 it will not use this program in any manner prohibited above.
 ---------------------------------------------------------------
  

 Cite this work as:
 Gaussian 16, Revision C.01,
 M. J. Frisch, G. W. Trucks, H. B. Schlegel, G. E. Scuseria, 
 M. A. Robb, J. R. Cheeseman, G. Scalmani, V. Barone, 
 G. A. Petersson, H. Nakatsuji, X. Li, M. Caricato, A. V. Marenich, 
 J. Bloino, B. G. Janesko, R. Gomperts, B. Mennucci, H. P. Hratchian, 
 J. V. Ortiz, A. F. Izmaylov, J. L. Sonnenberg, D. Williams-Young, 
 F. Ding, F. Lipparini, F. Egidi, J. Goings, B. Peng, A. Petrone, 
 T. Henderson, D. Ranasinghe, V. G. Zakrzewski, J. Gao, N. Rega, 
 G. Zheng, W. Liang, M. Hada, M. Ehara, K. Toyota, R. Fukuda, 
 J. Hasegawa, M. Ishida, T. Nakajima, Y. Honda, O. Kitao, H. Nakai, 
 T. Vreven, K. Throssell, J. A. Montgomery, Jr., J. E. Peralta, 
 F. Ogliaro, M. J. Bearpark, J. J. Heyd, E. N. Brothers, K. N. Kudin, 
 V. N. Staroverov, T. A. Keith, R. Kobayashi, J. Normand, 
 K. Raghavachari, A. P. Rendell, J. C. Burant, S. S. Iyengar, 
 J. Tomasi, M. Cossi, J. M. Millam, M. Klene, C. Adamo, R. Cammi, 
 J. W. Ochterski, R. L. Martin, K. Morokuma, O. Farkas, 
 J. B. Foresman, and D. J. Fox, Gaussian, Inc., Wallingford CT, 2019.
 
 ******************************************
 Gaussian 16:  ES64L-G16RevC.01  3-Jul-2019
                22-Feb-2021 
 ******************************************
 %chk=AYFVYJQAPQTCCC-STHAYSLISA-N.chk
 %NProcShared=32
 Will use up to   32 processors via shared memory.
 -------------------------------------------------------------
 #P BP86/TZVP EmpiricalDispersion=GD3 SCRF=(Solvent=Water) Opt
 -------------------------------------------------------------
 1/18=20,19=15,26=3,38=1/1,3;
 2/9=110,12=2,17=6,18=5,40=1/2;
 3/5=19,7=101,11=2,25=1,30=1,70=2201,71=1,72=1,74=404,124=31/1,2,3;
 4//1;
 5/5=2,38=5,53=1/2;
 6/7=2,8=2,9=2,10=2,28=1/1;
 7//1,2,3,16;
 1/18=20,19=15,26=3/3(2);
 2/9=110/2;
 99//99;
 2/9=110/2;
 3/5=19,7=101,11=2,25=1,30=1,70=2205,71=1,72=1,74=404,124=31/1,2,3;
 4/5=5,16=3,69=1/1;
 5/5=2,38=5,53=1/2;
 7//1,2,3,16;
 1/18=20,19=15,26=3/3(-5);
 2/9=110/2;
 6/7=2,8=2,9=2,10=2,19=2,28=1/1;
 99/9=1/99;
 Leave Link    1 at Mon Feb 22 20:57:18 2021, MaxMem=           0 cpu:               2.4 elap:               0.1
 (Enter /sw/arch/RedHatEnterpriseServer7/EB_production/2019/software/Gaussian/g16.c01/l101.exe)
 -------------------------------------
 Particle #AYFVYJQAPQTCCC-STHAYSLISA-N
 -------------------------------------
 Symbolic Z-matrix:
 Charge =  0 Multiplicity = 1
 C                    -1.34911   1.10811  -2.70526 
 C                    -0.43911   0.18238  -1.85534 
 O                    -1.06632  -1.09594  -1.75197 
 C                    -0.12956   0.73686  -0.43067 
 N                     0.70819  -0.2042    0.33185 
 C                     0.56083   2.04521  -0.46586 
 O                     0.02608   3.06617   0.02048 
 O                     1.77873   2.17313  -1.04439 
 H                    -1.52687   0.65642  -3.68294 
 H                    -0.87361   2.07734  -2.86426 
 H                    -2.30828   1.2633   -2.20892 
 H                     0.49853   0.03631  -2.3974 
 H                    -1.90681  -0.93488  -1.27255 
 H                    -1.07325   0.83857   0.11254 
 H                     0.87414   0.17034   1.26864 
 H                     1.60524  -0.33804  -0.14059 
 H                     0.23016  -1.10405   0.40908 
 
 ITRead=  0  0  0  0  0  0  0  0  0  0  0  0  0  0  0  0  0
 MicOpt= -1 -1 -1 -1 -1 -1 -1 -1 -1 -1 -1 -1 -1 -1 -1 -1 -1
 NAtoms=     17 NQM=       17 NQMF=       0 NMMI=      0 NMMIF=      0
                NMic=       0 NMicF=      0.
                    Isotopes and Nuclear Properties:
 (Nuclear quadrupole moments (NQMom) in fm**2, nuclear magnetic moments (NMagM)
  in nuclear magnetons)

  Atom         1           2           3           4           5           6           7           8           9          10
 IAtWgt=          12          12          16          12          14          12          16          16           1           1
 AtmWgt=  12.0000000  12.0000000  15.9949146  12.0000000  14.0030740  12.0000000  15.9949146  15.9949146   1.0078250   1.0078250
 NucSpn=           0           0           0           0           2           0           0           0           1           1
 AtZEff=  -0.0000000  -0.0000000  -0.0000000  -0.0000000  -0.0000000  -0.0000000  -0.0000000  -0.0000000  -0.0000000  -0.0000000
 NQMom=    0.0000000   0.0000000   0.0000000   0.0000000   2.0440000   0.0000000   0.0000000   0.0000000   0.0000000   0.0000000
 NMagM=    0.0000000   0.0000000   0.0000000   0.0000000   0.4037610   0.0000000   0.0000000   0.0000000   2.7928460   2.7928460
 AtZNuc=   6.0000000   6.0000000   8.0000000   6.0000000   7.0000000   6.0000000   8.0000000   8.0000000   1.0000000   1.0000000

  Atom        11          12          13          14          15          16          17
 IAtWgt=           1           1           1           1           1           1           1
 AtmWgt=   1.0078250   1.0078250   1.0078250   1.0078250   1.0078250   1.0078250   1.0078250
 NucSpn=           1           1           1           1           1           1           1
 AtZEff=  -0.0000000  -0.0000000  -0.0000000  -0.0000000  -0.0000000  -0.0000000  -0.0000000
 NQMom=    0.0000000   0.0000000   0.0000000   0.0000000   0.0000000   0.0000000   0.0000000
 NMagM=    2.7928460   2.7928460   2.7928460   2.7928460   2.7928460   2.7928460   2.7928460
 AtZNuc=   1.0000000   1.0000000   1.0000000   1.0000000   1.0000000   1.0000000   1.0000000
 Leave Link  101 at Mon Feb 22 20:57:19 2021, MaxMem=   104857600 cpu:               3.0 elap:               0.1
 (Enter /sw/arch/RedHatEnterpriseServer7/EB_production/2019/software/Gaussian/g16.c01/l103.exe)

 GradGradGradGradGradGradGradGradGradGradGradGradGradGradGradGradGradGrad
 Berny optimization.
 Initialization pass.
                           ----------------------------
                           !    Initial Parameters    !
                           ! (Angstroms and Degrees)  !
 --------------------------                            --------------------------
 ! Name  Definition              Value          Derivative Info.                !
 --------------------------------------------------------------------------------
 ! R1    R(1,2)                  1.5516         estimate D2E/DX2                !
 ! R2    R(1,9)                  1.0915         estimate D2E/DX2                !
 ! R3    R(1,10)                 1.0912         estimate D2E/DX2                !
 ! R4    R(1,11)                 1.0911         estimate D2E/DX2                !
 ! R5    R(2,3)                  1.4276         estimate D2E/DX2                !
 ! R6    R(2,4)                  1.5598         estimate D2E/DX2                !
 ! R7    R(2,12)                 1.0929         estimate D2E/DX2                !
 ! R8    R(3,13)                 0.9809         estimate D2E/DX2                !
 ! R9    R(4,5)                  1.4727         estimate D2E/DX2                !
 ! R10   R(4,6)                  1.4797         estimate D2E/DX2                !
 ! R11   R(4,14)                 1.0936         estimate D2E/DX2                !
 ! R12   R(5,15)                 1.0224         estimate D2E/DX2                !
 ! R13   R(5,16)                 1.0226         estimate D2E/DX2                !
 ! R14   R(5,17)                 1.0219         estimate D2E/DX2                !
 ! R15   R(6,7)                  1.2509         estimate D2E/DX2                !
 ! R16   R(6,8)                  1.3544         estimate D2E/DX2                !
 ! A1    A(2,1,9)              109.8312         estimate D2E/DX2                !
 ! A2    A(2,1,10)             110.7431         estimate D2E/DX2                !
 ! A3    A(2,1,11)             110.5648         estimate D2E/DX2                !
 ! A4    A(9,1,10)             107.9385         estimate D2E/DX2                !
 ! A5    A(9,1,11)             108.8534         estimate D2E/DX2                !
 ! A6    A(10,1,11)            108.8454         estimate D2E/DX2                !
 ! A7    A(1,2,3)              108.4347         estimate D2E/DX2                !
 ! A8    A(1,2,4)              113.8673         estimate D2E/DX2                !
 ! A9    A(1,2,12)             108.1342         estimate D2E/DX2                !
 ! A10   A(3,2,4)              109.8376         estimate D2E/DX2                !
 ! A11   A(3,2,12)             107.0477         estimate D2E/DX2                !
 ! A12   A(4,2,12)             109.2857         estimate D2E/DX2                !
 ! A13   A(2,3,13)             105.3553         estimate D2E/DX2                !
 ! A14   A(2,4,5)              111.0175         estimate D2E/DX2                !
 ! A15   A(2,4,6)              112.6548         estimate D2E/DX2                !
 ! A16   A(2,4,14)             108.3907         estimate D2E/DX2                !
 ! A17   A(5,4,6)              108.1736         estimate D2E/DX2                !
 ! A18   A(5,4,14)             107.0447         estimate D2E/DX2                !
 ! A19   A(6,4,14)             109.4013         estimate D2E/DX2                !
 ! A20   A(4,5,15)             109.4293         estimate D2E/DX2                !
 ! A21   A(4,5,16)             110.0853         estimate D2E/DX2                !
 ! A22   A(4,5,17)             109.6166         estimate D2E/DX2                !
 ! A23   A(15,5,16)            109.1986         estimate D2E/DX2                !
 ! A24   A(15,5,17)            109.2238         estimate D2E/DX2                !
 ! A25   A(16,5,17)            109.2696         estimate D2E/DX2                !
 ! A26   A(4,6,7)              120.8593         estimate D2E/DX2                !
 ! A27   A(4,6,8)              120.878          estimate D2E/DX2                !
 ! A28   A(7,6,8)              118.2544         estimate D2E/DX2                !
 ! D1    D(9,1,2,3)            -57.1189         estimate D2E/DX2                !
 ! D2    D(9,1,2,4)           -179.7103         estimate D2E/DX2                !
 ! D3    D(9,1,2,12)            58.6248         estimate D2E/DX2                !
 ! D4    D(10,1,2,3)          -176.2423         estimate D2E/DX2                !
 ! D5    D(10,1,2,4)            61.1663         estimate D2E/DX2                !
 ! D6    D(10,1,2,12)          -60.4986         estimate D2E/DX2                !
 ! D7    D(11,1,2,3)            63.0269         estimate D2E/DX2                !
 ! D8    D(11,1,2,4)           -59.5645         estimate D2E/DX2                !
 ! D9    D(11,1,2,12)          178.7706         estimate D2E/DX2                !
 ! D10   D(1,2,3,13)           -62.9163         estimate D2E/DX2                !
 ! D11   D(4,2,3,13)            62.0899         estimate D2E/DX2                !
 ! D12   D(12,2,3,13)         -179.3633         estimate D2E/DX2                !
 ! D13   D(1,2,4,5)            178.568          estimate D2E/DX2                !
 ! D14   D(1,2,4,6)            -59.9369         estimate D2E/DX2                !
 ! D15   D(1,2,4,14)            61.2679         estimate D2E/DX2                !
 ! D16   D(3,2,4,5)             56.7496         estimate D2E/DX2                !
 ! D17   D(3,2,4,6)            178.2446         estimate D2E/DX2                !
 ! D18   D(3,2,4,14)           -60.5506         estimate D2E/DX2                !
 ! D19   D(12,2,4,5)           -60.4074         estimate D2E/DX2                !
 ! D20   D(12,2,4,6)            61.0877         estimate D2E/DX2                !
 ! D21   D(12,2,4,14)         -177.7075         estimate D2E/DX2                !
 ! D22   D(2,4,5,15)          -178.4264         estimate D2E/DX2                !
 ! D23   D(2,4,5,16)            61.5564         estimate D2E/DX2                !
 ! D24   D(2,4,5,17)           -58.6661         estimate D2E/DX2                !
 ! D25   D(6,4,5,15)            57.4887         estimate D2E/DX2                !
 ! D26   D(6,4,5,16)           -62.5286         estimate D2E/DX2                !
 ! D27   D(6,4,5,17)           177.2489         estimate D2E/DX2                !
 ! D28   D(14,4,5,15)          -60.3075         estimate D2E/DX2                !
 ! D29   D(14,4,5,16)          179.6752         estimate D2E/DX2                !
 ! D30   D(14,4,5,17)           59.4527         estimate D2E/DX2                !
 ! D31   D(2,4,6,7)            117.2581         estimate D2E/DX2                !
 ! D32   D(2,4,6,8)            -61.6754         estimate D2E/DX2                !
 ! D33   D(5,4,6,7)           -119.6448         estimate D2E/DX2                !
 ! D34   D(5,4,6,8)             61.4217         estimate D2E/DX2                !
 ! D35   D(14,4,6,7)            -3.3691         estimate D2E/DX2                !
 ! D36   D(14,4,6,8)           177.6974         estimate D2E/DX2                !
 --------------------------------------------------------------------------------
 Trust Radius=3.00D-01 FncErr=1.00D-07 GrdErr=1.00D-06 EigMax=2.50D+02 EigMin=1.00D-04
 Number of steps in this run=     90 maximum allowed number of steps=    102.
 GradGradGradGradGradGradGradGradGradGradGradGradGradGradGradGradGradGrad

 Leave Link  103 at Mon Feb 22 20:57:19 2021, MaxMem=   104857600 cpu:               0.7 elap:               0.1
 (Enter /sw/arch/RedHatEnterpriseServer7/EB_production/2019/software/Gaussian/g16.c01/l202.exe)
                          Input orientation:                          
 ---------------------------------------------------------------------
 Center     Atomic      Atomic             Coordinates (Angstroms)
 Number     Number       Type             X           Y           Z
 ---------------------------------------------------------------------
      1          6           0       -1.349110    1.108110   -2.705260
      2          6           0       -0.439110    0.182380   -1.855340
      3          8           0       -1.066320   -1.095940   -1.751970
      4          6           0       -0.129560    0.736860   -0.430670
      5          7           0        0.708190   -0.204200    0.331850
      6          6           0        0.560830    2.045210   -0.465860
      7          8           0        0.026080    3.066170    0.020480
      8          8           0        1.778730    2.173130   -1.044390
      9          1           0       -1.526870    0.656420   -3.682940
     10          1           0       -0.873610    2.077340   -2.864260
     11          1           0       -2.308280    1.263300   -2.208920
     12          1           0        0.498530    0.036310   -2.397400
     13          1           0       -1.906810   -0.934880   -1.272550
     14          1           0       -1.073250    0.838570    0.112540
     15          1           0        0.874140    0.170340    1.268640
     16          1           0        1.605240   -0.338040   -0.140590
     17          1           0        0.230160   -1.104050    0.409080
 ---------------------------------------------------------------------
                    Distance matrix (angstroms):
                    1          2          3          4          5
     1  C    0.000000
     2  C    1.551593   0.000000
     3  O    2.417968   1.427648   0.000000
     4  C    2.607468   1.559793   2.445917   0.000000
     5  N    3.895982   2.499908   2.878609   1.472704   0.000000
     6  C    3.088841   2.529955   3.764109   1.479749   2.391213
     7  O    3.626955   3.471505   4.653824   2.377697   3.355227
     8  O    3.698127   3.088615   4.391104   2.465988   2.948184
     9  H    1.091550   2.179004   2.647927   3.540651   4.674901
    10  H    1.091232   2.190339   3.368090   2.876258   4.233513
    11  H    1.091075   2.187968   2.705047   2.861142   4.208106
    12  H    2.158079   1.092856   2.036498   2.180205   2.747837
    13  H    2.556853   1.934440   0.980922   2.581103   3.153762
    14  H    2.844072   2.169164   2.686778   1.093605   2.075812
    15  H    4.649100   3.388808   3.806959   2.053293   1.022446
    16  H    4.170979   2.718561   3.210637   2.061331   1.022649
    17  H    4.133625   2.688944   2.520132   2.055122   1.021865
                    6          7          8          9         10
     6  C    0.000000
     7  O    1.250937   0.000000
     8  O    1.354378   2.236795   0.000000
     9  H    4.078827   4.683361   4.493256   0.000000
    10  H    2.794812   3.179458   3.218076   1.765219   0.000000
    11  H    3.446946   3.697269   4.345983   1.775286   1.774939
    12  H    2.787545   3.905049   2.834704   2.477780   2.503304
    13  H    3.952333   4.627785   4.826488   2.913172   3.560128
    14  H    2.112047   2.485800   3.354598   3.826829   3.230440
    15  H    2.573284   3.265416   3.190542   5.524425   4.875668
    16  H    2.622303   3.756106   2.674496   4.831905   4.404218
    17  H    3.285225   4.193256   3.905196   4.788636   4.696201
                   11         12         13         14         15
    11  H    0.000000
    12  H    3.069073   0.000000
    13  H    2.422800   2.827394   0.000000
    14  H    2.663620   3.068210   2.399671   0.000000
    15  H    4.838986   3.687668   3.925919   2.361234   0.000000
    16  H    4.707220   2.541286   3.737920   2.936460   1.666999
    17  H    4.347637   3.041180   2.724544   2.358089   1.666620
                   16         17
    16  H    0.000000
    17  H    1.667259   0.000000
 Stoichiometry    C4H9NO3
 Framework group  C1[X(C4H9NO3)]
 Deg. of freedom    45
 Full point group                 C1      NOp   1
 Largest Abelian subgroup         C1      NOp   1
 Largest concise Abelian subgroup C1      NOp   1
                         Standard orientation:                         
 ---------------------------------------------------------------------
 Center     Atomic      Atomic             Coordinates (Angstroms)
 Number     Number       Type             X           Y           Z
 ---------------------------------------------------------------------
      1          6           0       -1.337627   -1.712459    0.023560
      2          6           0       -1.139283   -0.207458    0.344610
      3          8           0       -2.341208    0.487372    0.011794
      4          6           0        0.069994    0.441887   -0.396303
      5          7           0        0.179630    1.874623   -0.073655
      6          6           0        1.357700   -0.206224   -0.062504
      7          8           0        2.032548   -0.783971   -0.943205
      8          8           0        1.826116   -0.208040    1.208292
      9          1           0       -2.200495   -2.097151    0.570324
     10          1           0       -0.463012   -2.290700    0.326007
     11          1           0       -1.503903   -1.857733   -1.044940
     12          1           0       -0.998542   -0.105496    1.423559
     13          1           0       -2.448641    0.371523   -0.956320
     14          1           0       -0.105313    0.368331   -1.473257
     15          1           0        0.962202    2.280900   -0.591260
     16          1           0        0.339516    1.997610    0.928903
     17          1           0       -0.683587    2.352991   -0.338661
 ---------------------------------------------------------------------
 Rotational constants (GHZ):           2.8242687           1.5230330           1.2244274
 Leave Link  202 at Mon Feb 22 20:57:19 2021, MaxMem=   104857600 cpu:               0.4 elap:               0.0
 (Enter /sw/arch/RedHatEnterpriseServer7/EB_production/2019/software/Gaussian/g16.c01/l301.exe)
 Standard basis: TZVP (5D, 7F)
 Ernie: Thresh=  0.10000D-02 Tol=  0.10000D-05 Strict=F.
 There are   214 symmetry adapted cartesian basis functions of A   symmetry.
 There are   206 symmetry adapted basis functions of A   symmetry.
   206 basis functions,   352 primitive gaussians,   214 cartesian basis functions
    32 alpha electrons       32 beta electrons
       nuclear repulsion energy       405.2932414596 Hartrees.
 IExCor=  404 DFT=T Ex=B Corr=P86 ExCW=0 ScaHFX=  0.000000
 ScaDFX=  1.000000  1.000000  1.000000  1.000000 ScalE2=  1.000000  1.000000
 IRadAn=      5 IRanWt=     -1 IRanGd=            0 ICorTp=0 IEmpDi=131
 NAtoms=   17 NActive=   17 NUniq=   17 SFac= 1.00D+00 NAtFMM=   60 NAOKFM=F Big=F
 Integral buffers will be    131072 words long.
 Raffenetti 2 integral format.
 Two-electron integral symmetry is turned on.
 R6Disp:  Grimme-D3 Dispersion energy=       -0.0174660044 Hartrees.
 Nuclear repulsion after empirical dispersion term =      405.2757754552 Hartrees.
 ------------------------------------------------------------------------------
 Polarizable Continuum Model (PCM)
 =================================
 Model                : PCM.
 Atomic radii         : UFF (Universal Force Field).
 Polarization charges : Total charges.
 Charge compensation  : None.
 Solution method      : On-the-fly selection.
 Cavity type          : Scaled VdW (van der Waals Surface) (Alpha=1.100).
 Cavity algorithm     : GePol (No added spheres)
                        Default sphere list used, NSphG=   17.
                        Lebedev-Laikov grids with approx.  5.0 points / Ang**2.
                        Smoothing algorithm: York/Karplus (Gamma=1.0000).
                        Polarization charges: spherical gaussians, with
                                              point-specific exponents (IZeta= 3).
                        Self-potential: point-specific (ISelfS= 7).
                        Self-field    : sphere-specific E.n sum rule (ISelfD= 2).
 1st derivatives      : Analytical E(r).r(x)/FMM algorithm (CHGder, D1EAlg=3).
                        Cavity 1st derivative terms included.
 Solvent              : Water, Eps=  78.355300 Eps(inf)=   1.777849
 ------------------------------------------------------------------------------
 Spheres list:
 ISph  on   Nord     Re0    Alpha      Xe            Ye            Ze
    1   C      1    1.9255  1.100     -1.337627     -1.712459      0.023560
    2   C      2    1.9255  1.100     -1.139283     -0.207458      0.344610
    3   O      3    1.7500  1.100     -2.341208      0.487372      0.011794
    4   C      4    1.9255  1.100      0.069994      0.441887     -0.396303
    5   N      5    1.8300  1.100      0.179630      1.874623     -0.073655
    6   C      6    1.9255  1.100      1.357700     -0.206224     -0.062504
    7   O      7    1.7500  1.100      2.032548     -0.783971     -0.943205
    8   O      8    1.7500  1.100      1.826116     -0.208040      1.208292
    9   H      9    1.4430  1.100     -2.200495     -2.097151      0.570324
   10   H     10    1.4430  1.100     -0.463012     -2.290700      0.326007
   11   H     11    1.4430  1.100     -1.503903     -1.857733     -1.044940
   12   H     12    1.4430  1.100     -0.998542     -0.105496      1.423559
   13   H     13    1.4430  1.100     -2.448641      0.371523     -0.956320
   14   H     14    1.4430  1.100     -0.105313      0.368331     -1.473257
   15   H     15    1.4430  1.100      0.962202      2.280900     -0.591260
   16   H     16    1.4430  1.100      0.339516      1.997610      0.928903
   17   H     17    1.4430  1.100     -0.683587      2.352991     -0.338661
 ------------------------------------------------------------------------------
 GePol: Number of generator spheres                  =      17
 GePol: Total number of spheres                      =      17
 GePol: Number of exposed spheres                    =      17 (100.00%)
 GePol: Number of points                             =    1375
 GePol: Average weight of points                     =       0.13
 GePol: Minimum weight of points                     =   0.38D-10
 GePol: Maximum weight of points                     =    0.20577
 GePol: Number of points with low weight             =      85
 GePol: Fraction of low-weight points (<1% of avg)   =       6.18%
 GePol: Cavity surface area                          =    183.043 Ang**2
 GePol: Cavity volume                                =    176.802 Ang**3
 Leave Link  301 at Mon Feb 22 20:57:19 2021, MaxMem=   104857600 cpu:               2.0 elap:               0.1
 (Enter /sw/arch/RedHatEnterpriseServer7/EB_production/2019/software/Gaussian/g16.c01/l302.exe)
 NPDir=0 NMtPBC=     1 NCelOv=     1 NCel=       1 NClECP=     1 NCelD=      1
         NCelK=      1 NCelE2=     1 NClLst=     1 CellRange=     0.0.
 One-electron integrals computed using PRISM.
 One-electron integral symmetry used in STVInt
 PrsmSu:  requested number of processors reduced to:  29 ShMem   1 Linda.
 NBasis=   206 RedAO= T EigKep=  1.93D-04  NBF=   206
 NBsUse=   206 1.00D-06 EigRej= -1.00D+00 NBFU=   206
 Precomputing XC quadrature grid using
 IXCGrd= 4 IRadAn=           5 IRanWt=          -1 IRanGd=           0 AccXCQ= 0.00D+00.
 Generated NRdTot=       0 NPtTot=           0 NUsed=           0 NTot=          32
 NSgBfM=   213   212   213   213   213 MxSgAt=    17 MxSgA2=    17.
 Leave Link  302 at Mon Feb 22 20:57:20 2021, MaxMem=   104857600 cpu:               5.9 elap:               0.2
 (Enter /sw/arch/RedHatEnterpriseServer7/EB_production/2019/software/Gaussian/g16.c01/l303.exe)
 DipDrv:  MaxL=1.
 Leave Link  303 at Mon Feb 22 20:57:20 2021, MaxMem=   104857600 cpu:               1.1 elap:               0.1
 (Enter /sw/arch/RedHatEnterpriseServer7/EB_production/2019/software/Gaussian/g16.c01/l401.exe)
 ExpMin= 9.52D-02 ExpMax= 2.70D+04 ExpMxC= 9.22D+02 IAcc=3 IRadAn=         5 AccDes= 0.00D+00
 Harris functional with IExCor=  404 and IRadAn=       5 diagonalized for initial guess.
 HarFok:  IExCor=  404 AccDes= 0.00D+00 IRadAn=         5 IDoV= 1 UseB2=F ITyADJ=14
 ICtDFT=  3500011 ScaDFX=  1.000000  1.000000  1.000000  1.000000
 FoFCou: FMM=F IPFlag=           0 FMFlag=      100000 FMFlg1=           0
         NFxFlg=           0 DoJE=T BraDBF=F KetDBF=T FulRan=T
         wScrn=  0.000000 ICntrl=       500 IOpCl=  0 I1Cent=   200000004 NGrid=           0
         NMat0=    1 NMatS0=      1 NMatT0=    0 NMatD0=    1 NMtDS0=    0 NMtDT0=    0
 Petite list used in FoFCou.
 Harris En= -438.608241933839    
 JPrj=0 DoOrth=F DoCkMO=F.
 Leave Link  401 at Mon Feb 22 20:57:20 2021, MaxMem=   104857600 cpu:              10.3 elap:               0.4
 (Enter /sw/arch/RedHatEnterpriseServer7/EB_production/2019/software/Gaussian/g16.c01/l502.exe)
 Integral symmetry usage will be decided dynamically.
 Closed shell SCF:
 Using DIIS extrapolation, IDIIS=  1040.
 NGot=   104857600 LenX=   104756478 LenY=   104710241
 Requested convergence on RMS density matrix=1.00D-08 within 128 cycles.
 Requested convergence on MAX density matrix=1.00D-06.
 Requested convergence on             energy=1.00D-06.
 No special actions if energy rises.
 Fock matrices will be formed incrementally for  20 cycles.

 Cycle   1  Pass 1  IDiag  1:
 FoFJK:  IHMeth= 1 ICntrl=     500 DoSepK=F KAlg= 0 I1Cent=           0 FoldK=F
 IRaf= 950000000 NMat=       1 IRICut=       1 DoRegI=T DoRafI=F ISym2E= 0 IDoP0=0 IntGTp=1.
 FoFCou: FMM=F IPFlag=           0 FMFlag=      100000 FMFlg1=           0
         NFxFlg=           0 DoJE=T BraDBF=F KetDBF=F FulRan=T
         wScrn=  0.000000 ICntrl=       500 IOpCl=  0 I1Cent=           0 NGrid=           0
         NMat0=    1 NMatS0=      1 NMatT0=    0 NMatD0=    1 NMtDS0=    0 NMtDT0=    0
 Symmetry not used in FoFCou.
 Inv3:  Mode=1 IEnd=     5671875.
 Iteration    1 A*A^-1 deviation from unit magnitude is 3.22D-15 for    760.
 Iteration    1 A*A^-1 deviation from orthogonality  is 2.17D-15 for   1320    542.
 Iteration    1 A^-1*A deviation from unit magnitude is 3.11D-15 for    760.
 Iteration    1 A^-1*A deviation from orthogonality  is 1.45D-15 for   1355    119.
 E= -438.177169074833    
 DIIS: error= 3.24D-02 at cycle   1 NSaved=   1.
 NSaved= 1 IEnMin= 1 EnMin= -438.177169074833     IErMin= 1 ErrMin= 3.24D-02
 ErrMax= 3.24D-02  0.00D+00 EMaxC= 1.00D-01 BMatC= 3.42D-01 BMatP= 3.42D-01
 IDIUse=3 WtCom= 6.76D-01 WtEn= 3.24D-01
 Coeff-Com:  0.100D+01
 Coeff-En:   0.100D+01
 Coeff:      0.100D+01
 Gap=     0.010 Goal=   None    Shift=    0.000
 GapD=    0.010 DampG=0.250 DampE=0.500 DampFc=0.2500 IDamp=-1.
 Damping current iteration by 2.50D-01
 RMSDP=2.92D-02 MaxDP=2.37D+00              OVMax= 5.97D-01

 Cycle   2  Pass 1  IDiag  1:
 RMSU=  7.27D-03    CP:  1.04D+00
 E= -438.254078911350     Delta-E=       -0.076909836517 Rises=F Damp=T
 DIIS: error= 1.07D-02 at cycle   2 NSaved=   2.
 NSaved= 2 IEnMin= 2 EnMin= -438.254078911350     IErMin= 2 ErrMin= 1.07D-02
 ErrMax= 1.07D-02  0.00D+00 EMaxC= 1.00D-01 BMatC= 3.39D-02 BMatP= 3.42D-01
 IDIUse=3 WtCom= 8.93D-01 WtEn= 1.07D-01
 Coeff-Com: -0.189D+00 0.119D+01
 Coeff-En:   0.199D+00 0.801D+00
 Coeff:     -0.148D+00 0.115D+01
 Gap=     0.099 Goal=   None    Shift=    0.000
 RMSDP=5.03D-03 MaxDP=2.79D-01 DE=-7.69D-02 OVMax= 4.21D-01

 Cycle   3  Pass 1  IDiag  1:
 RMSU=  3.14D-03    CP:  1.01D+00  4.62D-01
 E= -438.390180001067     Delta-E=       -0.136101089717 Rises=F Damp=F
 DIIS: error= 1.44D-02 at cycle   3 NSaved=   3.
 NSaved= 3 IEnMin= 3 EnMin= -438.390180001067     IErMin= 2 ErrMin= 1.07D-02
 ErrMax= 1.44D-02  0.00D+00 EMaxC= 1.00D-01 BMatC= 7.83D-02 BMatP= 3.39D-02
 IDIUse=2 WtCom= 0.00D+00 WtEn= 1.00D+00
 Coeff-En:   0.000D+00 0.000D+00 0.100D+01
 Coeff:      0.000D+00 0.000D+00 0.100D+01
 Gap=     0.161 Goal=   None    Shift=    0.000
 RMSDP=8.81D-03 MaxDP=3.00D-01 DE=-1.36D-01 OVMax= 5.13D-01

 Cycle   4  Pass 1  IDiag  1:
 RMSU=  6.48D-03    CP:  1.04D+00  1.08D+00 -2.43D-01
 E= -437.677333238221     Delta-E=        0.712846762846 Rises=F Damp=F
 DIIS: error= 6.31D-02 at cycle   4 NSaved=   4.
 NSaved= 4 IEnMin= 3 EnMin= -438.390180001067     IErMin= 2 ErrMin= 1.07D-02
 ErrMax= 6.31D-02  0.00D+00 EMaxC= 1.00D-01 BMatC= 8.93D-01 BMatP= 3.39D-02
 IDIUse=2 WtCom= 0.00D+00 WtEn= 1.00D+00
 Coeff-En:   0.000D+00 0.000D+00 0.867D+00 0.133D+00
 Coeff:      0.000D+00 0.000D+00 0.867D+00 0.133D+00
 Gap=     0.110 Goal=   None    Shift=    0.000
 RMSDP=6.23D-03 MaxDP=2.01D-01 DE= 7.13D-01 OVMax= 3.26D-01

 Cycle   5  Pass 1  IDiag  1:
 RMSU=  1.52D-03    CP:  1.03D+00  6.08D-01  5.36D-01  3.31D-01
 E= -438.385336887028     Delta-E=       -0.708003648807 Rises=F Damp=F
 DIIS: error= 1.69D-02 at cycle   5 NSaved=   5.
 NSaved= 5 IEnMin= 3 EnMin= -438.390180001067     IErMin= 2 ErrMin= 1.07D-02
 ErrMax= 1.69D-02  0.00D+00 EMaxC= 1.00D-01 BMatC= 8.81D-02 BMatP= 3.39D-02
 IDIUse=2 WtCom= 0.00D+00 WtEn= 1.00D+00
 Coeff-En:   0.000D+00 0.000D+00 0.512D+00 0.000D+00 0.488D+00
 Coeff:      0.000D+00 0.000D+00 0.512D+00 0.000D+00 0.488D+00
 Gap=     0.152 Goal=   None    Shift=    0.000
 RMSDP=1.78D-03 MaxDP=8.39D-02 DE=-7.08D-01 OVMax= 1.05D-01

 Cycle   6  Pass 1  IDiag  1:
 RMSU=  2.53D-04    CP:  1.02D+00  4.94D-01  7.63D-01  1.44D-01  5.87D-01
 E= -438.456553232480     Delta-E=       -0.071216345452 Rises=F Damp=F
 DIIS: error= 1.27D-03 at cycle   6 NSaved=   6.
 NSaved= 6 IEnMin= 6 EnMin= -438.456553232480     IErMin= 6 ErrMin= 1.27D-03
 ErrMax= 1.27D-03  0.00D+00 EMaxC= 1.00D-01 BMatC= 3.50D-04 BMatP= 3.39D-02
 IDIUse=3 WtCom= 9.87D-01 WtEn= 1.27D-02
 Coeff-Com: -0.391D-02-0.166D-01 0.132D+00 0.673D-02 0.131D+00 0.751D+00
 Coeff-En:   0.000D+00 0.000D+00 0.000D+00 0.000D+00 0.000D+00 0.100D+01
 Coeff:     -0.386D-02-0.163D-01 0.130D+00 0.664D-02 0.129D+00 0.754D+00
 Gap=     0.149 Goal=   None    Shift=    0.000
 RMSDP=2.03D-04 MaxDP=5.83D-03 DE=-7.12D-02 OVMax= 1.32D-02

 Cycle   7  Pass 1  IDiag  1:
 RMSU=  1.41D-04    CP:  1.02D+00  5.04D-01  7.59D-01  1.63D-01  5.78D-01
                    CP:  1.08D+00
 E= -438.456643675333     Delta-E=       -0.000090442853 Rises=F Damp=F
 DIIS: error= 1.10D-03 at cycle   7 NSaved=   7.
 NSaved= 7 IEnMin= 7 EnMin= -438.456643675333     IErMin= 7 ErrMin= 1.10D-03
 ErrMax= 1.10D-03  0.00D+00 EMaxC= 1.00D-01 BMatC= 2.68D-04 BMatP= 3.50D-04
 IDIUse=3 WtCom= 9.89D-01 WtEn= 1.10D-02
 Coeff-Com: -0.107D-01 0.913D-02 0.466D-01-0.465D-02 0.590D-01 0.459D+00
 Coeff-Com:  0.442D+00
 Coeff-En:   0.000D+00 0.000D+00 0.000D+00 0.000D+00 0.000D+00 0.428D+00
 Coeff-En:   0.572D+00
 Coeff:     -0.105D-01 0.903D-02 0.460D-01-0.460D-02 0.584D-01 0.458D+00
 Coeff:      0.443D+00
 Gap=     0.149 Goal=   None    Shift=    0.000
 RMSDP=9.16D-05 MaxDP=2.34D-03 DE=-9.04D-05 OVMax= 4.91D-03

 Cycle   8  Pass 1  IDiag  1:
 RMSU=  2.86D-05    CP:  1.02D+00  5.05D-01  7.66D-01  1.56D-01  5.93D-01
                    CP:  9.98D-01  5.58D-01
 E= -438.456846683485     Delta-E=       -0.000203008152 Rises=F Damp=F
 DIIS: error= 2.38D-04 at cycle   8 NSaved=   8.
 NSaved= 8 IEnMin= 8 EnMin= -438.456846683485     IErMin= 8 ErrMin= 2.38D-04
 ErrMax= 2.38D-04  0.00D+00 EMaxC= 1.00D-01 BMatC= 5.98D-06 BMatP= 2.68D-04
 IDIUse=3 WtCom= 9.98D-01 WtEn= 2.38D-03
 Coeff-Com: -0.457D-02 0.425D-02 0.196D-01-0.334D-02 0.258D-01 0.195D+00
 Coeff-Com:  0.190D+00 0.574D+00
 Coeff-En:   0.000D+00 0.000D+00 0.000D+00 0.000D+00 0.000D+00 0.000D+00
 Coeff-En:   0.000D+00 0.100D+01
 Coeff:     -0.456D-02 0.423D-02 0.195D-01-0.333D-02 0.258D-01 0.194D+00
 Coeff:      0.189D+00 0.575D+00
 Gap=     0.149 Goal=   None    Shift=    0.000
 RMSDP=2.25D-05 MaxDP=1.55D-03 DE=-2.03D-04 OVMax= 5.59D-04

 Cycle   9  Pass 1  IDiag  1:
 RMSU=  1.29D-05    CP:  1.02D+00  5.07D-01  7.68D-01  1.56D-01  5.92D-01
                    CP:  1.03D+00  5.92D-01  7.29D-01
 E= -438.456851131470     Delta-E=       -0.000004447984 Rises=F Damp=F
 DIIS: error= 6.14D-05 at cycle   9 NSaved=   9.
 NSaved= 9 IEnMin= 9 EnMin= -438.456851131470     IErMin= 9 ErrMin= 6.14D-05
 ErrMax= 6.14D-05  0.00D+00 EMaxC= 1.00D-01 BMatC= 1.14D-06 BMatP= 5.98D-06
 IDIUse=1 WtCom= 1.00D+00 WtEn= 0.00D+00
 Coeff-Com: -0.697D-03 0.645D-03 0.154D-02-0.164D-03-0.285D-03 0.463D-01
 Coeff-Com:  0.159D-01 0.243D+00 0.694D+00
 Coeff:     -0.697D-03 0.645D-03 0.154D-02-0.164D-03-0.285D-03 0.463D-01
 Coeff:      0.159D-01 0.243D+00 0.694D+00
 Gap=     0.149 Goal=   None    Shift=    0.000
 RMSDP=8.38D-06 MaxDP=3.64D-04 DE=-4.45D-06 OVMax= 3.79D-04

 Cycle  10  Pass 1  IDiag  1:
 RMSU=  2.67D-06    CP:  1.02D+00  5.06D-01  7.68D-01  1.55D-01  5.91D-01
                    CP:  1.03D+00  5.75D-01  7.85D-01  9.10D-01
 E= -438.456851939377     Delta-E=       -0.000000807908 Rises=F Damp=F
 DIIS: error= 1.14D-05 at cycle  10 NSaved=  10.
 NSaved=10 IEnMin=10 EnMin= -438.456851939377     IErMin=10 ErrMin= 1.14D-05
 ErrMax= 1.14D-05  0.00D+00 EMaxC= 1.00D-01 BMatC= 4.00D-08 BMatP= 1.14D-06
 IDIUse=1 WtCom= 1.00D+00 WtEn= 0.00D+00
 Coeff-Com: -0.165D-03 0.368D-04-0.134D-03 0.107D-03-0.144D-02 0.187D-01
 Coeff-Com:  0.107D-02 0.108D+00 0.380D+00 0.494D+00
 Coeff:     -0.165D-03 0.368D-04-0.134D-03 0.107D-03-0.144D-02 0.187D-01
 Coeff:      0.107D-02 0.108D+00 0.380D+00 0.494D+00
 Gap=     0.149 Goal=   None    Shift=    0.000
 RMSDP=1.09D-06 MaxDP=4.69D-05 DE=-8.08D-07 OVMax= 4.25D-05

 Cycle  11  Pass 1  IDiag  1:
 RMSU=  7.38D-07    CP:  1.02D+00  5.06D-01  7.68D-01  1.55D-01  5.91D-01
                    CP:  1.03D+00  5.75D-01  7.93D-01  9.00D-01  8.06D-01
 E= -438.456851976673     Delta-E=       -0.000000037296 Rises=F Damp=F
 DIIS: error= 3.25D-06 at cycle  11 NSaved=  11.
 NSaved=11 IEnMin=11 EnMin= -438.456851976673     IErMin=11 ErrMin= 3.25D-06
 ErrMax= 3.25D-06  0.00D+00 EMaxC= 1.00D-01 BMatC= 3.67D-09 BMatP= 4.00D-08
 IDIUse=1 WtCom= 1.00D+00 WtEn= 0.00D+00
 Coeff-Com:  0.341D-05-0.384D-04-0.193D-03 0.422D-04-0.406D-03 0.202D-02
 Coeff-Com: -0.627D-03 0.185D-01 0.766D-01 0.208D+00 0.696D+00
 Coeff:      0.341D-05-0.384D-04-0.193D-03 0.422D-04-0.406D-03 0.202D-02
 Coeff:     -0.627D-03 0.185D-01 0.766D-01 0.208D+00 0.696D+00
 Gap=     0.149 Goal=   None    Shift=    0.000
 RMSDP=5.80D-07 MaxDP=2.45D-05 DE=-3.73D-08 OVMax= 1.51D-05

 Cycle  12  Pass 1  IDiag  1:
 RMSU=  2.85D-07    CP:  1.02D+00  5.06D-01  7.68D-01  1.55D-01  5.91D-01
                    CP:  1.03D+00  5.77D-01  7.95D-01  9.11D-01  8.16D-01
                    CP:  8.98D-01
 E= -438.456851979677     Delta-E=       -0.000000003004 Rises=F Damp=F
 DIIS: error= 1.23D-06 at cycle  12 NSaved=  12.
 NSaved=12 IEnMin=12 EnMin= -438.456851979677     IErMin=12 ErrMin= 1.23D-06
 ErrMax= 1.23D-06  0.00D+00 EMaxC= 1.00D-01 BMatC= 2.58D-10 BMatP= 3.67D-09
 IDIUse=1 WtCom= 1.00D+00 WtEn= 0.00D+00
 Coeff-Com:  0.504D-05-0.576D-05-0.782D-04 0.107D-04-0.103D-03-0.296D-04
 Coeff-Com: -0.211D-03 0.425D-02 0.191D-01 0.767D-01 0.334D+00 0.567D+00
 Coeff:      0.504D-05-0.576D-05-0.782D-04 0.107D-04-0.103D-03-0.296D-04
 Coeff:     -0.211D-03 0.425D-02 0.191D-01 0.767D-01 0.334D+00 0.567D+00
 Gap=     0.149 Goal=   None    Shift=    0.000
 RMSDP=7.99D-08 MaxDP=3.30D-06 DE=-3.00D-09 OVMax= 3.10D-06

 Cycle  13  Pass 1  IDiag  1:
 RMSU=  4.32D-08    CP:  1.02D+00  5.06D-01  7.68D-01  1.55D-01  5.91D-01
                    CP:  1.03D+00  5.77D-01  7.95D-01  9.12D-01  8.31D-01
                    CP:  9.10D-01  8.34D-01
 E= -438.456851979852     Delta-E=       -0.000000000175 Rises=F Damp=F
 DIIS: error= 3.93D-07 at cycle  13 NSaved=  13.
 NSaved=13 IEnMin=13 EnMin= -438.456851979852     IErMin=13 ErrMin= 3.93D-07
 ErrMax= 3.93D-07  0.00D+00 EMaxC= 1.00D-01 BMatC= 3.64D-11 BMatP= 2.58D-10
 IDIUse=1 WtCom= 1.00D+00 WtEn= 0.00D+00
 Coeff-Com:  0.103D-05-0.217D-05-0.236D-04 0.209D-05-0.813D-05-0.188D-03
 Coeff-Com:  0.103D-03 0.202D-03 0.546D-03 0.161D-01 0.101D+00 0.317D+00
 Coeff-Com:  0.565D+00
 Coeff:      0.103D-05-0.217D-05-0.236D-04 0.209D-05-0.813D-05-0.188D-03
 Coeff:      0.103D-03 0.202D-03 0.546D-03 0.161D-01 0.101D+00 0.317D+00
 Coeff:      0.565D+00
 Gap=     0.149 Goal=   None    Shift=    0.000
 RMSDP=3.40D-08 MaxDP=8.41D-07 DE=-1.75D-10 OVMax= 2.16D-06

 Cycle  14  Pass 1  IDiag  1:
 RMSU=  1.73D-08    CP:  1.02D+00  5.06D-01  7.68D-01  1.55D-01  5.91D-01
                    CP:  1.03D+00  5.77D-01  7.95D-01  9.12D-01  8.34D-01
                    CP:  9.18D-01  8.38D-01  7.95D-01
 E= -438.456851979883     Delta-E=       -0.000000000031 Rises=F Damp=F
 DIIS: error= 6.72D-08 at cycle  14 NSaved=  14.
 NSaved=14 IEnMin=14 EnMin= -438.456851979883     IErMin=14 ErrMin= 6.72D-08
 ErrMax= 6.72D-08  0.00D+00 EMaxC= 1.00D-01 BMatC= 1.21D-12 BMatP= 3.64D-11
 IDIUse=1 WtCom= 1.00D+00 WtEn= 0.00D+00
 Coeff-Com: -0.338D-06 0.682D-06-0.599D-05 0.772D-07 0.228D-05-0.948D-04
 Coeff-Com:  0.472D-04-0.109D-03-0.547D-03 0.369D-02 0.282D-01 0.115D+00
 Coeff-Com:  0.262D+00 0.592D+00
 Coeff:     -0.338D-06 0.682D-06-0.599D-05 0.772D-07 0.228D-05-0.948D-04
 Coeff:      0.472D-04-0.109D-03-0.547D-03 0.369D-02 0.282D-01 0.115D+00
 Coeff:      0.262D+00 0.592D+00
 Gap=     0.149 Goal=   None    Shift=    0.000
 RMSDP=8.95D-09 MaxDP=2.02D-07 DE=-3.10D-11 OVMax= 2.34D-07

 Error on total polarization charges =  0.01005
 SCF Done:  E(RB-P86) =  -438.456851980     A.U. after   14 cycles
            NFock= 14  Conv=0.89D-08     -V/T= 2.0044
 KE= 4.365382313880D+02 PE=-1.838274560352D+03 EE= 5.580037015289D+02
 Leave Link  502 at Mon Feb 22 20:57:31 2021, MaxMem=   104857600 cpu:             318.4 elap:              10.2
 (Enter /sw/arch/RedHatEnterpriseServer7/EB_production/2019/software/Gaussian/g16.c01/l601.exe)
 Copying SCF densities to generalized density rwf, IOpCl= 0 IROHF=0.

 **********************************************************************

            Population analysis using the SCF Density.

 **********************************************************************

 Orbital symmetries:
       Occupied  (A) (A) (A) (A) (A) (A) (A) (A) (A) (A) (A) (A)
                 (A) (A) (A) (A) (A) (A) (A) (A) (A) (A) (A) (A)
                 (A) (A) (A) (A) (A) (A) (A) (A)
       Virtual   (A) (A) (A) (A) (A) (A) (A) (A) (A) (A) (A) (A)
                 (A) (A) (A) (A) (A) (A) (A) (A) (A) (A) (A) (A)
                 (A) (A) (A) (A) (A) (A) (A) (A) (A) (A) (A) (A)
                 (A) (A) (A) (A) (A) (A) (A) (A) (A) (A) (A) (A)
                 (A) (A) (A) (A) (A) (A) (A) (A) (A) (A) (A) (A)
                 (A) (A) (A) (A) (A) (A) (A) (A) (A) (A) (A) (A)
                 (A) (A) (A) (A) (A) (A) (A) (A) (A) (A) (A) (A)
                 (A) (A) (A) (A) (A) (A) (A) (A) (A) (A) (A) (A)
                 (A) (A) (A) (A) (A) (A) (A) (A) (A) (A) (A) (A)
                 (A) (A) (A) (A) (A) (A) (A) (A) (A) (A) (A) (A)
                 (A) (A) (A) (A) (A) (A) (A) (A) (A) (A) (A) (A)
                 (A) (A) (A) (A) (A) (A) (A) (A) (A) (A) (A) (A)
                 (A) (A) (A) (A) (A) (A) (A) (A) (A) (A) (A) (A)
                 (A) (A) (A) (A) (A) (A) (A) (A) (A) (A) (A) (A)
                 (A) (A) (A) (A) (A) (A)
 The electronic state is 1-A.
 Alpha  occ. eigenvalues --  -18.79380 -18.72154 -18.71024 -14.13410  -9.98666
 Alpha  occ. eigenvalues --   -9.97729  -9.97336  -9.89937  -0.97149  -0.95044
 Alpha  occ. eigenvalues --   -0.92951  -0.82924  -0.72720  -0.66315  -0.59022
 Alpha  occ. eigenvalues --   -0.56395  -0.54378  -0.50427  -0.47233  -0.44675
 Alpha  occ. eigenvalues --   -0.40729  -0.40102  -0.37983  -0.35563  -0.34701
 Alpha  occ. eigenvalues --   -0.34199  -0.34080  -0.30681  -0.26000  -0.21855
 Alpha  occ. eigenvalues --   -0.21412  -0.18384
 Alpha virt. eigenvalues --   -0.03505  -0.00577   0.01570   0.03923   0.04524
 Alpha virt. eigenvalues --    0.05943   0.07135   0.08236   0.09194   0.09669
 Alpha virt. eigenvalues --    0.11102   0.12514   0.13290   0.13500   0.17219
 Alpha virt. eigenvalues --    0.18439   0.19897   0.21167   0.22278   0.24027
 Alpha virt. eigenvalues --    0.24490   0.25622   0.27030   0.27804   0.31529
 Alpha virt. eigenvalues --    0.32304   0.33483   0.34277   0.36609   0.37400
 Alpha virt. eigenvalues --    0.38630   0.39516   0.40215   0.41069   0.41678
 Alpha virt. eigenvalues --    0.42254   0.43076   0.43960   0.44164   0.44483
 Alpha virt. eigenvalues --    0.46321   0.46643   0.48158   0.49196   0.51421
 Alpha virt. eigenvalues --    0.53652   0.55814   0.56331   0.56592   0.62076
 Alpha virt. eigenvalues --    0.63170   0.63519   0.66220   0.70134   0.72054
 Alpha virt. eigenvalues --    0.78632   0.80918   0.93683   1.03563   1.08724
 Alpha virt. eigenvalues --    1.13397   1.17574   1.20348   1.22833   1.24661
 Alpha virt. eigenvalues --    1.27336   1.29017   1.29209   1.30087   1.31675
 Alpha virt. eigenvalues --    1.34091   1.35926   1.37051   1.39400   1.42760
 Alpha virt. eigenvalues --    1.43612   1.46600   1.48319   1.48496   1.50756
 Alpha virt. eigenvalues --    1.53475   1.55362   1.57393   1.58471   1.59672
 Alpha virt. eigenvalues --    1.60227   1.63600   1.70465   1.72093   1.72742
 Alpha virt. eigenvalues --    1.75417   1.76778   1.79281   1.79976   1.82141
 Alpha virt. eigenvalues --    1.84734   1.85484   1.86525   1.89259   1.90375
 Alpha virt. eigenvalues --    1.95068   1.97846   2.00774   2.07287   2.08126
 Alpha virt. eigenvalues --    2.11527   2.15136   2.18514   2.20915   2.23075
 Alpha virt. eigenvalues --    2.28162   2.29615   2.33433   2.37508   2.41811
 Alpha virt. eigenvalues --    2.44616   2.47032   2.47893   2.50086   2.52469
 Alpha virt. eigenvalues --    2.53880   2.54793   2.56537   2.57064   2.57763
 Alpha virt. eigenvalues --    2.59420   2.60275   2.60980   2.62226   2.63357
 Alpha virt. eigenvalues --    2.64319   2.65693   2.66322   2.69714   2.70550
 Alpha virt. eigenvalues --    2.74171   2.74846   2.76869   2.77759   2.80085
 Alpha virt. eigenvalues --    2.83851   2.85711   2.89608   2.93650   2.97248
 Alpha virt. eigenvalues --    3.02053   3.02431   3.06016   3.08773   3.10331
 Alpha virt. eigenvalues --    3.11575   3.13987   3.22200   3.25021   3.27849
 Alpha virt. eigenvalues --    3.29114   3.34087   3.38055   3.47760   3.66909
 Alpha virt. eigenvalues --    3.76817   3.77868   3.88772   3.97035   4.10552
 Alpha virt. eigenvalues --    4.16131  21.68445  21.76034  21.78311  21.80751
 Alpha virt. eigenvalues --   31.35642  43.12525  43.17457  43.22838
          Condensed to atoms (all electrons):
               1          2          3          4          5          6
     1  C    5.171042   0.181114  -0.049431  -0.032677   0.020169   0.023456
     2  C    0.181114   5.751193   0.201855  -0.130506  -0.010357  -0.036140
     3  O   -0.049431   0.201855   7.987535  -0.037213  -0.005417   0.015010
     4  C   -0.032677  -0.130506  -0.037213   6.745989  -0.013761  -0.309954
     5  N    0.020169  -0.010357  -0.005417  -0.013761   6.274603   0.008633
     6  C    0.023456  -0.036140   0.015010  -0.309954   0.008633   5.192011
     7  O    0.013895  -0.035260  -0.000166  -0.144742  -0.004909   0.578899
     8  O   -0.012765  -0.016906  -0.000152  -0.146716  -0.011220   0.524301
     9  H    0.409225  -0.047766   0.003042   0.015065  -0.000304  -0.000603
    10  H    0.370134  -0.023571   0.006898  -0.007596  -0.000853   0.006019
    11  H    0.373713   0.001119  -0.007631  -0.020229  -0.000563  -0.005376
    12  H   -0.043560   0.289120  -0.047157   0.032964  -0.028068  -0.016724
    13  H   -0.012379  -0.037260   0.290356   0.006594  -0.003965  -0.003298
    14  H   -0.005717  -0.032398  -0.016077   0.342420  -0.047545  -0.024977
    15  H   -0.000211   0.008890  -0.000204  -0.051572   0.361683   0.014182
    16  H    0.001437  -0.028749   0.000009   0.009753   0.316961  -0.001198
    17  H    0.001388  -0.021488   0.025083  -0.010122   0.344340   0.004402
               7          8          9         10         11         12
     1  C    0.013895  -0.012765   0.409225   0.370134   0.373713  -0.043560
     2  C   -0.035260  -0.016906  -0.047766  -0.023571   0.001119   0.289120
     3  O   -0.000166  -0.000152   0.003042   0.006898  -0.007631  -0.047157
     4  C   -0.144742  -0.146716   0.015065  -0.007596  -0.020229   0.032964
     5  N   -0.004909  -0.011220  -0.000304  -0.000853  -0.000563  -0.028068
     6  C    0.578899   0.524301  -0.000603   0.006019  -0.005376  -0.016724
     7  O    8.133429  -0.171392   0.000077  -0.002672  -0.000233   0.002504
     8  O   -0.171392   8.272067  -0.000065   0.003738   0.000696   0.025282
     9  H    0.000077  -0.000065   0.508916  -0.019043  -0.024165  -0.007925
    10  H   -0.002672   0.003738  -0.019043   0.532692  -0.020486   0.000261
    11  H   -0.000233   0.000696  -0.024165  -0.020486   0.536729   0.008005
    12  H    0.002504   0.025282  -0.007925   0.000261   0.008005   0.594569
    13  H   -0.000026  -0.000045  -0.000623   0.000443   0.005631   0.010622
    14  H    0.023825   0.011014  -0.000075   0.001793   0.004970   0.011053
    15  H    0.002398   0.001641   0.000018  -0.000005  -0.000009  -0.000839
    16  H    0.001530   0.020758  -0.000037  -0.000039  -0.000042   0.010811
    17  H   -0.000972  -0.000607  -0.000063  -0.000237  -0.000024  -0.000957
              13         14         15         16         17
     1  C   -0.012379  -0.005717  -0.000211   0.001437   0.001388
     2  C   -0.037260  -0.032398   0.008890  -0.028749  -0.021488
     3  O    0.290356  -0.016077  -0.000204   0.000009   0.025083
     4  C    0.006594   0.342420  -0.051572   0.009753  -0.010122
     5  N   -0.003965  -0.047545   0.361683   0.316961   0.344340
     6  C   -0.003298  -0.024977   0.014182  -0.001198   0.004402
     7  O   -0.000026   0.023825   0.002398   0.001530  -0.000972
     8  O   -0.000045   0.011014   0.001641   0.020758  -0.000607
     9  H   -0.000623  -0.000075   0.000018  -0.000037  -0.000063
    10  H    0.000443   0.001793  -0.000005  -0.000039  -0.000237
    11  H    0.005631   0.004970  -0.000009  -0.000042  -0.000024
    12  H    0.010622   0.011053  -0.000839   0.010811  -0.000957
    13  H    0.441242   0.006681  -0.000196   0.000052   0.000029
    14  H    0.006681   0.509826  -0.003866   0.006586  -0.009008
    15  H   -0.000196  -0.003866   0.363326  -0.011682  -0.013534
    16  H    0.000052   0.006586  -0.011682   0.371475  -0.009329
    17  H    0.000029  -0.009008  -0.013534  -0.009329   0.375567
 Mulliken charges:
               1
     1  C   -0.408833
     2  C   -0.012888
     3  O   -0.366339
     4  C   -0.247697
     5  N   -0.199428
     6  C    0.031359
     7  O   -0.396183
     8  O   -0.499629
     9  H    0.164329
    10  H    0.152523
    11  H    0.147896
    12  H    0.160039
    13  H    0.296142
    14  H    0.221492
    15  H    0.329981
    16  H    0.311705
    17  H    0.315531
 Sum of Mulliken charges =  -0.00000
 Mulliken charges with hydrogens summed into heavy atoms:
               1
     1  C    0.055914
     2  C    0.147152
     3  O   -0.070197
     4  C   -0.026204
     5  N    0.757789
     6  C    0.031359
     7  O   -0.396183
     8  O   -0.499629
 Electronic spatial extent (au):  <R**2>=           1031.8913
 Charge=             -0.0000 electrons
 Dipole moment (field-independent basis, Debye):
    X=             -8.4564    Y=              9.0918    Z=             -3.2193  Tot=             12.8271
 Quadrupole moment (field-independent basis, Debye-Ang):
   XX=            -69.7949   YY=            -32.4103   ZZ=            -51.8742
   XY=             10.3616   XZ=              1.6087   YZ=             -3.4138
 Traceless Quadrupole moment (field-independent basis, Debye-Ang):
   XX=            -18.4351   YY=             18.9495   ZZ=             -0.5144
   XY=             10.3616   XZ=              1.6087   YZ=             -3.4138
 Octapole moment (field-independent basis, Debye-Ang**2):
  XXX=            -38.3737  YYY=             51.3270  ZZZ=             -7.2939  XYY=             -2.2417
  XXY=             15.4296  XXZ=            -14.3633  XZZ=            -22.9504  YZZ=             12.3450
  YYZ=             -1.1138  XYZ=             -1.5906
 Hexadecapole moment (field-independent basis, Debye-Ang**3):
 XXXX=           -844.8116 YYYY=           -291.5945 ZZZZ=           -181.1041 XXXY=             40.6111
 XXXZ=             23.3074 YYYX=             12.0434 YYYZ=            -11.4405 ZZZX=             -0.2086
 ZZZY=             -1.0853 XXYY=           -182.1875 XXZZ=           -166.4121 YYZZ=            -85.5176
 XXYZ=            -16.8633 YYXZ=              1.8705 ZZXY=              7.1777
 N-N= 4.052757754552D+02 E-N=-1.838274562053D+03  KE= 4.365382313880D+02
 No NMR shielding tensors so no spin-rotation constants.
 Leave Link  601 at Mon Feb 22 20:57:31 2021, MaxMem=   104857600 cpu:               6.3 elap:               0.3
 (Enter /sw/arch/RedHatEnterpriseServer7/EB_production/2019/software/Gaussian/g16.c01/l701.exe)
 ... and contract with generalized density number  0.
 Compute integral first derivatives.
 R6Disp: Adding Grimme-D3 dispersion energy 1st derivatives to the gradient.
 PrsmSu:  requested number of processors reduced to:  29 ShMem   1 Linda.
 D1PCM: PCM CHGder 1st derivatives, ID1Alg=3 FixD1E=F DoIter=F DoCFld=F I1PDM=0.
 GePol: Maximum number of non-zero 1st derivatives   =     222
 CoulSu:  requested number of processors reduced to:  29 ShMem   1 Linda.
 CoulSu:  requested number of processors reduced to:  30 ShMem   1 Linda.
 Leave Link  701 at Mon Feb 22 20:57:32 2021, MaxMem=   104857600 cpu:              21.8 elap:               0.8
 (Enter /sw/arch/RedHatEnterpriseServer7/EB_production/2019/software/Gaussian/g16.c01/l702.exe)
 L702 exits ... SP integral derivatives will be done elsewhere.
 Leave Link  702 at Mon Feb 22 20:57:32 2021, MaxMem=   104857600 cpu:               0.6 elap:               0.0
 (Enter /sw/arch/RedHatEnterpriseServer7/EB_production/2019/software/Gaussian/g16.c01/l703.exe)
 Integral derivatives from FoFJK, PRISM(SPDF).
 Compute integral first derivatives, UseDBF=F ICtDFT=           0.
 Calling FoFJK, ICntrl=      2527 FMM=F ISym2X=0 I1Cent= 0 IOpClX= 0 NMat=1 NMatS=1 NMatT=0.
 FoFJK:  IHMeth= 1 ICntrl=    2527 DoSepK=F KAlg= 0 I1Cent=           0 FoldK=F
 IRaf=         0 NMat=       1 IRICut=       1 DoRegI=T DoRafI=F ISym2E= 0 IDoP0=0 IntGTp=1.
 FoFCou: FMM=F IPFlag=           0 FMFlag=      100000 FMFlg1=         800
         NFxFlg=           0 DoJE=F BraDBF=F KetDBF=F FulRan=T
         wScrn=  0.000000 ICntrl=      2527 IOpCl=  0 I1Cent=           0 NGrid=           0
         NMat0=    1 NMatS0=      1 NMatT0=    0 NMatD0=    1 NMtDS0=    0 NMtDT0=    0
 Symmetry not used in FoFCou.
 Leave Link  703 at Mon Feb 22 20:57:33 2021, MaxMem=   104857600 cpu:              38.2 elap:               1.2
 (Enter /sw/arch/RedHatEnterpriseServer7/EB_production/2019/software/Gaussian/g16.c01/l716.exe)
 Dipole        =-3.32699064D+00 3.57700012D+00-1.26656035D+00
 ***** Axes restored to original set *****
 -------------------------------------------------------------------
 Center     Atomic                   Forces (Hartrees/Bohr)
 Number     Number              X              Y              Z
 -------------------------------------------------------------------
      1        6           0.013187322    0.000406577    0.011166277
      2        6          -0.010896775    0.009023370   -0.006947044
      3        8          -0.000856118   -0.008444630    0.010837146
      4        6          -0.019393111   -0.004466999   -0.021082783
      5        7          -0.000159610   -0.008643306    0.001288405
      6        6           0.081761422    0.070259274   -0.030590839
      7        8          -0.024468762   -0.005274580    0.009873427
      8        8          -0.050894820   -0.038119614    0.020359500
      9        1           0.000464378   -0.004116490   -0.002119355
     10        1           0.001543047    0.005781712   -0.000117124
     11        1          -0.005288734    0.001400174    0.002989204
     12        1           0.005629624   -0.002393027    0.000540818
     13        1           0.000437837   -0.005111633   -0.003951274
     14        1          -0.002627074    0.000458310    0.002974377
     15        1           0.003491484   -0.001682468    0.006190918
     16        1           0.008804633    0.000456581   -0.002246594
     17        1          -0.000734743   -0.009533252    0.000834943
 -------------------------------------------------------------------
 Cartesian Forces:  Max     0.081761422 RMS     0.019710055
 Leave Link  716 at Mon Feb 22 20:57:33 2021, MaxMem=   104857600 cpu:               1.1 elap:               0.1
 (Enter /sw/arch/RedHatEnterpriseServer7/EB_production/2019/software/Gaussian/g16.c01/l103.exe)

 GradGradGradGradGradGradGradGradGradGradGradGradGradGradGradGradGradGrad
 Berny optimization.
 FormGI is forming the generalized inverse of G from B-inverse, IUseBI=4.
 Internal  Forces:  Max     0.058081798 RMS     0.011132722
 Search for a local minimum.
 Step number   1 out of a maximum of   90
 All quantities printed in internal units (Hartrees-Bohrs-Radians)
 RMS Force = .11133D-01 SwitMx=.10000D-02 MixMth= 1
 Mixed Optimization -- RFO/linear search
 Second derivative matrix not updated -- first step.
 ITU=  0
     Eigenvalues ---    0.00230   0.00230   0.00730   0.01034   0.01035
     Eigenvalues ---    0.01326   0.03985   0.04156   0.04678   0.04808
     Eigenvalues ---    0.05487   0.05605   0.05966   0.06031   0.06031
     Eigenvalues ---    0.07564   0.16000   0.16000   0.16000   0.16000
     Eigenvalues ---    0.16000   0.16000   0.16000   0.16625   0.17079
     Eigenvalues ---    0.18095   0.19840   0.25000   0.25000   0.26835
     Eigenvalues ---    0.27516   0.34399   0.34485   0.34598   0.34634
     Eigenvalues ---    0.34671   0.34689   0.35419   0.41329   0.43918
     Eigenvalues ---    0.43950   0.44042   0.51206   0.54100   0.82892
 RFO step:  Lambda=-2.96774840D-02 EMin= 2.30000000D-03
 Linear search not attempted -- first point.
 Iteration  1 RMS(Cart)=  0.05801542 RMS(Int)=  0.00372808
 Iteration  2 RMS(Cart)=  0.00356030 RMS(Int)=  0.00028871
 Iteration  3 RMS(Cart)=  0.00002094 RMS(Int)=  0.00028828
 Iteration  4 RMS(Cart)=  0.00000000 RMS(Int)=  0.00028828
 ITry= 1 IFail=0 DXMaxC= 2.49D-01 DCOld= 1.00D+10 DXMaxT= 3.00D-01 DXLimC= 3.00D+00 Rises=F
 Variable       Old X    -DE/DX   Delta X   Delta X   Delta X     New X
                                 (Linear)    (Quad)   (Total)
    R1        2.93209  -0.01028   0.00000  -0.03374  -0.03374   2.89835
    R2        2.06273   0.00353   0.00000   0.00940   0.00940   2.07213
    R3        2.06213   0.00583   0.00000   0.01549   0.01549   2.07762
    R4        2.06183   0.00619   0.00000   0.01644   0.01644   2.07827
    R5        2.69786   0.01282   0.00000   0.02893   0.02893   2.72680
    R6        2.94758  -0.01088   0.00000  -0.03651  -0.03651   2.91108
    R7        2.06520   0.00489   0.00000   0.01306   0.01306   2.07826
    R8        1.85367  -0.00317   0.00000  -0.00585  -0.00585   1.84783
    R9        2.78301   0.02201   0.00000   0.05735   0.05735   2.84035
   R10        2.79632   0.02673   0.00000   0.07117   0.07117   2.86749
   R11        2.06661   0.00379   0.00000   0.01015   0.01015   2.07677
   R12        1.93214   0.00563   0.00000   0.01200   0.01200   1.94414
   R13        1.93253   0.00869   0.00000   0.01853   0.01853   1.95106
   R14        1.93104   0.00881   0.00000   0.01873   0.01873   1.94977
   R15        2.36393   0.01001   0.00000   0.01166   0.01166   2.37558
   R16        2.55940  -0.05808   0.00000  -0.10178  -0.10178   2.45763
    A1        1.91692  -0.00440   0.00000  -0.02372  -0.02372   1.89320
    A2        1.93283   0.00161   0.00000   0.00989   0.00992   1.94275
    A3        1.92972   0.00053   0.00000   0.00187   0.00183   1.93155
    A4        1.88388   0.00181   0.00000   0.01136   0.01143   1.89531
    A5        1.89985   0.00146   0.00000   0.00493   0.00487   1.90472
    A6        1.89971  -0.00094   0.00000  -0.00400  -0.00402   1.89569
    A7        1.89254   0.01150   0.00000   0.06707   0.06694   1.95948
    A8        1.98736  -0.01032   0.00000  -0.04075  -0.04074   1.94662
    A9        1.88730   0.00315   0.00000   0.01989   0.01903   1.90632
   A10        1.91703  -0.00130   0.00000  -0.00478  -0.00415   1.91288
   A11        1.86834  -0.00391   0.00000  -0.02092  -0.02203   1.84630
   A12        1.90740   0.00127   0.00000  -0.01905  -0.01915   1.88825
   A13        1.83880   0.00949   0.00000   0.05006   0.05006   1.88885
   A14        1.93762  -0.00968   0.00000  -0.05532  -0.05526   1.88237
   A15        1.96620   0.00149   0.00000   0.00046   0.00037   1.96657
   A16        1.89178   0.00227   0.00000   0.01039   0.01048   1.90226
   A17        1.88798   0.00492   0.00000   0.01721   0.01666   1.90465
   A18        1.86828   0.00226   0.00000   0.01622   0.01601   1.88429
   A19        1.90941  -0.00118   0.00000   0.01251   0.01218   1.92159
   A20        1.90990   0.00565   0.00000   0.03060   0.03033   1.94023
   A21        1.92135  -0.00130   0.00000  -0.01000  -0.00990   1.91145
   A22        1.91317   0.00389   0.00000   0.02286   0.02257   1.93575
   A23        1.90588  -0.00322   0.00000  -0.02161  -0.02149   1.88438
   A24        1.90632  -0.00341   0.00000  -0.01158  -0.01220   1.89412
   A25        1.90711  -0.00169   0.00000  -0.01054  -0.01046   1.89665
   A26        2.10939  -0.01144   0.00000  -0.04073  -0.04098   2.06841
   A27        2.10972  -0.03620   0.00000  -0.12926  -0.12950   1.98022
   A28        2.06393   0.04766   0.00000   0.17061   0.17036   2.23429
    D1       -0.99691  -0.00071   0.00000   0.00291   0.00231  -0.99460
    D2       -3.13654  -0.00052   0.00000  -0.01281  -0.01276   3.13389
    D3        1.02320   0.00238   0.00000   0.02394   0.02438   1.04758
    D4       -3.07601  -0.00115   0.00000  -0.00227  -0.00281  -3.07882
    D5        1.06755  -0.00096   0.00000  -0.01799  -0.01788   1.04967
    D6       -1.05590   0.00193   0.00000   0.01876   0.01926  -1.03664
    D7        1.10003  -0.00138   0.00000  -0.00504  -0.00559   1.09444
    D8       -1.03960  -0.00120   0.00000  -0.02075  -0.02066  -1.06025
    D9        3.12014   0.00170   0.00000   0.01600   0.01649   3.13662
   D10       -1.09810   0.00595   0.00000   0.05227   0.05172  -1.04638
   D11        1.08367  -0.00007   0.00000   0.04333   0.04342   1.12709
   D12       -3.13048  -0.00152   0.00000   0.00588   0.00635  -3.12413
   D13        3.11660   0.00216   0.00000   0.02296   0.02260   3.13920
   D14       -1.04610   0.00255   0.00000   0.00545   0.00537  -1.04072
   D15        1.06933   0.00359   0.00000   0.02866   0.02841   1.09774
   D16        0.99047  -0.00458   0.00000  -0.03204  -0.03219   0.95828
   D17        3.11096  -0.00419   0.00000  -0.04955  -0.04941   3.06154
   D18       -1.05681  -0.00316   0.00000  -0.02634  -0.02637  -1.08318
   D19       -1.05431   0.00017   0.00000   0.00719   0.00730  -1.04701
   D20        1.06618   0.00056   0.00000  -0.01032  -0.00993   1.05626
   D21       -3.10158   0.00159   0.00000   0.01289   0.01312  -3.08846
   D22       -3.11413  -0.00002   0.00000   0.00832   0.00815  -3.10597
   D23        1.07436   0.00121   0.00000   0.02197   0.02201   1.09637
   D24       -1.02392   0.00165   0.00000   0.02682   0.02703  -0.99689
   D25        1.00337   0.00110   0.00000   0.03225   0.03214   1.03551
   D26       -1.09133   0.00232   0.00000   0.04590   0.04600  -1.04533
   D27        3.09358   0.00276   0.00000   0.05075   0.05102  -3.13859
   D28       -1.05256  -0.00128   0.00000  -0.00002  -0.00032  -1.05289
   D29        3.13592  -0.00005   0.00000   0.01363   0.01353  -3.13373
   D30        1.03765   0.00038   0.00000   0.01848   0.01855   1.05620
   D31        2.04654   0.00298   0.00000   0.01070   0.01083   2.05737
   D32       -1.07644   0.00132   0.00000  -0.03068  -0.03055  -1.10699
   D33       -2.08820  -0.00484   0.00000  -0.04703  -0.04719  -2.13538
   D34        1.07201  -0.00649   0.00000  -0.08841  -0.08857   0.98345
   D35       -0.05880  -0.00006   0.00000  -0.01143  -0.01140  -0.07020
   D36        3.10141  -0.00171   0.00000  -0.05281  -0.05278   3.04863
         Item               Value     Threshold  Converged?
 Maximum Force            0.058082     0.000450     NO 
 RMS     Force            0.011133     0.000300     NO 
 Maximum Displacement     0.249029     0.001800     NO 
 RMS     Displacement     0.057843     0.001200     NO 
 Predicted change in Energy=-1.666093D-02
 Lowest energy point so far.  Saving SCF results.
 GradGradGradGradGradGradGradGradGradGradGradGradGradGradGradGradGradGrad

 Leave Link  103 at Mon Feb 22 20:57:34 2021, MaxMem=   104857600 cpu:               5.8 elap:               0.2
 (Enter /sw/arch/RedHatEnterpriseServer7/EB_production/2019/software/Gaussian/g16.c01/l202.exe)
                          Input orientation:                          
 ---------------------------------------------------------------------
 Center     Atomic      Atomic             Coordinates (Angstroms)
 Number     Number       Type             X           Y           Z
 ---------------------------------------------------------------------
      1          6           0       -1.324692    1.129698   -2.675185
      2          6           0       -0.447897    0.189819   -1.838397
      3          8           0       -1.030038   -1.123340   -1.701071
      4          6           0       -0.161444    0.776577   -0.443147
      5          7           0        0.695697   -0.206986    0.303227
      6          6           0        0.554867    2.112782   -0.506254
      7          8           0       -0.020439    3.125011   -0.032200
      8          8           0        1.737583    2.041350   -1.042383
      9          1           0       -1.490043    0.668864   -3.656335
     10          1           0       -0.837733    2.104227   -2.823206
     11          1           0       -2.295761    1.293250   -2.185514
     12          1           0        0.513188    0.038870   -2.351254
     13          1           0       -1.898208   -1.028488   -1.261263
     14          1           0       -1.109775    0.881840    0.102144
     15          1           0        0.890697    0.120420    1.258842
     16          1           0        1.598233   -0.318541   -0.185596
     17          1           0        0.234745   -1.128321    0.360031
 ---------------------------------------------------------------------
                    Distance matrix (angstroms):
                    1          2          3          4          5
     1  C    0.000000
     2  C    1.533740   0.000000
     3  O    2.472226   1.442960   0.000000
     4  C    2.541621   1.540475   2.438548   0.000000
     5  N    3.839223   2.460043   2.799121   1.503050   0.000000
     6  C    3.033721   2.545177   3.796314   1.517408   2.460978
     7  O    3.559174   3.472812   4.674709   2.388284   3.424553
     8  O    3.588131   2.972899   4.255451   2.359033   2.819789
     9  H    1.096524   2.149524   2.691962   3.478701   4.606811
    10  H    1.099429   2.187871   3.422478   2.807971   4.179437
    11  H    1.099774   2.180058   2.770676   2.803231   4.170535
    12  H    2.161629   1.099769   2.038385   2.154115   2.672082
    13  H    2.643079   1.980091   0.977828   2.635133   3.138605
    14  H    2.796637   2.163949   2.697905   1.098979   2.117949
    15  H    4.626355   3.374839   3.741290   2.105780   1.028795
    16  H    4.103528   2.678960   3.138817   2.088559   1.032455
    17  H    4.091825   2.652655   2.418231   2.104922   1.031776
                    6          7          8          9         10
     6  C    0.000000
     7  O    1.257105   0.000000
     8  O    1.300521   2.299008   0.000000
     9  H    4.023627   4.618089   4.374247   0.000000
    10  H    2.703271   3.082155   3.131699   1.783222   0.000000
    11  H    3.408464   3.628939   4.258435   1.789512   1.786107
    12  H    2.776126   3.897055   2.687418   2.472462   2.512653
    13  H    4.056500   4.721035   4.763485   2.963777   3.657619
    14  H    2.157869   2.497302   3.280527   3.783666   3.182123
    15  H    2.682881   3.394779   3.114936   5.488869   4.856549
    16  H    2.665101   3.808107   2.514476   4.749574   4.331365
    17  H    3.370115   4.278995   3.777844   4.726094   4.661820
                   11         12         13         14         15
    11  H    0.000000
    12  H    3.080768   0.000000
    13  H    2.530367   2.853447   0.000000
    14  H    2.609444   3.060027   2.475855   0.000000
    15  H    4.836593   3.630696   3.930510   2.433023   0.000000
    16  H    4.664840   2.448497   3.726417   2.976074   1.667242
    17  H    4.329811   2.964950   2.681053   2.432075   1.672570
                   16         17
    16  H    0.000000
    17  H    1.677066   0.000000
 Stoichiometry    C4H9NO3
 Framework group  C1[X(C4H9NO3)]
 Deg. of freedom    45
 Full point group                 C1      NOp   1
 RotChk:  IX=0 Diff= 9.58D-02
 Largest Abelian subgroup         C1      NOp   1
 Largest concise Abelian subgroup C1      NOp   1
                         Standard orientation:                         
 ---------------------------------------------------------------------
 Center     Atomic      Atomic             Coordinates (Angstroms)
 Number     Number       Type             X           Y           Z
 ---------------------------------------------------------------------
      1          6           0       -1.194006   -1.760886    0.078161
      2          6           0       -1.115147   -0.249788    0.328606
      3          8           0       -2.339652    0.427505   -0.023524
      4          6           0        0.064585    0.388142   -0.429246
      5          7           0        0.062168    1.861052   -0.129759
      6          6           0        1.404617   -0.198947   -0.026544
      7          8           0        2.087527   -0.790624   -0.900536
      8          8           0        1.708785    0.012358    1.220126
      9          1           0       -2.042229   -2.163165    0.644777
     10          1           0       -0.277648   -2.269357    0.410561
     11          1           0       -1.343264   -1.969879   -0.991207
     12          1           0       -0.971157   -0.067930    1.403633
     13          1           0       -2.511130    0.274793   -0.974009
     14          1           0       -0.093882    0.261659   -1.509359
     15          1           0        0.813194    2.345072   -0.639762
     16          1           0        0.217186    2.007925    0.880370
     17          1           0       -0.839817    2.288484   -0.391079
 ---------------------------------------------------------------------
 Rotational constants (GHZ):           2.8249642           1.5631352           1.2486092
 Leave Link  202 at Mon Feb 22 20:57:34 2021, MaxMem=   104857600 cpu:               1.1 elap:               0.1
 (Enter /sw/arch/RedHatEnterpriseServer7/EB_production/2019/software/Gaussian/g16.c01/l301.exe)
 Standard basis: TZVP (5D, 7F)
 Ernie: Thresh=  0.10000D-02 Tol=  0.10000D-05 Strict=F.
 There are   214 symmetry adapted cartesian basis functions of A   symmetry.
 There are   206 symmetry adapted basis functions of A   symmetry.
   206 basis functions,   352 primitive gaussians,   214 cartesian basis functions
    32 alpha electrons       32 beta electrons
       nuclear repulsion energy       407.0085261796 Hartrees.
 IExCor=  404 DFT=T Ex=B Corr=P86 ExCW=0 ScaHFX=  0.000000
 ScaDFX=  1.000000  1.000000  1.000000  1.000000 ScalE2=  1.000000  1.000000
 IRadAn=      5 IRanWt=     -1 IRanGd=            0 ICorTp=0 IEmpDi=131
 NAtoms=   17 NActive=   17 NUniq=   17 SFac= 1.00D+00 NAtFMM=   60 NAOKFM=F Big=F
 Integral buffers will be    131072 words long.
 Raffenetti 2 integral format.
 Two-electron integral symmetry is turned on.
 R6Disp:  Grimme-D3 Dispersion energy=       -0.0179334741 Hartrees.
 Nuclear repulsion after empirical dispersion term =      406.9905927055 Hartrees.
 ------------------------------------------------------------------------------
 Polarizable Continuum Model (PCM)
 =================================
 Model                : PCM.
 Atomic radii         : UFF (Universal Force Field).
 Polarization charges : Total charges.
 Charge compensation  : None.
 Solution method      : On-the-fly selection.
 Cavity type          : Scaled VdW (van der Waals Surface) (Alpha=1.100).
 Cavity algorithm     : GePol (No added spheres)
                        Default sphere list used, NSphG=   17.
                        Lebedev-Laikov grids with approx.  5.0 points / Ang**2.
                        Smoothing algorithm: York/Karplus (Gamma=1.0000).
                        Polarization charges: spherical gaussians, with
                                              point-specific exponents (IZeta= 3).
                        Self-potential: point-specific (ISelfS= 7).
                        Self-field    : sphere-specific E.n sum rule (ISelfD= 2).
 1st derivatives      : Analytical E(r).r(x)/FMM algorithm (CHGder, D1EAlg=3).
                        Cavity 1st derivative terms included.
 Solvent              : Water, Eps=  78.355300 Eps(inf)=   1.777849
 ------------------------------------------------------------------------------
 Spheres list:
 ISph  on   Nord     Re0    Alpha      Xe            Ye            Ze
    1   C      1    1.9255  1.100     -1.194006     -1.760886      0.078161
    2   C      2    1.9255  1.100     -1.115147     -0.249788      0.328606
    3   O      3    1.7500  1.100     -2.339652      0.427505     -0.023524
    4   C      4    1.9255  1.100      0.064585      0.388142     -0.429246
    5   N      5    1.8300  1.100      0.062168      1.861052     -0.129759
    6   C      6    1.9255  1.100      1.404617     -0.198947     -0.026544
    7   O      7    1.7500  1.100      2.087527     -0.790624     -0.900536
    8   O      8    1.7500  1.100      1.708785      0.012358      1.220126
    9   H      9    1.4430  1.100     -2.042229     -2.163165      0.644777
   10   H     10    1.4430  1.100     -0.277648     -2.269357      0.410561
   11   H     11    1.4430  1.100     -1.343264     -1.969879     -0.991207
   12   H     12    1.4430  1.100     -0.971157     -0.067930      1.403633
   13   H     13    1.4430  1.100     -2.511130      0.274793     -0.974009
   14   H     14    1.4430  1.100     -0.093882      0.261659     -1.509359
   15   H     15    1.4430  1.100      0.813194      2.345072     -0.639762
   16   H     16    1.4430  1.100      0.217186      2.007925      0.880370
   17   H     17    1.4430  1.100     -0.839817      2.288484     -0.391079
 ------------------------------------------------------------------------------
 GePol: Number of generator spheres                  =      17
 GePol: Total number of spheres                      =      17
 GePol: Number of exposed spheres                    =      17 (100.00%)
 GePol: Number of points                             =    1357
 GePol: Average weight of points                     =       0.13
 GePol: Minimum weight of points                     =   0.52D-07
 GePol: Maximum weight of points                     =    0.20577
 GePol: Number of points with low weight             =      68
 GePol: Fraction of low-weight points (<1% of avg)   =       5.01%
 GePol: Cavity surface area                          =    181.546 Ang**2
 GePol: Cavity volume                                =    176.064 Ang**3
 Leave Link  301 at Mon Feb 22 20:57:34 2021, MaxMem=   104857600 cpu:               1.9 elap:               0.1
 (Enter /sw/arch/RedHatEnterpriseServer7/EB_production/2019/software/Gaussian/g16.c01/l302.exe)
 NPDir=0 NMtPBC=     1 NCelOv=     1 NCel=       1 NClECP=     1 NCelD=      1
         NCelK=      1 NCelE2=     1 NClLst=     1 CellRange=     0.0.
 One-electron integrals computed using PRISM.
 One-electron integral symmetry used in STVInt
 PrsmSu:  requested number of processors reduced to:  29 ShMem   1 Linda.
 NBasis=   206 RedAO= T EigKep=  1.77D-04  NBF=   206
 NBsUse=   206 1.00D-06 EigRej= -1.00D+00 NBFU=   206
 Precomputing XC quadrature grid using
 IXCGrd= 4 IRadAn=           5 IRanWt=          -1 IRanGd=           0 AccXCQ= 0.00D+00.
 Generated NRdTot=       0 NPtTot=           0 NUsed=           0 NTot=          32
 NSgBfM=   213   213   213   213   213 MxSgAt=    17 MxSgA2=    17.
 Leave Link  302 at Mon Feb 22 20:57:34 2021, MaxMem=   104857600 cpu:               5.7 elap:               0.2
 (Enter /sw/arch/RedHatEnterpriseServer7/EB_production/2019/software/Gaussian/g16.c01/l303.exe)
 DipDrv:  MaxL=1.
 Leave Link  303 at Mon Feb 22 20:57:34 2021, MaxMem=   104857600 cpu:               2.1 elap:               0.1
 (Enter /sw/arch/RedHatEnterpriseServer7/EB_production/2019/software/Gaussian/g16.c01/l401.exe)
 Initial guess from the checkpoint file:  "AYFVYJQAPQTCCC-STHAYSLISA-N.chk"
 B after Tr=    -0.000000    0.000000    0.000000
         Rot=    0.999391    0.024297    0.007132   -0.023998 Ang=   4.00 deg.
 Guess basis will be translated and rotated to current coordinates.
 JPrj=2 DoOrth=T DoCkMO=T.
 Generating alternative initial guess.
 ExpMin= 9.52D-02 ExpMax= 2.70D+04 ExpMxC= 9.22D+02 IAcc=3 IRadAn=         5 AccDes= 0.00D+00
 Harris functional with IExCor=  404 and IRadAn=       5 diagonalized for initial guess.
 HarFok:  IExCor=  404 AccDes= 0.00D+00 IRadAn=         5 IDoV= 1 UseB2=F ITyADJ=14
 ICtDFT=  3500011 ScaDFX=  1.000000  1.000000  1.000000  1.000000
 FoFCou: FMM=F IPFlag=           0 FMFlag=      100000 FMFlg1=           0
         NFxFlg=           0 DoJE=T BraDBF=F KetDBF=T FulRan=T
         wScrn=  0.000000 ICntrl=       500 IOpCl=  0 I1Cent=   200000004 NGrid=           0
         NMat0=    1 NMatS0=      1 NMatT0=    0 NMatD0=    1 NMtDS0=    0 NMtDT0=    0
 Petite list used in FoFCou.
 Harris En= -438.617834404307    
 Leave Link  401 at Mon Feb 22 20:57:35 2021, MaxMem=   104857600 cpu:              12.6 elap:               0.4
 (Enter /sw/arch/RedHatEnterpriseServer7/EB_production/2019/software/Gaussian/g16.c01/l502.exe)
 Integral symmetry usage will be decided dynamically.
 Closed shell SCF:
 Using DIIS extrapolation, IDIIS=  1040.
 NGot=   104857600 LenX=   104756478 LenY=   104710241
 Requested convergence on RMS density matrix=1.00D-08 within 128 cycles.
 Requested convergence on MAX density matrix=1.00D-06.
 Requested convergence on             energy=1.00D-06.
 No special actions if energy rises.
 Fock matrices will be formed incrementally for  20 cycles.

 Cycle   1  Pass 1  IDiag  1:
 FoFJK:  IHMeth= 1 ICntrl=     500 DoSepK=F KAlg= 0 I1Cent=           0 FoldK=F
 IRaf= 950000000 NMat=       1 IRICut=       1 DoRegI=T DoRafI=F ISym2E= 0 IDoP0=0 IntGTp=1.
 FoFCou: FMM=F IPFlag=           0 FMFlag=      100000 FMFlg1=           0
         NFxFlg=           0 DoJE=T BraDBF=F KetDBF=F FulRan=T
         wScrn=  0.000000 ICntrl=       500 IOpCl=  0 I1Cent=           0 NGrid=           0
         NMat0=    1 NMatS0=      1 NMatT0=    0 NMatD0=    1 NMtDS0=    0 NMtDT0=    0
 Symmetry not used in FoFCou.
 Inv3:  Mode=1 IEnd=     5524347.
 Iteration    1 A*A^-1 deviation from unit magnitude is 2.78D-15 for     37.
 Iteration    1 A*A^-1 deviation from orthogonality  is 2.55D-15 for    937    252.
 Iteration    1 A^-1*A deviation from unit magnitude is 3.00D-15 for    758.
 Iteration    1 A^-1*A deviation from orthogonality  is 3.82D-15 for    988    937.
 E= -438.458382884022    
 DIIS: error= 5.43D-03 at cycle   1 NSaved=   1.
 NSaved= 1 IEnMin= 1 EnMin= -438.458382884022     IErMin= 1 ErrMin= 5.43D-03
 ErrMax= 5.43D-03  0.00D+00 EMaxC= 1.00D-01 BMatC= 1.14D-02 BMatP= 1.14D-02
 IDIUse=3 WtCom= 9.46D-01 WtEn= 5.43D-02
 Coeff-Com:  0.100D+01
 Coeff-En:   0.100D+01
 Coeff:      0.100D+01
 Gap=     0.542 Goal=   None    Shift=    0.000
 GapD=    0.542 DampG=2.000 DampE=1.000 DampFc=2.0000 IDamp=-1.
 RMSDP=1.82D-03 MaxDP=5.83D-02              OVMax= 5.25D-02

 Cycle   2  Pass 1  IDiag  1:
 RMSU=  1.77D-03    CP:  9.72D-01
[...]
     13          1           0       -2.656700    0.612718   -0.578997
     14          1           0       -0.100101    0.059404   -1.568874
     15          1           0        0.474630    2.255196   -1.207783
     16          1           0        1.043136    1.826478    0.338136
     17          1           0       -0.654162    2.179400    0.032345
 ---------------------------------------------------------------------
 Rotational constants (GHZ):           2.8582508           1.6399075           1.1579752
 Standard basis: TZVP (5D, 7F)
 There are   214 symmetry adapted cartesian basis functions of A   symmetry.
 There are   206 symmetry adapted basis functions of A   symmetry.
   206 basis functions,   352 primitive gaussians,   214 cartesian basis functions
    32 alpha electrons       32 beta electrons
       nuclear repulsion energy       407.2648264387 Hartrees.
 NAtoms=   17 NActive=   17 NUniq=   17 SFac= 1.00D+00 NAtFMM=   60 NAOKFM=F Big=F
 Integral buffers will be    131072 words long.
 Raffenetti 2 integral format.
 Two-electron integral symmetry is turned on.
 Warning! Using old PCM defaults because the COSMOthermo output has been requested.
 These settings can be overridden by following keywords.
 ------------------------------------------------------------------------------
 Polarizable Continuum Model (PCM)
 =================================
 Model                : C-PCM.
 Atomic radii         : Klamt.
 XCosmo               : -1.000 (infinite dielectric limit)
 Polarization charges : Electronic and nuclear charges.
 Charge compensation  : Type 3 (Electronic density weighted correction).
 Solution method      : On-the-fly selection.
 Cavity type          : VdW (van der Waals Surface) (Alpha=1.000).
 Cavity algorithm     : GePol (No added spheres)
                        Default sphere list used, NSphG=   17.
                        Tesserae with average area of 0.200 Ang**2.
                        Smoothing algorithm: None.
                        Polarization charges: point-like.
                        Self-potential: constant (ISelfS= 1).
                        Self-field    : global E.n sum rule (ISelfD= 3).
 Solvent              : Water, Eps=  78.355300 Eps(inf)=   1.777849
 ------------------------------------------------------------------------------
 Spheres list:
 ISph  on   Nord     Re0    Alpha      Xe            Ye            Ze
    1   C      1    2.0000  1.000     -1.542714     -1.604596      0.005388
    2   C      2    2.0000  1.000     -1.109763     -0.189916      0.361777
    3   O      3    1.7200  1.000     -2.201525      0.757191      0.273218
    4   C      4    2.0000  1.000      0.080675      0.286976     -0.510860
    5   N      5    1.8300  1.000      0.222972      1.775303     -0.337023
    6   C      6    2.0000  1.000      1.439785     -0.329418     -0.013618
    7   O      7    1.7200  1.000      1.664395     -1.523849     -0.309403
    8   O      8    1.7200  1.000      2.146299      0.475214      0.678085
    9   H      9    1.3000  1.000     -2.346054     -1.932841      0.678872
   10   H     10    1.3000  1.000     -0.690720     -2.292741      0.088293
   11   H     11    1.3000  1.000     -1.911605     -1.642299     -1.032653
   12   H     12    1.3000  1.000     -0.800473     -0.139166      1.418495
   13   H     13    1.3000  1.000     -2.656700      0.612718     -0.578997
   14   H     14    1.3000  1.000     -0.100101      0.059404     -1.568874
   15   H     15    1.3000  1.000      0.474630      2.255196     -1.207783
   16   H     16    1.3000  1.000      1.043136      1.826478      0.338136
   17   H     17    1.3000  1.000     -0.654162      2.179400      0.032345
 ------------------------------------------------------------------------------
 One-electron integrals computed using PRISM.
 PrsmSu:  requested number of processors reduced to:  29 ShMem   1 Linda.
 NBasis=   206 RedAO= T EigKep=  1.82D-04  NBF=   206
 NBsUse=   206 1.00D-06 EigRej= -1.00D+00 NBFU=   206
 Initial guess from the checkpoint file:  "AYFVYJQAPQTCCC-STHAYSLISA-N.chk"
 B after Tr=     0.000000    0.000000   -0.000000
         Rot=    1.000000   -0.000000    0.000000    0.000000 Ang=   0.00 deg.
 Requested convergence on RMS density matrix=1.00D-08 within 128 cycles.
 Requested convergence on MAX density matrix=1.00D-06.
 Requested convergence on             energy=1.00D-06.
 No special actions if energy rises.
 Inv3:  Mode=1 IEnd=     3570843.
 Iteration    1 A*A^-1 deviation from unit magnitude is 7.11D-15 for   1091.
 Iteration    1 A*A^-1 deviation from orthogonality  is 1.55D-15 for    936    774.
 Iteration    1 A^-1*A deviation from unit magnitude is 6.22D-15 for   1091.
 Iteration    1 A^-1*A deviation from orthogonality  is 7.11D-15 for   1091    903.
 Error on nuclear    polarization charges =  0.01195
 Error on electronic polarization charges = -0.03916
 SCF Done:  E(RB-P86) =  -438.483126861     A.U. after   12 cycles
            NFock= 12  Conv=0.21D-08     -V/T= 2.0046
 --------------------------------------------------------------------
 Variational C-PCM results
 =========================
 <psi(f)|   H    |psi(f)>                     (a.u.) =    -438.416350
 <psi(f)|H+V(f)/2|psi(f)>                     (a.u.) =    -438.483127
 Total free energy in solution:
 - with all non electrostatic terms           (a.u.) =    -438.473029
 --------------------------------------------------------------------
 (Polarized solute)-Solvent               (kcal/mol) =     -41.90
 --------------------------------------------------------------------
 Cavitation energy                        (kcal/mol) =      19.86
 Dispersion energy                        (kcal/mol) =     -14.77
 Repulsion energy                         (kcal/mol) =       1.26
 Total non electrostatic                  (kcal/mol) =       6.34
 --------------------------------------------------------------------
 Partition over spheres:
 Sphere  on Atom  Surface  Charge   GEl     GCav    GDR
    1      C1      16.95   0.006   -0.27    1.99   -1.18
    2      C2       4.30  -0.020   -0.31    0.51   -0.07
    3      O3      14.08   0.129   -0.25    1.75   -1.24
    4      C4       4.79  -0.040   -1.09    0.56   -0.06
    5      N5       9.79  -0.138   -4.33    1.19   -0.70
    6      C6      10.39   0.046   -1.66    1.22   -0.59
    7      O7      18.80   0.336  -11.13    2.34   -1.61
    8      O8      17.74   0.282   -7.56    2.20   -1.66
    9      H9       6.52  -0.030   -0.21    0.92   -0.79
   10      H10      5.04  -0.018    0.14    0.71   -0.39
   11      H11      6.56  -0.031   -0.49    0.93   -0.68
   12      H12      6.44  -0.043   -0.27    0.91   -0.79
   13      H13      8.19  -0.126   -3.80    1.16   -0.86
   14      H14      6.49  -0.052   -1.04    0.92   -0.76
   15      H15      8.13  -0.152   -5.74    1.15   -1.09
   16      H16      4.36  -0.057   -1.00    0.62   -0.44
   17      H17      5.64  -0.091   -2.90    0.80   -0.61
 --------------------------------------------------------------------
 - cavitation energy not included in the total energy.
 - dispersion energy not included in the total energy.
 - repulsion  energy not included in the total energy.
 After PCM corrections, the energy is  -438.483126861     a.u.
 --------------------------------------------------------------------
 Writing COSMO formatted file "AYFVYJQAPQTCCC-STHAYSLISA-N.cosmo"
 Recomputed dielectric energy= -0.066895 old= -0.066777 diff=-1.17D-04

 **********************************************************************

            Population analysis using the SCF Density.

 **********************************************************************

 Orbital symmetries:
       Occupied  (A) (A) (A) (A) (A) (A) (A) (A) (A) (A) (A) (A)
                 (A) (A) (A) (A) (A) (A) (A) (A) (A) (A) (A) (A)
                 (A) (A) (A) (A) (A) (A) (A) (A)
       Virtual   (A) (A) (A) (A) (A) (A) (A) (A) (A) (A) (A) (A)
                 (A) (A) (A) (A) (A) (A) (A) (A) (A) (A) (A) (A)
                 (A) (A) (A) (A) (A) (A) (A) (A) (A) (A) (A) (A)
                 (A) (A) (A) (A) (A) (A) (A) (A) (A) (A) (A) (A)
                 (A) (A) (A) (A) (A) (A) (A) (A) (A) (A) (A) (A)
                 (A) (A) (A) (A) (A) (A) (A) (A) (A) (A) (A) (A)
                 (A) (A) (A) (A) (A) (A) (A) (A) (A) (A) (A) (A)
                 (A) (A) (A) (A) (A) (A) (A) (A) (A) (A) (A) (A)
                 (A) (A) (A) (A) (A) (A) (A) (A) (A) (A) (A) (A)
                 (A) (A) (A) (A) (A) (A) (A) (A) (A) (A) (A) (A)
                 (A) (A) (A) (A) (A) (A) (A) (A) (A) (A) (A) (A)
                 (A) (A) (A) (A) (A) (A) (A) (A) (A) (A) (A) (A)
                 (A) (A) (A) (A) (A) (A) (A) (A) (A) (A) (A) (A)
                 (A) (A) (A) (A) (A) (A) (A) (A) (A) (A) (A) (A)
                 (A) (A) (A) (A) (A) (A)
 The electronic state is 1-A.
 Alpha  occ. eigenvalues --  -18.78598 -18.73795 -18.73080 -14.08534  -9.99655
 Alpha  occ. eigenvalues --   -9.96635  -9.95337  -9.89102  -0.96431  -0.95076
 Alpha  occ. eigenvalues --   -0.89619  -0.87311  -0.71247  -0.63754  -0.57042
 Alpha  occ. eigenvalues --   -0.51964  -0.50427  -0.47224  -0.45817  -0.42655
 Alpha  occ. eigenvalues --   -0.41324  -0.39159  -0.37513  -0.36711  -0.34900
 Alpha  occ. eigenvalues --   -0.33844  -0.33356  -0.29877  -0.26079  -0.24128
 Alpha  occ. eigenvalues --   -0.22835  -0.21437
 Alpha virt. eigenvalues --   -0.01437   0.01076   0.03826   0.05203   0.05357
 Alpha virt. eigenvalues --    0.08041   0.08688   0.09535   0.10394   0.10921
 Alpha virt. eigenvalues --    0.12367   0.13036   0.13899   0.15811   0.16822
 Alpha virt. eigenvalues --    0.19603   0.21353   0.22242   0.22730   0.24321
 Alpha virt. eigenvalues --    0.25724   0.26696   0.27166   0.28806   0.32194
 Alpha virt. eigenvalues --    0.33415   0.34205   0.34606   0.35888   0.36841
 Alpha virt. eigenvalues --    0.38134   0.39451   0.40181   0.40712   0.41999
 Alpha virt. eigenvalues --    0.42667   0.43365   0.44414   0.45068   0.46188
 Alpha virt. eigenvalues --    0.47503   0.48173   0.49948   0.51572   0.52351
 Alpha virt. eigenvalues --    0.54071   0.54771   0.58018   0.59319   0.59591
 Alpha virt. eigenvalues --    0.62307   0.64823   0.67707   0.71475   0.78161
 Alpha virt. eigenvalues --    0.79921   0.82101   0.89969   1.10458   1.11351
 Alpha virt. eigenvalues --    1.18650   1.20644   1.21970   1.23760   1.25340
 Alpha virt. eigenvalues --    1.27921   1.28019   1.30085   1.32532   1.33991
 Alpha virt. eigenvalues --    1.35119   1.39221   1.40248   1.41322   1.42654
 Alpha virt. eigenvalues --    1.44653   1.45460   1.48104   1.49431   1.52473
 Alpha virt. eigenvalues --    1.54630   1.55252   1.59520   1.60418   1.61607
 Alpha virt. eigenvalues --    1.62228   1.64167   1.66961   1.69257   1.72473
 Alpha virt. eigenvalues --    1.74162   1.77358   1.79331   1.81043   1.83247
 Alpha virt. eigenvalues --    1.85511   1.85768   1.87609   1.89933   1.92463
 Alpha virt. eigenvalues --    1.96557   1.98380   1.99838   2.06183   2.12510
 Alpha virt. eigenvalues --    2.14710   2.17030   2.19879   2.23054   2.23592
 Alpha virt. eigenvalues --    2.26640   2.29390   2.31855   2.38300   2.42237
 Alpha virt. eigenvalues --    2.44237   2.46700   2.49704   2.49940   2.51612
 Alpha virt. eigenvalues --    2.53570   2.54948   2.55913   2.56398   2.57823
 Alpha virt. eigenvalues --    2.58626   2.59638   2.61160   2.62014   2.63303
 Alpha virt. eigenvalues --    2.64559   2.66015   2.66841   2.70068   2.71309
 Alpha virt. eigenvalues --    2.73638   2.75887   2.76852   2.80626   2.83446
 Alpha virt. eigenvalues --    2.84659   2.87971   2.91163   2.92888   2.94007
 Alpha virt. eigenvalues --    3.01456   3.05806   3.09128   3.10993   3.12799
 Alpha virt. eigenvalues --    3.18123   3.18915   3.21364   3.23150   3.27131
 Alpha virt. eigenvalues --    3.28803   3.33813   3.37244   3.41560   3.64572
 Alpha virt. eigenvalues --    3.78828   3.79768   3.88707   4.02052   4.12733
 Alpha virt. eigenvalues --    4.16449  21.66398  21.76647  21.78421  21.84470
 Alpha virt. eigenvalues --   31.40500  43.09940  43.16786  43.22994
          Condensed to atoms (all electrons):
               1          2          3          4          5          6
     1  C    5.142640   0.243846  -0.044415  -0.050141   0.012291   0.004415
     2  C    0.243846   5.409684   0.244104  -0.033438   0.018697   0.004845
     3  O   -0.044415   0.244104   8.048043  -0.084107  -0.012891   0.006083
     4  C   -0.050141  -0.033438  -0.084107   6.726621  -0.066655  -0.132022
     5  N    0.012291   0.018697  -0.012891  -0.066655   6.389536   0.032007
     6  C    0.004415   0.004845   0.006083  -0.132022   0.032007   4.808332
     7  O   -0.011007   0.015285  -0.000175  -0.215166   0.009371   0.597508
     8  O    0.003852  -0.039451  -0.000478  -0.203906  -0.042077   0.503494
     9  H    0.404780  -0.051472   0.002547   0.013311  -0.000138   0.001181
    10  H    0.366486  -0.020369   0.006204  -0.001119   0.000903  -0.003902
    11  H    0.393003  -0.020400  -0.007973  -0.017366  -0.000542  -0.000616
    12  H   -0.025902   0.311742  -0.057306   0.000060  -0.017680   0.003438
    13  H   -0.009144  -0.032586   0.294202   0.002571  -0.001115   0.000355
    14  H    0.004909  -0.051570  -0.006803   0.391639  -0.052401  -0.009825
    15  H   -0.000351   0.003827   0.000312  -0.016870   0.346221   0.004687
    16  H   -0.000146  -0.000883  -0.000490  -0.048647   0.302104  -0.011836
    17  H    0.000633  -0.010547   0.040676  -0.035209   0.339118   0.004033
               7          8          9         10         11         12
     1  C   -0.011007   0.003852   0.404780   0.366486   0.393003  -0.025902
     2  C    0.015285  -0.039451  -0.051472  -0.020369  -0.020400   0.311742
     3  O   -0.000175  -0.000478   0.002547   0.006204  -0.007973  -0.057306
     4  C   -0.215166  -0.203906   0.013311  -0.001119  -0.017366   0.000060
     5  N    0.009371  -0.042077  -0.000138   0.000903  -0.000542  -0.017680
     6  C    0.597508   0.503494   0.001181  -0.003902  -0.000616   0.003438
     7  O    8.144754  -0.104601   0.001018   0.019931  -0.000395  -0.005151
     8  O   -0.104601   8.262328   0.000022  -0.000101  -0.000082   0.013043
     9  H    0.001018   0.000022   0.520137  -0.014304  -0.026547  -0.009997
    10  H    0.019931  -0.000101  -0.014304   0.531815  -0.025168  -0.006049
    11  H   -0.000395  -0.000082  -0.026547  -0.025168   0.534309   0.008023
    12  H   -0.005151   0.013043  -0.009997  -0.006049   0.008023   0.600903
    13  H    0.000051  -0.000007  -0.000880   0.000400   0.005402   0.009776
    14  H    0.005150   0.006158  -0.000274  -0.001533   0.004470   0.011253
    15  H    0.000225   0.002534   0.000019  -0.000012  -0.000010  -0.000418
    16  H    0.003842   0.085648   0.000008  -0.000117  -0.000009   0.003161
    17  H   -0.000360   0.000473  -0.000154  -0.000231   0.000125  -0.001456
              13         14         15         16         17
     1  C   -0.009144   0.004909  -0.000351  -0.000146   0.000633
     2  C   -0.032586  -0.051570   0.003827  -0.000883  -0.010547
     3  O    0.294202  -0.006803   0.000312  -0.000490   0.040676
     4  C    0.002571   0.391639  -0.016870  -0.048647  -0.035209
     5  N   -0.001115  -0.052401   0.346221   0.302104   0.339118
     6  C    0.000355  -0.009825   0.004687  -0.011836   0.004033
     7  O    0.000051   0.005150   0.000225   0.003842  -0.000360
     8  O   -0.000007   0.006158   0.002534   0.085648   0.000473
     9  H   -0.000880  -0.000274   0.000019   0.000008  -0.000154
    10  H    0.000400  -0.001533  -0.000012  -0.000117  -0.000231
    11  H    0.005402   0.004470  -0.000010  -0.000009   0.000125
    12  H    0.009776   0.011253  -0.000418   0.003161  -0.001456
    13  H    0.411063   0.003752  -0.000174   0.000024  -0.001716
    14  H    0.003752   0.472172  -0.004468   0.005579  -0.000863
    15  H   -0.000174  -0.004468   0.354461  -0.006414  -0.011126
    16  H    0.000024   0.005579  -0.006414   0.376119  -0.006697
    17  H   -0.001716  -0.000863  -0.011126  -0.006697   0.374328
 Mulliken charges:
               1
     1  C   -0.435747
     2  C    0.008683
     3  O   -0.427533
     4  C   -0.229558
     5  N   -0.256748
     6  C    0.187824
     7  O   -0.460279
     8  O   -0.486848
     9  H    0.160742
    10  H    0.147166
    11  H    0.153776
    12  H    0.162559
    13  H    0.318026
    14  H    0.222655
    15  H    0.327557
    16  H    0.298753
    17  H    0.308972
 Sum of Mulliken charges =  -0.00000
 Mulliken charges with hydrogens summed into heavy atoms:
               1
     1  C    0.025936
     2  C    0.171242
     3  O   -0.109507
     4  C   -0.006902
     5  N    0.678534
     6  C    0.187824
     7  O   -0.460279
     8  O   -0.486848
 Electronic spatial extent (au):  <R**2>=           1030.8294
 Charge=             -0.0000 electrons
 Dipole moment (field-independent basis, Debye):
    X=             -8.2303    Y=              7.7270    Z=             -4.1993  Tot=             12.0449
 Quadrupole moment (field-independent basis, Debye-Ang):
   XX=            -65.1951   YY=            -43.0349   ZZ=            -45.8813
   XY=              8.5096   XZ=              0.7453   YZ=             -6.9667
 Traceless Quadrupole moment (field-independent basis, Debye-Ang):
   XX=            -13.8246   YY=              8.3355   ZZ=              5.4891
   XY=              8.5096   XZ=              0.7453   YZ=             -6.9667
 Octapole moment (field-independent basis, Debye-Ang**2):
  XXX=            -50.6343  YYY=             52.0895  ZZZ=             -7.4430  XYY=            -10.8156
  XXY=              9.3098  XXZ=            -21.7353  XZZ=             -6.1954  YZZ=              8.8980
  YYZ=             -5.9195  XYZ=             -2.1867
 Hexadecapole moment (field-independent basis, Debye-Ang**3):
 XXXX=           -809.5220 YYYY=           -388.5952 ZZZZ=           -106.8652 XXXY=             12.7864
 XXXZ=             13.2609 YYYX=             23.0588 YYYZ=            -25.6489 ZZZX=             -1.7624
 ZZZY=            -10.9666 XXYY=           -215.2456 XXZZ=           -145.1440 YYZZ=            -81.5178
 XXYZ=            -20.2432 YYXZ=              1.4586 ZZXY=              2.4710
 N-N= 4.072648264387D+02 E-N=-1.842233656579D+03  KE= 4.364964514893D+02
 Unable to Open any file for archive entry.
 1\1\GINC-TCN1717\SP\RBP86\TZVP\C4H9N1O3\ELENAA\22-Feb-2021\0\\# BP86/T
 ZVP SCRF=COSMORS geom=CHECKPOINT guess=CHECKPOINT\\COSMO-file for #AYF
 VYJQAPQTCCC-STHAYSLISA-N\\0,1\C,0,-1.5257287265,1.0921128063,-2.568378
 4694\C,0,-0.4774008078,0.2539243297,-1.8512810965\O,0,-0.8737610442,-1
 .1333467102,-1.7280994822\C,0,-0.1298315289,0.8341400675,-0.4553543372
 \N,0,0.6385428318,-0.2105656263,0.3086978654\C,0,0.8364895208,2.069857
 2619,-0.5719618634\O,0,0.3297071094,3.1562865965,-0.9289561089\O,0,2.0
 547947667,1.7953226836,-0.3162024535\H,0,-1.7056599884,0.6890761915,-3
 .5742940247\H,0,-1.1879127859,2.13430509,-2.6460189861\H,0,-2.47408972
 59,1.0821127328,-2.0066472069\H,0,0.4506082806,0.2123205915,-2.4445403
 37\H,0,-1.7918814573,-1.1554453725,-1.3950940026\H,0,-1.0437036258,1.0
 897098725,0.0954492051\H,0,0.3921712018,-0.2369695638,1.303914774\H,0,
 1.6339914913,0.1495241631,0.2060223803\H,0,0.4826444884,-1.145335114,-
 0.1048158566\\Version=ES64L-G16RevC.01\State=1-A\HF=-438.4831269\RMSD=
 2.137e-09\Dipole=-2.0252805,-4.0187747,1.4846474\Quadrupole=-0.5409771
 ,-8.346248,8.8872251,-4.7687557,-0.841841,-7.0424574\PG=C01 [X(C4H9N1O
 3)]\\@
 The archive entry for this job was punched.


 THE HURRIEDER I GO, THE BEHINDER I GET.
 Job cpu time:       0 days  0 hours  4 minutes 45.8 seconds.
 Elapsed time:       0 days  0 hours  0 minutes  9.4 seconds.
 File lengths (MBytes):  RWF=     38 Int=      0 D2E=      0 Chk=      7 Scr=      1
 Normal termination of Gaussian 16 at Mon Feb 22 21:00:09 2021.
