 Entering Gaussian System, Link 0=g16
 Input=BCCDCNCWUHICFM-UHFFFAOYSA-N.gjf
 Output=BCCDCNCWUHICFM-UHFFFAOYSA-N.log
 Initial command:
 /sw/arch/RedHatEnterpriseServer7/EB_production/2019/software/Gaussian/g16.c01/l1.exe "/scratch-local/elenaa.9715931/Gau-11499.inp" -scrdir="/scratch-local/elenaa.9715931/"
 Entering Link 1 = /sw/arch/RedHatEnterpriseServer7/EB_production/2019/software/Gaussian/g16.c01/l1.exe PID=     11501.
  
 Copyright (c) 1988-2019, Gaussian, Inc.  All Rights Reserved.
  
 This is part of the Gaussian(R) 16 program.  It is based on
 the Gaussian(R) 09 system (copyright 2009, Gaussian, Inc.),
 the Gaussian(R) 03 system (copyright 2003, Gaussian, Inc.),
 the Gaussian(R) 98 system (copyright 1998, Gaussian, Inc.),
 the Gaussian(R) 94 system (copyright 1995, Gaussian, Inc.),
 the Gaussian 92(TM) system (copyright 1992, Gaussian, Inc.),
 the Gaussian 90(TM) system (copyright 1990, Gaussian, Inc.),
 the Gaussian 88(TM) system (copyright 1988, Gaussian, Inc.),
 the Gaussian 86(TM) system (copyright 1986, Carnegie Mellon
 University), and the Gaussian 82(TM) system (copyright 1983,
 Carnegie Mellon University). Gaussian is a federally registered
 trademark of Gaussian, Inc.
  
 This software contains proprietary and confidential information,
 including trade secrets, belonging to Gaussian, Inc.
  
 This software is provided under written license and may be
 used, copied, transmitted, or stored only in accord with that
 written license.
  
 The following legend is applicable only to US Government
 contracts under FAR:
  
                    RESTRICTED RIGHTS LEGEND
  
 Use, reproduction and disclosure by the US Government is
 subject to restrictions as set forth in subparagraphs (a)
 and (c) of the Commercial Computer Software - Restricted
 Rights clause in FAR 52.227-19.
  
 Gaussian, Inc.
 340 Quinnipiac St., Bldg. 40, Wallingford CT 06492
  
  
 ---------------------------------------------------------------
 Warning -- This program may not be used in any manner that
 competes with the business of Gaussian, Inc. or will provide
 assistance to any competitor of Gaussian, Inc.  The licensee
 of this program is prohibited from giving any competitor of
 Gaussian, Inc. access to this program.  By using this program,
 the user acknowledges that Gaussian, Inc. is engaged in the
 business of creating and licensing software in the field of
 computational chemistry and represents and warrants to the
 licensee that it is not a competitor of Gaussian, Inc. and that
 it will not use this program in any manner prohibited above.
 ---------------------------------------------------------------
  

 Cite this work as:
 Gaussian 16, Revision C.01,
 M. J. Frisch, G. W. Trucks, H. B. Schlegel, G. E. Scuseria, 
 M. A. Robb, J. R. Cheeseman, G. Scalmani, V. Barone, 
 G. A. Petersson, H. Nakatsuji, X. Li, M. Caricato, A. V. Marenich, 
 J. Bloino, B. G. Janesko, R. Gomperts, B. Mennucci, H. P. Hratchian, 
 J. V. Ortiz, A. F. Izmaylov, J. L. Sonnenberg, D. Williams-Young, 
 F. Ding, F. Lipparini, F. Egidi, J. Goings, B. Peng, A. Petrone, 
 T. Henderson, D. Ranasinghe, V. G. Zakrzewski, J. Gao, N. Rega, 
 G. Zheng, W. Liang, M. Hada, M. Ehara, K. Toyota, R. Fukuda, 
 J. Hasegawa, M. Ishida, T. Nakajima, Y. Honda, O. Kitao, H. Nakai, 
 T. Vreven, K. Throssell, J. A. Montgomery, Jr., J. E. Peralta, 
 F. Ogliaro, M. J. Bearpark, J. J. Heyd, E. N. Brothers, K. N. Kudin, 
 V. N. Staroverov, T. A. Keith, R. Kobayashi, J. Normand, 
 K. Raghavachari, A. P. Rendell, J. C. Burant, S. S. Iyengar, 
 J. Tomasi, M. Cossi, J. M. Millam, M. Klene, C. Adamo, R. Cammi, 
 J. W. Ochterski, R. L. Martin, K. Morokuma, O. Farkas, 
 J. B. Foresman, and D. J. Fox, Gaussian, Inc., Wallingford CT, 2019.
 
 ******************************************
 Gaussian 16:  ES64L-G16RevC.01  3-Jul-2019
                23-Feb-2021 
 ******************************************
 %chk=BCCDCNCWUHICFM-UHFFFAOYSA-N.chk
 %NProcShared=32
 Will use up to   32 processors via shared memory.
 -------------------------------------------------------------
 #P BP86/TZVP EmpiricalDispersion=GD3 SCRF=(Solvent=Water) Opt
 -------------------------------------------------------------
 1/18=20,19=15,26=3,38=1/1,3;
 2/9=110,12=2,17=6,18=5,40=1/2;
 3/5=19,7=101,11=2,25=1,30=1,70=2201,71=1,72=1,74=404,124=31/1,2,3;
 4//1;
 5/5=2,38=5,53=1/2;
 6/7=2,8=2,9=2,10=2,28=1/1;
 7//1,2,3,16;
 1/18=20,19=15,26=3/3(2);
 2/9=110/2;
 99//99;
 2/9=110/2;
 3/5=19,7=101,11=2,25=1,30=1,70=2205,71=1,72=1,74=404,124=31/1,2,3;
 4/5=5,16=3,69=1/1;
 5/5=2,38=5,53=1/2;
 7//1,2,3,16;
 1/18=20,19=15,26=3/3(-5);
 2/9=110/2;
 6/7=2,8=2,9=2,10=2,19=2,28=1/1;
 99/9=1/99;
 Leave Link    1 at Tue Feb 23 00:11:03 2021, MaxMem=           0 cpu:               2.0 elap:               0.1
 (Enter /sw/arch/RedHatEnterpriseServer7/EB_production/2019/software/Gaussian/g16.c01/l101.exe)
 -------------------------------------
 Particle #BCCDCNCWUHICFM-UHFFFAOYSA-N
 -------------------------------------
 Symbolic Z-matrix:
 Charge =  1 Multiplicity = 1
 C                    -3.26139  -0.05415   1.71018 
 C                    -2.31146  -0.49404   0.57252 
 C                    -2.87301  -0.14651  -0.84165 
 N                    -2.0468   -0.51887  -2.07524 
 C                    -1.79019  -2.03102  -2.12609 
 C                    -2.98964  -3.02428  -2.01545 
 C                    -2.57621  -4.48147  -2.33341 
 C                    -0.66839   0.15444  -2.03445 
 C                    -0.56613   1.69715  -1.81748 
 C                     0.86828   2.22901  -2.05203 
 C                    -2.8366   -0.06152  -3.31387 
 C                    -2.24409  -0.3089   -4.67019 
 C                    -2.50963  -1.50969  -5.37653 
 C                    -1.88423  -1.78095  -6.60705 
 C                    -1.00591  -0.8393   -7.17227 
 C                    -0.77376   0.38236  -6.51636 
 C                    -1.40056   0.65102  -5.28597 
 H                    -2.83113  -0.31562   2.67884 
 H                    -3.41622   1.02607   1.67977 
 H                    -4.22718  -0.55383   1.61353 
 H                    -2.15532  -1.56931   0.66274 
 H                    -1.35096  -0.00227   0.72845 
 H                    -3.86044  -0.61494  -0.90811 
 H                    -3.06684   0.93113  -0.84328 
 H                    -1.2518   -2.26959  -3.04721 
 H                    -1.10384  -2.32413  -1.32561 
 H                    -3.39152  -3.0068   -0.99942 
 H                    -3.79273  -2.74551  -2.69681 
 H                    -1.81046  -4.82297  -1.63333 
 H                    -2.1826   -4.55508  -3.34943 
 H                    -3.44193  -5.141    -2.25174 
 H                    -0.05731  -0.28529  -1.24012 
 H                    -0.12933  -0.0828   -2.95552 
 H                    -1.23776   2.23204  -2.48809 
 H                    -0.84938   1.94574  -0.79175 
 H                     1.19225   2.01973  -3.07374 
 H                     1.56838   1.75961  -1.35731 
 H                     0.89548   3.30905  -1.89742 
 H                    -3.83129  -0.51848  -3.31044 
 H                    -3.04636   1.01069  -3.24632 
 H                    -3.1559   -2.2052   -4.99627 
 H                    -2.06578  -2.66447  -7.08897 
 H                    -0.54211  -1.04026  -8.06084 
 H                    -0.14634   1.07491  -6.93218 
 H                    -1.22633   1.55392  -4.83866 
 
 ITRead=  0  0  0  0  0  0  0  0  0  0  0  0  0  0  0  0  0  0  0  0
 ITRead=  0  0  0  0  0  0  0  0  0  0  0  0  0  0  0  0  0  0  0  0
 ITRead=  0  0  0  0  0
 MicOpt= -1 -1 -1 -1 -1 -1 -1 -1 -1 -1 -1 -1 -1 -1 -1 -1 -1 -1 -1 -1
 MicOpt= -1 -1 -1 -1 -1 -1 -1 -1 -1 -1 -1 -1 -1 -1 -1 -1 -1 -1 -1 -1
 MicOpt= -1 -1 -1 -1 -1
 NAtoms=     45 NQM=       45 NQMF=       0 NMMI=      0 NMMIF=      0
                NMic=       0 NMicF=      0.
                    Isotopes and Nuclear Properties:
 (Nuclear quadrupole moments (NQMom) in fm**2, nuclear magnetic moments (NMagM)
  in nuclear magnetons)

  Atom         1           2           3           4           5           6           7           8           9          10
 IAtWgt=          12          12          12          14          12          12          12          12          12          12
 AtmWgt=  12.0000000  12.0000000  12.0000000  14.0030740  12.0000000  12.0000000  12.0000000  12.0000000  12.0000000  12.0000000
 NucSpn=           0           0           0           2           0           0           0           0           0           0
 AtZEff=  -0.0000000  -0.0000000  -0.0000000  -0.0000000  -0.0000000  -0.0000000  -0.0000000  -0.0000000  -0.0000000  -0.0000000
 NQMom=    0.0000000   0.0000000   0.0000000   2.0440000   0.0000000   0.0000000   0.0000000   0.0000000   0.0000000   0.0000000
 NMagM=    0.0000000   0.0000000   0.0000000   0.4037610   0.0000000   0.0000000   0.0000000   0.0000000   0.0000000   0.0000000
 AtZNuc=   6.0000000   6.0000000   6.0000000   7.0000000   6.0000000   6.0000000   6.0000000   6.0000000   6.0000000   6.0000000

  Atom        11          12          13          14          15          16          17          18          19          20
 IAtWgt=          12          12          12          12          12          12          12           1           1           1
 AtmWgt=  12.0000000  12.0000000  12.0000000  12.0000000  12.0000000  12.0000000  12.0000000   1.0078250   1.0078250   1.0078250
 NucSpn=           0           0           0           0           0           0           0           1           1           1
 AtZEff=  -0.0000000  -0.0000000  -0.0000000  -0.0000000  -0.0000000  -0.0000000  -0.0000000  -0.0000000  -0.0000000  -0.0000000
 NQMom=    0.0000000   0.0000000   0.0000000   0.0000000   0.0000000   0.0000000   0.0000000   0.0000000   0.0000000   0.0000000
 NMagM=    0.0000000   0.0000000   0.0000000   0.0000000   0.0000000   0.0000000   0.0000000   2.7928460   2.7928460   2.7928460
 AtZNuc=   6.0000000   6.0000000   6.0000000   6.0000000   6.0000000   6.0000000   6.0000000   1.0000000   1.0000000   1.0000000

  Atom        21          22          23          24          25          26          27          28          29          30
 IAtWgt=           1           1           1           1           1           1           1           1           1           1
 AtmWgt=   1.0078250   1.0078250   1.0078250   1.0078250   1.0078250   1.0078250   1.0078250   1.0078250   1.0078250   1.0078250
 NucSpn=           1           1           1           1           1           1           1           1           1           1
 AtZEff=  -0.0000000  -0.0000000  -0.0000000  -0.0000000  -0.0000000  -0.0000000  -0.0000000  -0.0000000  -0.0000000  -0.0000000
 NQMom=    0.0000000   0.0000000   0.0000000   0.0000000   0.0000000   0.0000000   0.0000000   0.0000000   0.0000000   0.0000000
 NMagM=    2.7928460   2.7928460   2.7928460   2.7928460   2.7928460   2.7928460   2.7928460   2.7928460   2.7928460   2.7928460
 AtZNuc=   1.0000000   1.0000000   1.0000000   1.0000000   1.0000000   1.0000000   1.0000000   1.0000000   1.0000000   1.0000000

  Atom        31          32          33          34          35          36          37          38          39          40
 IAtWgt=           1           1           1           1           1           1           1           1           1           1
 AtmWgt=   1.0078250   1.0078250   1.0078250   1.0078250   1.0078250   1.0078250   1.0078250   1.0078250   1.0078250   1.0078250
 NucSpn=           1           1           1           1           1           1           1           1           1           1
 AtZEff=  -0.0000000  -0.0000000  -0.0000000  -0.0000000  -0.0000000  -0.0000000  -0.0000000  -0.0000000  -0.0000000  -0.0000000
 NQMom=    0.0000000   0.0000000   0.0000000   0.0000000   0.0000000   0.0000000   0.0000000   0.0000000   0.0000000   0.0000000
 NMagM=    2.7928460   2.7928460   2.7928460   2.7928460   2.7928460   2.7928460   2.7928460   2.7928460   2.7928460   2.7928460
 AtZNuc=   1.0000000   1.0000000   1.0000000   1.0000000   1.0000000   1.0000000   1.0000000   1.0000000   1.0000000   1.0000000

  Atom        41          42          43          44          45
 IAtWgt=           1           1           1           1           1
 AtmWgt=   1.0078250   1.0078250   1.0078250   1.0078250   1.0078250
 NucSpn=           1           1           1           1           1
 AtZEff=  -0.0000000  -0.0000000  -0.0000000  -0.0000000  -0.0000000
 NQMom=    0.0000000   0.0000000   0.0000000   0.0000000   0.0000000
 NMagM=    2.7928460   2.7928460   2.7928460   2.7928460   2.7928460
 AtZNuc=   1.0000000   1.0000000   1.0000000   1.0000000   1.0000000
 Leave Link  101 at Tue Feb 23 00:11:04 2021, MaxMem=   104857600 cpu:               3.3 elap:               0.1
 (Enter /sw/arch/RedHatEnterpriseServer7/EB_production/2019/software/Gaussian/g16.c01/l103.exe)

 GradGradGradGradGradGradGradGradGradGradGradGradGradGradGradGradGradGrad
 Berny optimization.
 Initialization pass.
                           ----------------------------
                           !    Initial Parameters    !
                           ! (Angstroms and Degrees)  !
 --------------------------                            --------------------------
 ! Name  Definition              Value          Derivative Info.                !
 --------------------------------------------------------------------------------
 ! R1    R(1,2)                  1.546          estimate D2E/DX2                !
 ! R2    R(1,18)                 1.0917         estimate D2E/DX2                !
 ! R3    R(1,19)                 1.0917         estimate D2E/DX2                !
 ! R4    R(1,20)                 1.0917         estimate D2E/DX2                !
 ! R5    R(2,3)                  1.5608         estimate D2E/DX2                !
 ! R6    R(2,21)                 1.0903         estimate D2E/DX2                !
 ! R7    R(2,22)                 1.0903         estimate D2E/DX2                !
 ! R8    R(3,4)                  1.5307         estimate D2E/DX2                !
 ! R9    R(3,23)                 1.0949         estimate D2E/DX2                !
 ! R10   R(3,24)                 1.0949         estimate D2E/DX2                !
 ! R11   R(4,5)                  1.5346         estimate D2E/DX2                !
 ! R12   R(4,8)                  1.5346         estimate D2E/DX2                !
 ! R13   R(4,11)                 1.5386         estimate D2E/DX2                !
 ! R14   R(5,6)                  1.5612         estimate D2E/DX2                !
 ! R15   R(5,25)                 1.0933         estimate D2E/DX2                !
 ! R16   R(5,26)                 1.0944         estimate D2E/DX2                !
 ! R17   R(6,7)                  1.5477         estimate D2E/DX2                !
 ! R18   R(6,27)                 1.0928         estimate D2E/DX2                !
 ! R19   R(6,28)                 1.0895         estimate D2E/DX2                !
 ! R20   R(7,29)                 1.0923         estimate D2E/DX2                !
 ! R21   R(7,30)                 1.0921         estimate D2E/DX2                !
 ! R22   R(7,31)                 1.0914         estimate D2E/DX2                !
 ! R23   R(8,9)                  1.5612         estimate D2E/DX2                !
 ! R24   R(8,32)                 1.0944         estimate D2E/DX2                !
 ! R25   R(8,33)                 1.0933         estimate D2E/DX2                !
 ! R26   R(9,10)                 1.5477         estimate D2E/DX2                !
 ! R27   R(9,34)                 1.0895         estimate D2E/DX2                !
 ! R28   R(9,35)                 1.0928         estimate D2E/DX2                !
 ! R29   R(10,36)                1.0921         estimate D2E/DX2                !
 ! R30   R(10,37)                1.0923         estimate D2E/DX2                !
 ! R31   R(10,38)                1.0914         estimate D2E/DX2                !
 ! R32   R(11,12)                1.5006         estimate D2E/DX2                !
 ! R33   R(11,39)                1.0946         estimate D2E/DX2                !
 ! R34   R(11,40)                1.0946         estimate D2E/DX2                !
 ! R35   R(12,13)                1.4182         estimate D2E/DX2                !
 ! R36   R(12,17)                1.4185         estimate D2E/DX2                !
 ! R37   R(13,14)                1.4067         estimate D2E/DX2                !
 ! R38   R(13,41)                1.0227         estimate D2E/DX2                !
 ! R39   R(14,15)                1.4063         estimate D2E/DX2                !
 ! R40   R(14,42)                1.0227         estimate D2E/DX2                !
 ! R41   R(15,16)                1.4059         estimate D2E/DX2                !
 ! R42   R(15,43)                1.0223         estimate D2E/DX2                !
 ! R43   R(16,17)                1.4067         estimate D2E/DX2                !
 ! R44   R(16,44)                1.0228         estimate D2E/DX2                !
 ! R45   R(17,45)                1.0226         estimate D2E/DX2                !
 ! A1    A(2,1,18)             110.0369         estimate D2E/DX2                !
 ! A2    A(2,1,19)             110.3767         estimate D2E/DX2                !
 ! A3    A(2,1,20)             110.3772         estimate D2E/DX2                !
 ! A4    A(18,1,19)            108.5183         estimate D2E/DX2                !
 ! A5    A(18,1,20)            108.5179         estimate D2E/DX2                !
 ! A6    A(19,1,20)            108.9638         estimate D2E/DX2                !
 ! A7    A(1,2,3)              112.4778         estimate D2E/DX2                !
 ! A8    A(1,2,21)             107.9216         estimate D2E/DX2                !
 ! A9    A(1,2,22)             107.9219         estimate D2E/DX2                !
 ! A10   A(3,2,21)             110.2491         estimate D2E/DX2                !
 ! A11   A(3,2,22)             110.2499         estimate D2E/DX2                !
 ! A12   A(21,2,22)            107.8688         estimate D2E/DX2                !
 ! A13   A(2,3,4)              118.8056         estimate D2E/DX2                !
 ! A14   A(2,3,23)             106.5113         estimate D2E/DX2                !
 ! A15   A(2,3,24)             106.5104         estimate D2E/DX2                !
 ! A16   A(4,3,23)             109.4985         estimate D2E/DX2                !
 ! A17   A(4,3,24)             109.4979         estimate D2E/DX2                !
 ! A18   A(23,3,24)            105.1488         estimate D2E/DX2                !
 ! A19   A(3,4,5)              110.8954         estimate D2E/DX2                !
 ! A20   A(3,4,8)              110.8959         estimate D2E/DX2                !
 ! A21   A(3,4,11)             107.422          estimate D2E/DX2                !
 ! A22   A(5,4,8)              106.4402         estimate D2E/DX2                !
 ! A23   A(5,4,11)             110.614          estimate D2E/DX2                !
 ! A24   A(8,4,11)             110.6136         estimate D2E/DX2                !
 ! A25   A(4,5,6)              119.7405         estimate D2E/DX2                !
 ! A26   A(4,5,25)             108.983          estimate D2E/DX2                !
 ! A27   A(4,5,26)             110.1533         estimate D2E/DX2                !
 ! A28   A(6,5,25)             107.4106         estimate D2E/DX2                !
 ! A29   A(6,5,26)             105.0455         estimate D2E/DX2                !
 ! A30   A(25,5,26)            104.4163         estimate D2E/DX2                !
 ! A31   A(5,6,7)              112.2845         estimate D2E/DX2                !
 ! A32   A(5,6,27)             109.7706         estimate D2E/DX2                !
 ! A33   A(5,6,28)             111.0519         estimate D2E/DX2                !
 ! A34   A(7,6,27)             107.7167         estimate D2E/DX2                !
 ! A35   A(7,6,28)             108.0194         estimate D2E/DX2                !
 ! A36   A(27,6,28)            107.8368         estimate D2E/DX2                !
 ! A37   A(6,7,29)             110.4844         estimate D2E/DX2                !
 ! A38   A(6,7,30)             110.5404         estimate D2E/DX2                !
 ! A39   A(6,7,31)             109.9803         estimate D2E/DX2                !
 ! A40   A(29,7,30)            108.8166         estimate D2E/DX2                !
 ! A41   A(29,7,31)            108.6144         estimate D2E/DX2                !
 ! A42   A(30,7,31)            108.3478         estimate D2E/DX2                !
 ! A43   A(4,8,9)              119.7402         estimate D2E/DX2                !
 ! A44   A(4,8,32)             110.1534         estimate D2E/DX2                !
 ! A45   A(4,8,33)             108.9827         estimate D2E/DX2                !
 ! A46   A(9,8,32)             105.0455         estimate D2E/DX2                !
 ! A47   A(9,8,33)             107.4103         estimate D2E/DX2                !
 ! A48   A(32,8,33)            104.4172         estimate D2E/DX2                !
 ! A49   A(8,9,10)             112.2845         estimate D2E/DX2                !
 ! A50   A(8,9,34)             111.0522         estimate D2E/DX2                !
 ! A51   A(8,9,35)             109.7705         estimate D2E/DX2                !
 ! A52   A(10,9,34)            108.02           estimate D2E/DX2                !
 ! A53   A(10,9,35)            107.7162         estimate D2E/DX2                !
 ! A54   A(34,9,35)            107.8364         estimate D2E/DX2                !
 ! A55   A(9,10,36)            110.5401         estimate D2E/DX2                !
 ! A56   A(9,10,37)            110.4848         estimate D2E/DX2                !
 ! A57   A(9,10,38)            109.9804         estimate D2E/DX2                !
 ! A58   A(36,10,37)           108.8168         estimate D2E/DX2                !
 ! A59   A(36,10,38)           108.3477         estimate D2E/DX2                !
 ! A60   A(37,10,38)           108.6142         estimate D2E/DX2                !
 ! A61   A(4,11,12)            118.4214         estimate D2E/DX2                !
 ! A62   A(4,11,39)            109.8679         estimate D2E/DX2                !
 ! A63   A(4,11,40)            109.8685         estimate D2E/DX2                !
 ! A64   A(12,11,39)           107.026          estimate D2E/DX2                !
 ! A65   A(12,11,40)           107.0326         estimate D2E/DX2                !
 ! A66   A(39,11,40)           103.567          estimate D2E/DX2                !
 ! A67   A(11,12,13)           121.0514         estimate D2E/DX2                !
 ! A68   A(11,12,17)           121.0375         estimate D2E/DX2                !
 ! A69   A(13,12,17)           117.9111         estimate D2E/DX2                !
 ! A70   A(12,13,14)           121.0436         estimate D2E/DX2                !
 ! A71   A(12,13,41)           120.5924         estimate D2E/DX2                !
 ! A72   A(14,13,41)           118.3612         estimate D2E/DX2                !
 ! A73   A(13,14,15)           120.0086         estimate D2E/DX2                !
 ! A74   A(13,14,42)           119.9926         estimate D2E/DX2                !
 ! A75   A(15,14,42)           119.9985         estimate D2E/DX2                !
 ! A76   A(14,15,16)           119.8327         estimate D2E/DX2                !
 ! A77   A(14,15,43)           120.072          estimate D2E/DX2                !
 ! A78   A(16,15,43)           120.0941         estimate D2E/DX2                !
 ! A79   A(15,16,17)           120.0286         estimate D2E/DX2                !
 ! A80   A(15,16,44)           119.9988         estimate D2E/DX2                !
 ! A81   A(17,16,44)           119.9723         estimate D2E/DX2                !
 ! A82   A(12,17,16)           121.0247         estimate D2E/DX2                !
 ! A83   A(12,17,45)           120.5931         estimate D2E/DX2                !
 ! A84   A(16,17,45)           118.3794         estimate D2E/DX2                !
 ! D1    D(18,1,2,3)           179.9996         estimate D2E/DX2                !
 ! D2    D(18,1,2,21)           58.1647         estimate D2E/DX2                !
 ! D3    D(18,1,2,22)          -58.1644         estimate D2E/DX2                !
 ! D4    D(19,1,2,3)           -60.2582         estimate D2E/DX2                !
 ! D5    D(19,1,2,21)          177.907          estimate D2E/DX2                !
 ! D6    D(19,1,2,22)           61.5779         estimate D2E/DX2                !
 ! D7    D(20,1,2,3)            60.2575         estimate D2E/DX2                !
 ! D8    D(20,1,2,21)          -61.5773         estimate D2E/DX2                !
 ! D9    D(20,1,2,22)         -177.9064         estimate D2E/DX2                !
 ! D10   D(1,2,3,4)            179.9999         estimate D2E/DX2                !
 ! D11   D(1,2,3,23)           -55.9236         estimate D2E/DX2                !
 ! D12   D(1,2,3,24)            55.9249         estimate D2E/DX2                !
 ! D13   D(21,2,3,4)           -59.4967         estimate D2E/DX2                !
 ! D14   D(21,2,3,23)           64.5798         estimate D2E/DX2                !
 ! D15   D(21,2,3,24)          176.4283         estimate D2E/DX2                !
 ! D16   D(22,2,3,4)            59.4955         estimate D2E/DX2                !
 ! D17   D(22,2,3,23)         -176.4279         estimate D2E/DX2                !
 ! D18   D(22,2,3,24)          -64.5795         estimate D2E/DX2                !
 ! D19   D(2,3,4,5)             59.0184         estimate D2E/DX2                !
 ! D20   D(2,3,4,8)            -59.0169         estimate D2E/DX2                !
 ! D21   D(2,3,4,11)          -179.9992         estimate D2E/DX2                !
 ! D22   D(23,3,4,5)           -63.5821         estimate D2E/DX2                !
 ! D23   D(23,3,4,8)           178.3826         estimate D2E/DX2                !
 ! D24   D(23,3,4,11)           57.4003         estimate D2E/DX2                !
 ! D25   D(24,3,4,5)          -178.3829         estimate D2E/DX2                !
 ! D26   D(24,3,4,8)            63.5818         estimate D2E/DX2                !
 ! D27   D(24,3,4,11)          -57.4005         estimate D2E/DX2                !
 ! D28   D(3,4,5,6)             52.487          estimate D2E/DX2                !
 ! D29   D(3,4,5,25)           176.6093         estimate D2E/DX2                !
 ! D30   D(3,4,5,26)           -69.3929         estimate D2E/DX2                !
 ! D31   D(8,4,5,6)            173.1978         estimate D2E/DX2                !
 ! D32   D(8,4,5,25)           -62.6799         estimate D2E/DX2                !
 ! D33   D(8,4,5,26)            51.3179         estimate D2E/DX2                !
 ! D34   D(11,4,5,6)           -66.5918         estimate D2E/DX2                !
 ! D35   D(11,4,5,25)           57.5305         estimate D2E/DX2                !
 ! D36   D(11,4,5,26)          171.5283         estimate D2E/DX2                !
 ! D37   D(3,4,8,9)            -52.4877         estimate D2E/DX2                !
 ! D38   D(3,4,8,32)            69.3921         estimate D2E/DX2                !
 ! D39   D(3,4,8,33)          -176.609          estimate D2E/DX2                !
 ! D40   D(5,4,8,9)           -173.1982         estimate D2E/DX2                !
 ! D41   D(5,4,8,32)           -51.3183         estimate D2E/DX2                !
 ! D42   D(5,4,8,33)            62.6805         estimate D2E/DX2                !
 ! D43   D(11,4,8,9)            66.5912         estimate D2E/DX2                !
 ! D44   D(11,4,8,32)         -171.5289         estimate D2E/DX2                !
 ! D45   D(11,4,8,33)          -57.5301         estimate D2E/DX2                !
 ! D46   D(3,4,11,12)         -179.9952         estimate D2E/DX2                !
 ! D47   D(3,4,11,39)          -56.658          estimate D2E/DX2                !
 ! D48   D(3,4,11,40)           56.658          estimate D2E/DX2                !
 ! D49   D(5,4,11,12)          -58.8358         estimate D2E/DX2                !
 ! D50   D(5,4,11,39)           64.5014         estimate D2E/DX2                !
 ! D51   D(5,4,11,40)          177.8173         estimate D2E/DX2                !
 ! D52   D(8,4,11,12)           58.8451         estimate D2E/DX2                !
 ! D53   D(8,4,11,39)         -177.8177         estimate D2E/DX2                !
 ! D54   D(8,4,11,40)          -64.5018         estimate D2E/DX2                !
 ! D55   D(4,5,6,7)            169.9445         estimate D2E/DX2                !
 ! D56   D(4,5,6,27)           -70.2684         estimate D2E/DX2                !
 ! D57   D(4,5,6,28)            48.8832         estimate D2E/DX2                !
 ! D58   D(25,5,6,7)            45.0701         estimate D2E/DX2                !
 ! D59   D(25,5,6,27)          164.8572         estimate D2E/DX2                !
 ! D60   D(25,5,6,28)          -75.9912         estimate D2E/DX2                !
 ! D61   D(26,5,6,7)           -65.691          estimate D2E/DX2                !
 ! D62   D(26,5,6,27)           54.0961         estimate D2E/DX2                !
 ! D63   D(26,5,6,28)          173.2477         estimate D2E/DX2                !
 ! D64   D(5,6,7,29)            60.4896         estimate D2E/DX2                !
 ! D65   D(5,6,7,30)           -60.0186         estimate D2E/DX2                !
 ! D66   D(5,6,7,31)          -179.6168         estimate D2E/DX2                !
 ! D67   D(27,6,7,29)          -60.4863         estimate D2E/DX2                !
 ! D68   D(27,6,7,30)          179.0054         estimate D2E/DX2                !
 ! D69   D(27,6,7,31)           59.4073         estimate D2E/DX2                !
 ! D70   D(28,6,7,29)         -176.7218         estimate D2E/DX2                !
 ! D71   D(28,6,7,30)           62.77           estimate D2E/DX2                !
 ! D72   D(28,6,7,31)          -56.8282         estimate D2E/DX2                !
 ! D73   D(4,8,9,10)          -169.9447         estimate D2E/DX2                !
 ! D74   D(4,8,9,34)           -48.8823         estimate D2E/DX2                !
 ! D75   D(4,8,9,35)            70.2689         estimate D2E/DX2                !
 ! D76   D(32,8,9,10)           65.6908         estimate D2E/DX2                !
 ! D77   D(32,8,9,34)         -173.2468         estimate D2E/DX2                !
 ! D78   D(32,8,9,35)          -54.0955         estimate D2E/DX2                !
 ! D79   D(33,8,9,10)          -45.0712         estimate D2E/DX2                !
 ! D80   D(33,8,9,34)           75.9912         estimate D2E/DX2                !
 ! D81   D(33,8,9,35)         -164.8576         estimate D2E/DX2                !
 ! D82   D(8,9,10,36)           60.019          estimate D2E/DX2                !
 ! D83   D(8,9,10,37)          -60.4895         estimate D2E/DX2                !
 ! D84   D(8,9,10,38)          179.6169         estimate D2E/DX2                !
 ! D85   D(34,9,10,36)         -62.7704         estimate D2E/DX2                !
 ! D86   D(34,9,10,37)         176.7211         estimate D2E/DX2                !
 ! D87   D(34,9,10,38)          56.8275         estimate D2E/DX2                !
 ! D88   D(35,9,10,36)        -179.0054         estimate D2E/DX2                !
 ! D89   D(35,9,10,37)          60.486          estimate D2E/DX2                !
 ! D90   D(35,9,10,38)         -59.4076         estimate D2E/DX2                !
 ! D91   D(4,11,12,13)          89.9915         estimate D2E/DX2                !
 ! D92   D(4,11,12,17)         -89.9981         estimate D2E/DX2                !
 ! D93   D(39,11,12,13)        -34.7492         estimate D2E/DX2                !
 ! D94   D(39,11,12,17)        145.2611         estimate D2E/DX2                !
 ! D95   D(40,11,12,13)       -145.2611         estimate D2E/DX2                !
 ! D96   D(40,11,12,17)         34.7492         estimate D2E/DX2                !
 ! D97   D(11,12,13,14)       -175.7152         estimate D2E/DX2                !
 ! D98   D(11,12,13,41)          3.6621         estimate D2E/DX2                !
 ! D99   D(17,12,13,14)          4.2748         estimate D2E/DX2                !
 ! D100  D(17,12,13,41)       -176.3479         estimate D2E/DX2                !
 ! D101  D(11,12,17,16)        175.7132         estimate D2E/DX2                !
 ! D102  D(11,12,17,45)         -3.6584         estimate D2E/DX2                !
 ! D103  D(13,12,17,16)         -4.2768         estimate D2E/DX2                !
 ! D104  D(13,12,17,45)        176.3516         estimate D2E/DX2                !
 ! D105  D(12,13,14,15)         -1.633          estimate D2E/DX2                !
 ! D106  D(12,13,14,42)        178.1495         estimate D2E/DX2                !
 ! D107  D(41,13,14,15)        178.9761         estimate D2E/DX2                !
 ! D108  D(41,13,14,42)         -1.2414         estimate D2E/DX2                !
 ! D109  D(13,14,15,16)         -1.1349         estimate D2E/DX2                !
 ! D110  D(13,14,15,43)        179.2555         estimate D2E/DX2                !
 ! D111  D(42,14,15,16)        179.0826         estimate D2E/DX2                !
 ! D112  D(42,14,15,43)         -0.527          estimate D2E/DX2                !
 ! D113  D(14,15,16,17)          1.1323         estimate D2E/DX2                !
 ! D114  D(14,15,16,44)       -179.0808         estimate D2E/DX2                !
 ! D115  D(43,15,16,17)       -179.2582         estimate D2E/DX2                !
 ! D116  D(43,15,16,44)          0.5287         estimate D2E/DX2                !
 ! D117  D(15,16,17,12)          1.6376         estimate D2E/DX2                !
 ! D118  D(15,16,17,45)       -178.9772         estimate D2E/DX2                !
 ! D119  D(44,16,17,12)       -178.1493         estimate D2E/DX2                !
 ! D120  D(44,16,17,45)          1.2358         estimate D2E/DX2                !
 --------------------------------------------------------------------------------
 Trust Radius=3.00D-01 FncErr=1.00D-07 GrdErr=1.00D-06 EigMax=2.50D+02 EigMin=1.00D-04
 Number of steps in this run=    259 maximum allowed number of steps=    270.
 GradGradGradGradGradGradGradGradGradGradGradGradGradGradGradGradGradGrad

 Leave Link  103 at Tue Feb 23 00:11:04 2021, MaxMem=   104857600 cpu:               0.4 elap:               0.0
 (Enter /sw/arch/RedHatEnterpriseServer7/EB_production/2019/software/Gaussian/g16.c01/l202.exe)
                          Input orientation:                          
 ---------------------------------------------------------------------
 Center     Atomic      Atomic             Coordinates (Angstroms)
 Number     Number       Type             X           Y           Z
 ---------------------------------------------------------------------
      1          6           0       -3.261390   -0.054150    1.710180
      2          6           0       -2.311460   -0.494040    0.572520
      3          6           0       -2.873010   -0.146510   -0.841650
      4          7           0       -2.046800   -0.518870   -2.075240
      5          6           0       -1.790190   -2.031020   -2.126090
      6          6           0       -2.989640   -3.024280   -2.015450
      7          6           0       -2.576210   -4.481470   -2.333410
      8          6           0       -0.668390    0.154440   -2.034450
      9          6           0       -0.566130    1.697150   -1.817480
     10          6           0        0.868280    2.229010   -2.052030
     11          6           0       -2.836600   -0.061520   -3.313870
     12          6           0       -2.244090   -0.308900   -4.670190
     13          6           0       -2.509630   -1.509690   -5.376530
     14          6           0       -1.884230   -1.780950   -6.607050
     15          6           0       -1.005910   -0.839300   -7.172270
     16          6           0       -0.773760    0.382360   -6.516360
     17          6           0       -1.400560    0.651020   -5.285970
     18          1           0       -2.831130   -0.315620    2.678840
     19          1           0       -3.416220    1.026070    1.679770
     20          1           0       -4.227180   -0.553830    1.613530
     21          1           0       -2.155320   -1.569310    0.662740
     22          1           0       -1.350960   -0.002270    0.728450
     23          1           0       -3.860440   -0.614940   -0.908110
     24          1           0       -3.066840    0.931130   -0.843280
     25          1           0       -1.251800   -2.269590   -3.047210
     26          1           0       -1.103840   -2.324130   -1.325610
     27          1           0       -3.391520   -3.006800   -0.999420
     28          1           0       -3.792730   -2.745510   -2.696810
     29          1           0       -1.810460   -4.822970   -1.633330
     30          1           0       -2.182600   -4.555080   -3.349430
     31          1           0       -3.441930   -5.141000   -2.251740
     32          1           0       -0.057310   -0.285290   -1.240120
     33          1           0       -0.129330   -0.082800   -2.955520
     34          1           0       -1.237760    2.232040   -2.488090
     35          1           0       -0.849380    1.945740   -0.791750
     36          1           0        1.192250    2.019730   -3.073740
     37          1           0        1.568380    1.759610   -1.357310
     38          1           0        0.895480    3.309050   -1.897420
     39          1           0       -3.831290   -0.518480   -3.310440
     40          1           0       -3.046360    1.010690   -3.246320
     41          1           0       -3.155900   -2.205200   -4.996270
     42          1           0       -2.065780   -2.664470   -7.088970
     43          1           0       -0.542110   -1.040260   -8.060840
     44          1           0       -0.146340    1.074910   -6.932180
     45          1           0       -1.226330    1.553920   -4.838660
 ---------------------------------------------------------------------
                    Distance matrix (angstroms):
                    1          2          3          4          5
     1  C    0.000000
     2  C    1.546008   0.000000
     3  C    2.582868   1.560767   0.000000
     4  N    4.002574   2.661070   1.530692   0.000000
     5  C    4.559541   3.149052   2.524611   1.534611   0.000000
     6  C    4.772404   3.682340   3.110140   2.677611   1.561245
     7  C    6.035002   4.941065   4.594052   4.006136   2.581766
     8  C    4.559541   3.149047   2.524617   1.534609   2.458265
     9  C    4.772406   3.682335   3.110148   2.677605   3.936091
    10  C    6.034999   4.941054   4.594058   4.006130   5.022032
    11  C    5.041982   3.945488   2.473948   1.538557   2.526801
    12  C    6.465982   5.246411   3.883250   2.610896   3.105506
    13  C    7.273596   6.038378   4.749257   3.477708   3.369679
    14  C    8.605505   7.306496   6.073625   4.707077   4.488918
    15  C    9.197911   7.861643   6.636473   5.212086   5.243970
    16  C    8.605510   7.306491   6.073622   4.707058   5.111947
    17  C    7.273656   6.038444   4.749331   3.477795   4.162931
    18  H    1.091692   2.176804   3.524798   4.822630   5.207063
    19  H    1.091683   2.181108   2.833298   4.285120   5.145322
    20  H    1.091683   2.181114   2.833301   4.285126   4.701677
    21  H    2.148542   1.090287   2.191490   2.934576   2.850275
    22  H    2.148541   1.090281   2.191496   2.934578   3.529469
    23  H    2.743864   2.146211   1.094925   2.158868   2.788314
    24  H    2.743863   2.146206   1.094934   2.158867   3.471278
    25  H    5.619554   4.168681   3.464143   2.154477   1.093271
    26  H    4.361634   2.900082   2.847140   2.170272   1.094421
    27  H    4.009614   3.154598   2.911186   3.025798   2.187645
    28  H    5.191079   4.236956   3.322996   2.896989   2.201450
    29  H    6.002158   4.884302   4.860560   4.333176   2.835173
    30  H    6.857245   5.647153   5.118703   4.234736   2.832212
    31  H    6.450228   5.554156   5.220819   4.831317   3.523636
    32  H    4.361631   2.900075   2.847140   2.170266   2.614458
    33  H    5.619553   4.168678   3.464143   2.154470   2.691091
    34  H    5.191071   4.236942   3.322997   2.896981   4.313920
    35  H    4.009614   3.154590   2.911199   3.025800   4.298861
    36  H    6.857243   5.647144   5.118707   4.234730   5.118746
    37  H    6.002158   4.884295   4.860570   4.333177   5.122489
    38  H    6.450229   5.554148   5.220830   4.831315   5.981761
    39  H    5.074152   4.169875   2.674245   2.170282   2.802954
    40  H    5.074152   4.169872   2.674248   2.170277   3.476331
    41  H    7.043764   5.886643   4.645331   3.550525   3.183306
    42  H    9.255717   7.966778   6.783860   5.453572   5.010727
    43  H   10.190178   8.829715   7.638625   6.193815   6.144963
    44  H    9.255739   7.966798   6.783889   5.453600   5.953784
    45  H    7.043768   5.886639   4.645332   3.550510   4.530758
                    6          7          8          9         10
     6  C    0.000000
     7  C    1.547716   0.000000
     8  C    3.936092   5.022033   0.000000
     9  C    5.310790   6.517818   1.561245   0.000000
    10  C    6.517817   7.548127   2.581764   1.547715   0.000000
    11  C    3.238404   4.534872   2.526794   3.238385   4.534854
    12  C    3.869984   4.793870   3.105582   3.870109   4.794017
    13  C    3.717694   4.253997   4.162811   5.169899   6.036593
    14  C    4.883707   5.102513   5.112013   6.064202   6.663655
    15  C    5.941558   6.256661   5.243914   5.941444   6.256514
    16  C    6.064117   6.663538   4.488938   4.883775   5.102612
    17  C    5.170039   6.036739   3.369725   3.717672   4.253946
    18  H    5.422022   6.522418   5.207063   5.422026   6.522416
    19  H    5.499269   6.866165   4.701674   4.561153   5.807782
    20  H    4.561154   5.807787   5.145327   5.499275   6.866166
    21  H    3.160020   4.199374   3.529463   4.398497   5.562317
    22  H    4.398500   5.562325   2.850277   3.160023   4.199370
    23  H    2.790952   4.316339   3.471278   4.126160   5.635370
    24  H    4.126162   5.635374   2.788314   2.790950   4.316334
    25  H    2.157353   2.675067   2.691091   4.209205   5.071738
    26  H    2.126577   2.799580   2.614456   4.086779   5.014781
    27  H    1.092763   2.149165   4.298856   5.547900   6.831368
    28  H    1.089458   2.150706   4.313923   5.560701   6.847379
    29  H    2.184437   1.092295   5.122483   6.640349   7.555222
    30  H    2.184986   1.092082   5.118748   6.637034   7.550827
    31  H    2.177361   1.091385   5.981758   7.430956   8.540190
    32  H    4.086779   5.014785   1.094414   2.126573   2.799575
    33  H    4.209205   5.071739   1.093270   2.157348   2.675067
    34  H    5.560699   6.847378   2.201453   1.089455   2.150712
    35  H    5.547905   6.831375   2.187651   1.092772   2.149163
    36  H    6.637034   7.550826   2.832210   2.184982   1.092083
    37  H    6.640354   7.555228   2.835177   2.184443   1.092297
    38  H    7.430959   8.540194   3.523639   2.177364   1.091389
    39  H    2.943537   4.270258   3.476335   4.218912   5.587330
    40  H    4.218915   5.587331   2.802951   2.943527   4.270250
    41  H    3.095775   3.550812   4.530782   5.660384   6.672690
    42  H    5.169486   5.116383   5.953749   7.004376   7.610888
    43  H    6.817146   6.984479   6.144968   6.817150   6.984492
    44  H    7.004423   7.610934   5.010744   5.169484   5.116372
    45  H    5.660361   6.672660   3.183306   3.095789   3.550837
                   11         12         13         14         15
    11  C    0.000000
    12  C    1.500623   0.000000
    13  C    2.541392   1.418212   0.000000
    14  C    3.835164   2.459239   1.406729   0.000000
    15  C    4.340924   2.841622   2.436243   1.406280   0.000000
    16  C    3.835138   2.459279   2.809326   2.433368   1.405904
    17  C    2.541476   1.418511   2.430413   2.809567   2.436171
    18  H    5.998097   7.372442   8.149733   9.448363  10.032449
    19  H    5.143467   6.593787   7.552705   8.882440   9.362041
    20  H    5.143477   6.593768   7.261170   8.635576   9.362070
    21  H    4.307087   5.480571   6.049948   7.277921   7.952449
    22  H    4.307086   5.480604   6.394186   7.566878   7.952424
    23  H    2.672490   4.106031   4.753109   6.143525   6.887552
    24  H    2.672486   4.106073   5.178652   6.478811   6.887523
    25  H    2.730984   2.731851   2.754145   3.648451   4.372907
    26  H    3.474916   4.067866   4.364575   5.366345   6.033054
    27  H    3.786725   4.697852   4.709369   5.934656   6.963711
    28  H    2.915262   3.497082   3.217840   4.456762   5.606224
    29  H    5.152532   5.457782   5.047594   5.830713   6.869992
    30  H    4.541042   4.447272   3.672939   4.289162   5.459462
    31  H    5.224525   5.534701   4.880564   5.717088   6.974986
    32  H    3.474905   4.067916   4.962148   5.863324   6.033007
    33  H    2.730967   2.731927   3.682816   4.392842   4.372833
    34  H    2.915239   3.497233   4.895026   5.786868   5.606106
    35  H    3.786717   4.697969   5.976340   6.984042   6.963619
    36  H    4.541024   4.447427   5.609239   6.032759   5.459296
    37  H    5.152523   5.457915   6.593377   7.212202   6.869866
    38  H    5.224509   5.534864   6.849762   7.470977   6.974821
    39  H    1.094638   2.100487   2.645375   4.031440   4.795772
    40  H    1.094622   2.100562   3.343380   4.520874   4.795725
    41  H    2.743681   2.129244   1.022740   2.095649   3.350092
    42  H    4.649827   3.380976   2.112574   1.022651   2.112228
    43  H    5.362494   3.863694   3.361104   2.112679   1.022278
    44  H    4.649854   3.381136   3.832146   3.358855   2.112038
    45  H    2.743647   2.129393   3.364799   3.831631   3.349899
                   16         17         18         19         20
    16  C    0.000000
    17  C    1.406739   0.000000
    18  H    9.448368   8.149793   0.000000
    19  H    8.635595   7.261204   1.772175   0.000000
    20  H    8.882436   7.552784   1.772170   1.777112   0.000000
    21  H    7.566849   6.394269   2.468424   3.059447   2.495557
    22  H    7.277937   6.050000   2.468423   2.495554   3.059449
    23  H    6.478786   5.178738   3.743699   3.096348   2.548902
    24  H    6.143550   4.753151   3.743698   2.548894   3.096354
    25  H    4.392763   3.682952   6.252994   6.155520   5.789578
    26  H    5.863269   4.962259   4.801381   5.059965   4.639802
    27  H    6.983960   5.976460   4.591959   4.841767   3.680068
    28  H    5.786770   4.895165   5.977178   5.789735   4.855022
    29  H    7.212086   6.593509   6.320821   6.911322   5.882873
    30  H    6.032627   5.609390   7.398219   7.613403   6.694870
    31  H    7.470851   6.849908   6.925893   7.313698   6.049716
    32  H    5.366355   4.364619   4.801379   4.639795   5.059965
    33  H    3.648458   2.754181   6.252995   5.789573   6.155523
    34  H    4.456857   3.217804   5.977170   4.855009   5.789731
    35  H    5.934731   4.709364   4.591958   3.680064   4.841772
    36  H    4.289267   3.672872   7.398218   6.694865   7.613405
    37  H    5.830800   5.047568   6.320821   5.882871   6.911325
    38  H    5.717209   4.880491   6.925894   6.049714   7.313703
    39  H    4.520832   3.343486   6.075603   5.240240   4.939986
    40  H    4.031460   2.645410   6.075602   4.939979   5.240248
    41  H    3.831544   3.364987   7.910961   7.421481   6.896675
    42  H    3.358626   3.832206  10.075364   9.609088   9.211946
    43  H    2.112564   3.361141  11.004792  10.363866  10.363869
    44  H    1.022833   2.112524  10.075385   9.211959   9.609121
    45  H    2.095722   1.022580   7.910965   6.896678   7.421487
                   21         22         23         24         25
    21  H    0.000000
    22  H    1.762648   0.000000
    23  H    2.507155   3.057970   0.000000
    24  H    3.057967   2.507153   1.739062   0.000000
    25  H    3.882070   4.405245   3.757475   4.289089   0.000000
    26  H    2.372530   3.109866   3.270242   3.831805   1.728807
    27  H    2.521377   4.022017   2.439102   3.954376   3.052102
    28  H    3.918052   5.021953   2.782690   4.180929   2.608756
    29  H    3.997145   5.387791   4.736653   5.942418   2.971684
    30  H    5.001307   6.168372   4.929492   6.095996   2.486200
    31  H    4.786077   6.297637   4.739801   6.244615   3.697896
    32  H    3.109860   2.372530   3.831801   3.270234   2.937657
    33  H    4.405242   3.882074   4.289084   3.757469   2.459755
    34  H    5.021943   3.918046   4.180919   2.782679   4.536241
    35  H    4.022014   2.521375   3.954378   2.439102   4.797713
    36  H    6.168364   5.001305   6.095992   4.929488   4.936836
    37  H    5.387787   3.997144   5.942420   4.736652   5.200349
    38  H    6.297634   4.786076   6.244614   4.739799   6.087204
    39  H    4.438387   4.767719   2.404442   2.961863   3.128809
    40  H    4.767715   4.438385   2.961862   2.404444   3.744373
    41  H    5.781860   6.393992   4.442787   5.204981   2.725542
    42  H    7.829202   8.289170   6.754584   7.275926   4.141777
    43  H    8.887249   8.887254   7.896440   7.896443   5.210700
    44  H    8.289192   7.829220   7.275957   6.754606   5.244112
    45  H    6.393981   5.781866   5.204970   4.442793   4.222460
                   26         27         28         29         30
    26  H    0.000000
    27  H    2.409547   0.000000
    28  H    3.047602   1.763625   0.000000
    29  H    2.614996   2.489993   3.062062   0.000000
    30  H    3.199486   3.062875   2.508580   1.776303   0.000000
    31  H    3.776127   2.475006   2.461609   1.773490   1.770350
    32  H    2.293339   4.310628   4.704040   4.880439   5.215089
    33  H    2.937658   4.797706   4.536238   5.200346   4.936838
    34  H    4.704039   5.856643   5.598878   7.129640   6.906492
    35  H    4.310632   5.570750   5.856653   6.888205   7.111952
    36  H    5.215085   7.111945   6.906491   7.610098   7.395522
    37  H    4.880440   6.888204   7.129647   7.404263   7.610105
    38  H    6.004745   7.686009   7.699093   8.574474   8.568982
    39  H    3.826082   3.424317   2.310344   5.042329   4.360486
    40  H    4.310862   4.616050   3.868859   6.177441   5.633339
    41  H    4.206999   4.083245   2.446427   4.469037   3.030071
    42  H    5.852989   6.241586   4.720169   5.872676   4.191922
    43  H    6.879476   7.864482   6.499787   7.565084   6.102668
    44  H    6.626002   7.898683   6.769795   8.101364   6.977051
    45  H    5.234099   6.342553   5.446010   7.161011   6.360200
                   31         32         33         34         35
    31  H    0.000000
    32  H    6.004744   0.000000
    33  H    6.087201   1.728811   0.000000
    34  H    7.699087   3.047596   2.608753   0.000000
    35  H    7.686011   2.409545   3.052105   1.763626   0.000000
    36  H    8.568977   3.199481   2.486198   2.508587   3.062875
    37  H    8.574475   2.614999   2.971695   3.062070   2.489993
    38  H    9.504842   3.776127   3.697899   2.461616   2.475006
    39  H    4.758165   4.310862   3.744368   3.868852   4.616055
    40  H    6.244114   3.826071   3.128794   2.310334   3.424318
    41  H    4.029042   5.234117   4.222484   5.446038   6.342580
    42  H    5.605870   6.625971   5.244070   6.769751   7.898648
    43  H    7.679236   6.879479   5.210701   6.499801   7.864495
    44  H    8.450146   5.853001   4.141788   4.720178   6.241594
    45  H    7.511524   4.206993   2.725523   2.446458   4.083270
                   36         37         38         39         40
    36  H    0.000000
    37  H    1.776307   0.000000
    38  H    1.770352   1.773493   0.000000
    39  H    5.633337   6.177447   6.244115   0.000000
    40  H    4.360477   5.042327   4.758161   1.720054   0.000000
    41  H    6.360233   7.161045   7.511558   2.478548   3.662823
    42  H    6.977002   8.101329   8.450100   4.690372   5.406875
    43  H    6.102681   7.565101   7.679252   5.801488   5.801488
    44  H    4.191905   5.872670   5.605852   5.406917   4.690395
    45  H    3.030091   4.469061   4.029076   3.662801   2.478539
                   41         42         43         44         45
    41  H    0.000000
    42  H    2.403889   0.000000
    43  H    4.192919   2.429848   0.000000
    44  H    4.854309   4.206162   2.429908   0.000000
    45  H    4.228364   4.854213   4.192895   2.403883   0.000000
 Stoichiometry    C16H28N(1+)
 Framework group  C1[X(C16H28N)]
 Deg. of freedom   129
 Full point group                 C1      NOp   1
 Largest Abelian subgroup         C1      NOp   1
 Largest concise Abelian subgroup C1      NOp   1
                         Standard orientation:                         
 ---------------------------------------------------------------------
 Center     Atomic      Atomic             Coordinates (Angstroms)
 Number     Number       Type             X           Y           Z
 ---------------------------------------------------------------------
      1          6           0        4.764661   -0.000013   -0.810655
      2          6           0        3.478099   -0.000015    0.046607
      3          6           0        2.181821   -0.000001   -0.822678
      4          7           0        0.822217   -0.000004   -0.119475
      5          6           0        0.675102    1.229131    0.787506
      6          6           0        0.931966    2.655394    0.206745
      7          6           0        0.499002    3.774063    1.184777
      8          6           0        0.675095   -1.229134    0.787508
      9          6           0        0.931946   -2.655397    0.206741
     10          6           0        0.498982   -3.774064    1.184773
     11          6           0       -0.261342   -0.000008   -1.211748
     12          6           0       -1.701285    0.000100   -0.789337
     13          6           0       -2.403108    1.215142   -0.583321
     14          6           0       -3.724837    1.216781   -0.101744
     15          6           0       -4.382853   -0.000109    0.150884
     16          6           0       -3.724871   -1.216587   -0.101711
     17          6           0       -2.403152   -1.215271   -0.583348
     18          1           0        5.644636   -0.000016   -0.164562
     19          1           0        4.799469   -0.888568   -1.443925
     20          1           0        4.799481    0.888544   -1.443921
     21          1           0        3.502325    0.881312    0.688012
     22          1           0        3.502323   -0.881336    0.688010
     23          1           0        2.250973    0.869524   -1.484499
     24          1           0        2.250969   -0.869538   -1.484497
     25          1           0       -0.326487    1.229879    1.225752
     26          1           0        1.348285    1.146664    1.646448
     27          1           0        1.997799    2.785368    0.003676
     28          1           0        0.393875    2.799441   -0.729537
     29          1           0        1.058966    3.702126    2.119855
     30          1           0       -0.567670    3.697764    1.406212
     31          1           0        0.688361    4.752418    0.739708
     32          1           0        1.348279   -1.146674    1.646441
     33          1           0       -0.326498   -1.229876    1.225742
     34          1           0        0.393865   -2.799437   -0.729545
     35          1           0        1.997787   -2.785382    0.003675
     36          1           0       -0.567691   -3.697758    1.406207
     37          1           0        1.058949   -3.702137    2.119853
     38          1           0        0.688333   -4.752424    0.739701
     39          1           0       -0.121634    0.860028   -1.874359
     40          1           0       -0.121640   -0.860027   -1.874354
     41          1           0       -1.954215    2.114209   -0.773508
     42          1           0       -4.206050    2.103067    0.067800
     43          1           0       -5.339361    0.000028    0.511638
     44          1           0       -4.206071   -2.103095    0.067811
     45          1           0       -1.954244   -2.114156   -0.773500
 ---------------------------------------------------------------------
 Rotational constants (GHZ):           0.5483473           0.3155878           0.2255923
 Leave Link  202 at Tue Feb 23 00:11:04 2021, MaxMem=   104857600 cpu:               0.8 elap:               0.1
 (Enter /sw/arch/RedHatEnterpriseServer7/EB_production/2019/software/Gaussian/g16.c01/l301.exe)
 Standard basis: TZVP (5D, 7F)
 Ernie: Thresh=  0.10000D-02 Tol=  0.10000D-05 Strict=F.
 There are   508 symmetry adapted cartesian basis functions of A   symmetry.
 There are   491 symmetry adapted basis functions of A   symmetry.
   491 basis functions,   819 primitive gaussians,   508 cartesian basis functions
    65 alpha electrons       65 beta electrons
       nuclear repulsion energy      1282.6766310423 Hartrees.
 IExCor=  404 DFT=T Ex=B Corr=P86 ExCW=0 ScaHFX=  0.000000
 ScaDFX=  1.000000  1.000000  1.000000  1.000000 ScalE2=  1.000000  1.000000
 IRadAn=      5 IRanWt=     -1 IRanGd=            0 ICorTp=0 IEmpDi=131
 NAtoms=   45 NActive=   45 NUniq=   45 SFac= 1.00D+00 NAtFMM=   60 NAOKFM=F Big=F
 Integral buffers will be    131072 words long.
 Raffenetti 2 integral format.
 Two-electron integral symmetry is turned on.
 R6Disp:  Grimme-D3 Dispersion energy=       -0.0576511975 Hartrees.
 Nuclear repulsion after empirical dispersion term =     1282.6189798448 Hartrees.
 ------------------------------------------------------------------------------
 Polarizable Continuum Model (PCM)
 =================================
 Model                : PCM.
 Atomic radii         : UFF (Universal Force Field).
 Polarization charges : Total charges.
 Charge compensation  : None.
 Solution method      : On-the-fly selection.
 Cavity type          : Scaled VdW (van der Waals Surface) (Alpha=1.100).
 Cavity algorithm     : GePol (No added spheres)
                        Default sphere list used, NSphG=   45.
                        Lebedev-Laikov grids with approx.  5.0 points / Ang**2.
                        Smoothing algorithm: York/Karplus (Gamma=1.0000).
                        Polarization charges: spherical gaussians, with
                                              point-specific exponents (IZeta= 3).
                        Self-potential: point-specific (ISelfS= 7).
                        Self-field    : sphere-specific E.n sum rule (ISelfD= 2).
 1st derivatives      : Analytical E(r).r(x)/FMM algorithm (CHGder, D1EAlg=3).
                        Cavity 1st derivative terms included.
 Solvent              : Water, Eps=  78.355300 Eps(inf)=   1.777849
 ------------------------------------------------------------------------------
 GePol: Number of generator spheres                  =      45
 GePol: Total number of spheres                      =      45
 GePol: Number of exposed spheres                    =      44 ( 97.78%)
 GePol: Number of points                             =    2763
 GePol: Average weight of points                     =       0.13
 GePol: Minimum weight of points                     =   0.16D-07
 GePol: Maximum weight of points                     =    0.20577
 GePol: Number of points with low weight             =     213
 GePol: Fraction of low-weight points (<1% of avg)   =       7.71%
 GePol: Cavity surface area                          =    360.718 Ang**2
 GePol: Cavity volume                                =    403.787 Ang**3
 Leave Link  301 at Tue Feb 23 00:11:04 2021, MaxMem=   104857600 cpu:               3.1 elap:               0.2
 (Enter /sw/arch/RedHatEnterpriseServer7/EB_production/2019/software/Gaussian/g16.c01/l302.exe)
 NPDir=0 NMtPBC=     1 NCelOv=     1 NCel=       1 NClECP=     1 NCelD=      1
         NCelK=      1 NCelE2=     1 NClLst=     1 CellRange=     0.0.
 One-electron integrals computed using PRISM.
 One-electron integral symmetry used in STVInt
 PrsmSu:  requested number of processors reduced to:  24 ShMem   1 Linda.
 NBasis=   491 RedAO= T EigKep=  8.75D-06  NBF=   491
 NBsUse=   491 1.00D-06 EigRej= -1.00D+00 NBFU=   491
 Precomputing XC quadrature grid using
 IXCGrd= 4 IRadAn=           5 IRanWt=          -1 IRanGd=           0 AccXCQ= 0.00D+00.
 Generated NRdTot=       0 NPtTot=           0 NUsed=           0 NTot=          32
 NSgBfM=   501   501   501   501   501 MxSgAt=    45 MxSgA2=    45.
 Leave Link  302 at Tue Feb 23 00:11:05 2021, MaxMem=   104857600 cpu:              20.1 elap:               0.7
 (Enter /sw/arch/RedHatEnterpriseServer7/EB_production/2019/software/Gaussian/g16.c01/l303.exe)
 DipDrv:  MaxL=1.
 Leave Link  303 at Tue Feb 23 00:11:05 2021, MaxMem=   104857600 cpu:               3.4 elap:               0.1
 (Enter /sw/arch/RedHatEnterpriseServer7/EB_production/2019/software/Gaussian/g16.c01/l401.exe)
 ExpMin= 9.52D-02 ExpMax= 1.97D+04 ExpMxC= 6.73D+02 IAcc=3 IRadAn=         5 AccDes= 0.00D+00
 Harris functional with IExCor=  404 and IRadAn=       5 diagonalized for initial guess.
 HarFok:  IExCor=  404 AccDes= 0.00D+00 IRadAn=         5 IDoV= 1 UseB2=F ITyADJ=14
 ICtDFT=  3500011 ScaDFX=  1.000000  1.000000  1.000000  1.000000
 FoFCou: FMM=F IPFlag=           0 FMFlag=      100000 FMFlg1=           0
         NFxFlg=           0 DoJE=T BraDBF=F KetDBF=T FulRan=T
         wScrn=  0.000000 ICntrl=       500 IOpCl=  0 I1Cent=   200000004 NGrid=           0
         NMat0=    1 NMatS0=      1 NMatT0=    0 NMatD0=    1 NMtDS0=    0 NMtDT0=    0
 Petite list used in FoFCou.
 Harris En= -681.761276590591    
 JPrj=0 DoOrth=F DoCkMO=F.
 Leave Link  401 at Tue Feb 23 00:11:07 2021, MaxMem=   104857600 cpu:              39.4 elap:               1.3
 (Enter /sw/arch/RedHatEnterpriseServer7/EB_production/2019/software/Gaussian/g16.c01/l502.exe)
 Integral symmetry usage will be decided dynamically.
 Closed shell SCF:
 Using DIIS extrapolation, IDIIS=  1040.
 NGot=   104857600 LenX=   104318816 LenY=   104060244
 Requested convergence on RMS density matrix=1.00D-08 within 128 cycles.
 Requested convergence on MAX density matrix=1.00D-06.
 Requested convergence on             energy=1.00D-06.
 No special actions if energy rises.
 Fock matrices will be formed incrementally for  20 cycles.

 Cycle   1  Pass 1  IDiag  1:
 FoFJK:  IHMeth= 1 ICntrl=     500 DoSepK=F KAlg= 0 I1Cent=           0 FoldK=F
 IRaf= 840000000 NMat=       1 IRICut=       1 DoRegI=T DoRafI=F ISym2E= 0 IDoP0=0 IntGTp=1.
 FoFCou: FMM=F IPFlag=           0 FMFlag=      100000 FMFlg1=           0
         NFxFlg=           0 DoJE=T BraDBF=F KetDBF=F FulRan=T
         wScrn=  0.000000 ICntrl=       500 IOpCl=  0 I1Cent=           0 NGrid=           0
         NMat0=    1 NMatS0=      1 NMatT0=    0 NMatD0=    1 NMtDS0=    0 NMtDT0=    0
 Symmetry not used in FoFCou.
 Inv3:  Mode=1 IEnd=    22902507.
 Iteration    1 A*A^-1 deviation from unit magnitude is 3.33D-15 for   1151.
 Iteration    1 A*A^-1 deviation from orthogonality  is 1.63D-15 for   2557   1758.
 Iteration    1 A^-1*A deviation from unit magnitude is 3.77D-15 for    606.
 Iteration    1 A^-1*A deviation from orthogonality  is 3.00D-15 for   2703   1346.
 E= -680.891229089177    
 DIIS: error= 2.60D-02 at cycle   1 NSaved=   1.
 NSaved= 1 IEnMin= 1 EnMin= -680.891229089177     IErMin= 1 ErrMin= 2.60D-02
 ErrMax= 2.60D-02  0.00D+00 EMaxC= 1.00D-01 BMatC= 4.86D-01 BMatP= 4.86D-01
 IDIUse=3 WtCom= 7.40D-01 WtEn= 2.60D-01
 Coeff-Com:  0.100D+01
 Coeff-En:   0.100D+01
 Coeff:      0.100D+01
 Gap=     0.172 Goal=   None    Shift=    0.000
 GapD=    0.172 DampG=1.000 DampE=0.500 DampFc=0.5000 IDamp=-1.
 Damping current iteration by 5.00D-01
 RMSDP=3.60D-03 MaxDP=1.95D-01              OVMax= 2.43D-01

 Cycle   2  Pass 1  IDiag  1:
 RMSU=  1.78D-03    CP:  9.68D-01
 E= -681.007570210205     Delta-E=       -0.116341121028 Rises=F Damp=T
 DIIS: error= 2.11D-02 at cycle   2 NSaved=   2.
 NSaved= 2 IEnMin= 2 EnMin= -681.007570210205     IErMin= 2 ErrMin= 2.11D-02
 ErrMax= 2.11D-02  0.00D+00 EMaxC= 1.00D-01 BMatC= 8.35D-02 BMatP= 4.86D-01
 IDIUse=3 WtCom= 7.89D-01 WtEn= 2.11D-01
 Coeff-Com:  0.244D+00 0.756D+00
 Coeff-En:   0.379D+00 0.621D+00
 Coeff:      0.273D+00 0.727D+00
 Gap=     0.198 Goal=   None    Shift=    0.000
 RMSDP=1.05D-03 MaxDP=5.47D-02 DE=-1.16D-01 OVMax= 2.21D-01

 Cycle   3  Pass 1  IDiag  1:
 RMSU=  8.68D-04    CP:  9.59D-01  6.66D-01
 E= -681.337927857268     Delta-E=       -0.330357647064 Rises=F Damp=F
 DIIS: error= 1.42D-02 at cycle   3 NSaved=   3.
 NSaved= 3 IEnMin= 3 EnMin= -681.337927857268     IErMin= 3 ErrMin= 1.42D-02
 ErrMax= 1.42D-02  0.00D+00 EMaxC= 1.00D-01 BMatC= 4.61D-02 BMatP= 8.35D-02
 IDIUse=3 WtCom= 8.58D-01 WtEn= 1.42D-01
 Coeff-Com:  0.106D+00 0.422D+00 0.472D+00
 Coeff-En:   0.000D+00 0.000D+00 0.100D+01
 Coeff:      0.909D-01 0.362D+00 0.547D+00
 Gap=     0.173 Goal=   None    Shift=    0.000
 RMSDP=7.11D-04 MaxDP=3.45D-02 DE=-3.30D-01 OVMax= 7.87D-02

 Cycle   4  Pass 1  IDiag  1:
 RMSU=  5.15D-04    CP:  9.77D-01  7.95D-01  5.30D-01
 E= -681.365009797651     Delta-E=       -0.027081940383 Rises=F Damp=F
 DIIS: error= 7.77D-03 at cycle   4 NSaved=   4.
 NSaved= 4 IEnMin= 4 EnMin= -681.365009797651     IErMin= 4 ErrMin= 7.77D-03
 ErrMax= 7.77D-03  0.00D+00 EMaxC= 1.00D-01 BMatC= 1.63D-02 BMatP= 4.61D-02
 IDIUse=3 WtCom= 9.22D-01 WtEn= 7.77D-02
 Coeff-Com:  0.279D-01 0.939D-01 0.368D+00 0.510D+00
 Coeff-En:   0.000D+00 0.000D+00 0.311D+00 0.689D+00
 Coeff:      0.257D-01 0.866D-01 0.364D+00 0.524D+00
 Gap=     0.172 Goal=   None    Shift=    0.000
 RMSDP=3.99D-04 MaxDP=3.36D-02 DE=-2.71D-02 OVMax= 4.87D-02

 Cycle   5  Pass 1  IDiag  1:
 RMSU=  1.82D-04    CP:  9.66D-01  7.27D-01  6.72D-01  4.21D-01
 E= -681.380047534116     Delta-E=       -0.015037736465 Rises=F Damp=F
 DIIS: error= 1.79D-03 at cycle   5 NSaved=   5.
 NSaved= 5 IEnMin= 5 EnMin= -681.380047534116     IErMin= 5 ErrMin= 1.79D-03
 ErrMax= 1.79D-03  0.00D+00 EMaxC= 1.00D-01 BMatC= 6.41D-04 BMatP= 1.63D-02
 IDIUse=3 WtCom= 9.82D-01 WtEn= 1.79D-02
 Coeff-Com:  0.958D-02 0.288D-01 0.178D+00 0.302D+00 0.482D+00
 Coeff-En:   0.000D+00 0.000D+00 0.000D+00 0.000D+00 0.100D+01
 Coeff:      0.941D-02 0.283D-01 0.175D+00 0.297D+00 0.491D+00
 Gap=     0.171 Goal=   None    Shift=    0.000
 RMSDP=9.02D-05 MaxDP=6.75D-03 DE=-1.50D-02 OVMax= 1.91D-02

 Cycle   6  Pass 1  IDiag  1:
 RMSU=  6.23D-05    CP:  9.67D-01  7.37D-01  6.62D-01  5.01D-01  7.46D-01
 E= -681.380580644003     Delta-E=       -0.000533109887 Rises=F Damp=F
 DIIS: error= 9.45D-04 at cycle   6 NSaved=   6.
 NSaved= 6 IEnMin= 6 EnMin= -681.380580644003     IErMin= 6 ErrMin= 9.45D-04
 ErrMax= 9.45D-04  0.00D+00 EMaxC= 1.00D-01 BMatC= 1.72D-04 BMatP= 6.41D-04
 IDIUse=3 WtCom= 9.91D-01 WtEn= 9.45D-03
 Coeff-Com:  0.227D-02 0.460D-02 0.631D-01 0.128D+00 0.358D+00 0.444D+00
 Coeff-En:   0.000D+00 0.000D+00 0.000D+00 0.000D+00 0.245D+00 0.755D+00
 Coeff:      0.225D-02 0.455D-02 0.625D-01 0.126D+00 0.357D+00 0.447D+00
 Gap=     0.171 Goal=   None    Shift=    0.000
 RMSDP=3.54D-05 MaxDP=1.46D-03 DE=-5.33D-04 OVMax= 6.76D-03

 Cycle   7  Pass 1  IDiag  1:
 RMSU=  1.56D-05    CP:  9.67D-01  7.36D-01  6.68D-01  4.97D-01  7.35D-01
                    CP:  5.00D-01
 E= -681.380764840459     Delta-E=       -0.000184196456 Rises=F Damp=F
 DIIS: error= 1.08D-04 at cycle   7 NSaved=   7.
 NSaved= 7 IEnMin= 7 EnMin= -681.380764840459     IErMin= 7 ErrMin= 1.08D-04
 ErrMax= 1.08D-04  0.00D+00 EMaxC= 1.00D-01 BMatC= 5.74D-06 BMatP= 1.72D-04
 IDIUse=3 WtCom= 9.99D-01 WtEn= 1.08D-03
 Coeff-Com:  0.817D-03 0.966D-03 0.260D-01 0.560D-01 0.177D+00 0.257D+00
 Coeff-Com:  0.483D+00
 Coeff-En:   0.000D+00 0.000D+00 0.000D+00 0.000D+00 0.000D+00 0.000D+00
 Coeff-En:   0.100D+01
 Coeff:      0.817D-03 0.965D-03 0.260D-01 0.560D-01 0.177D+00 0.256D+00
 Coeff:      0.483D+00
 Gap=     0.171 Goal=   None    Shift=    0.000
 RMSDP=7.74D-06 MaxDP=5.04D-04 DE=-1.84D-04 OVMax= 8.07D-04

 Cycle   8  Pass 1  IDiag  1:
 RMSU=  5.03D-06    CP:  9.68D-01  7.36D-01  6.67D-01  5.03D-01  7.21D-01
                    CP:  5.15D-01  7.50D-01
 E= -681.380770599154     Delta-E=       -0.000005758695 Rises=F Damp=F
 DIIS: error= 1.93D-05 at cycle   8 NSaved=   8.
 NSaved= 8 IEnMin= 8 EnMin= -681.380770599154     IErMin= 8 ErrMin= 1.93D-05
 ErrMax= 1.93D-05  0.00D+00 EMaxC= 1.00D-01 BMatC= 2.49D-07 BMatP= 5.74D-06
 IDIUse=1 WtCom= 1.00D+00 WtEn= 0.00D+00
 Coeff-Com:  0.170D-03-0.676D-04 0.399D-02 0.930D-02 0.345D-01 0.584D-01
 Coeff-Com:  0.211D+00 0.683D+00
 Coeff:      0.170D-03-0.676D-04 0.399D-02 0.930D-02 0.345D-01 0.584D-01
 Coeff:      0.211D+00 0.683D+00
 Gap=     0.171 Goal=   None    Shift=    0.000
 RMSDP=2.54D-06 MaxDP=2.37D-04 DE=-5.76D-06 OVMax= 1.74D-04

 Cycle   9  Pass 1  IDiag  1:
 RMSU=  1.28D-06    CP:  9.68D-01  7.36D-01  6.67D-01  5.01D-01  7.30D-01
                    CP:  5.18D-01  7.31D-01  8.24D-01
 E= -681.380770783916     Delta-E=       -0.000000184762 Rises=F Damp=F
 DIIS: error= 7.85D-06 at cycle   9 NSaved=   9.
 NSaved= 9 IEnMin= 9 EnMin= -681.380770783916     IErMin= 9 ErrMin= 7.85D-06
 ErrMax= 7.85D-06  0.00D+00 EMaxC= 1.00D-01 BMatC= 3.13D-08 BMatP= 2.49D-07
 IDIUse=1 WtCom= 1.00D+00 WtEn= 0.00D+00
 Coeff-Com:  0.537D-04-0.114D-03 0.785D-03 0.207D-02 0.937D-02 0.180D-01
 Coeff-Com:  0.872D-01 0.369D+00 0.514D+00
 Coeff:      0.537D-04-0.114D-03 0.785D-03 0.207D-02 0.937D-02 0.180D-01
 Coeff:      0.872D-01 0.369D+00 0.514D+00
 Gap=     0.171 Goal=   None    Shift=    0.000
 RMSDP=6.24D-07 MaxDP=2.45D-05 DE=-1.85D-07 OVMax= 7.43D-05

 Cycle  10  Pass 1  IDiag  1:
 RMSU=  3.36D-07    CP:  9.68D-01  7.36D-01  6.67D-01  5.01D-01  7.30D-01
                    CP:  5.20D-01  7.47D-01  7.97D-01  7.40D-01
 E= -681.380770805782     Delta-E=       -0.000000021866 Rises=F Damp=F
 DIIS: error= 3.11D-06 at cycle  10 NSaved=  10.
 NSaved=10 IEnMin=10 EnMin= -681.380770805782     IErMin=10 ErrMin= 3.11D-06
 ErrMax= 3.11D-06  0.00D+00 EMaxC= 1.00D-01 BMatC= 3.14D-09 BMatP= 3.13D-08
 IDIUse=1 WtCom= 1.00D+00 WtEn= 0.00D+00
 Coeff-Com:  0.179D-04-0.481D-04 0.757D-04 0.253D-03 0.176D-02 0.411D-02
 Coeff-Com:  0.268D-01 0.136D+00 0.286D+00 0.545D+00
 Coeff:      0.179D-04-0.481D-04 0.757D-04 0.253D-03 0.176D-02 0.411D-02
 Coeff:      0.268D-01 0.136D+00 0.286D+00 0.545D+00
 Gap=     0.171 Goal=   None    Shift=    0.000
 RMSDP=2.20D-07 MaxDP=2.25D-05 DE=-2.19D-08 OVMax= 2.80D-05

 Cycle  11  Pass 1  IDiag  1:
 RMSU=  1.11D-07    CP:  9.68D-01  7.36D-01  6.67D-01  5.01D-01  7.30D-01
                    CP:  5.19D-01  7.49D-01  8.13D-01  7.08D-01  7.15D-01
 E= -681.380770819160     Delta-E=       -0.000000013379 Rises=F Damp=F
 DIIS: error= 1.01D-06 at cycle  11 NSaved=  11.
 NSaved=11 IEnMin=11 EnMin= -681.380770819160     IErMin=11 ErrMin= 1.01D-06
 ErrMax= 1.01D-06  0.00D+00 EMaxC= 1.00D-01 BMatC= 2.70D-10 BMatP= 3.14D-09
 IDIUse=1 WtCom= 1.00D+00 WtEn= 0.00D+00
 Coeff-Com:  0.809D-05-0.194D-04 0.999D-05 0.415D-04 0.504D-03 0.135D-02
 Coeff-Com:  0.101D-01 0.556D-01 0.132D+00 0.314D+00 0.486D+00
 Coeff:      0.809D-05-0.194D-04 0.999D-05 0.415D-04 0.504D-03 0.135D-02
 Coeff:      0.101D-01 0.556D-01 0.132D+00 0.314D+00 0.486D+00
 Gap=     0.171 Goal=   None    Shift=    0.000
 RMSDP=5.33D-08 MaxDP=2.18D-06 DE=-1.34D-08 OVMax= 8.12D-06

 Cycle  12  Pass 1  IDiag  1:
 RMSU=  2.97D-08    CP:  9.68D-01  7.36D-01  6.67D-01  5.01D-01  7.30D-01
                    CP:  5.19D-01  7.49D-01  8.17D-01  7.20D-01  7.11D-01
                    CP:  8.14D-01
 E= -681.380770819415     Delta-E=       -0.000000000255 Rises=F Damp=F
 DIIS: error= 2.17D-07 at cycle  12 NSaved=  12.
 NSaved=12 IEnMin=12 EnMin= -681.380770819415     IErMin=12 ErrMin= 2.17D-07
 ErrMax= 2.17D-07  0.00D+00 EMaxC= 1.00D-01 BMatC= 2.23D-11 BMatP= 2.70D-10
 IDIUse=1 WtCom= 1.00D+00 WtEn= 0.00D+00
 Coeff-Com:  0.226D-05-0.561D-05-0.322D-05-0.685D-05 0.690D-04 0.248D-03
 Coeff-Com:  0.220D-02 0.139D-01 0.373D-01 0.106D+00 0.271D+00 0.569D+00
 Coeff:      0.226D-05-0.561D-05-0.322D-05-0.685D-05 0.690D-04 0.248D-03
 Coeff:      0.220D-02 0.139D-01 0.373D-01 0.106D+00 0.271D+00 0.569D+00
 Gap=     0.171 Goal=   None    Shift=    0.000
 RMSDP=1.84D-08 MaxDP=1.22D-06 DE=-2.55D-10 OVMax= 1.50D-06

 Cycle  13  Pass 1  IDiag  1:
 RMSU=  9.79D-09    CP:  9.68D-01  7.36D-01  6.67D-01  5.01D-01  7.30D-01
                    CP:  5.19D-01  7.48D-01  8.17D-01  7.29D-01  7.18D-01
                    CP:  7.80D-01  8.29D-01
 E= -681.380770819446     Delta-E=       -0.000000000030 Rises=F Damp=F
 DIIS: error= 2.91D-08 at cycle  13 NSaved=  13.
 NSaved=13 IEnMin=13 EnMin= -681.380770819446     IErMin=13 ErrMin= 2.91D-08
 ErrMax= 2.91D-08  0.00D+00 EMaxC= 1.00D-01 BMatC= 6.52D-13 BMatP= 2.23D-11
 IDIUse=1 WtCom= 1.00D+00 WtEn= 0.00D+00
 Coeff-Com:  0.571D-06-0.133D-05-0.119D-05-0.406D-05 0.568D-05 0.356D-04
 Coeff-Com:  0.384D-03 0.291D-02 0.871D-02 0.276D-01 0.884D-01 0.241D+00
 Coeff-Com:  0.631D+00
 Coeff:      0.571D-06-0.133D-05-0.119D-05-0.406D-05 0.568D-05 0.356D-04
 Coeff:      0.384D-03 0.291D-02 0.871D-02 0.276D-01 0.884D-01 0.241D+00
 Coeff:      0.631D+00
 Gap=     0.171 Goal=   None    Shift=    0.000
 RMSDP=3.96D-09 MaxDP=1.10D-07 DE=-3.02D-11 OVMax= 2.11D-07

 Error on total polarization charges =  0.01710
 SCF Done:  E(RB-P86) =  -681.380770819     A.U. after   13 cycles
            NFock= 13  Conv=0.40D-08     -V/T= 2.0051
 KE= 6.779378986410D+02 PE=-4.124294693319D+03 EE= 1.482357044014D+03
 Leave Link  502 at Tue Feb 23 00:12:16 2021, MaxMem=   104857600 cpu:            2175.6 elap:              69.0
 (Enter /sw/arch/RedHatEnterpriseServer7/EB_production/2019/software/Gaussian/g16.c01/l601.exe)
 Copying SCF densities to generalized density rwf, IOpCl= 0 IROHF=0.

 **********************************************************************

            Population analysis using the SCF Density.

 **********************************************************************

 Orbital symmetries:
       Occupied  (A) (A) (A) (A) (A) (A) (A) (A) (A) (A) (A) (A)
                 (A) (A) (A) (A) (A) (A) (A) (A) (A) (A) (A) (A)
                 (A) (A) (A) (A) (A) (A) (A) (A) (A) (A) (A) (A)
                 (A) (A) (A) (A) (A) (A) (A) (A) (A) (A) (A) (A)
                 (A) (A) (A) (A) (A) (A) (A) (A) (A) (A) (A) (A)
                 (A) (A) (A) (A) (A)
       Virtual   (A) (A) (A) (A) (A) (A) (A) (A) (A) (A) (A) (A)
                 (A) (A) (A) (A) (A) (A) (A) (A) (A) (A) (A) (A)
                 (A) (A) (A) (A) (A) (A) (A) (A) (A) (A) (A) (A)
                 (A) (A) (A) (A) (A) (A) (A) (A) (A) (A) (A) (A)
                 (A) (A) (A) (A) (A) (A) (A) (A) (A) (A) (A) (A)
                 (A) (A) (A) (A) (A) (A) (A) (A) (A) (A) (A) (A)
                 (A) (A) (A) (A) (A) (A) (A) (A) (A) (A) (A) (A)
                 (A) (A) (A) (A) (A) (A) (A) (A) (A) (A) (A) (A)
                 (A) (A) (A) (A) (A) (A) (A) (A) (A) (A) (A) (A)
                 (A) (A) (A) (A) (A) (A) (A) (A) (A) (A) (A) (A)
                 (A) (A) (A) (A) (A) (A) (A) (A) (A) (A) (A) (A)
                 (A) (A) (A) (A) (A) (A) (A) (A) (A) (A) (A) (A)
                 (A) (A) (A) (A) (A) (A) (A) (A) (A) (A) (A) (A)
                 (A) (A) (A) (A) (A) (A) (A) (A) (A) (A) (A) (A)
                 (A) (A) (A) (A) (A) (A) (A) (A) (A) (A) (A) (A)
                 (A) (A) (A) (A) (A) (A) (A) (A) (A) (A) (A) (A)
                 (A) (A) (A) (A) (A) (A) (A) (A) (A) (A) (A) (A)
                 (A) (A) (A) (A) (A) (A) (A) (A) (A) (A) (A) (A)
                 (A) (A) (A) (A) (A) (A) (A) (A) (A) (A) (A) (A)
                 (A) (A) (A) (A) (A) (A) (A) (A) (A) (A) (A) (A)
                 (A) (A) (A) (A) (A) (A) (A) (A) (A) (A) (A) (A)
                 (A) (A) (A) (A) (A) (A) (A) (A) (A) (A) (A) (A)
                 (A) (A) (A) (A) (A) (A) (A) (A) (A) (A) (A) (A)
                 (A) (A) (A) (A) (A) (A) (A) (A) (A) (A) (A) (A)
                 (A) (A) (A) (A) (A) (A) (A) (A) (A) (A) (A) (A)
                 (A) (A) (A) (A) (A) (A) (A) (A) (A) (A) (A) (A)
                 (A) (A) (A) (A) (A) (A) (A) (A) (A) (A) (A) (A)
                 (A) (A) (A) (A) (A) (A) (A) (A) (A) (A) (A) (A)
                 (A) (A) (A) (A) (A) (A) (A) (A) (A) (A) (A) (A)
                 (A) (A) (A) (A) (A) (A) (A) (A) (A) (A) (A) (A)
                 (A) (A) (A) (A) (A) (A) (A) (A) (A) (A) (A) (A)
                 (A) (A) (A) (A) (A) (A) (A) (A) (A) (A) (A) (A)
                 (A) (A) (A) (A) (A) (A) (A) (A) (A) (A) (A) (A)
                 (A) (A) (A) (A) (A) (A) (A) (A) (A) (A) (A) (A)
                 (A) (A) (A) (A) (A) (A) (A) (A) (A) (A) (A) (A)
                 (A) (A) (A) (A) (A) (A)
 The electronic state is 1-A.
 Alpha  occ. eigenvalues --  -14.15708  -9.97266  -9.96769  -9.96657  -9.96657
 Alpha  occ. eigenvalues --   -9.93675  -9.92133  -9.92133  -9.92040  -9.91595
 Alpha  occ. eigenvalues --   -9.91593  -9.91140  -9.91113  -9.91093  -9.89952
 Alpha  occ. eigenvalues --   -9.89952  -9.89908  -0.94475  -0.79999  -0.74512
 Alpha  occ. eigenvalues --   -0.74257  -0.73690  -0.71693  -0.69819  -0.67190
 Alpha  occ. eigenvalues --   -0.65412  -0.65187  -0.60394  -0.57552  -0.57384
 Alpha  occ. eigenvalues --   -0.55174  -0.55049  -0.53949  -0.50472  -0.50181
 Alpha  occ. eigenvalues --   -0.49133  -0.46394  -0.45549  -0.43798  -0.42880
 Alpha  occ. eigenvalues --   -0.42583  -0.42215  -0.39937  -0.39723  -0.38768
 Alpha  occ. eigenvalues --   -0.38479  -0.37488  -0.37160  -0.36439  -0.36277
 Alpha  occ. eigenvalues --   -0.35969  -0.35540  -0.34957  -0.34241  -0.33595
 Alpha  occ. eigenvalues --   -0.33191  -0.32321  -0.31970  -0.31642  -0.31558
 Alpha  occ. eigenvalues --   -0.31550  -0.31454  -0.31050  -0.24869  -0.24782
 Alpha virt. eigenvalues --   -0.07641  -0.06383  -0.00286   0.01121   0.01841
 Alpha virt. eigenvalues --    0.02045   0.02320   0.03575   0.03774   0.04180
 Alpha virt. eigenvalues --    0.04866   0.05250   0.06018   0.06660   0.06818
 Alpha virt. eigenvalues --    0.07335   0.07979   0.08020   0.08755   0.08799
 Alpha virt. eigenvalues --    0.09371   0.09474   0.09593   0.09891   0.10254
 Alpha virt. eigenvalues --    0.10663   0.10941   0.10949   0.11496   0.11976
 Alpha virt. eigenvalues --    0.12046   0.12923   0.12990   0.13438   0.14029
 Alpha virt. eigenvalues --    0.14779   0.15217   0.15361   0.15899   0.16726
 Alpha virt. eigenvalues --    0.16888   0.17380   0.17438   0.17793   0.19415
 Alpha virt. eigenvalues --    0.20169   0.20316   0.20496   0.21591   0.21620
 Alpha virt. eigenvalues --    0.21821   0.22638   0.23037   0.23605   0.23741
 Alpha virt. eigenvalues --    0.23917   0.24787   0.25075   0.25766   0.25852
 Alpha virt. eigenvalues --    0.26568   0.26773   0.28087   0.28822   0.29586
 Alpha virt. eigenvalues --    0.30580   0.30582   0.31494   0.31536   0.32104
 Alpha virt. eigenvalues --    0.32953   0.33228   0.33969   0.34428   0.34971
 Alpha virt. eigenvalues --    0.36332   0.37082   0.37279   0.37859   0.37975
 Alpha virt. eigenvalues --    0.38349   0.38785   0.39325   0.39927   0.40251
 Alpha virt. eigenvalues --    0.40815   0.40911   0.41297   0.41416   0.41602
 Alpha virt. eigenvalues --    0.41843   0.41892   0.42632   0.43151   0.43440
 Alpha virt. eigenvalues --    0.43671   0.44085   0.44199   0.44525   0.44653
 Alpha virt. eigenvalues --    0.45429   0.45659   0.45772   0.46404   0.46821
 Alpha virt. eigenvalues --    0.47018   0.47455   0.47482   0.48229   0.48310
 Alpha virt. eigenvalues --    0.49458   0.49816   0.50071   0.50727   0.51113
 Alpha virt. eigenvalues --    0.51773   0.52222   0.52596   0.53545   0.55330
 Alpha virt. eigenvalues --    0.55688   0.56000   0.56517   0.58554   0.59467
 Alpha virt. eigenvalues --    0.59907   0.59982   0.60373   0.62303   0.62588
 Alpha virt. eigenvalues --    0.63452   0.63845   0.64269   0.66248   0.66412
 Alpha virt. eigenvalues --    0.71057   0.72679   0.76595   0.77244   0.78298
 Alpha virt. eigenvalues --    0.78959   0.79759   0.82009   0.87892   1.02462
[...]
    28  H   -0.000003   0.000020   0.000001  -0.000002   0.001969  -0.000174
    29  H    0.000000   0.000003  -0.000139   0.000000   0.000073  -0.000006
    30  H   -0.000000   0.000000   0.000034   0.000001  -0.000083   0.000003
    31  H   -0.000000   0.000000   0.000012   0.000001  -0.000001   0.000000
    32  H    0.000120  -0.000072   0.001280  -0.006077  -0.000288   0.001405
    33  H   -0.000008   0.000005  -0.000094   0.000706  -0.000073  -0.000360
    34  H    0.000020  -0.000003  -0.000002   0.000001  -0.000174   0.001970
    35  H   -0.000192   0.000058   0.000103   0.004486   0.000513  -0.006484
    36  H    0.000000  -0.000000   0.000001   0.000034   0.000003  -0.000083
    37  H    0.000003   0.000000   0.000000  -0.000139  -0.000006   0.000073
    38  H    0.000000  -0.000000   0.000001   0.000012   0.000000  -0.000001
    39  H    0.000020  -0.000023   0.000040  -0.000015   0.003411  -0.001107
    40  H   -0.000023   0.000020  -0.000015   0.000040  -0.001104   0.003411
    41  H   -0.000000   0.000000  -0.000005  -0.000001  -0.000051  -0.000003
    42  H    0.000000  -0.000000   0.000000  -0.000000  -0.000000   0.000000
    43  H    0.000000  -0.000000  -0.000000  -0.000000  -0.000000  -0.000000
    44  H   -0.000000   0.000000  -0.000000   0.000000   0.000000  -0.000000
    45  H    0.000000  -0.000000  -0.000001  -0.000005  -0.000003  -0.000051
              25         26         27         28         29         30
     1  C    0.000001   0.000007   0.000466  -0.000133  -0.000030   0.000004
     2  C    0.000020   0.002219  -0.008502   0.001932   0.000553  -0.000122
     3  C    0.012720  -0.022278   0.027342  -0.015935  -0.001184   0.000663
     4  N   -0.025353  -0.018832  -0.010796  -0.004265   0.000200  -0.000240
     5  C    0.423551   0.393841  -0.029618  -0.054336  -0.007838  -0.006617
     6  C   -0.045780  -0.025168   0.400836   0.424922  -0.038645  -0.038428
     7  C    0.000819   0.001824  -0.025243  -0.025576   0.412348   0.409203
     8  C   -0.005019  -0.003363  -0.001348  -0.000588  -0.000051  -0.000073
     9  C    0.000251   0.000472  -0.000053   0.000009   0.000002  -0.000004
    10  C   -0.000091   0.000051  -0.000004   0.000003   0.000000  -0.000000
    11  C   -0.033134   0.013254  -0.009547   0.035533   0.000628  -0.002312
    12  C    0.009198  -0.000904   0.001485  -0.016008  -0.000247   0.001469
    13  C   -0.012252   0.001239   0.000063   0.005430   0.000055   0.000543
    14  C    0.002120  -0.000141   0.000052  -0.000459  -0.000047   0.001028
    15  C   -0.000890   0.000022  -0.000003   0.000062   0.000005  -0.000045
    16  C    0.001423  -0.000073   0.000002  -0.000002  -0.000001   0.000003
    17  C    0.001370  -0.000135   0.000067  -0.000732  -0.000007   0.000065
    18  H    0.000001   0.000006   0.000023   0.000002  -0.000000  -0.000000
    19  H    0.000005  -0.000072   0.000058  -0.000003   0.000000  -0.000000
    20  H   -0.000008   0.000121  -0.000192   0.000020   0.000003   0.000000
    21  H    0.000707  -0.006079   0.004491   0.000001  -0.000139   0.000034
    22  H   -0.000094   0.001281   0.000103  -0.000002   0.000000   0.000001
    23  H   -0.000361   0.001406  -0.006486   0.001969   0.000073  -0.000083
    24  H   -0.000073  -0.000288   0.000513  -0.000174  -0.000006   0.000003
    25  H    0.433633  -0.012420   0.003334  -0.001712  -0.000740   0.002733
    26  H   -0.012420   0.441661  -0.003731   0.003684   0.002535   0.000008
    27  H    0.003334  -0.003731   0.505569  -0.027819  -0.006916   0.006604
    28  H   -0.001712   0.003684  -0.027819   0.505720   0.006411  -0.006561
    29  H   -0.000740   0.002535  -0.006916   0.006411   0.540971  -0.031836
    30  H    0.002733   0.000008   0.006604  -0.006561  -0.031836   0.538618
    31  H    0.000032  -0.000295  -0.002292  -0.001886  -0.023366  -0.022622
    32  H   -0.001230   0.006093   0.000021  -0.000021  -0.000017   0.000005
    33  H    0.003792  -0.001227   0.000005   0.000074   0.000024  -0.000006
    34  H    0.000074  -0.000021   0.000005  -0.000017  -0.000000   0.000000
    35  H    0.000005   0.000022  -0.000005   0.000005   0.000000  -0.000000
    36  H   -0.000006   0.000005  -0.000000   0.000000  -0.000000  -0.000000
    37  H    0.000024  -0.000017   0.000000  -0.000000  -0.000000  -0.000000
    38  H   -0.000000   0.000000   0.000000  -0.000000  -0.000000  -0.000000
    39  H    0.002352  -0.000477   0.001998  -0.007740  -0.000096   0.000317
    40  H   -0.000385  -0.000071  -0.000174   0.000909   0.000007  -0.000019
    41  H    0.000846   0.000043   0.000304   0.002068   0.000232  -0.000537
    42  H    0.000042  -0.000002   0.000001  -0.000039  -0.000006   0.000118
    43  H   -0.000008   0.000000  -0.000000   0.000000   0.000000  -0.000002
    44  H    0.000009  -0.000000   0.000000  -0.000000  -0.000000   0.000000
    45  H   -0.000086   0.000007  -0.000000  -0.000012  -0.000000   0.000001
              31         32         33         34         35         36
     1  C   -0.000001   0.000005   0.000001  -0.000133   0.000468   0.000004
     2  C   -0.000032   0.002237   0.000019   0.001934  -0.008511  -0.000122
     3  C    0.000082  -0.022308   0.012716  -0.015946   0.027341   0.000663
     4  N   -0.000470  -0.018822  -0.025365  -0.004249  -0.010800  -0.000241
     5  C    0.013434  -0.003335  -0.005069  -0.000584  -0.001351  -0.000073
     6  C   -0.043065   0.000473   0.000250   0.000009  -0.000053  -0.000004
     7  C    0.400130   0.000052  -0.000092   0.000003  -0.000004  -0.000000
     8  C    0.000034   0.393825   0.423547  -0.054277  -0.029685  -0.006603
     9  C   -0.000002  -0.025208  -0.045713   0.424869   0.400946  -0.038492
    10  C    0.000000   0.001827   0.000819  -0.025535  -0.025266   0.409257
    11  C    0.000162   0.013259  -0.033103   0.035417  -0.009529  -0.002308
    12  C   -0.000102  -0.000908   0.009219  -0.015932   0.001481   0.001466
    13  C    0.000130  -0.000134   0.001364  -0.000727   0.000067   0.000065
    14  C    0.000011  -0.000073   0.001423  -0.000003   0.000002   0.000003
    15  C   -0.000000   0.000022  -0.000891   0.000062  -0.000003  -0.000045
    16  C    0.000000  -0.000141   0.002117  -0.000465   0.000052   0.001028
    17  C   -0.000002   0.001239  -0.012260   0.005416   0.000060   0.000536
    18  H   -0.000000   0.000006   0.000001   0.000002   0.000023  -0.000000
    19  H   -0.000000   0.000120  -0.000008   0.000020  -0.000192   0.000000
    20  H    0.000000  -0.000072   0.000005  -0.000003   0.000058  -0.000000
    21  H    0.000012   0.001280  -0.000094  -0.000002   0.000103   0.000001
    22  H    0.000001  -0.006077   0.000706   0.000001   0.004486   0.000034
    23  H   -0.000001  -0.000288  -0.000073  -0.000174   0.000513   0.000003
    24  H    0.000000   0.001405  -0.000360   0.001970  -0.006484  -0.000083
    25  H    0.000032  -0.001230   0.003792   0.000074   0.000005  -0.000006
    26  H   -0.000295   0.006093  -0.001227  -0.000021   0.000022   0.000005
    27  H   -0.002292   0.000021   0.000005   0.000005  -0.000005  -0.000000
    28  H   -0.001886  -0.000021   0.000074  -0.000017   0.000005   0.000000
    29  H   -0.023366  -0.000017   0.000024  -0.000000   0.000000  -0.000000
    30  H   -0.022622   0.000005  -0.000006   0.000000  -0.000000  -0.000000
    31  H    0.519050   0.000000  -0.000000  -0.000000   0.000000  -0.000000
    32  H    0.000000   0.441903  -0.012458   0.003690  -0.003735   0.000008
    33  H   -0.000000  -0.012458   0.433735  -0.001715   0.003333   0.002726
    34  H   -0.000000   0.003690  -0.001715   0.505842  -0.027833  -0.006554
    35  H    0.000000  -0.003735   0.003333  -0.027833   0.505532   0.006601
    36  H   -0.000000   0.000008   0.002726  -0.006554   0.006601   0.538612
    37  H   -0.000000   0.002539  -0.000738   0.006412  -0.006915  -0.031822
    38  H   -0.000000  -0.000296   0.000032  -0.001888  -0.002289  -0.022645
    39  H   -0.000022  -0.000072  -0.000384   0.000907  -0.000174  -0.000019
    40  H    0.000001  -0.000477   0.002352  -0.007707   0.001995   0.000317
    41  H   -0.000096   0.000007  -0.000086  -0.000012  -0.000000   0.000001
    42  H    0.000001  -0.000000   0.000009  -0.000000   0.000000   0.000000
    43  H   -0.000000   0.000000  -0.000008   0.000000  -0.000000  -0.000002
    44  H    0.000000  -0.000002   0.000042  -0.000039   0.000001   0.000117
    45  H   -0.000000   0.000042   0.000853   0.002050   0.000302  -0.000535
              37         38         39         40         41         42
     1  C   -0.000030  -0.000001  -0.000009  -0.000009  -0.000001   0.000000
     2  C    0.000553  -0.000032   0.000331   0.000334  -0.000016  -0.000000
     3  C   -0.001184   0.000082  -0.000254  -0.000287  -0.000659   0.000001
     4  N    0.000201  -0.000470  -0.023923  -0.023908  -0.001278  -0.000001
     5  C   -0.000051   0.000034  -0.010009   0.007929   0.002551   0.000005
     6  C    0.000002  -0.000002  -0.007196   0.001045   0.002149  -0.000063
     7  C    0.000000   0.000000   0.000752  -0.000057  -0.002873   0.000102
     8  C   -0.007853   0.013435   0.007935  -0.010007  -0.000470   0.000012
     9  C   -0.038588  -0.043091   0.001041  -0.007153   0.000017  -0.000001
    10  C    0.412272   0.400163  -0.000057   0.000751  -0.000000  -0.000000
    11  C    0.000626   0.000161   0.419066   0.419147  -0.009249  -0.001205
    12  C   -0.000246  -0.000102  -0.054000  -0.054027  -0.067242   0.017466
    13  C   -0.000007  -0.000002   0.002009   0.001334   0.433724  -0.056080
    14  C   -0.000001   0.000000   0.001334  -0.000303  -0.047777   0.433155
    15  C    0.000005  -0.000000  -0.000225  -0.000225   0.013663  -0.063185
    16  C   -0.000048   0.000011  -0.000303   0.001337  -0.004140   0.014299
    17  C    0.000055   0.000129   0.001293   0.001972   0.015640  -0.001881
    18  H   -0.000000  -0.000000  -0.000001  -0.000001  -0.000000   0.000000
    19  H    0.000003   0.000000   0.000020  -0.000023  -0.000000   0.000000
    20  H    0.000000  -0.000000  -0.000023   0.000020   0.000000  -0.000000
    21  H    0.000000   0.000001   0.000040  -0.000015  -0.000005   0.000000
    22  H   -0.000139   0.000012  -0.000015   0.000040  -0.000001  -0.000000
    23  H   -0.000006   0.000000   0.003411  -0.001104  -0.000051  -0.000000
    24  H    0.000073  -0.000001  -0.001107   0.003411  -0.000003   0.000000
    25  H    0.000024  -0.000000   0.002352  -0.000385   0.000846   0.000042
    26  H   -0.000017   0.000000  -0.000477  -0.000071   0.000043  -0.000002
    27  H    0.000000   0.000000   0.001998  -0.000174   0.000304   0.000001
    28  H   -0.000000  -0.000000  -0.007740   0.000909   0.002068  -0.000039
    29  H   -0.000000  -0.000000  -0.000096   0.000007   0.000232  -0.000006
    30  H   -0.000000  -0.000000   0.000317  -0.000019  -0.000537   0.000118
    31  H   -0.000000  -0.000000  -0.000022   0.000001  -0.000096   0.000001
    32  H    0.002539  -0.000296  -0.000072  -0.000477   0.000007  -0.000000
    33  H   -0.000738   0.000032  -0.000384   0.002352  -0.000086   0.000009
    34  H    0.006412  -0.001888   0.000907  -0.007707  -0.000012  -0.000000
    35  H   -0.006915  -0.002289  -0.000174   0.001995  -0.000000   0.000000
    36  H   -0.031822  -0.022645  -0.000019   0.000317   0.000001   0.000000
    37  H    0.541059  -0.023371   0.000007  -0.000096  -0.000000  -0.000000
    38  H   -0.023371   0.519054   0.000001  -0.000022  -0.000000   0.000000
    39  H    0.000007   0.000001   0.408220  -0.008394  -0.001542   0.000007
    40  H   -0.000096  -0.000022  -0.008394   0.408073   0.000124   0.000013
    41  H   -0.000000  -0.000000  -0.001542   0.000124   0.502943  -0.005789
    42  H   -0.000000   0.000000   0.000007   0.000013  -0.005789   0.520224
    43  H    0.000000  -0.000000  -0.000000  -0.000000  -0.000124  -0.006746
    44  H   -0.000006   0.000001   0.000013   0.000007   0.000013  -0.000141
    45  H    0.000231  -0.000096   0.000123  -0.001530   0.000134   0.000013
              43         44         45
     1  C   -0.000000   0.000000  -0.000001
     2  C    0.000000  -0.000000  -0.000016
     3  C   -0.000000   0.000001  -0.000656
     4  N    0.000001  -0.000001  -0.001277
     5  C   -0.000013   0.000012  -0.000468
     6  C    0.000002  -0.000001   0.000016
     7  C    0.000000  -0.000000  -0.000000
     8  C   -0.000013   0.000005   0.002575
     9  C    0.000002  -0.000063   0.002108
    10  C    0.000000   0.000102  -0.002856
    11  C   -0.000111  -0.001203  -0.009274
    12  C   -0.005662   0.017457  -0.066955
    13  C    0.019532  -0.001880   0.015655
    14  C   -0.065645   0.014283  -0.004141
    15  C    0.440450  -0.063069   0.013658
    16  C   -0.065576   0.433156  -0.047927
    17  C    0.019529  -0.056151   0.433642
    18  H   -0.000000   0.000000  -0.000000
    19  H    0.000000  -0.000000   0.000000
    20  H   -0.000000   0.000000  -0.000000
    21  H   -0.000000  -0.000000  -0.000001
    22  H   -0.000000   0.000000  -0.000005
    23  H   -0.000000   0.000000  -0.000003
    24  H   -0.000000  -0.000000  -0.000051
    25  H   -0.000008   0.000009  -0.000086
    26  H    0.000000  -0.000000   0.000007
    27  H   -0.000000   0.000000  -0.000000
    28  H    0.000000  -0.000000  -0.000012
    29  H    0.000000  -0.000000  -0.000000
    30  H   -0.000002   0.000000   0.000001
    31  H   -0.000000   0.000000  -0.000000
    32  H    0.000000  -0.000002   0.000042
    33  H   -0.000008   0.000042   0.000853
    34  H    0.000000  -0.000039   0.002050
    35  H   -0.000000   0.000001   0.000302
    36  H   -0.000002   0.000117  -0.000535
    37  H    0.000000  -0.000006   0.000231
    38  H   -0.000000   0.000001  -0.000096
    39  H   -0.000000   0.000013   0.000123
    40  H   -0.000000   0.000007  -0.001530
    41  H   -0.000124   0.000013   0.000134
    42  H   -0.006746  -0.000141   0.000013
    43  H    0.518591  -0.006741  -0.000124
    44  H   -0.006741   0.520087  -0.005778
    45  H   -0.000124  -0.005778   0.502806
 Mulliken charges:
               1
     1  C   -0.449383
     2  C   -0.187835
     3  C   -0.295878
     4  N   -0.140339
     5  C   -0.339564
     6  C   -0.208700
     7  C   -0.449789
     8  C   -0.339127
     9  C   -0.208461
    10  C   -0.449984
    11  C   -0.456322
    12  C    0.008803
    13  C   -0.090478
    14  C   -0.152165
    15  C   -0.119013
    16  C   -0.152213
    17  C   -0.090365
    18  H    0.160638
    19  H    0.146325
    20  H    0.146314
    21  H    0.172907
    22  H    0.172991
    23  H    0.225061
    24  H    0.225226
    25  H    0.240582
    26  H    0.225797
    27  H    0.179389
    28  H    0.175266
    29  H    0.147125
    30  H    0.148084
    31  H    0.161176
    32  H    0.225613
    33  H    0.240490
    34  H    0.175132
    35  H    0.179433
    36  H    0.148104
    37  H    0.147055
    38  H    0.161194
    39  H    0.264863
    40  H    0.264879
    41  H    0.167492
    42  H    0.149670
    43  H    0.152668
    44  H    0.149769
    45  H    0.167573
 Sum of Mulliken charges =   1.00000
 Mulliken charges with hydrogens summed into heavy atoms:
               1
     1  C    0.003894
     2  C    0.158062
     3  C    0.154408
     4  N   -0.140339
     5  C    0.126815
     6  C    0.145955
     7  C    0.006596
     8  C    0.126976
     9  C    0.146104
    10  C    0.006369
    11  C    0.073420
    12  C    0.008803
    13  C    0.077014
    14  C   -0.002495
    15  C    0.033655
    16  C   -0.002445
    17  C    0.077209
 Electronic spatial extent (au):  <R**2>=           5015.0150
 Charge=              1.0000 electrons
 Dipole moment (field-independent basis, Debye):
    X=              3.6237    Y=             -0.0015    Z=             -0.2790  Tot=              3.6345
 Quadrupole moment (field-independent basis, Debye-Ang):
   XX=            -83.9213   YY=            -88.2616   ZZ=           -102.6648
   XY=             -0.0045   XZ=             -2.5924   YZ=              0.0038
 Traceless Quadrupole moment (field-independent basis, Debye-Ang):
   XX=              7.6946   YY=              3.3543   ZZ=            -11.0489
   XY=             -0.0045   XZ=             -2.5924   YZ=              0.0038
 Octapole moment (field-independent basis, Debye-Ang**2):
  XXX=             -2.7604  YYY=              0.0194  ZZZ=             -0.0668  XYY=             -0.7514
  XXY=             -0.0016  XXZ=             15.9871  XZZ=             22.3409  YZZ=              0.0027
  YYZ=             -1.9492  XYZ=              0.0073
 Hexadecapole moment (field-independent basis, Debye-Ang**3):
 XXXX=          -3652.6022 YYYY=          -2178.7870 ZZZZ=           -513.4492 XXXY=             -0.0111
 XXXZ=            -81.1168 YYYX=             -0.0155 YYYZ=              0.0485 ZZZX=             -2.6403
 ZZZY=              0.0188 XXYY=           -990.3834 XXZZ=           -798.0741 YYZZ=           -468.9665
 XXYZ=             -0.0078 YYXZ=             -1.2100 ZZXY=             -0.0074
 N-N= 1.298272541537D+03 E-N=-4.154872851498D+03  KE= 6.776393477382D+02
 Unable to Open any file for archive entry.
 1\1\GINC-TCN1650\SP\RBP86\TZVP\C16H28N1(1+)\ELENAA\23-Feb-2021\0\\# BP
 86/TZVP SCRF=COSMORS geom=CHECKPOINT guess=CHECKPOINT\\COSMO-file for 
 #BCCDCNCWUHICFM-UHFFFAOYSA-N\\1,1\C,0,-3.179828904,-0.0930489767,1.634
 9994432\C,0,-2.2428321651,-0.5262154223,0.4979491571\C,0,-2.8615988674
 ,-0.1521298599,-0.844904675\N,0,-2.0347572742,-0.5249274453,-2.0735242
 101\C,0,-1.7815164106,-2.032731821,-2.13793018\C,0,-3.0130636854,-2.92
 57896483,-2.0185278392\C,0,-2.618779663,-4.3828140369,-2.3019658535\C,
 0,-0.6614062271,0.1495495545,-2.046277997\C,0,-0.6595316961,1.65946068
 05,-1.8256309645\C,0,0.7623599435,2.2046018517,-2.0250327045\C,0,-2.84
 61643624,-0.0565105698,-3.3110834335\C,0,-2.1980989778,-0.3337257168,-
 4.6404128083\C,0,-2.4550886928,-1.5353675817,-5.3239132135\C,0,-1.8531
 196352,-1.7938567739,-6.5587762584\C,0,-0.9926635674,-0.8486754231,-7.
 1303041699\C,0,-0.7469195943,0.3606372595,-6.4688134721\C,0,-1.3496809
 671,0.617581986,-5.2340148893\H,0,-2.7458720301,-0.3567800942,2.609317
 3698\H,0,-3.3456871903,0.9948694955,1.6203762807\H,0,-4.158848919,-0.5
 892440551,1.5537625349\H,0,-2.0725132091,-1.6117096747,0.5563764295\H,
 0,-1.2646763844,-0.037947738,0.6225504431\H,0,-3.8365987303,-0.6399950
 699,-0.9730932321\H,0,-3.0302579994,0.930810638,-0.9070589407\H,0,-1.2
 627817396,-2.2031934299,-3.0909464131\H,0,-1.0703716033,-2.2577533584,
 -1.3330660155\H,0,-3.4442688226,-2.8511359403,-1.0091646708\H,0,-3.799
 4673575,-2.6176431843,-2.7236515175\H,0,-1.8393131387,-4.7262799987,-1
 .6050540344\H,0,-2.2337098515,-4.4979500062,-3.3266711214\H,0,-3.48918
 74678,-5.0436309299,-2.1891335576\H,0,-0.0911997276,-0.3503534978,-1.2
 531016292\H,0,-0.1880008212,-0.1088745073,-3.0030890755\H,0,-1.3445122
 653,2.1655224095,-2.5222552151\H,0,-1.0060093791,1.8987372399,-0.80925
 23745\H,0,1.1152776799,2.0272982013,-3.0524412819\H,0,1.4722289551,1.7
 252214154,-1.3340166041\H,0,0.7867715843,3.2870621003,-1.8387435178\H,
 0,-3.8182864017,-0.555630006,-3.2299004658\H,0,-3.0108825536,1.0168066
 986,-3.1641498427\H,0,-3.1366925071,-2.2718874517,-4.8929575174\H,0,-2
 .0608581405,-2.7317498083,-7.0770048341\H,0,-0.5224668347,-1.049818329
 6,-8.0948217829\H,0,-0.0894137505,1.10794216,-6.9166761458\H,0,-1.1641
 806484,1.5698886654,-4.7325491997\\Version=ES64L-G16RevC.01\State=1-A\
 HF=-681.3642227\RMSD=5.401e-10\Dipole=-0.318405,0.1061836,1.3899534\Qu
 adrupole=-5.1202103,0.3408511,4.7793592,4.0549197,-3.5837744,1.7477725
 \PG=C01 [X(C16H28N1)]\\@
 The archive entry for this job was punched.


 ON A CLEAR DISK YOU CAN SEEK FOREVER.
 Job cpu time:       0 days  0 hours 33 minutes 31.1 seconds.
 Elapsed time:       0 days  0 hours  1 minutes  4.1 seconds.
 File lengths (MBytes):  RWF=    179 Int=      0 D2E=      0 Chk=     23 Scr=      1
 Normal termination of Gaussian 16 at Tue Feb 23 00:22:25 2021.
