 Entering Gaussian System, Link 0=g16
 Input=BFSVOASYOCHEOV-UHFFFAOYSA-O.gjf
 Output=BFSVOASYOCHEOV-UHFFFAOYSA-O.log
 Initial command:
 /sw/arch/RedHatEnterpriseServer7/EB_production/2019/software/Gaussian/g16.c01/l1.exe "/scratch-local/elenaa.9715932/Gau-21985.inp" -scrdir="/scratch-local/elenaa.9715932/"
 Entering Link 1 = /sw/arch/RedHatEnterpriseServer7/EB_production/2019/software/Gaussian/g16.c01/l1.exe PID=     21987.
  
 Copyright (c) 1988-2019, Gaussian, Inc.  All Rights Reserved.
  
 This is part of the Gaussian(R) 16 program.  It is based on
 the Gaussian(R) 09 system (copyright 2009, Gaussian, Inc.),
 the Gaussian(R) 03 system (copyright 2003, Gaussian, Inc.),
 the Gaussian(R) 98 system (copyright 1998, Gaussian, Inc.),
 the Gaussian(R) 94 system (copyright 1995, Gaussian, Inc.),
 the Gaussian 92(TM) system (copyright 1992, Gaussian, Inc.),
 the Gaussian 90(TM) system (copyright 1990, Gaussian, Inc.),
 the Gaussian 88(TM) system (copyright 1988, Gaussian, Inc.),
 the Gaussian 86(TM) system (copyright 1986, Carnegie Mellon
 University), and the Gaussian 82(TM) system (copyright 1983,
 Carnegie Mellon University). Gaussian is a federally registered
 trademark of Gaussian, Inc.
  
 This software contains proprietary and confidential information,
 including trade secrets, belonging to Gaussian, Inc.
  
 This software is provided under written license and may be
 used, copied, transmitted, or stored only in accord with that
 written license.
  
 The following legend is applicable only to US Government
 contracts under FAR:
  
                    RESTRICTED RIGHTS LEGEND
  
 Use, reproduction and disclosure by the US Government is
 subject to restrictions as set forth in subparagraphs (a)
 and (c) of the Commercial Computer Software - Restricted
 Rights clause in FAR 52.227-19.
  
 Gaussian, Inc.
 340 Quinnipiac St., Bldg. 40, Wallingford CT 06492
  
  
 ---------------------------------------------------------------
 Warning -- This program may not be used in any manner that
 competes with the business of Gaussian, Inc. or will provide
 assistance to any competitor of Gaussian, Inc.  The licensee
 of this program is prohibited from giving any competitor of
 Gaussian, Inc. access to this program.  By using this program,
 the user acknowledges that Gaussian, Inc. is engaged in the
 business of creating and licensing software in the field of
 computational chemistry and represents and warrants to the
 licensee that it is not a competitor of Gaussian, Inc. and that
 it will not use this program in any manner prohibited above.
 ---------------------------------------------------------------
  

 Cite this work as:
 Gaussian 16, Revision C.01,
 M. J. Frisch, G. W. Trucks, H. B. Schlegel, G. E. Scuseria, 
 M. A. Robb, J. R. Cheeseman, G. Scalmani, V. Barone, 
 G. A. Petersson, H. Nakatsuji, X. Li, M. Caricato, A. V. Marenich, 
 J. Bloino, B. G. Janesko, R. Gomperts, B. Mennucci, H. P. Hratchian, 
 J. V. Ortiz, A. F. Izmaylov, J. L. Sonnenberg, D. Williams-Young, 
 F. Ding, F. Lipparini, F. Egidi, J. Goings, B. Peng, A. Petrone, 
 T. Henderson, D. Ranasinghe, V. G. Zakrzewski, J. Gao, N. Rega, 
 G. Zheng, W. Liang, M. Hada, M. Ehara, K. Toyota, R. Fukuda, 
 J. Hasegawa, M. Ishida, T. Nakajima, Y. Honda, O. Kitao, H. Nakai, 
 T. Vreven, K. Throssell, J. A. Montgomery, Jr., J. E. Peralta, 
 F. Ogliaro, M. J. Bearpark, J. J. Heyd, E. N. Brothers, K. N. Kudin, 
 V. N. Staroverov, T. A. Keith, R. Kobayashi, J. Normand, 
 K. Raghavachari, A. P. Rendell, J. C. Burant, S. S. Iyengar, 
 J. Tomasi, M. Cossi, J. M. Millam, M. Klene, C. Adamo, R. Cammi, 
 J. W. Ochterski, R. L. Martin, K. Morokuma, O. Farkas, 
 J. B. Foresman, and D. J. Fox, Gaussian, Inc., Wallingford CT, 2019.
 
 ******************************************
 Gaussian 16:  ES64L-G16RevC.01  3-Jul-2019
                23-Feb-2021 
 ******************************************
 %chk=BFSVOASYOCHEOV-UHFFFAOYSA-O.chk
 %NProcShared=32
 Will use up to   32 processors via shared memory.
 -------------------------------------------------------------
 #P BP86/TZVP EmpiricalDispersion=GD3 SCRF=(Solvent=Water) Opt
 -------------------------------------------------------------
 1/18=20,19=15,26=3,38=1/1,3;
 2/9=110,12=2,17=6,18=5,40=1/2;
 3/5=19,7=101,11=2,25=1,30=1,70=2201,71=1,72=1,74=404,124=31/1,2,3;
 4//1;
 5/5=2,38=5,53=1/2;
 6/7=2,8=2,9=2,10=2,28=1/1;
 7//1,2,3,16;
 1/18=20,19=15,26=3/3(2);
 2/9=110/2;
 99//99;
 2/9=110/2;
 3/5=19,7=101,11=2,25=1,30=1,70=2205,71=1,72=1,74=404,124=31/1,2,3;
 4/5=5,16=3,69=1/1;
 5/5=2,38=5,53=1/2;
 7//1,2,3,16;
 1/18=20,19=15,26=3/3(-5);
 2/9=110/2;
 6/7=2,8=2,9=2,10=2,19=2,28=1/1;
 99/9=1/99;
 Leave Link    1 at Tue Feb 23 00:11:03 2021, MaxMem=           0 cpu:               1.6 elap:               0.1
 (Enter /sw/arch/RedHatEnterpriseServer7/EB_production/2019/software/Gaussian/g16.c01/l101.exe)
 -------------------------------------
 Particle #BFSVOASYOCHEOV-UHFFFAOYSA-O
 -------------------------------------
 Symbolic Z-matrix:
 Charge =  1 Multiplicity = 1
 C                    -1.71348   2.33231  -1.93721 
 C                    -1.95187   2.04375  -0.43697 
 N                    -0.76061   2.26379   0.45656 
 C                    -1.06415   2.09839   1.9203 
 C                    -2.12226   3.08125   2.47515 
 C                     0.49942   1.54849   0.04157 
 C                     0.44693  -0.00105   0.04149 
 O                     1.6839   -0.53513  -0.41948 
 H                    -1.2406    3.31081  -2.06072 
 H                    -1.07977   1.56285  -2.38257 
 H                    -2.66683   2.33204  -2.47011 
 H                    -2.7471    2.73173  -0.14406 
 H                    -2.33963   1.02776  -0.31994 
 H                    -0.53481   3.2558    0.35064 
 H                    -0.15235   2.28328   2.49513 
 H                    -1.38571   1.07567   2.13591 
 H                    -2.10042   3.07604   3.56562 
 H                    -3.12393   2.78751   2.15828 
 H                    -1.91509   4.09487   2.12538 
 H                     1.31779   1.85964   0.69697 
 H                     0.79221   1.88323  -0.95632 
 H                     0.26778  -0.37487   1.04953 
 H                    -0.34462  -0.36088  -0.61645 
 H                     1.56719  -1.50895  -0.39507 
 
 ITRead=  0  0  0  0  0  0  0  0  0  0  0  0  0  0  0  0  0  0  0  0
 ITRead=  0  0  0  0
 MicOpt= -1 -1 -1 -1 -1 -1 -1 -1 -1 -1 -1 -1 -1 -1 -1 -1 -1 -1 -1 -1
 MicOpt= -1 -1 -1 -1
 NAtoms=     24 NQM=       24 NQMF=       0 NMMI=      0 NMMIF=      0
                NMic=       0 NMicF=      0.
                    Isotopes and Nuclear Properties:
 (Nuclear quadrupole moments (NQMom) in fm**2, nuclear magnetic moments (NMagM)
  in nuclear magnetons)

  Atom         1           2           3           4           5           6           7           8           9          10
 IAtWgt=          12          12          14          12          12          12          12          16           1           1
 AtmWgt=  12.0000000  12.0000000  14.0030740  12.0000000  12.0000000  12.0000000  12.0000000  15.9949146   1.0078250   1.0078250
 NucSpn=           0           0           2           0           0           0           0           0           1           1
 AtZEff=  -0.0000000  -0.0000000  -0.0000000  -0.0000000  -0.0000000  -0.0000000  -0.0000000  -0.0000000  -0.0000000  -0.0000000
 NQMom=    0.0000000   0.0000000   2.0440000   0.0000000   0.0000000   0.0000000   0.0000000   0.0000000   0.0000000   0.0000000
 NMagM=    0.0000000   0.0000000   0.4037610   0.0000000   0.0000000   0.0000000   0.0000000   0.0000000   2.7928460   2.7928460
 AtZNuc=   6.0000000   6.0000000   7.0000000   6.0000000   6.0000000   6.0000000   6.0000000   8.0000000   1.0000000   1.0000000

  Atom        11          12          13          14          15          16          17          18          19          20
 IAtWgt=           1           1           1           1           1           1           1           1           1           1
 AtmWgt=   1.0078250   1.0078250   1.0078250   1.0078250   1.0078250   1.0078250   1.0078250   1.0078250   1.0078250   1.0078250
 NucSpn=           1           1           1           1           1           1           1           1           1           1
 AtZEff=  -0.0000000  -0.0000000  -0.0000000  -0.0000000  -0.0000000  -0.0000000  -0.0000000  -0.0000000  -0.0000000  -0.0000000
 NQMom=    0.0000000   0.0000000   0.0000000   0.0000000   0.0000000   0.0000000   0.0000000   0.0000000   0.0000000   0.0000000
 NMagM=    2.7928460   2.7928460   2.7928460   2.7928460   2.7928460   2.7928460   2.7928460   2.7928460   2.7928460   2.7928460
 AtZNuc=   1.0000000   1.0000000   1.0000000   1.0000000   1.0000000   1.0000000   1.0000000   1.0000000   1.0000000   1.0000000

  Atom        21          22          23          24
 IAtWgt=           1           1           1           1
 AtmWgt=   1.0078250   1.0078250   1.0078250   1.0078250
 NucSpn=           1           1           1           1
 AtZEff=  -0.0000000  -0.0000000  -0.0000000  -0.0000000
 NQMom=    0.0000000   0.0000000   0.0000000   0.0000000
 NMagM=    2.7928460   2.7928460   2.7928460   2.7928460
 AtZNuc=   1.0000000   1.0000000   1.0000000   1.0000000
 Leave Link  101 at Tue Feb 23 00:11:04 2021, MaxMem=   104857600 cpu:               3.0 elap:               0.1
 (Enter /sw/arch/RedHatEnterpriseServer7/EB_production/2019/software/Gaussian/g16.c01/l103.exe)

 GradGradGradGradGradGradGradGradGradGradGradGradGradGradGradGradGradGrad
 Berny optimization.
 Initialization pass.
                           ----------------------------
                           !    Initial Parameters    !
                           ! (Angstroms and Degrees)  !
 --------------------------                            --------------------------
 ! Name  Definition              Value          Derivative Info.                !
 --------------------------------------------------------------------------------
 ! R1    R(1,2)                  1.5462         estimate D2E/DX2                !
 ! R2    R(1,9)                  1.0938         estimate D2E/DX2                !
 ! R3    R(1,10)                 1.0918         estimate D2E/DX2                !
 ! R4    R(1,11)                 1.0922         estimate D2E/DX2                !
 ! R5    R(2,3)                  1.5053         estimate D2E/DX2                !
 ! R6    R(2,12)                 1.0916         estimate D2E/DX2                !
 ! R7    R(2,13)                 1.0938         estimate D2E/DX2                !
 ! R8    R(3,4)                  1.504          estimate D2E/DX2                !
 ! R9    R(3,6)                  1.5072         estimate D2E/DX2                !
 ! R10   R(3,14)                 1.0229         estimate D2E/DX2                !
 ! R11   R(4,5)                  1.5471         estimate D2E/DX2                !
 ! R12   R(4,15)                 1.0936         estimate D2E/DX2                !
 ! R13   R(4,16)                 1.0935         estimate D2E/DX2                !
 ! R14   R(5,17)                 1.0907         estimate D2E/DX2                !
 ! R15   R(5,18)                 1.0909         estimate D2E/DX2                !
 ! R16   R(5,19)                 1.0921         estimate D2E/DX2                !
 ! R17   R(6,7)                  1.5504         estimate D2E/DX2                !
 ! R18   R(6,20)                 1.0937         estimate D2E/DX2                !
 ! R19   R(6,21)                 1.0925         estimate D2E/DX2                !
 ! R20   R(7,8)                  1.424          estimate D2E/DX2                !
 ! R21   R(7,22)                 1.0899         estimate D2E/DX2                !
 ! R22   R(7,23)                 1.0904         estimate D2E/DX2                !
 ! R23   R(8,24)                 0.9811         estimate D2E/DX2                !
 ! A1    A(2,1,9)              110.0703         estimate D2E/DX2                !
 ! A2    A(2,1,10)             110.7168         estimate D2E/DX2                !
 ! A3    A(2,1,11)             109.803          estimate D2E/DX2                !
 ! A4    A(9,1,10)             109.4807         estimate D2E/DX2                !
 ! A5    A(9,1,11)             108.8146         estimate D2E/DX2                !
 ! A6    A(10,1,11)            107.9053         estimate D2E/DX2                !
 ! A7    A(1,2,3)              115.2549         estimate D2E/DX2                !
 ! A8    A(1,2,12)             104.777          estimate D2E/DX2                !
 ! A9    A(1,2,13)             109.3799         estimate D2E/DX2                !
 ! A10   A(3,2,12)             108.9731         estimate D2E/DX2                !
 ! A11   A(3,2,13)             110.6607         estimate D2E/DX2                !
 ! A12   A(12,2,13)            107.3658         estimate D2E/DX2                !
 ! A13   A(2,3,4)              113.6975         estimate D2E/DX2                !
 ! A14   A(2,3,6)              115.3912         estimate D2E/DX2                !
 ! A15   A(2,3,14)             104.7733         estimate D2E/DX2                !
 ! A16   A(4,3,6)              112.6132         estimate D2E/DX2                !
 ! A17   A(4,3,14)             104.5949         estimate D2E/DX2                !
 ! A18   A(6,3,14)             104.3126         estimate D2E/DX2                !
 ! A19   A(3,4,5)              114.6585         estimate D2E/DX2                !
 ! A20   A(3,4,15)             108.9469         estimate D2E/DX2                !
 ! A21   A(3,4,16)             110.7373         estimate D2E/DX2                !
 ! A22   A(5,4,15)             105.9213         estimate D2E/DX2                !
 ! A23   A(5,4,16)             108.8036         estimate D2E/DX2                !
 ! A24   A(15,4,16)            107.4362         estimate D2E/DX2                !
 ! A25   A(4,5,17)             109.9888         estimate D2E/DX2                !
 ! A26   A(4,5,18)             110.6564         estimate D2E/DX2                !
 ! A27   A(4,5,19)             110.1842         estimate D2E/DX2                !
 ! A28   A(17,5,18)            107.9092         estimate D2E/DX2                !
 ! A29   A(17,5,19)            108.7137         estimate D2E/DX2                !
 ! A30   A(18,5,19)            109.3339         estimate D2E/DX2                !
 ! A31   A(3,6,7)              116.4898         estimate D2E/DX2                !
 ! A32   A(3,6,20)             108.9992         estimate D2E/DX2                !
 ! A33   A(3,6,21)             109.2772         estimate D2E/DX2                !
 ! A34   A(7,6,20)             108.0414         estimate D2E/DX2                !
 ! A35   A(7,6,21)             108.3758         estimate D2E/DX2                !
 ! A36   A(20,6,21)            105.0501         estimate D2E/DX2                !
 ! A37   A(6,7,8)              110.2089         estimate D2E/DX2                !
 ! A38   A(6,7,22)             110.3829         estimate D2E/DX2                !
 ! A39   A(6,7,23)             110.7582         estimate D2E/DX2                !
 ! A40   A(8,7,22)             108.272          estimate D2E/DX2                !
 ! A41   A(8,7,23)             108.1491         estimate D2E/DX2                !
 ! A42   A(22,7,23)            108.9996         estimate D2E/DX2                !
 ! A43   A(7,8,24)             105.1225         estimate D2E/DX2                !
 ! D1    D(9,1,2,3)            -49.4469         estimate D2E/DX2                !
 ! D2    D(9,1,2,12)            70.3031         estimate D2E/DX2                !
 ! D3    D(9,1,2,13)          -174.8618         estimate D2E/DX2                !
 ! D4    D(10,1,2,3)            71.7363         estimate D2E/DX2                !
 ! D5    D(10,1,2,12)         -168.5138         estimate D2E/DX2                !
 ! D6    D(10,1,2,13)          -53.6786         estimate D2E/DX2                !
 ! D7    D(11,1,2,3)          -169.2157         estimate D2E/DX2                !
 ! D8    D(11,1,2,12)          -49.4657         estimate D2E/DX2                !
 ! D9    D(11,1,2,13)           65.3695         estimate D2E/DX2                !
 ! D10   D(1,2,3,4)            174.5764         estimate D2E/DX2                !
 ! D11   D(1,2,3,6)            -53.1133         estimate D2E/DX2                !
 ! D12   D(1,2,3,14)            60.9767         estimate D2E/DX2                !
 ! D13   D(12,2,3,4)            57.1635         estimate D2E/DX2                !
 ! D14   D(12,2,3,6)          -170.5261         estimate D2E/DX2                !
 ! D15   D(12,2,3,14)          -56.4361         estimate D2E/DX2                !
 ! D16   D(13,2,3,4)           -60.6733         estimate D2E/DX2                !
 ! D17   D(13,2,3,6)            71.637          estimate D2E/DX2                !
 ! D18   D(13,2,3,14)         -174.273          estimate D2E/DX2                !
 ! D19   D(2,3,4,5)            -61.0211         estimate D2E/DX2                !
 ! D20   D(2,3,4,15)          -179.4929         estimate D2E/DX2                !
 ! D21   D(2,3,4,16)            62.5552         estimate D2E/DX2                !
 ! D22   D(6,3,4,5)            165.3406         estimate D2E/DX2                !
 ! D23   D(6,3,4,15)            46.8688         estimate D2E/DX2                !
 ! D24   D(6,3,4,16)           -71.083          estimate D2E/DX2                !
 ! D25   D(14,3,4,5)            52.6852         estimate D2E/DX2                !
 ! D26   D(14,3,4,15)          -65.7866         estimate D2E/DX2                !
 ! D27   D(14,3,4,16)          176.2615         estimate D2E/DX2                !
 ! D28   D(2,3,6,7)            -63.2305         estimate D2E/DX2                !
 ! D29   D(2,3,6,20)           174.2518         estimate D2E/DX2                !
 ! D30   D(2,3,6,21)            59.9616         estimate D2E/DX2                !
 ! D31   D(4,3,6,7)             69.5848         estimate D2E/DX2                !
 ! D32   D(4,3,6,20)           -52.9329         estimate D2E/DX2                !
 ! D33   D(4,3,6,21)          -167.2231         estimate D2E/DX2                !
 ! D34   D(14,3,6,7)          -177.5861         estimate D2E/DX2                !
 ! D35   D(14,3,6,20)           59.8961         estimate D2E/DX2                !
 ! D36   D(14,3,6,21)          -54.394          estimate D2E/DX2                !
 ! D37   D(3,4,5,17)          -165.508          estimate D2E/DX2                !
 ! D38   D(3,4,5,18)            75.3592         estimate D2E/DX2                !
 ! D39   D(3,4,5,19)           -45.6756         estimate D2E/DX2                !
 ! D40   D(15,4,5,17)          -45.344          estimate D2E/DX2                !
 ! D41   D(15,4,5,18)         -164.4768         estimate D2E/DX2                !
 ! D42   D(15,4,5,19)           74.4884         estimate D2E/DX2                !
 ! D43   D(16,4,5,17)           69.8887         estimate D2E/DX2                !
 ! D44   D(16,4,5,18)          -49.2441         estimate D2E/DX2                !
 ! D45   D(16,4,5,19)         -170.279          estimate D2E/DX2                !
 ! D46   D(3,6,7,8)            177.7384         estimate D2E/DX2                !
 ! D47   D(3,6,7,22)           -62.7115         estimate D2E/DX2                !
 ! D48   D(3,6,7,23)            58.1022         estimate D2E/DX2                !
 ! D49   D(20,6,7,8)           -59.2454         estimate D2E/DX2                !
 ! D50   D(20,6,7,22)           60.3047         estimate D2E/DX2                !
 ! D51   D(20,6,7,23)         -178.8815         estimate D2E/DX2                !
 ! D52   D(21,6,7,8)            54.0806         estimate D2E/DX2                !
 ! D53   D(21,6,7,22)          173.6308         estimate D2E/DX2                !
 ! D54   D(21,6,7,23)          -65.5555         estimate D2E/DX2                !
 ! D55   D(6,7,8,24)          -179.6429         estimate D2E/DX2                !
 ! D56   D(22,7,8,24)           59.5341         estimate D2E/DX2                !
 ! D57   D(23,7,8,24)          -58.4372         estimate D2E/DX2                !
 --------------------------------------------------------------------------------
 Trust Radius=3.00D-01 FncErr=1.00D-07 GrdErr=1.00D-06 EigMax=2.50D+02 EigMin=1.00D-04
 Number of steps in this run=    133 maximum allowed number of steps=    144.
 GradGradGradGradGradGradGradGradGradGradGradGradGradGradGradGradGradGrad

 Leave Link  103 at Tue Feb 23 00:11:04 2021, MaxMem=   104857600 cpu:               0.4 elap:               0.0
 (Enter /sw/arch/RedHatEnterpriseServer7/EB_production/2019/software/Gaussian/g16.c01/l202.exe)
                          Input orientation:                          
 ---------------------------------------------------------------------
 Center     Atomic      Atomic             Coordinates (Angstroms)
 Number     Number       Type             X           Y           Z
 ---------------------------------------------------------------------
      1          6           0       -1.713480    2.332310   -1.937210
      2          6           0       -1.951870    2.043750   -0.436970
      3          7           0       -0.760610    2.263790    0.456560
      4          6           0       -1.064150    2.098390    1.920300
      5          6           0       -2.122260    3.081250    2.475150
      6          6           0        0.499420    1.548490    0.041570
      7          6           0        0.446930   -0.001050    0.041490
      8          8           0        1.683900   -0.535130   -0.419480
      9          1           0       -1.240600    3.310810   -2.060720
     10          1           0       -1.079770    1.562850   -2.382570
     11          1           0       -2.666830    2.332040   -2.470110
     12          1           0       -2.747100    2.731730   -0.144060
     13          1           0       -2.339630    1.027760   -0.319940
     14          1           0       -0.534810    3.255800    0.350640
     15          1           0       -0.152350    2.283280    2.495130
     16          1           0       -1.385710    1.075670    2.135910
     17          1           0       -2.100420    3.076040    3.565620
     18          1           0       -3.123930    2.787510    2.158280
     19          1           0       -1.915090    4.094870    2.125380
     20          1           0        1.317790    1.859640    0.696970
     21          1           0        0.792210    1.883230   -0.956320
     22          1           0        0.267780   -0.374870    1.049530
     23          1           0       -0.344620   -0.360880   -0.616450
     24          1           0        1.567190   -1.508950   -0.395070
 ---------------------------------------------------------------------
                    Distance matrix (angstroms):
                    1          2          3          4          5
     1  C    0.000000
     2  C    1.546227   0.000000
     3  N    2.577361   1.505295   0.000000
     4  C    3.918767   2.519475   1.504004   0.000000
     5  C    4.494100   3.096108   2.568470   1.547084   0.000000
     6  C    3.070321   2.546194   1.507165   2.505348   3.891641
     7  C    3.745290   3.188161   2.599988   3.197020   4.692975
     8  O    4.697649   4.457550   3.817987   4.467860   5.995327
     9  H    1.093770   2.178970   2.768274   4.165287   4.626461
    10  H    1.091789   2.185677   2.941741   4.336097   5.195168
    11  H    1.092181   2.174382   3.493384   4.679623   5.031249
    12  H    2.107912   1.091560   2.127406   2.737704   2.715299
    13  H    2.170133   1.093750   2.150355   2.791375   3.475140
    14  H    2.734292   2.024217   1.022882   2.020800   2.657820
    15  H    4.699486   3.448602   2.127470   1.093615   2.125488
    16  H    4.275147   2.806676   2.150022   1.093547   2.163317
    17  H    5.566327   4.136232   3.481536   2.176404   1.090701
    18  H    4.355412   2.943166   2.958955   2.184998   1.090886
    19  H    4.433047   3.282390   2.733247   2.179929   1.092101
    20  H    4.043627   3.465601   2.130934   2.688341   4.060566
    21  H    2.728058   2.797403   2.133613   3.430351   4.658795
    22  H    4.491640   3.603644   2.893394   2.940968   4.437279
    23  H    3.297189   2.897880   2.865884   3.605667   4.956436
    24  H    5.281692   5.000722   4.514144   5.029691   6.551346
                    6          7          8          9         10
     6  C    0.000000
     7  C    1.550429   0.000000
     8  O    2.440703   1.424019   0.000000
     9  H    3.248548   4.270300   5.102707   0.000000
    10  H    2.893182   3.263842   3.986617   1.784606   0.000000
    11  H    4.116749   4.631085   5.599518   1.777561   1.765807
    12  H    3.460406   4.207653   5.511986   2.505686   3.026086
    13  H    2.908961   2.992323   4.317560   3.074166   2.475482
    14  H    2.019917   3.415620   4.459474   2.513130   3.260904
    15  H    2.642854   3.405532   4.450865   4.795401   5.017079
    16  H    2.857190   2.984039   4.306646   4.756954   4.554954
    17  H    4.638050   5.327004   6.575914   5.696500   6.221932
    18  H    4.375420   5.000791   6.387489   4.649810   5.128128
    19  H    4.081198   5.167039   6.392647   4.311974   5.237413
    20  H    1.093660   2.156437   2.667475   4.031886   3.914070
    21  H    1.092502   2.159943   2.632826   2.718456   2.375109
    22  H    2.183794   1.089945   2.046722   5.053029   4.165328
    23  H    2.188855   1.090373   2.045496   4.045986   2.712999
    24  H    3.267832   1.928556   0.981092   5.821354   4.515807
                   11         12         13         14         15
    11  H    0.000000
    12  H    2.361505   0.000000
    13  H    2.536028   1.760818   0.000000
    14  H    3.654514   2.326715   2.944693   0.000000
    15  H    5.565842   3.728158   3.779569   2.385562   0.000000
    16  H    4.943193   3.129566   2.635044   2.943499   1.763105
    17  H    6.107732   3.781332   4.398892   3.580439   2.359956
    18  H    4.673156   2.333641   3.139016   3.192241   3.032821
    19  H    4.979077   2.775022   3.945502   2.399774   2.554570
    20  H    5.111825   4.241604   3.886239   2.345492   2.360966
    21  H    3.802361   3.729133   3.308358   2.313671   3.600658
    22  H    5.322327   4.490559   3.262117   3.783433   3.054837
    23  H    4.010054   3.944528   2.448735   3.748574   4.087845
    24  H    6.081605   6.054707   4.658732   5.260925   5.068637
                   16         17         18         19         20
    16  H    0.000000
    17  H    2.560539   0.000000
    18  H    2.439735   1.763924   0.000000
    19  H    3.065277   1.773881   1.780889   0.000000
    20  H    3.161340   4.625250   4.767100   4.181880   0.000000
    21  H    3.867477   5.498913   5.084743   4.660225   1.734981
    22  H    2.453226   4.883427   4.767984   5.089298   2.493964
    23  H    3.274604   5.690779   5.033493   5.462391   3.069102
    24  H    4.669662   7.082412   6.854617   7.062701   3.549951
                   21         22         23         24
    21  H    0.000000
    22  H    3.065530   0.000000
    23  H    2.538488   1.775026   0.000000
    24  H    3.524554   2.249772   2.241002   0.000000
 Stoichiometry    C6H16NO(1+)
 Framework group  C1[X(C6H16NO)]
 Deg. of freedom    66
 Full point group                 C1      NOp   1
 Largest Abelian subgroup         C1      NOp   1
 Largest concise Abelian subgroup C1      NOp   1
                         Standard orientation:                         
 ---------------------------------------------------------------------
 Center     Atomic      Atomic             Coordinates (Angstroms)
 Number     Number       Type             X           Y           Z
 ---------------------------------------------------------------------
      1          6           0       -0.281853    2.539359    0.058880
      2          6           0       -0.860490    1.204169   -0.463866
      3          7           0       -0.578332    0.001426    0.396198
      4          6           0       -1.263441   -1.252148   -0.074130
      5          6           0       -2.808402   -1.174071   -0.095771
      6          6           0        0.872577   -0.223841    0.736289
      7          6           0        1.824363   -0.515077   -0.452456
      8          8           0        3.163336   -0.653817    0.012014
      9          1           0       -0.544006    2.675327    1.112028
     10          1           0        0.804162    2.559184   -0.051490
     11          1           0       -0.693113    3.371454   -0.516744
     12          1           0       -1.939256    1.365537   -0.505436
     13          1           0       -0.515917    1.035552   -1.488135
     14          1           0       -1.018569    0.214177    1.294651
     15          1           0       -1.013922   -2.070238    0.607384
     16          1           0       -0.910873   -1.535892   -1.069635
     17          1           0       -3.230940   -2.174725   -0.194681
     18          1           0       -3.151839   -0.579610   -0.943532
     19          1           0       -3.176198   -0.728448    0.830959
     20          1           0        0.947806   -1.055844    1.442125
     21          1           0        1.254782    0.643945    1.278902
     22          1           0        1.537621   -1.441350   -0.950229
     23          1           0        1.798771    0.299706   -1.176602
     24          1           0        3.696596   -0.828570   -0.792746
 ---------------------------------------------------------------------
 Rotational constants (GHZ):           2.3490033           1.1815199           0.8654668
 Leave Link  202 at Tue Feb 23 00:11:04 2021, MaxMem=   104857600 cpu:               0.6 elap:               0.1
 (Enter /sw/arch/RedHatEnterpriseServer7/EB_production/2019/software/Gaussian/g16.c01/l301.exe)
 Standard basis: TZVP (5D, 7F)
 Ernie: Thresh=  0.10000D-02 Tol=  0.10000D-05 Strict=F.
 There are   256 symmetry adapted cartesian basis functions of A   symmetry.
 There are   248 symmetry adapted basis functions of A   symmetry.
   248 basis functions,   408 primitive gaussians,   256 cartesian basis functions
    33 alpha electrons       33 beta electrons
       nuclear repulsion energy       422.0269803322 Hartrees.
 IExCor=  404 DFT=T Ex=B Corr=P86 ExCW=0 ScaHFX=  0.000000
 ScaDFX=  1.000000  1.000000  1.000000  1.000000 ScalE2=  1.000000  1.000000
 IRadAn=      5 IRanWt=     -1 IRanGd=            0 ICorTp=0 IEmpDi=131
 NAtoms=   24 NActive=   24 NUniq=   24 SFac= 1.00D+00 NAtFMM=   60 NAOKFM=F Big=F
 Integral buffers will be    131072 words long.
 Raffenetti 2 integral format.
 Two-electron integral symmetry is turned on.
 R6Disp:  Grimme-D3 Dispersion energy=       -0.0235215235 Hartrees.
 Nuclear repulsion after empirical dispersion term =      422.0034588087 Hartrees.
 ------------------------------------------------------------------------------
 Polarizable Continuum Model (PCM)
 =================================
 Model                : PCM.
 Atomic radii         : UFF (Universal Force Field).
 Polarization charges : Total charges.
 Charge compensation  : None.
 Solution method      : On-the-fly selection.
 Cavity type          : Scaled VdW (van der Waals Surface) (Alpha=1.100).
 Cavity algorithm     : GePol (No added spheres)
                        Default sphere list used, NSphG=   24.
                        Lebedev-Laikov grids with approx.  5.0 points / Ang**2.
                        Smoothing algorithm: York/Karplus (Gamma=1.0000).
                        Polarization charges: spherical gaussians, with
                                              point-specific exponents (IZeta= 3).
                        Self-potential: point-specific (ISelfS= 7).
                        Self-field    : sphere-specific E.n sum rule (ISelfD= 2).
 1st derivatives      : Analytical E(r).r(x)/FMM algorithm (CHGder, D1EAlg=3).
                        Cavity 1st derivative terms included.
 Solvent              : Water, Eps=  78.355300 Eps(inf)=   1.777849
 ------------------------------------------------------------------------------
 GePol: Number of generator spheres                  =      24
 GePol: Total number of spheres                      =      24
 GePol: Number of exposed spheres                    =      24 (100.00%)
 GePol: Number of points                             =    1622
 GePol: Average weight of points                     =       0.13
 GePol: Minimum weight of points                     =   0.42D-08
 GePol: Maximum weight of points                     =    0.20577
 GePol: Number of points with low weight             =     109
 GePol: Fraction of low-weight points (<1% of avg)   =       6.72%
 GePol: Cavity surface area                          =    216.303 Ang**2
 GePol: Cavity volume                                =    215.421 Ang**3
 Leave Link  301 at Tue Feb 23 00:11:04 2021, MaxMem=   104857600 cpu:               1.9 elap:               0.1
 (Enter /sw/arch/RedHatEnterpriseServer7/EB_production/2019/software/Gaussian/g16.c01/l302.exe)
 NPDir=0 NMtPBC=     1 NCelOv=     1 NCel=       1 NClECP=     1 NCelD=      1
         NCelK=      1 NCelE2=     1 NClLst=     1 CellRange=     0.0.
 One-electron integrals computed using PRISM.
 One-electron integral symmetry used in STVInt
 PrsmSu:  requested number of processors reduced to:  28 ShMem   1 Linda.
 NBasis=   248 RedAO= T EigKep=  3.04D-04  NBF=   248
 NBsUse=   248 1.00D-06 EigRej= -1.00D+00 NBFU=   248
 Precomputing XC quadrature grid using
 IXCGrd= 4 IRadAn=           5 IRanWt=          -1 IRanGd=           0 AccXCQ= 0.00D+00.
 Generated NRdTot=       0 NPtTot=           0 NUsed=           0 NTot=          32
 NSgBfM=   254   253   253   254   254 MxSgAt=    24 MxSgA2=    24.
 Leave Link  302 at Tue Feb 23 00:11:05 2021, MaxMem=   104857600 cpu:               7.1 elap:               0.3
 (Enter /sw/arch/RedHatEnterpriseServer7/EB_production/2019/software/Gaussian/g16.c01/l303.exe)
 DipDrv:  MaxL=1.
 Leave Link  303 at Tue Feb 23 00:11:05 2021, MaxMem=   104857600 cpu:               3.8 elap:               0.2
 (Enter /sw/arch/RedHatEnterpriseServer7/EB_production/2019/software/Gaussian/g16.c01/l401.exe)
 ExpMin= 9.52D-02 ExpMax= 2.70D+04 ExpMxC= 9.22D+02 IAcc=3 IRadAn=         5 AccDes= 0.00D+00
 Harris functional with IExCor=  404 and IRadAn=       5 diagonalized for initial guess.
 HarFok:  IExCor=  404 AccDes= 0.00D+00 IRadAn=         5 IDoV= 1 UseB2=F ITyADJ=14
 ICtDFT=  3500011 ScaDFX=  1.000000  1.000000  1.000000  1.000000
 FoFCou: FMM=F IPFlag=           0 FMFlag=      100000 FMFlg1=           0
         NFxFlg=           0 DoJE=T BraDBF=F KetDBF=T FulRan=T
         wScrn=  0.000000 ICntrl=       500 IOpCl=  0 I1Cent=   200000004 NGrid=           0
         NMat0=    1 NMatS0=      1 NMatT0=    0 NMatD0=    1 NMtDS0=    0 NMtDT0=    0
 Petite list used in FoFCou.
 Harris En= -368.364791954487    
 JPrj=0 DoOrth=F DoCkMO=F.
 Leave Link  401 at Tue Feb 23 00:11:06 2021, MaxMem=   104857600 cpu:              15.2 elap:               0.6
 (Enter /sw/arch/RedHatEnterpriseServer7/EB_production/2019/software/Gaussian/g16.c01/l502.exe)
 Integral symmetry usage will be decided dynamically.
 Closed shell SCF:
 Using DIIS extrapolation, IDIIS=  1040.
 NGot=   104857600 LenX=   104714954 LenY=   104648977
 Requested convergence on RMS density matrix=1.00D-08 within 128 cycles.
 Requested convergence on MAX density matrix=1.00D-06.
 Requested convergence on             energy=1.00D-06.
 No special actions if energy rises.
 Fock matrices will be formed incrementally for  20 cycles.

 Cycle   1  Pass 1  IDiag  1:
 FoFJK:  IHMeth= 1 ICntrl=     500 DoSepK=F KAlg= 0 I1Cent=           0 FoldK=F
 IRaf= 940000000 NMat=       1 IRICut=       1 DoRegI=T DoRafI=F ISym2E= 0 IDoP0=0 IntGTp=1.
 FoFCou: FMM=F IPFlag=           0 FMFlag=      100000 FMFlg1=           0
         NFxFlg=           0 DoJE=T BraDBF=F KetDBF=F FulRan=T
         wScrn=  0.000000 ICntrl=       500 IOpCl=  0 I1Cent=           0 NGrid=           0
         NMat0=    1 NMatS0=      1 NMatT0=    0 NMatD0=    1 NMtDS0=    0 NMtDT0=    0
 Symmetry not used in FoFCou.
 Inv3:  Mode=1 IEnd=     7892652.
 Iteration    1 A*A^-1 deviation from unit magnitude is 2.89D-15 for    563.
 Iteration    1 A*A^-1 deviation from orthogonality  is 2.00D-15 for   1505    735.
 Iteration    1 A^-1*A deviation from unit magnitude is 3.00D-15 for    735.
 Iteration    1 A^-1*A deviation from orthogonality  is 2.55D-15 for   1454   1433.
 E= -367.999591947215    
 DIIS: error= 2.39D-02 at cycle   1 NSaved=   1.
 NSaved= 1 IEnMin= 1 EnMin= -367.999591947215     IErMin= 1 ErrMin= 2.39D-02
 ErrMax= 2.39D-02  0.00D+00 EMaxC= 1.00D-01 BMatC= 2.39D-01 BMatP= 2.39D-01
 IDIUse=3 WtCom= 7.61D-01 WtEn= 2.39D-01
 Coeff-Com:  0.100D+01
 Coeff-En:   0.100D+01
 Coeff:      0.100D+01
 Gap=     0.145 Goal=   None    Shift=    0.000
 GapD=    0.145 DampG=1.000 DampE=0.500 DampFc=0.5000 IDamp=-1.
 Damping current iteration by 5.00D-01
 RMSDP=6.46D-03 MaxDP=5.68D-01              OVMax= 1.82D-01

 Cycle   2  Pass 1  IDiag  1:
 RMSU=  3.23D-03    CP:  1.01D+00
 E= -368.059746502249     Delta-E=       -0.060154555033 Rises=F Damp=T
 DIIS: error= 1.15D-02 at cycle   2 NSaved=   2.
 NSaved= 2 IEnMin= 2 EnMin= -368.059746502249     IErMin= 2 ErrMin= 1.15D-02
 ErrMax= 1.15D-02  0.00D+00 EMaxC= 1.00D-01 BMatC= 3.54D-02 BMatP= 2.39D-01
 IDIUse=3 WtCom= 8.85D-01 WtEn= 1.15D-01
 Coeff-Com:  0.232D+00 0.768D+00
 Coeff-En:   0.355D+00 0.645D+00
 Coeff:      0.246D+00 0.754D+00
 Gap=     0.259 Goal=   None    Shift=    0.000
 RMSDP=1.92D-03 MaxDP=1.93D-01 DE=-6.02D-02 OVMax= 1.30D-01

 Cycle   3  Pass 1  IDiag  1:
 RMSU=  9.32D-04    CP:  9.97D-01  4.80D-01
 E= -368.209301806262     Delta-E=       -0.149555304013 Rises=F Damp=F
 DIIS: error= 7.23D-03 at cycle   3 NSaved=   3.
 NSaved= 3 IEnMin= 3 EnMin= -368.209301806262     IErMin= 3 ErrMin= 7.23D-03
 ErrMax= 7.23D-03  0.00D+00 EMaxC= 1.00D-01 BMatC= 1.28D-02 BMatP= 3.54D-02
 IDIUse=3 WtCom= 9.28D-01 WtEn= 7.23D-02
 Coeff-Com:  0.847D-01 0.382D+00 0.533D+00
 Coeff-En:   0.000D+00 0.000D+00 0.100D+01
 Coeff:      0.786D-01 0.355D+00 0.567D+00
 Gap=     0.227 Goal=   None    Shift=    0.000
 RMSDP=6.36D-04 MaxDP=3.61D-02 DE=-1.50D-01 OVMax= 2.68D-02

 Cycle   4  Pass 1  IDiag  1:
 RMSU=  3.81D-04    CP:  1.01D+00  6.07D-01  6.98D-01
 E= -368.216120263035     Delta-E=       -0.006818456773 Rises=F Damp=F
 DIIS: error= 4.06D-03 at cycle   4 NSaved=   4.
 NSaved= 4 IEnMin= 4 EnMin= -368.216120263035     IErMin= 4 ErrMin= 4.06D-03
 ErrMax= 4.06D-03  0.00D+00 EMaxC= 1.00D-01 BMatC= 3.78D-03 BMatP= 1.28D-02
 IDIUse=3 WtCom= 9.59D-01 WtEn= 4.06D-02
 Coeff-Com:  0.175D-01 0.986D-01 0.360D+00 0.524D+00
 Coeff-En:   0.000D+00 0.000D+00 0.268D+00 0.732D+00
 Coeff:      0.168D-01 0.946D-01 0.356D+00 0.532D+00
 Gap=     0.234 Goal=   None    Shift=    0.000
 RMSDP=3.00D-04 MaxDP=1.85D-02 DE=-6.82D-03 OVMax= 9.84D-03

 Cycle   5  Pass 1  IDiag  1:
 RMSU=  1.02D-04    CP:  1.00D+00  5.46D-01  7.69D-01  5.25D-01
 E= -368.219176280868     Delta-E=       -0.003056017834 Rises=F Damp=F
 DIIS: error= 4.63D-04 at cycle   5 NSaved=   5.
 NSaved= 5 IEnMin= 5 EnMin= -368.219176280868     IErMin= 5 ErrMin= 4.63D-04
 ErrMax= 4.63D-04  0.00D+00 EMaxC= 1.00D-01 BMatC= 5.19D-05 BMatP= 3.78D-03
 IDIUse=3 WtCom= 9.95D-01 WtEn= 4.63D-03
 Coeff-Com:  0.223D-02 0.159D-01 0.103D+00 0.205D+00 0.674D+00
 Coeff-En:   0.000D+00 0.000D+00 0.000D+00 0.000D+00 0.100D+01
 Coeff:      0.222D-02 0.158D-01 0.102D+00 0.204D+00 0.676D+00
 Gap=     0.233 Goal=   None    Shift=    0.000
 RMSDP=4.46D-05 MaxDP=2.76D-03 DE=-3.06D-03 OVMax= 1.33D-03

 Cycle   6  Pass 1  IDiag  1:
 RMSU=  1.99D-05    CP:  1.00D+00  5.54D-01  7.68D-01  5.67D-01  7.70D-01
 E= -368.219209492858     Delta-E=       -0.000033211990 Rises=F Damp=F
 DIIS: error= 2.36D-04 at cycle   6 NSaved=   6.
 NSaved= 6 IEnMin= 6 EnMin= -368.219209492858     IErMin= 6 ErrMin= 2.36D-04
 ErrMax= 2.36D-04  0.00D+00 EMaxC= 1.00D-01 BMatC= 1.14D-05 BMatP= 5.19D-05
 IDIUse=3 WtCom= 9.98D-01 WtEn= 2.36D-03
 Coeff-Com:  0.843D-03 0.627D-02 0.499D-01 0.108D+00 0.437D+00 0.398D+00
 Coeff-En:   0.000D+00 0.000D+00 0.000D+00 0.000D+00 0.919D-01 0.908D+00
 Coeff:      0.841D-03 0.626D-02 0.498D-01 0.108D+00 0.436D+00 0.399D+00
 Gap=     0.233 Goal=   None    Shift=    0.000
 RMSDP=1.09D-05 MaxDP=3.96D-04 DE=-3.32D-05 OVMax= 4.68D-04

 Cycle   7  Pass 1  IDiag  1:
 RMSU=  6.26D-06    CP:  1.00D+00  5.53D-01  7.73D-01  5.68D-01  7.69D-01
                    CP:  6.58D-01
 E= -368.219218479606     Delta-E=       -0.000008986748 Rises=F Damp=F
 DIIS: error= 2.19D-05 at cycle   7 NSaved=   7.
 NSaved= 7 IEnMin= 7 EnMin= -368.219218479606     IErMin= 7 ErrMin= 2.19D-05
 ErrMax= 2.19D-05  0.00D+00 EMaxC= 1.00D-01 BMatC= 1.74D-07 BMatP= 1.14D-05
 IDIUse=1 WtCom= 1.00D+00 WtEn= 0.00D+00
 Coeff-Com:  0.243D-03 0.143D-02 0.140D-01 0.309D-01 0.135D+00 0.161D+00
 Coeff-Com:  0.657D+00
 Coeff:      0.243D-03 0.143D-02 0.140D-01 0.309D-01 0.135D+00 0.161D+00
 Coeff:      0.657D+00
 Gap=     0.233 Goal=   None    Shift=    0.000
 RMSDP=2.49D-06 MaxDP=6.35D-05 DE=-8.99D-06 OVMax= 8.45D-05

 Cycle   8  Pass 1  IDiag  1:
 RMSU=  1.59D-06    CP:  1.00D+00  5.53D-01  7.72D-01  5.68D-01  7.81D-01
                    CP:  6.34D-01  8.21D-01
 E= -368.219218647245     Delta-E=       -0.000000167639 Rises=F Damp=F
 DIIS: error= 7.73D-06 at cycle   8 NSaved=   8.
 NSaved= 8 IEnMin= 8 EnMin= -368.219218647245     IErMin= 8 ErrMin= 7.73D-06
 ErrMax= 7.73D-06  0.00D+00 EMaxC= 1.00D-01 BMatC= 2.53D-08 BMatP= 1.74D-07
 IDIUse=1 WtCom= 1.00D+00 WtEn= 0.00D+00
 Coeff-Com:  0.722D-04 0.239D-03 0.317D-02 0.714D-02 0.335D-01 0.469D-01
 Coeff-Com:  0.326D+00 0.583D+00
 Coeff:      0.722D-04 0.239D-03 0.317D-02 0.714D-02 0.335D-01 0.469D-01
 Coeff:      0.326D+00 0.583D+00
 Gap=     0.233 Goal=   None    Shift=    0.000
 RMSDP=6.95D-07 MaxDP=2.34D-05 DE=-1.68D-07 OVMax= 2.89D-05

 Cycle   9  Pass 1  IDiag  1:
 RMSU=  4.40D-07    CP:  1.00D+00  5.52D-01  7.72D-01  5.67D-01  7.80D-01
                    CP:  6.40D-01  8.43D-01  7.96D-01
 E= -368.219218666750     Delta-E=       -0.000000019505 Rises=F Damp=F
 DIIS: error= 2.17D-06 at cycle   9 NSaved=   9.
 NSaved= 9 IEnMin= 9 EnMin= -368.219218666750     IErMin= 9 ErrMin= 2.17D-06
 ErrMax= 2.17D-06  0.00D+00 EMaxC= 1.00D-01 BMatC= 3.35D-09 BMatP= 2.53D-08
 IDIUse=1 WtCom= 1.00D+00 WtEn= 0.00D+00
 Coeff-Com:  0.996D-05-0.569D-04-0.937D-04-0.172D-03 0.152D-03 0.364D-02
 Coeff-Com:  0.873D-01 0.315D+00 0.594D+00
 Coeff:      0.996D-05-0.569D-04-0.937D-04-0.172D-03 0.152D-03 0.364D-02
 Coeff:      0.873D-01 0.315D+00 0.594D+00
 Gap=     0.233 Goal=   None    Shift=    0.000
 RMSDP=2.11D-07 MaxDP=5.77D-06 DE=-1.95D-08 OVMax= 9.47D-06

 Cycle  10  Pass 1  IDiag  1:
 RMSU=  1.12D-07    CP:  1.00D+00  5.52D-01  7.72D-01  5.67D-01  7.79D-01
                    CP:  6.42D-01  8.57D-01  7.98D-01  6.86D-01
 E= -368.219218669857     Delta-E=       -0.000000003107 Rises=F Damp=F
 DIIS: error= 2.39D-07 at cycle  10 NSaved=  10.
 NSaved=10 IEnMin=10 EnMin= -368.219218669857     IErMin=10 ErrMin= 2.39D-07
 ErrMax= 2.39D-07  0.00D+00 EMaxC= 1.00D-01 BMatC= 2.77D-11 BMatP= 3.35D-09
 IDIUse=1 WtCom= 1.00D+00 WtEn= 0.00D+00
 Coeff-Com:  0.166D-05-0.195D-04-0.791D-04-0.180D-03-0.614D-03 0.279D-03
 Coeff-Com:  0.173D-01 0.794D-01 0.178D+00 0.726D+00
 Coeff:      0.166D-05-0.195D-04-0.791D-04-0.180D-03-0.614D-03 0.279D-03
 Coeff:      0.173D-01 0.794D-01 0.178D+00 0.726D+00
 Gap=     0.233 Goal=   None    Shift=    0.000
 RMSDP=3.08D-08 MaxDP=8.50D-07 DE=-3.11D-09 OVMax= 1.16D-06

 Cycle  11  Pass 1  IDiag  1:
 RMSU=  1.99D-08    CP:  1.00D+00  5.52D-01  7.72D-01  5.67D-01  7.79D-01
                    CP:  6.42D-01  8.56D-01  8.05D-01  6.97D-01  8.65D-01
 E= -368.219218669884     Delta-E=       -0.000000000027 Rises=F Damp=F
 DIIS: error= 1.05D-07 at cycle  11 NSaved=  11.
 NSaved=11 IEnMin=11 EnMin= -368.219218669884     IErMin=11 ErrMin= 1.05D-07
 ErrMax= 1.05D-07  0.00D+00 EMaxC= 1.00D-01 BMatC= 4.13D-12 BMatP= 2.77D-11
 IDIUse=1 WtCom= 1.00D+00 WtEn= 0.00D+00
 Coeff-Com:  0.344D-06-0.730D-05-0.320D-04-0.770D-04-0.281D-03 0.251D-04
 Coeff-Com:  0.513D-02 0.270D-01 0.644D-01 0.359D+00 0.545D+00
 Coeff:      0.344D-06-0.730D-05-0.320D-04-0.770D-04-0.281D-03 0.251D-04
 Coeff:      0.513D-02 0.270D-01 0.644D-01 0.359D+00 0.545D+00
 Gap=     0.233 Goal=   None    Shift=    0.000
 RMSDP=8.54D-09 MaxDP=4.00D-07 DE=-2.72D-11 OVMax= 4.15D-07

 Error on total polarization charges =  0.01021
 SCF Done:  E(RB-P86) =  -368.219218670     A.U. after   11 cycles
            NFock= 11  Conv=0.85D-08     -V/T= 2.0053
 KE= 3.662879375776D+02 PE=-1.687808617500D+03 EE= 5.312980024439D+02
 Leave Link  502 at Tue Feb 23 00:11:18 2021, MaxMem=   104857600 cpu:             383.9 elap:              12.3
 (Enter /sw/arch/RedHatEnterpriseServer7/EB_production/2019/software/Gaussian/g16.c01/l601.exe)
 Copying SCF densities to generalized density rwf, IOpCl= 0 IROHF=0.

 **********************************************************************

            Population analysis using the SCF Density.

 **********************************************************************

 Orbital symmetries:
       Occupied  (A) (A) (A) (A) (A) (A) (A) (A) (A) (A) (A) (A)
                 (A) (A) (A) (A) (A) (A) (A) (A) (A) (A) (A) (A)
                 (A) (A) (A) (A) (A) (A) (A) (A) (A)
       Virtual   (A) (A) (A) (A) (A) (A) (A) (A) (A) (A) (A) (A)
                 (A) (A) (A) (A) (A) (A) (A) (A) (A) (A) (A) (A)
                 (A) (A) (A) (A) (A) (A) (A) (A) (A) (A) (A) (A)
                 (A) (A) (A) (A) (A) (A) (A) (A) (A) (A) (A) (A)
                 (A) (A) (A) (A) (A) (A) (A) (A) (A) (A) (A) (A)
                 (A) (A) (A) (A) (A) (A) (A) (A) (A) (A) (A) (A)
                 (A) (A) (A) (A) (A) (A) (A) (A) (A) (A) (A) (A)
                 (A) (A) (A) (A) (A) (A) (A) (A) (A) (A) (A) (A)
                 (A) (A) (A) (A) (A) (A) (A) (A) (A) (A) (A) (A)
                 (A) (A) (A) (A) (A) (A) (A) (A) (A) (A) (A) (A)
                 (A) (A) (A) (A) (A) (A) (A) (A) (A) (A) (A) (A)
                 (A) (A) (A) (A) (A) (A) (A) (A) (A) (A) (A) (A)
                 (A) (A) (A) (A) (A) (A) (A) (A) (A) (A) (A) (A)
                 (A) (A) (A) (A) (A) (A) (A) (A) (A) (A) (A) (A)
                 (A) (A) (A) (A) (A) (A) (A) (A) (A) (A) (A) (A)
                 (A) (A) (A) (A) (A) (A) (A) (A) (A) (A) (A) (A)
                 (A) (A) (A) (A) (A) (A) (A) (A) (A) (A) (A) (A)
                 (A) (A) (A) (A) (A) (A) (A) (A) (A) (A) (A)
 The electronic state is 1-A.
 Alpha  occ. eigenvalues --  -18.79031 -14.15294  -9.97441  -9.97164  -9.97150
 Alpha  occ. eigenvalues --   -9.96884  -9.91452  -9.91363  -0.96348  -0.95556
 Alpha  occ. eigenvalues --   -0.73906  -0.73362  -0.68951  -0.62089  -0.61051
 Alpha  occ. eigenvalues --   -0.57704  -0.52928  -0.49273  -0.48990  -0.45953
 Alpha  occ. eigenvalues --   -0.44855  -0.42542  -0.41770  -0.38970  -0.37937
 Alpha  occ. eigenvalues --   -0.37501  -0.35653  -0.35185  -0.35142  -0.34242
 Alpha  occ. eigenvalues --   -0.33133  -0.31696  -0.24932
 Alpha virt. eigenvalues --   -0.01640  -0.00015   0.02219   0.02544   0.03501
 Alpha virt. eigenvalues --    0.04321   0.04627   0.05863   0.06234   0.07004
 Alpha virt. eigenvalues --    0.08073   0.08778   0.09403   0.09695   0.10360
 Alpha virt. eigenvalues --    0.10934   0.12126   0.12444   0.13360   0.13539
 Alpha virt. eigenvalues --    0.14300   0.14405   0.16208   0.19325   0.20346
 Alpha virt. eigenvalues --    0.20743   0.21563   0.22463   0.22872   0.23661
 Alpha virt. eigenvalues --    0.26524   0.27923   0.28812   0.29744   0.31867
 Alpha virt. eigenvalues --    0.32574   0.33350   0.35437   0.35833   0.36694
 Alpha virt. eigenvalues --    0.37719   0.38338   0.38844   0.38894   0.39683
 Alpha virt. eigenvalues --    0.39986   0.40816   0.41467   0.42251   0.42450
 Alpha virt. eigenvalues --    0.42994   0.43580   0.44600   0.44674   0.45435
 Alpha virt. eigenvalues --    0.46732   0.46940   0.48810   0.50061   0.51045
 Alpha virt. eigenvalues --    0.51724   0.54169   0.57512   0.59633   0.60453
 Alpha virt. eigenvalues --    0.62426   0.63624   0.66645   0.68374   0.75003
 Alpha virt. eigenvalues --    0.85550   1.00366   1.02139   1.09178   1.11814
 Alpha virt. eigenvalues --    1.12361   1.13278   1.18103   1.18886   1.19699
 Alpha virt. eigenvalues --    1.20151   1.21016   1.21895   1.22927   1.24206
 Alpha virt. eigenvalues --    1.25380   1.26174   1.26865   1.27452   1.29377
 Alpha virt. eigenvalues --    1.30630   1.30937   1.33357   1.34203   1.36019
 Alpha virt. eigenvalues --    1.38035   1.39214   1.40200   1.42099   1.45569
 Alpha virt. eigenvalues --    1.46365   1.48484   1.48813   1.49677   1.51264
 Alpha virt. eigenvalues --    1.52656   1.54835   1.56861   1.58691   1.61597
 Alpha virt. eigenvalues --    1.62361   1.64013   1.65494   1.66958   1.67837
 Alpha virt. eigenvalues --    1.69447   1.70462   1.70976   1.71450   1.71668
 Alpha virt. eigenvalues --    1.72122   1.72869   1.73572   1.75337   1.76273
 Alpha virt. eigenvalues --    1.77242   1.78686   1.81206   1.82279   1.82949
 Alpha virt. eigenvalues --    1.84727   1.86991   1.89781   1.90933   1.94749
 Alpha virt. eigenvalues --    1.96170   1.98665   1.99367   2.02535   2.04471
 Alpha virt. eigenvalues --    2.09427   2.11675   2.12442   2.16124   2.16838
 Alpha virt. eigenvalues --    2.20437   2.22254   2.22654   2.23344   2.25933
 Alpha virt. eigenvalues --    2.28619   2.30793   2.33774   2.37459   2.38360
 Alpha virt. eigenvalues --    2.40829   2.41302   2.43362   2.46561   2.47418
 Alpha virt. eigenvalues --    2.47992   2.50103   2.50557   2.51067   2.53618
 Alpha virt. eigenvalues --    2.56159   2.57272   2.58267   2.59204   2.59993
 Alpha virt. eigenvalues --    2.60753   2.62123   2.64957   2.65798   2.67558
 Alpha virt. eigenvalues --    2.72902   2.74347   2.76734   2.79538   2.82745
 Alpha virt. eigenvalues --    2.84276   2.85606   2.90017   2.93564   2.94034
 Alpha virt. eigenvalues --    3.00449   3.03940   3.06211   3.08435   3.09769
 Alpha virt. eigenvalues --    3.18875   3.21374   3.22313   3.24205   3.25469
 Alpha virt. eigenvalues --    3.25777   3.27305   3.28806   3.29538   3.30605
 Alpha virt. eigenvalues --    3.32001   3.36936   3.58587   3.59916   3.71156
 Alpha virt. eigenvalues --    3.87244   4.14611  21.65997  21.73779  21.75169
 Alpha virt. eigenvalues --   21.75972  21.77059  21.80637  31.55891  43.12251
          Condensed to atoms (all electrons):
               1          2          3          4          5          6
     1  C    5.103819   0.172830  -0.013230   0.019016  -0.000055  -0.001868
     2  C    0.172830   5.379500   0.160833  -0.116830   0.000251  -0.045497
     3  N   -0.013230   0.160833   6.458693   0.236107  -0.030634   0.103117
     4  C    0.019016  -0.116830   0.236107   5.217040   0.239132  -0.090575
     5  C   -0.000055   0.000251  -0.030634   0.239132   5.064346   0.012922
     6  C   -0.001868  -0.045497   0.103117  -0.090575   0.012922   5.719382
     7  C   -0.008680  -0.000119   0.023962   0.012580   0.001147  -0.019883
     8  O    0.001850  -0.002432   0.005652  -0.000546  -0.000012  -0.102051
     9  H    0.405129  -0.036267   0.001438   0.000438  -0.000307  -0.011534
    10  H    0.408725  -0.038705  -0.011548  -0.001397   0.000147   0.024947
    11  H    0.392546  -0.020864   0.004881  -0.000344   0.000053  -0.000901
    12  H   -0.028381   0.397785  -0.022760  -0.015971   0.009961   0.011736
    13  H   -0.033540   0.401074  -0.020702   0.005149  -0.004295  -0.022880
    14  H   -0.006571  -0.033742   0.366442  -0.019514  -0.008534  -0.049849
    15  H   -0.000814   0.013839  -0.022802   0.384148  -0.032984   0.004470
    16  H    0.000037  -0.013569  -0.022784   0.414774  -0.030359  -0.012645
    17  H    0.000012   0.000556   0.004228  -0.020101   0.392536  -0.000392
    18  H   -0.000121   0.008144  -0.007327  -0.041075   0.415366   0.000157
    19  H   -0.000089  -0.007701   0.001205  -0.042757   0.406508  -0.000792
    20  H   -0.002663   0.017919  -0.012922  -0.018596  -0.000166   0.372508
    21  H    0.014766  -0.030741  -0.002686   0.012260  -0.000300   0.360034
    22  H    0.002091  -0.011324   0.002708   0.016008   0.000577  -0.053499
    23  H   -0.009881   0.036386  -0.008418  -0.006309  -0.000065  -0.034749
    24  H   -0.000077   0.000035  -0.000560  -0.000003  -0.000003   0.014945
               7          8          9         10         11         12
     1  C   -0.008680   0.001850   0.405129   0.408725   0.392546  -0.028381
     2  C   -0.000119  -0.002432  -0.036267  -0.038705  -0.020864   0.397785
     3  N    0.023962   0.005652   0.001438  -0.011548   0.004881  -0.022760
     4  C    0.012580  -0.000546   0.000438  -0.001397  -0.000344  -0.015971
     5  C    0.001147  -0.000012  -0.000307   0.000147   0.000053   0.009961
     6  C   -0.019883  -0.102051  -0.011534   0.024947  -0.000901   0.011736
     7  C    5.125854   0.319693   0.001364  -0.007410   0.000411  -0.000433
     8  O    0.319693   7.936240  -0.000061  -0.000192   0.000003  -0.000006
     9  H    0.001364  -0.000061   0.514401  -0.028070  -0.015796  -0.004786
    10  H   -0.007410  -0.000192  -0.028070   0.510272  -0.020214   0.005940
    11  H    0.000411   0.000003  -0.015796  -0.020214   0.483756  -0.004294
    12  H   -0.000433  -0.000006  -0.004786   0.005940  -0.004294   0.476113
    13  H    0.006657   0.000004   0.005611  -0.006757   0.000178  -0.020421
    14  H    0.011019  -0.000096   0.004627  -0.000713   0.000208  -0.005740
    15  H   -0.007003   0.000157   0.000013   0.000008   0.000017  -0.000070
    16  H    0.007362  -0.000098  -0.000012   0.000035  -0.000002   0.000179
    17  H    0.000048  -0.000000  -0.000005   0.000001  -0.000000   0.000157
    18  H   -0.000303  -0.000000   0.000041  -0.000023   0.000044  -0.003681
    19  H    0.000146   0.000000   0.000083  -0.000002  -0.000010  -0.000517
    20  H   -0.030146   0.013822   0.000065   0.000317  -0.000006   0.000040
    21  H   -0.019388   0.011749   0.000396  -0.006296   0.000350  -0.000448
    22  H    0.424206  -0.051345  -0.000047  -0.000049   0.000002  -0.000110
    23  H    0.396574  -0.053210   0.000104   0.002374  -0.000004   0.000525
    24  H   -0.037799   0.306008   0.000002  -0.000004  -0.000000  -0.000001
              13         14         15         16         17         18
     1  C   -0.033540  -0.006571  -0.000814   0.000037   0.000012  -0.000121
     2  C    0.401074  -0.033742   0.013839  -0.013569   0.000556   0.008144
     3  N   -0.020702   0.366442  -0.022802  -0.022784   0.004228  -0.007327
     4  C    0.005149  -0.019514   0.384148   0.414774  -0.020101  -0.041075
     5  C   -0.004295  -0.008534  -0.032984  -0.030359   0.392536   0.415366
     6  C   -0.022880  -0.049849   0.004470  -0.012645  -0.000392   0.000157
     7  C    0.006657   0.011019  -0.007003   0.007362   0.000048  -0.000303
     8  O    0.000004  -0.000096   0.000157  -0.000098  -0.000000  -0.000000
     9  H    0.005611   0.004627   0.000013  -0.000012  -0.000005   0.000041
    10  H   -0.006757  -0.000713   0.000008   0.000035   0.000001  -0.000023
    11  H    0.000178   0.000208   0.000017  -0.000002  -0.000000   0.000044
    12  H   -0.020421  -0.005740  -0.000070   0.000179   0.000157  -0.003681
    13  H    0.470824   0.005649  -0.000227   0.003160   0.000020  -0.000569
    14  H    0.005649   0.412845  -0.006467   0.005243   0.000225  -0.000679
    15  H   -0.000227  -0.006467   0.493649  -0.022794  -0.003700   0.006103
    16  H    0.003160   0.005243  -0.022794   0.468698  -0.000259  -0.006689
    17  H    0.000020   0.000225  -0.003700  -0.000259   0.482610  -0.018939
    18  H   -0.000569  -0.000679   0.006103  -0.006689  -0.018939   0.506503
    19  H    0.000480   0.006856  -0.005388   0.005964  -0.017058  -0.028714
    20  H   -0.000347  -0.005115   0.004912   0.000141  -0.000065  -0.000026
    21  H    0.001280  -0.003783   0.000296  -0.000280   0.000016   0.000028
    22  H    0.000921  -0.000370  -0.000526  -0.003176   0.000039   0.000040
    23  H   -0.005611  -0.000582   0.000352   0.000295  -0.000007  -0.000005
    24  H    0.000023   0.000023  -0.000014   0.000026   0.000000   0.000000
              19         20         21         22         23         24
     1  C   -0.000089  -0.002663   0.014766   0.002091  -0.009881  -0.000077
     2  C   -0.007701   0.017919  -0.030741  -0.011324   0.036386   0.000035
     3  N    0.001205  -0.012922  -0.002686   0.002708  -0.008418  -0.000560
     4  C   -0.042757  -0.018596   0.012260   0.016008  -0.006309  -0.000003
     5  C    0.406508  -0.000166  -0.000300   0.000577  -0.000065  -0.000003
     6  C   -0.000792   0.372508   0.360034  -0.053499  -0.034749   0.014945
     7  C    0.000146  -0.030146  -0.019388   0.424206   0.396574  -0.037799
     8  O    0.000000   0.013822   0.011749  -0.051345  -0.053210   0.306008
     9  H    0.000083   0.000065   0.000396  -0.000047   0.000104   0.000002
    10  H   -0.000002   0.000317  -0.006296  -0.000049   0.002374  -0.000004
    11  H   -0.000010  -0.000006   0.000350   0.000002  -0.000004  -0.000000
    12  H   -0.000517   0.000040  -0.000448  -0.000110   0.000525  -0.000001
    13  H    0.000480  -0.000347   0.001280   0.000921  -0.005611   0.000023
    14  H    0.006856  -0.005115  -0.003783  -0.000370  -0.000582   0.000023
    15  H   -0.005388   0.004912   0.000296  -0.000526   0.000352  -0.000014
    16  H    0.005964   0.000141  -0.000280  -0.003176   0.000295   0.000026
    17  H   -0.017058  -0.000065   0.000016   0.000039  -0.000007   0.000000
    18  H   -0.028714  -0.000026   0.000028   0.000040  -0.000005   0.000000
    19  H    0.525374   0.000224  -0.000092  -0.000064   0.000013   0.000000
    20  H    0.000224   0.490257  -0.023549  -0.013407   0.009679  -0.000723
    21  H   -0.000092  -0.023549   0.476622   0.008152  -0.010969  -0.000549
    22  H   -0.000064  -0.013407   0.008152   0.570237  -0.057756  -0.003065
    23  H    0.000013   0.009679  -0.010969  -0.057756   0.586342  -0.003707
    24  H    0.000000  -0.000723  -0.000549  -0.003065  -0.003707   0.415355
 Mulliken charges:
               1
     1  C   -0.414851
     2  C   -0.231361
     3  N   -0.192896
     4  C   -0.182633
     5  C   -0.435233
     6  C   -0.177103
     7  C   -0.199858
     8  O   -0.385128
     9  H    0.163173
    10  H    0.168614
    11  H    0.179987
    12  H    0.205186
    13  H    0.214318
    14  H    0.328616
    15  H    0.194826
    16  H    0.206752
    17  H    0.180079
    18  H    0.171725
    19  H    0.156332
    20  H    0.197846
    21  H    0.213133
    22  H    0.169759
    23  H    0.158630
    24  H    0.310087
 Sum of Mulliken charges =   1.00000
 Mulliken charges with hydrogens summed into heavy atoms:
               1
     1  C    0.096923
     2  C    0.188143
     3  N    0.135720
     4  C    0.218945
     5  C    0.072902
     6  C    0.233876
     7  C    0.128531
     8  O   -0.075041
 Electronic spatial extent (au):  <R**2>=           1403.1907
 Charge=              1.0000 electrons
 Dipole moment (field-independent basis, Debye):
    X=             -3.4150    Y=             -0.0293    Z=             -0.5576  Tot=              3.4604
 Quadrupole moment (field-independent basis, Debye-Ang):
   XX=            -40.7506   YY=            -41.1015   ZZ=            -43.8946
   XY=              0.0481   XZ=             -7.4649   YZ=              0.9937
 Traceless Quadrupole moment (field-independent basis, Debye-Ang):
   XX=              1.1650   YY=              0.8141   ZZ=             -1.9790
   XY=              0.0481   XZ=             -7.4649   YZ=              0.9937
 Octapole moment (field-independent basis, Debye-Ang**2):
  XXX=              3.9840  YYY=              2.1005  ZZZ=              3.0108  XYY=             -7.1087
  XXY=            -11.1187  XXZ=            -24.9052  XZZ=              4.8782  YZZ=             -1.0230
  YYZ=             -3.2580  XYZ=              5.9575
 Hexadecapole moment (field-independent basis, Debye-Ang**3):
 XXXX=           -951.5563 YYYY=           -532.4733 ZZZZ=           -133.1117 XXXY=            -16.6050
 XXXZ=            -97.5770 YYYX=             -3.3674 YYYZ=             -6.2419 ZZZX=            -11.2371
 ZZZY=              1.6262 XXYY=           -250.3330 XXZZ=           -176.5969 YYZZ=           -113.7740
 XXYZ=             21.6196 YYXZ=             -2.9914 ZZXY=             -9.3421
 N-N= 4.220034588087D+02 E-N=-1.687808623922D+03  KE= 3.662879375776D+02
 No NMR shielding tensors so no spin-rotation constants.
 Leave Link  601 at Tue Feb 23 00:11:19 2021, MaxMem=   104857600 cpu:               4.2 elap:               0.2
 (Enter /sw/arch/RedHatEnterpriseServer7/EB_production/2019/software/Gaussian/g16.c01/l701.exe)
 ... and contract with generalized density number  0.
 Compute integral first derivatives.
 R6Disp: Adding Grimme-D3 dispersion energy 1st derivatives to the gradient.
 PrsmSu:  requested number of processors reduced to:  29 ShMem   1 Linda.
 D1PCM: PCM CHGder 1st derivatives, ID1Alg=3 FixD1E=F DoIter=F DoCFld=F I1PDM=0.
 GePol: Maximum number of non-zero 1st derivatives   =     210
 CoulSu:  requested number of processors reduced to:  29 ShMem   1 Linda.
 CoulSu:  requested number of processors reduced to:  30 ShMem   1 Linda.
 Leave Link  701 at Tue Feb 23 00:11:20 2021, MaxMem=   104857600 cpu:              21.0 elap:               0.7
 (Enter /sw/arch/RedHatEnterpriseServer7/EB_production/2019/software/Gaussian/g16.c01/l702.exe)
 L702 exits ... SP integral derivatives will be done elsewhere.
 Leave Link  702 at Tue Feb 23 00:11:20 2021, MaxMem=   104857600 cpu:               0.7 elap:               0.1
 (Enter /sw/arch/RedHatEnterpriseServer7/EB_production/2019/software/Gaussian/g16.c01/l703.exe)
 Integral derivatives from FoFJK, PRISM(SPDF).
 Compute integral first derivatives, UseDBF=F ICtDFT=           0.
 Calling FoFJK, ICntrl=      2527 FMM=F ISym2X=0 I1Cent= 0 IOpClX= 0 NMat=1 NMatS=1 NMatT=0.
 FoFJK:  IHMeth= 1 ICntrl=    2527 DoSepK=F KAlg= 0 I1Cent=           0 FoldK=F
 IRaf=         0 NMat=       1 IRICut=       1 DoRegI=T DoRafI=F ISym2E= 0 IDoP0=0 IntGTp=1.
 FoFCou: FMM=F IPFlag=           0 FMFlag=      100000 FMFlg1=         800
         NFxFlg=           0 DoJE=F BraDBF=F KetDBF=F FulRan=T
         wScrn=  0.000000 ICntrl=      2527 IOpCl=  0 I1Cent=           0 NGrid=           0
         NMat0=    1 NMatS0=      1 NMatT0=    0 NMatD0=    1 NMtDS0=    0 NMtDT0=    0
 Symmetry not used in FoFCou.
 Leave Link  703 at Tue Feb 23 00:11:23 2021, MaxMem=   104857600 cpu:              65.9 elap:               2.2
 (Enter /sw/arch/RedHatEnterpriseServer7/EB_production/2019/software/Gaussian/g16.c01/l716.exe)
 Dipole        =-1.34357096D+00-1.15361727D-02-2.19373799D-01
 ***** Axes restored to original set *****
 -------------------------------------------------------------------
 Center     Atomic                   Forces (Hartrees/Bohr)
 Number     Number              X              Y              Z
 -------------------------------------------------------------------
      1        6           0.011513398   -0.004929907    0.013849820
      2        6          -0.017302550   -0.001101280   -0.023622725
      3        7           0.002674390   -0.000889438   -0.000677092
      4        6          -0.011710516    0.003971155    0.027755746
      5        6           0.003206525   -0.007903899   -0.016010823
      6        6           0.018267032   -0.019101699   -0.007573372
      7        6          -0.010011988    0.004765161    0.003254409
      8        8           0.008540024    0.001315805   -0.003185953
      9        1           0.001060793    0.003484005   -0.002972302
     10        1           0.003216994   -0.001483885   -0.003992605
     11        1          -0.003939218    0.000077413    0.001394946
     12        1           0.000981037    0.001915042    0.011018926
     13        1           0.003957938   -0.002795666    0.006366294
     14        1           0.003208458    0.007815027   -0.001791403
     15        1           0.007908327   -0.002052206   -0.006616674
     16        1           0.001530063   -0.003932310   -0.006662673
     17        1           0.002789423   -0.001565878    0.003662746
     18        1          -0.005116041    0.001252554   -0.000897109
     19        1          -0.000224193    0.006060999    0.000403124
     20        1          -0.002081814    0.003877302    0.006013902
     21        1          -0.004715067    0.003113162   -0.004512009
     22        1          -0.006486012    0.000398799    0.008773168
     23        1          -0.010809462    0.000917333   -0.002884956
     24        1           0.003542460    0.006792412   -0.001093385
 -------------------------------------------------------------------
 Cartesian Forces:  Max     0.027755746 RMS     0.007861502
 Leave Link  716 at Tue Feb 23 00:11:23 2021, MaxMem=   104857600 cpu:               0.9 elap:               0.1
 (Enter /sw/arch/RedHatEnterpriseServer7/EB_production/2019/software/Gaussian/g16.c01/l103.exe)

 GradGradGradGradGradGradGradGradGradGradGradGradGradGradGradGradGradGrad
 Berny optimization.
 FormGI is forming the generalized inverse of G from B-inverse, IUseBI=4.
 Internal  Forces:  Max     0.023612322 RMS     0.004882524
 Search for a local minimum.
 Step number   1 out of a maximum of  133
 All quantities printed in internal units (Hartrees-Bohrs-Radians)
 RMS Force = .48825D-02 SwitMx=.10000D-02 MixMth= 1
 Mixed Optimization -- RFO/linear search
 Second derivative matrix not updated -- first step.
 ITU=  0
     Eigenvalues ---    0.00230   0.00230   0.00230   0.00274   0.00299
     Eigenvalues ---    0.00316   0.01374   0.02615   0.03055   0.03216
     Eigenvalues ---    0.03295   0.04644   0.04757   0.04764   0.04868
     Eigenvalues ---    0.05020   0.05137   0.05515   0.05517   0.05616
     Eigenvalues ---    0.05616   0.05643   0.08589   0.08685   0.08970
     Eigenvalues ---    0.11500   0.12404   0.12483   0.12663   0.13789
     Eigenvalues ---    0.16000   0.16000   0.16000   0.16000   0.16000
     Eigenvalues ---    0.16000   0.16000   0.18240   0.18657   0.21935
     Eigenvalues ---    0.21989   0.21998   0.22048   0.27615   0.27901
     Eigenvalues ---    0.27974   0.31637   0.31828   0.31961   0.34381
     Eigenvalues ---    0.34383   0.34393   0.34398   0.34406   0.34525
     Eigenvalues ---    0.34562   0.34571   0.34607   0.34633   0.34710
     Eigenvalues ---    0.34732   0.34770   0.34819   0.41861   0.43881
     Eigenvalues ---    0.51173
 RFO step:  Lambda=-1.66649651D-02 EMin= 2.30000000D-03
 Linear search not attempted -- first point.
 Iteration  1 RMS(Cart)=  0.07495025 RMS(Int)=  0.00181166
 Iteration  2 RMS(Cart)=  0.00223831 RMS(Int)=  0.00099484
 Iteration  3 RMS(Cart)=  0.00000185 RMS(Int)=  0.00099484
 Iteration  4 RMS(Cart)=  0.00000000 RMS(Int)=  0.00099484
 ITry= 1 IFail=0 DXMaxC= 2.93D-01 DCOld= 1.00D+10 DXMaxT= 3.00D-01 DXLimC= 3.00D+00 Rises=F
 Variable       Old X    -DE/DX   Delta X   Delta X   Delta X     New X
                                 (Linear)    (Quad)   (Total)
    R1        2.92194  -0.00670   0.00000  -0.02259  -0.02259   2.89935
    R2        2.06693   0.00392   0.00000   0.01088   0.01088   2.07781
    R3        2.06318   0.00455   0.00000   0.01256   0.01256   2.07574
    R4        2.06392   0.00274   0.00000   0.00757   0.00757   2.07150
    R5        2.84460  -0.00015   0.00000  -0.00044  -0.00044   2.84415
    R6        2.06275   0.00344   0.00000   0.00948   0.00948   2.07223
    R7        2.06689   0.00187   0.00000   0.00519   0.00519   2.07208
    R8        2.84216   0.00236   0.00000   0.00702   0.00702   2.84917
    R9        2.84813  -0.00380   0.00000  -0.01141  -0.01141   2.83672
   R10        1.93297   0.00847   0.00000   0.01860   0.01860   1.95157
   R11        2.92357  -0.00639   0.00000  -0.02161  -0.02161   2.90195
   R12        2.06663   0.00276   0.00000   0.00764   0.00764   2.07427
   R13        2.06650   0.00192   0.00000   0.00532   0.00532   2.07183
   R14        2.06113   0.00372   0.00000   0.01021   0.01021   2.07133
   R15        2.06148   0.00464   0.00000   0.01276   0.01276   2.07424
   R16        2.06377   0.00545   0.00000   0.01504   0.01504   2.07881
   R17        2.92989  -0.01367   0.00000  -0.04668  -0.04668   2.88320
   R18        2.06672   0.00316   0.00000   0.00876   0.00876   2.07548
   R19        2.06453   0.00380   0.00000   0.01050   0.01050   2.07503
   R20        2.69101   0.00884   0.00000   0.02030   0.02030   2.71131
   R21        2.05970   0.00905   0.00000   0.02481   0.02481   2.08451
   R22        2.06051   0.00928   0.00000   0.02546   0.02546   2.08597
   R23        1.85400  -0.00719   0.00000  -0.01361  -0.01361   1.84039
    A1        1.92109   0.00363   0.00000   0.02104   0.02076   1.94185
    A2        1.93237   0.00433   0.00000   0.02843   0.02825   1.96062
    A3        1.91642  -0.00590   0.00000  -0.03774  -0.03752   1.87890
    A4        1.91080  -0.00291   0.00000  -0.00824  -0.00883   1.90197
    A5        1.89917  -0.00003   0.00000  -0.00784  -0.00772   1.89146
    A6        1.88330   0.00073   0.00000   0.00334   0.00364   1.88695
    A7        2.01158  -0.00982   0.00000  -0.04442  -0.04385   1.96773
    A8        1.82870   0.01036   0.00000   0.08882   0.08745   1.91615
    A9        1.90904   0.00681   0.00000   0.04006   0.03720   1.94624
   A10        1.90194  -0.00372   0.00000  -0.03988  -0.03861   1.86333
   A11        1.93139  -0.00205   0.00000  -0.04810  -0.04791   1.88348
   A12        1.87389  -0.00056   0.00000   0.01358   0.00927   1.88316
   A13        1.98440  -0.00150   0.00000  -0.02051  -0.02143   1.96297
   A14        2.01396  -0.00268   0.00000  -0.02933  -0.03003   1.98393
   A15        1.82864   0.00195   0.00000   0.02816   0.02858   1.85722
   A16        1.96547   0.00174   0.00000  -0.00633  -0.00762   1.95785
   A17        1.82553   0.00103   0.00000   0.02984   0.03001   1.85553
   A18        1.82060   0.00009   0.00000   0.01254   0.01285   1.83345
   A19        2.00117  -0.00708   0.00000  -0.03296  -0.03235   1.96882
   A20        1.90148  -0.00408   0.00000  -0.04377  -0.04301   1.85847
   A21        1.93273  -0.00288   0.00000  -0.04810  -0.04786   1.88487
   A22        1.84867   0.00871   0.00000   0.07547   0.07422   1.92290
   A23        1.89898   0.00608   0.00000   0.04125   0.03916   1.93814
   A24        1.87512   0.00007   0.00000   0.01605   0.01199   1.88711
   A25        1.91967  -0.00588   0.00000  -0.03794  -0.03773   1.88193
   A26        1.93132   0.00417   0.00000   0.02792   0.02774   1.95905
   A27        1.92308   0.00354   0.00000   0.02043   0.02014   1.94321
   A28        1.88337   0.00081   0.00000   0.00394   0.00424   1.88761
   A29        1.89741  -0.00011   0.00000  -0.00909  -0.00899   1.88842
   A30        1.90824  -0.00267   0.00000  -0.00619  -0.00678   1.90145
   A31        2.03313  -0.01133   0.00000  -0.05794  -0.05816   1.97497
   A32        1.90239  -0.00072   0.00000  -0.02439  -0.02370   1.87870
   A33        1.90725   0.00042   0.00000  -0.01837  -0.01800   1.88924
   A34        1.88568   0.00669   0.00000   0.04119   0.03958   1.92525
   A35        1.89151   0.00543   0.00000   0.03026   0.02859   1.92010
   A36        1.83347   0.00071   0.00000   0.04008   0.03868   1.87215
   A37        1.92351  -0.02361   0.00000  -0.09931  -0.09915   1.82436
   A38        1.92654   0.00188   0.00000  -0.00698  -0.00602   1.92052
   A39        1.93310   0.00122   0.00000  -0.01183  -0.01093   1.92216
   A40        1.88970   0.01143   0.00000   0.06214   0.06046   1.95016
   A41        1.88756   0.01182   0.00000   0.06347   0.06155   1.94910
   A42        1.90240  -0.00213   0.00000  -0.00362  -0.00548   1.89692
   A43        1.83473   0.00530   0.00000   0.02999   0.02999   1.86473
    D1       -0.86301  -0.00174   0.00000  -0.04187  -0.04197  -0.90499
    D2        1.22702  -0.00482   0.00000  -0.05537  -0.05699   1.17003
    D3       -3.05191   0.00291   0.00000   0.02372   0.02490  -3.02701
    D4        1.25203  -0.00014   0.00000  -0.01960  -0.01929   1.23275
    D5       -2.94112  -0.00322   0.00000  -0.03310  -0.03431  -2.97543
    D6       -0.93687   0.00451   0.00000   0.04599   0.04759  -0.88928
    D7       -2.95337  -0.00028   0.00000  -0.02167  -0.02164  -2.97501
    D8       -0.86334  -0.00335   0.00000  -0.03516  -0.03665  -0.89999
    D9        1.14091   0.00437   0.00000   0.04393   0.04524   1.18615
   D10        3.04693   0.00276   0.00000   0.06693   0.06627   3.11320
   D11       -0.92700   0.00108   0.00000   0.00593   0.00589  -0.92111
   D12        1.06424   0.00109   0.00000   0.02444   0.02401   1.08825
   D13        0.99769  -0.00159   0.00000   0.01019   0.00999   1.00768
   D14       -2.97624  -0.00327   0.00000  -0.05080  -0.05039  -3.02663
   D15       -0.98500  -0.00326   0.00000  -0.03230  -0.03227  -1.01727
   D16       -1.05895   0.00256   0.00000   0.04616   0.04617  -1.01278
   D17        1.25030   0.00089   0.00000  -0.01484  -0.01420   1.23610
   D18       -3.04164   0.00090   0.00000   0.00367   0.00391  -3.03773
   D19       -1.06502  -0.00094   0.00000  -0.02158  -0.02178  -1.08680
   D20       -3.13274  -0.00460   0.00000  -0.06555  -0.06535   3.08509
   D21        1.09179  -0.00049   0.00000  -0.03005  -0.02997   1.06183
   D22        2.88574   0.00276   0.00000   0.04848   0.04827   2.93401
   D23        0.81802  -0.00090   0.00000   0.00451   0.00470   0.82272
   D24       -1.24063   0.00321   0.00000   0.04001   0.04008  -1.20055
   D25        0.91953   0.00128   0.00000   0.01991   0.01963   0.93916
   D26       -1.14819  -0.00238   0.00000  -0.02406  -0.02394  -1.17213
   D27        3.07634   0.00173   0.00000   0.01144   0.01144   3.08779
   D28       -1.10358   0.00179   0.00000   0.03892   0.03886  -1.06472
   D29        3.04127   0.00168   0.00000   0.04587   0.04526   3.08653
   D30        1.04653   0.00099   0.00000   0.02128   0.02163   1.06815
   D31        1.21448  -0.00135   0.00000  -0.02788  -0.02773   1.18675
   D32       -0.92385  -0.00146   0.00000  -0.02092  -0.02133  -0.94518
   D33       -2.91859  -0.00215   0.00000  -0.04551  -0.04496  -2.96356
   D34       -3.09946   0.00069   0.00000   0.01130   0.01136  -3.08810
   D35        1.04538   0.00059   0.00000   0.01825   0.01777   1.06315
   D36       -0.94935  -0.00010   0.00000  -0.00633  -0.00587  -0.95522
   D37       -2.88866  -0.00011   0.00000  -0.02054  -0.02057  -2.90923
   D38        1.31527   0.00000   0.00000  -0.01885  -0.01859   1.29667
   D39       -0.79719  -0.00172   0.00000  -0.04290  -0.04306  -0.84025
   D40       -0.79140  -0.00337   0.00000  -0.04241  -0.04365  -0.83506
   D41       -2.87066  -0.00326   0.00000  -0.04072  -0.04168  -2.91234
   D42        1.30007  -0.00499   0.00000  -0.06478  -0.06614   1.23392
   D43        1.21979   0.00405   0.00000   0.03436   0.03548   1.25527
   D44       -0.85947   0.00416   0.00000   0.03605   0.03746  -0.82201
   D45       -2.97193   0.00243   0.00000   0.01200   0.01299  -2.95894
   D46        3.10212   0.00016   0.00000   0.00262   0.00280   3.10492
   D47       -1.09452   0.00052   0.00000   0.01216   0.01264  -1.08188
   D48        1.01408  -0.00011   0.00000  -0.00480  -0.00513   1.00894
   D49       -1.03403  -0.00347   0.00000  -0.03778  -0.03854  -1.07256
   D50        1.05252  -0.00310   0.00000  -0.02823  -0.02869   1.02382
   D51       -3.12207  -0.00373   0.00000  -0.04519  -0.04647   3.11464
   D52        0.94389   0.00343   0.00000   0.04468   0.04548   0.98937
   D53        3.03043   0.00379   0.00000   0.05423   0.05533   3.08575
   D54       -1.14416   0.00316   0.00000   0.03727   0.03755  -1.10661
   D55       -3.13536   0.00014   0.00000   0.00000   0.00005  -3.13531
   D56        1.03907   0.00495   0.00000   0.02967   0.03238   1.07145
   D57       -1.01992  -0.00524   0.00000  -0.03478  -0.03754  -1.05746
         Item               Value     Threshold  Converged?
 Maximum Force            0.023612     0.000450     NO 
 RMS     Force            0.004883     0.000300     NO 
 Maximum Displacement     0.292567     0.001800     NO 
 RMS     Displacement     0.075783     0.001200     NO 
 Predicted change in Energy=-9.626259D-03
 Lowest energy point so far.  Saving SCF results.
 GradGradGradGradGradGradGradGradGradGradGradGradGradGradGradGradGradGrad

 Leave Link  103 at Tue Feb 23 00:11:23 2021, MaxMem=   104857600 cpu:               3.4 elap:               0.2
 (Enter /sw/arch/RedHatEnterpriseServer7/EB_production/2019/software/Gaussian/g16.c01/l202.exe)
                          Input orientation:                          
 ---------------------------------------------------------------------
 Center     Atomic      Atomic             Coordinates (Angstroms)
 Number     Number       Type             X           Y           Z
 ---------------------------------------------------------------------
      1          6           0       -1.644239    2.274373   -1.905887
      2          6           0       -1.933039    2.029682   -0.419042
      3          7           0       -0.738672    2.296020    0.457180
      4          6           0       -1.040250    2.091525    1.920205
      5          6           0       -2.119382    3.049741    2.445091
      6          6           0        0.499773    1.565231    0.026389
      7          6           0        0.339855    0.048086    0.049545
      8          8           0        1.593565   -0.453416   -0.435483
      9          1           0       -1.205589    3.269440   -2.068332
     10          1           0       -0.974398    1.514956   -2.331509
     11          1           0       -2.598964    2.225880   -2.442337
     12          1           0       -2.730133    2.702185   -0.080125
     13          1           0       -2.261518    0.999415   -0.237505
     14          1           0       -0.511918    3.297269    0.344912
     15          1           0       -0.097038    2.252457    2.458075
     16          1           0       -1.339359    1.046258    2.061495
     17          1           0       -2.105580    3.003231    3.540120
     18          1           0       -3.124549    2.770736    2.103613
     19          1           0       -1.914671    4.087420    2.142688
     20          1           0        1.316566    1.872665    0.693161
     21          1           0        0.761924    1.900077   -0.985980
     22          1           0        0.132988   -0.294513    1.077457
     23          1           0       -0.499440   -0.255435   -0.600023
     24          1           0        1.526059   -1.424953   -0.440078
 ---------------------------------------------------------------------
                    Distance matrix (angstroms):
                    1          2          3          4          5
     1  C    0.000000
     2  C    1.534270   0.000000
     3  N    2.530732   1.505062   0.000000
     4  C    3.877785   2.504591   1.507717   0.000000
     5  C    4.444994   3.046064   2.535005   1.535646   0.000000
     6  C    2.972098   2.516485   1.501126   2.497037   3.861847
     7  C    3.566048   3.051613   2.526379   3.095109   4.560309
     8  O    4.481774   4.313117   3.714239   4.354650   5.861381
     9  H    1.099528   2.187771   2.746592   4.162121   4.610237
    10  H    1.098433   2.200333   2.905583   4.291135   5.146112
    11  H    1.096188   2.139082   3.445693   4.634589   4.979528
    12  H    2.166932   1.096578   2.102280   2.688853   2.621170
    13  H    2.188618   1.096497   2.117269   2.709226   3.379402
    14  H    2.719295   2.051825   1.032726   2.052925   2.656306
    15  H    4.630170   3.420283   2.101708   1.097658   2.173869
    16  H    4.164293   2.733614   2.120509   1.096363   2.183924
[...]
 (Polarized solute)-Solvent               (kcal/mol) =     -62.92
 --------------------------------------------------------------------
 Cavitation energy                        (kcal/mol) =      24.28
 Dispersion energy                        (kcal/mol) =     -17.65
 Repulsion energy                         (kcal/mol) =       1.48
 Total non electrostatic                  (kcal/mol) =       8.10
 --------------------------------------------------------------------
 Partition over spheres:
 Sphere  on Atom  Surface  Charge   GEl     GCav    GDR
    1      C1      16.83  -0.025   -1.54    1.98   -1.21
    2      C2       8.04  -0.054   -3.22    0.94   -0.41
    3      N3       0.31  -0.011   -0.80    0.04    0.00
    4      C4       8.24  -0.055   -3.30    0.97   -0.38
    5      C5      17.45  -0.026   -1.64    2.05   -1.29
    6      C6       7.78  -0.054   -3.22    0.91   -0.40
    7      C7      11.05  -0.041   -2.25    1.30   -0.51
    8      O8      15.93   0.172    3.68    1.98   -1.49
    9      H9       6.53  -0.037   -1.95    0.92   -0.76
   10      H10      5.91  -0.038   -1.86    0.83   -0.50
   11      H11      6.52  -0.039   -1.74    0.92   -0.80
   12      H12      5.19  -0.049   -2.79    0.73   -0.50
   13      H13      5.85  -0.055   -3.26    0.83   -0.56
   14      H14      6.92  -0.142  -10.51    0.98   -0.58
   15      H15      6.13  -0.054   -3.05    0.87   -0.71
   16      H16      6.02  -0.055   -3.26    0.85   -0.57
   17      H17      6.52  -0.039   -1.74    0.92   -0.78
   18      H18      5.89  -0.037   -1.90    0.83   -0.59
   19      H19      6.54  -0.039   -2.07    0.92   -0.76
   20      H20      6.35  -0.058   -3.12    0.90   -0.73
   21      H21      5.44  -0.048   -2.49    0.77   -0.51
   22      H22      5.87  -0.041   -2.18    0.83   -0.62
   23      H23      5.75  -0.041   -2.20    0.81   -0.52
   24      H24      8.56  -0.135   -6.52    1.21   -0.98
 --------------------------------------------------------------------
 - cavitation energy not included in the total energy.
 - dispersion energy not included in the total energy.
 - repulsion  energy not included in the total energy.
 After PCM corrections, the energy is  -368.218531956     a.u.
 --------------------------------------------------------------------
 Writing COSMO formatted file "BFSVOASYOCHEOV-UHFFFAOYSA-O.cosmo"
 Recomputed dielectric energy= -0.098146 old= -0.100273 diff= 2.13D-03

 **********************************************************************

            Population analysis using the SCF Density.

 **********************************************************************

 Orbital symmetries:
       Occupied  (A) (A) (A) (A) (A) (A) (A) (A) (A) (A) (A) (A)
                 (A) (A) (A) (A) (A) (A) (A) (A) (A) (A) (A) (A)
                 (A) (A) (A) (A) (A) (A) (A) (A) (A)
       Virtual   (A) (A) (A) (A) (A) (A) (A) (A) (A) (A) (A) (A)
                 (A) (A) (A) (A) (A) (A) (A) (A) (A) (A) (A) (A)
                 (A) (A) (A) (A) (A) (A) (A) (A) (A) (A) (A) (A)
                 (A) (A) (A) (A) (A) (A) (A) (A) (A) (A) (A) (A)
                 (A) (A) (A) (A) (A) (A) (A) (A) (A) (A) (A) (A)
                 (A) (A) (A) (A) (A) (A) (A) (A) (A) (A) (A) (A)
                 (A) (A) (A) (A) (A) (A) (A) (A) (A) (A) (A) (A)
                 (A) (A) (A) (A) (A) (A) (A) (A) (A) (A) (A) (A)
                 (A) (A) (A) (A) (A) (A) (A) (A) (A) (A) (A) (A)
                 (A) (A) (A) (A) (A) (A) (A) (A) (A) (A) (A) (A)
                 (A) (A) (A) (A) (A) (A) (A) (A) (A) (A) (A) (A)
                 (A) (A) (A) (A) (A) (A) (A) (A) (A) (A) (A) (A)
                 (A) (A) (A) (A) (A) (A) (A) (A) (A) (A) (A) (A)
                 (A) (A) (A) (A) (A) (A) (A) (A) (A) (A) (A) (A)
                 (A) (A) (A) (A) (A) (A) (A) (A) (A) (A) (A) (A)
                 (A) (A) (A) (A) (A) (A) (A) (A) (A) (A) (A) (A)
                 (A) (A) (A) (A) (A) (A) (A) (A) (A) (A) (A) (A)
                 (A) (A) (A) (A) (A) (A) (A) (A) (A) (A) (A)
 The electronic state is 1-A.
 Alpha  occ. eigenvalues --  -18.78180 -14.12378  -9.95738  -9.95506  -9.95486
 Alpha  occ. eigenvalues --   -9.95464  -9.90122  -9.90105  -0.94852  -0.92749
 Alpha  occ. eigenvalues --   -0.72311  -0.71670  -0.67517  -0.60461  -0.59131
 Alpha  occ. eigenvalues --   -0.55654  -0.50921  -0.47396  -0.46659  -0.43966
 Alpha  occ. eigenvalues --   -0.43290  -0.40747  -0.40019  -0.37502  -0.36268
 Alpha  occ. eigenvalues --   -0.35760  -0.34778  -0.34103  -0.33302  -0.33085
 Alpha  occ. eigenvalues --   -0.31492  -0.30973  -0.24427
 Alpha virt. eigenvalues --    0.00034   0.01554   0.03355   0.03735   0.04641
 Alpha virt. eigenvalues --    0.05487   0.06101   0.07129   0.07615   0.08142
 Alpha virt. eigenvalues --    0.09612   0.09882   0.10107   0.11073   0.11658
 Alpha virt. eigenvalues --    0.12158   0.13305   0.13964   0.14441   0.15255
 Alpha virt. eigenvalues --    0.15436   0.16189   0.17782   0.20471   0.21721
 Alpha virt. eigenvalues --    0.22290   0.23284   0.24094   0.24220   0.25176
 Alpha virt. eigenvalues --    0.28019   0.28921   0.29552   0.30884   0.32809
 Alpha virt. eigenvalues --    0.34635   0.34824   0.36549   0.37496   0.37957
 Alpha virt. eigenvalues --    0.38626   0.39363   0.39553   0.39935   0.40885
 Alpha virt. eigenvalues --    0.41504   0.41655   0.42396   0.43112   0.43467
 Alpha virt. eigenvalues --    0.44270   0.44546   0.46143   0.46663   0.47270
 Alpha virt. eigenvalues --    0.48410   0.48603   0.49923   0.50965   0.52234
 Alpha virt. eigenvalues --    0.53354   0.55857   0.58565   0.60567   0.60615
 Alpha virt. eigenvalues --    0.63285   0.65126   0.66987   0.70444   0.76806
 Alpha virt. eigenvalues --    0.86285   1.02593   1.05169   1.11381   1.13799
 Alpha virt. eigenvalues --    1.15452   1.16748   1.19620   1.20315   1.21247
 Alpha virt. eigenvalues --    1.21415   1.23011   1.23263   1.24561   1.25245
 Alpha virt. eigenvalues --    1.27555   1.27801   1.28356   1.28519   1.29277
 Alpha virt. eigenvalues --    1.31510   1.32805   1.35044   1.36128   1.37849
 Alpha virt. eigenvalues --    1.39010   1.41188   1.42789   1.43986   1.46987
 Alpha virt. eigenvalues --    1.48110   1.49247   1.50129   1.50865   1.53185
 Alpha virt. eigenvalues --    1.54046   1.55837   1.58380   1.60244   1.63454
 Alpha virt. eigenvalues --    1.64981   1.65997   1.67501   1.67771   1.69694
 Alpha virt. eigenvalues --    1.70593   1.71274   1.71731   1.72529   1.72666
 Alpha virt. eigenvalues --    1.73091   1.74082   1.74968   1.76518   1.77120
 Alpha virt. eigenvalues --    1.78439   1.80094   1.83302   1.84134   1.85575
 Alpha virt. eigenvalues --    1.89163   1.89785   1.92495   1.93193   1.96083
 Alpha virt. eigenvalues --    1.96989   1.99343   2.01514   2.05436   2.06209
 Alpha virt. eigenvalues --    2.11843   2.13961   2.15221   2.18428   2.19321
 Alpha virt. eigenvalues --    2.20444   2.23380   2.24502   2.27038   2.28656
 Alpha virt. eigenvalues --    2.30214   2.33582   2.34484   2.38731   2.40518
 Alpha virt. eigenvalues --    2.41424   2.42271   2.45181   2.46964   2.48329
 Alpha virt. eigenvalues --    2.49596   2.50144   2.51335   2.53573   2.55504
 Alpha virt. eigenvalues --    2.57943   2.59380   2.60016   2.60820   2.62086
 Alpha virt. eigenvalues --    2.63097   2.65019   2.65830   2.67942   2.69345
 Alpha virt. eigenvalues --    2.73450   2.76713   2.79074   2.83063   2.84555
 Alpha virt. eigenvalues --    2.85734   2.87486   2.93735   2.95408   2.95905
 Alpha virt. eigenvalues --    3.00626   3.05010   3.07250   3.09461   3.11295
 Alpha virt. eigenvalues --    3.19914   3.22826   3.23744   3.24988   3.25685
 Alpha virt. eigenvalues --    3.26567   3.26689   3.29084   3.31159   3.33123
 Alpha virt. eigenvalues --    3.33656   3.36362   3.59523   3.61049   3.71624
 Alpha virt. eigenvalues --    3.88399   4.17137  21.65093  21.74166  21.76155
 Alpha virt. eigenvalues --   21.77773  21.79004  21.81958  31.61273  43.11888
          Condensed to atoms (all electrons):
               1          2          3          4          5          6
     1  C    5.100411   0.197479  -0.025766   0.018026   0.000630   0.000055
     2  C    0.197479   5.315032   0.160270  -0.106567  -0.012155  -0.035223
     3  N   -0.025766   0.160270   6.567511   0.211755  -0.037216   0.065571
     4  C    0.018026  -0.106567   0.211755   5.170016   0.273267  -0.064719
     5  C    0.000630  -0.012155  -0.037216   0.273267   5.043798   0.009626
     6  C    0.000055  -0.035223   0.065571  -0.064719   0.009626   5.760861
     7  C   -0.011895  -0.001508   0.022826   0.006670   0.001504  -0.021207
     8  O    0.001641  -0.002124   0.008049  -0.001027  -0.000029  -0.131918
     9  H    0.404890  -0.034261   0.000860   0.000076  -0.000077  -0.011266
    10  H    0.409487  -0.036851  -0.011751  -0.000843   0.000023   0.024777
    11  H    0.391713  -0.027914   0.006116  -0.000419   0.000054  -0.000750
    12  H   -0.022943   0.395014  -0.028881  -0.004686   0.001444   0.012090
    13  H   -0.036056   0.412582  -0.022756  -0.000112  -0.001788  -0.027402
    14  H   -0.005114  -0.027289   0.360626  -0.021115  -0.005236  -0.048131
    15  H   -0.000941   0.012875  -0.028743   0.382384  -0.026833   0.010571
    16  H    0.000228  -0.013611  -0.024740   0.420059  -0.032083  -0.017763
    17  H    0.000011   0.000617   0.005643  -0.031866   0.397305  -0.000463
    18  H   -0.000127   0.006086  -0.005570  -0.037856   0.409220   0.000922
    19  H   -0.000035  -0.003761  -0.003045  -0.037599   0.407059  -0.001202
    20  H   -0.001610   0.015308  -0.015258  -0.019609  -0.000662   0.374338
    21  H    0.010584  -0.027833  -0.005630   0.011157  -0.000186   0.364834
    22  H    0.002304  -0.013241   0.003696   0.019662   0.001071  -0.054327
    23  H   -0.009937   0.037050  -0.008225  -0.007804  -0.000258  -0.030454
    24  H   -0.000083   0.000092  -0.000677   0.000029  -0.000000   0.015344
               7          8          9         10         11         12
     1  C   -0.011895   0.001641   0.404890   0.409487   0.391713  -0.022943
     2  C   -0.001508  -0.002124  -0.034261  -0.036851  -0.027914   0.395014
     3  N    0.022826   0.008049   0.000860  -0.011751   0.006116  -0.028881
     4  C    0.006670  -0.001027   0.000076  -0.000843  -0.000419  -0.004686
     5  C    0.001504  -0.000029  -0.000077   0.000023   0.000054   0.001444
     6  C   -0.021207  -0.131918  -0.011266   0.024777  -0.000750   0.012090
     7  C    5.133307   0.330854   0.001387  -0.007792   0.000475  -0.000429
     8  O    0.330854   7.972802  -0.000048   0.000018  -0.000001  -0.000008
     9  H    0.001387  -0.000048   0.511474  -0.028023  -0.017188  -0.004316
    10  H   -0.007792   0.000018  -0.028023   0.506939  -0.021009   0.005118
    11  H    0.000475  -0.000001  -0.017188  -0.021009   0.496881  -0.003751
    12  H   -0.000429  -0.000008  -0.004316   0.005118  -0.003751   0.483480
    13  H    0.008662   0.000041   0.005152  -0.005710   0.000395  -0.021990
    14  H    0.011413  -0.000124   0.004202  -0.000676   0.000169  -0.006294
    15  H   -0.010130   0.000350   0.000022  -0.000009   0.000022  -0.000038
    16  H    0.009362  -0.000060  -0.000000   0.000019  -0.000012  -0.000692
    17  H    0.000026  -0.000001  -0.000003   0.000000  -0.000001  -0.000052
    18  H   -0.000377   0.000000   0.000048  -0.000020   0.000051   0.000189
    19  H    0.000228   0.000001   0.000024   0.000005  -0.000008   0.000256
    20  H   -0.029159   0.016489  -0.000015   0.000248   0.000000   0.000031
    21  H   -0.022898   0.015276   0.000966  -0.006250   0.000343  -0.000519
    22  H    0.418810  -0.046711  -0.000045   0.000063  -0.000006  -0.000149
    23  H    0.388553  -0.048914   0.000066   0.001973   0.000074   0.000738
    24  H   -0.035553   0.307292   0.000002  -0.000004   0.000000  -0.000002
              13         14         15         16         17         18
     1  C   -0.036056  -0.005114  -0.000941   0.000228   0.000011  -0.000127
     2  C    0.412582  -0.027289   0.012875  -0.013611   0.000617   0.006086
     3  N   -0.022756   0.360626  -0.028743  -0.024740   0.005643  -0.005570
     4  C   -0.000112  -0.021115   0.382384   0.420059  -0.031866  -0.037856
     5  C   -0.001788  -0.005236  -0.026833  -0.032083   0.397305   0.409220
     6  C   -0.027402  -0.048131   0.010571  -0.017763  -0.000463   0.000922
     7  C    0.008662   0.011413  -0.010130   0.009362   0.000026  -0.000377
     8  O    0.000041  -0.000124   0.000350  -0.000060  -0.000001   0.000000
     9  H    0.005152   0.004202   0.000022  -0.000000  -0.000003   0.000048
    10  H   -0.005710  -0.000676  -0.000009   0.000019   0.000000  -0.000020
    11  H    0.000395   0.000169   0.000022  -0.000012  -0.000001   0.000051
    12  H   -0.021990  -0.006294  -0.000038  -0.000692  -0.000052   0.000189
    13  H    0.470599   0.005358  -0.000101   0.004586   0.000034  -0.000418
    14  H    0.005358   0.393803  -0.004823   0.005168   0.000307  -0.001137
    15  H   -0.000101  -0.004823   0.493499  -0.024658  -0.002844   0.005540
    16  H    0.004586   0.005168  -0.024658   0.473599  -0.000370  -0.006259
    17  H    0.000034   0.000307  -0.002844  -0.000370   0.496164  -0.020454
    18  H   -0.000418  -0.001137   0.005540  -0.006259  -0.020454   0.516144
    19  H    0.000213   0.006056  -0.005906   0.005802  -0.019617  -0.028568
    20  H   -0.000370  -0.004417   0.004544   0.000686  -0.000053  -0.000057
    21  H    0.001611  -0.003433   0.000379  -0.000421   0.000019   0.000033
    22  H    0.001408  -0.000392  -0.001003  -0.005207   0.000047   0.000060
    23  H   -0.007507  -0.000625   0.000608   0.000653  -0.000007  -0.000005
    24  H    0.000022   0.000022  -0.000019   0.000024   0.000000   0.000000
              19         20         21         22         23         24
     1  C   -0.000035  -0.001610   0.010584   0.002304  -0.009937  -0.000083
     2  C   -0.003761   0.015308  -0.027833  -0.013241   0.037050   0.000092
     3  N   -0.003045  -0.015258  -0.005630   0.003696  -0.008225  -0.000677
     4  C   -0.037599  -0.019609   0.011157   0.019662  -0.007804   0.000029
     5  C    0.407059  -0.000662  -0.000186   0.001071  -0.000258  -0.000000
     6  C   -0.001202   0.374338   0.364834  -0.054327  -0.030454   0.015344
     7  C    0.000228  -0.029159  -0.022898   0.418810   0.388553  -0.035553
     8  O    0.000001   0.016489   0.015276  -0.046711  -0.048914   0.307292
     9  H    0.000024  -0.000015   0.000966  -0.000045   0.000066   0.000002
    10  H    0.000005   0.000248  -0.006250   0.000063   0.001973  -0.000004
    11  H   -0.000008   0.000000   0.000343  -0.000006   0.000074   0.000000
    12  H    0.000256   0.000031  -0.000519  -0.000149   0.000738  -0.000002
    13  H    0.000213  -0.000370   0.001611   0.001408  -0.007507   0.000022
    14  H    0.006056  -0.004417  -0.003433  -0.000392  -0.000625   0.000022
    15  H   -0.005906   0.004544   0.000379  -0.001003   0.000608  -0.000019
    16  H    0.005802   0.000686  -0.000421  -0.005207   0.000653   0.000024
    17  H   -0.019617  -0.000053   0.000019   0.000047  -0.000007   0.000000
    18  H   -0.028568  -0.000057   0.000033   0.000060  -0.000005   0.000000
    19  H    0.521094   0.000327  -0.000119  -0.000091   0.000014   0.000000
    20  H    0.000327   0.479899  -0.018593  -0.011498   0.009176  -0.000790
    21  H   -0.000119  -0.018593   0.468487   0.007639  -0.011198  -0.000737
    22  H   -0.000091  -0.011498   0.007639   0.560609  -0.056469  -0.002558
    23  H    0.000014   0.009176  -0.011198  -0.056469   0.580285  -0.003024
    24  H    0.000000  -0.000790  -0.000737  -0.002558  -0.003024   0.396191
 Mulliken charges:
               1
     1  C   -0.422951
     2  C   -0.210067
     3  N   -0.194665
     4  C   -0.178882
     5  C   -0.428478
     6  C   -0.194163
     7  C   -0.193129
     8  O   -0.421849
     9  H    0.166073
    10  H    0.170267
    11  H    0.174767
    12  H    0.196388
    13  H    0.213549
    14  H    0.341681
    15  H    0.195253
    16  H    0.205692
    17  H    0.175557
    18  H    0.162556
    19  H    0.158871
    20  H    0.201045
    21  H    0.216490
    22  H    0.176329
    23  H    0.165238
    24  H    0.324429
 Sum of Mulliken charges =   1.00000
 Mulliken charges with hydrogens summed into heavy atoms:
               1
     1  C    0.088156
     2  C    0.199870
     3  N    0.147016
     4  C    0.222063
     5  C    0.068506
     6  C    0.223372
     7  C    0.148438
     8  O   -0.097420
 Electronic spatial extent (au):  <R**2>=           1366.6551
 Charge=              1.0000 electrons
 Dipole moment (field-independent basis, Debye):
    X=             -3.2781    Y=              0.1617    Z=             -0.6504  Tot=              3.3459
 Quadrupole moment (field-independent basis, Debye-Ang):
   XX=            -40.8010   YY=            -42.4171   ZZ=            -44.1070
   XY=              0.2441   XZ=             -7.5496   YZ=              1.4259
 Traceless Quadrupole moment (field-independent basis, Debye-Ang):
   XX=              1.6407   YY=              0.0246   ZZ=             -1.6653
   XY=              0.2441   XZ=             -7.5496   YZ=              1.4259
 Octapole moment (field-independent basis, Debye-Ang**2):
  XXX=              8.9562  YYY=              1.3841  ZZZ=              3.6373  XYY=             -4.6211
  XXY=             -9.6264  XXZ=            -23.5604  XZZ=              3.3741  YZZ=             -1.1228
  YYZ=             -2.9447  XYZ=              6.0868
 Hexadecapole moment (field-independent basis, Debye-Ang**3):
 XXXX=           -897.1007 YYYY=           -542.4404 ZZZZ=           -136.4536 XXXY=            -24.8930
 XXXZ=            -89.7535 YYYX=             -4.3062 YYYZ=             -3.1652 ZZZX=            -12.4859
 ZZZY=              2.3527 XXYY=           -248.5917 XXZZ=           -175.4990 YYZZ=           -113.6703
 XXYZ=             22.3779 YYXZ=             -3.1081 ZZXY=             -8.2195
 N-N= 4.250814881350D+02 E-N=-1.693799897349D+03  KE= 3.662092535841D+02
 Unable to Open any file for archive entry.
 1\1\GINC-TCN1655\SP\RBP86\TZVP\C6H16N1O1(1+)\ELENAA\23-Feb-2021\0\\# B
 P86/TZVP SCRF=COSMORS geom=CHECKPOINT guess=CHECKPOINT\\COSMO-file for
  #BFSVOASYOCHEOV-UHFFFAOYSA-O\\1,1\C,0,-1.6921981237,2.2646884416,-1.9
 243581342\C,0,-1.9703165431,2.0055795142,-0.4521515637\N,0,-0.76817993
 63,2.2843378404,0.4465233778\C,0,-1.094623035,2.0629445583,1.923181047
 5\C,0,-2.0526913576,3.1087312099,2.4739359646\C,0,0.496753493,1.564042
 8499,0.0253624151\C,0,0.3764709937,0.0430898511,0.0427356818\O,0,1.673
 9370041,-0.4188444136,-0.3574003955\H,0,-1.3077837456,3.281238055,-2.0
 930989355\H,0,-0.9905812238,1.5392857519,-2.3567315038\H,0,-2.64149330
 45,2.1724511148,-2.469661767\H,0,-2.770654511,2.6593752531,-0.08761516
 31\H,0,-2.2667694933,0.9666082644,-0.2620598692\H,0,-0.5556546391,3.28
 8808765,0.3458736243\H,0,-0.1324805464,2.096963645,2.4496448482\H,0,-1
 .5032249849,1.0484947121,2.0071966172\H,0,-2.1470637063,2.9477220098,3
 .5566506969\H,0,-3.0580390948,3.0343974148,2.0399703089\H,0,-1.6677532
 459,4.1277048825,2.3197754271\H,0,1.2880559264,1.8877963201,0.71366777
 21\H,0,0.7551375051,1.9121290955,-0.9820072242\H,0,0.1163006624,-0.319
 7741573,1.052322381\H,0,-0.4028441252,-0.2975384828,-0.6617122933\H,0,
 1.6476860318,-1.3919024957,-0.376413313\\Version=ES64L-G16RevC.01\Stat
 e=1-A\HF=-368.218532\RMSD=3.481e-09\Dipole=-1.0332808,0.6284124,0.5198
 693\Quadrupole=-5.3752287,5.3512327,0.023996,-1.6982934,1.0848307,1.16
 0451\PG=C01 [X(C6H16N1O1)]\\@
 The archive entry for this job was punched.


 MEMORIES ARE LIKE AN ENGLISH GRAMMER LESSON -
 PRESENT TENSE, AND PAST PERFECT.
 Job cpu time:       0 days  0 hours  6 minutes  5.7 seconds.
 Elapsed time:       0 days  0 hours  0 minutes 11.9 seconds.
 File lengths (MBytes):  RWF=     53 Int=      0 D2E=      0 Chk=      8 Scr=      1
 Normal termination of Gaussian 16 at Tue Feb 23 00:14:38 2021.
