 Entering Gaussian System, Link 0=g16
 Input=BMQZYMYBQZGEEY-UHFFFAOYSA-M.gjf
 Output=BMQZYMYBQZGEEY-UHFFFAOYSA-M.log
 Initial command:
 /sw/arch/RedHatEnterpriseServer7/EB_production/2020/software/Gaussian/g16.c01/l1.exe "/scratch-local/elenaa.10684688/Gau-23073.inp" -scrdir="/scratch-local/elenaa.10684688/"
 Entering Link 1 = /sw/arch/RedHatEnterpriseServer7/EB_production/2020/software/Gaussian/g16.c01/l1.exe PID=     23075.
  
 Copyright (c) 1988-2019, Gaussian, Inc.  All Rights Reserved.
  
 This is part of the Gaussian(R) 16 program.  It is based on
 the Gaussian(R) 09 system (copyright 2009, Gaussian, Inc.),
 the Gaussian(R) 03 system (copyright 2003, Gaussian, Inc.),
 the Gaussian(R) 98 system (copyright 1998, Gaussian, Inc.),
 the Gaussian(R) 94 system (copyright 1995, Gaussian, Inc.),
 the Gaussian 92(TM) system (copyright 1992, Gaussian, Inc.),
 the Gaussian 90(TM) system (copyright 1990, Gaussian, Inc.),
 the Gaussian 88(TM) system (copyright 1988, Gaussian, Inc.),
 the Gaussian 86(TM) system (copyright 1986, Carnegie Mellon
 University), and the Gaussian 82(TM) system (copyright 1983,
 Carnegie Mellon University). Gaussian is a federally registered
 trademark of Gaussian, Inc.
  
 This software contains proprietary and confidential information,
 including trade secrets, belonging to Gaussian, Inc.
  
 This software is provided under written license and may be
 used, copied, transmitted, or stored only in accord with that
 written license.
  
 The following legend is applicable only to US Government
 contracts under FAR:
  
                    RESTRICTED RIGHTS LEGEND
  
 Use, reproduction and disclosure by the US Government is
 subject to restrictions as set forth in subparagraphs (a)
 and (c) of the Commercial Computer Software - Restricted
 Rights clause in FAR 52.227-19.
  
 Gaussian, Inc.
 340 Quinnipiac St., Bldg. 40, Wallingford CT 06492
  
  
 ---------------------------------------------------------------
 Warning -- This program may not be used in any manner that
 competes with the business of Gaussian, Inc. or will provide
 assistance to any competitor of Gaussian, Inc.  The licensee
 of this program is prohibited from giving any competitor of
 Gaussian, Inc. access to this program.  By using this program,
 the user acknowledges that Gaussian, Inc. is engaged in the
 business of creating and licensing software in the field of
 computational chemistry and represents and warrants to the
 licensee that it is not a competitor of Gaussian, Inc. and that
 it will not use this program in any manner prohibited above.
 ---------------------------------------------------------------
  

 Cite this work as:
 Gaussian 16, Revision C.01,
 M. J. Frisch, G. W. Trucks, H. B. Schlegel, G. E. Scuseria, 
 M. A. Robb, J. R. Cheeseman, G. Scalmani, V. Barone, 
 G. A. Petersson, H. Nakatsuji, X. Li, M. Caricato, A. V. Marenich, 
 J. Bloino, B. G. Janesko, R. Gomperts, B. Mennucci, H. P. Hratchian, 
 J. V. Ortiz, A. F. Izmaylov, J. L. Sonnenberg, D. Williams-Young, 
 F. Ding, F. Lipparini, F. Egidi, J. Goings, B. Peng, A. Petrone, 
 T. Henderson, D. Ranasinghe, V. G. Zakrzewski, J. Gao, N. Rega, 
 G. Zheng, W. Liang, M. Hada, M. Ehara, K. Toyota, R. Fukuda, 
 J. Hasegawa, M. Ishida, T. Nakajima, Y. Honda, O. Kitao, H. Nakai, 
 T. Vreven, K. Throssell, J. A. Montgomery, Jr., J. E. Peralta, 
 F. Ogliaro, M. J. Bearpark, J. J. Heyd, E. N. Brothers, K. N. Kudin, 
 V. N. Staroverov, T. A. Keith, R. Kobayashi, J. Normand, 
 K. Raghavachari, A. P. Rendell, J. C. Burant, S. S. Iyengar, 
 J. Tomasi, M. Cossi, J. M. Millam, M. Klene, C. Adamo, R. Cammi, 
 J. W. Ochterski, R. L. Martin, K. Morokuma, O. Farkas, 
 J. B. Foresman, and D. J. Fox, Gaussian, Inc., Wallingford CT, 2019.
 
 ******************************************
 Gaussian 16:  ES64L-G16RevC.01  3-Jul-2019
                21-Aug-2021 
 ******************************************
 %chk=BMQZYMYBQZGEEY-UHFFFAOYSA-M.chk
 %NProcShared=24
 Will use up to   24 processors via shared memory.
 -------------------------------------------------------------
 #P BP86/TZVP EmpiricalDispersion=GD3 SCRF=(Solvent=Water) Opt
 -------------------------------------------------------------
 1/18=20,19=15,26=3,38=1/1,3;
 2/9=110,12=2,17=6,18=5,40=1/2;
 3/5=19,7=101,11=2,25=1,30=1,70=2201,71=1,72=1,74=404,124=31/1,2,3;
 4//1;
 5/5=2,38=5,53=1/2;
 6/7=2,8=2,9=2,10=2,28=1/1;
 7//1,2,3,16;
 1/18=20,19=15,26=3/3(2);
 2/9=110/2;
 99//99;
 2/9=110/2;
 3/5=19,7=101,11=2,25=1,30=1,70=2205,71=1,72=1,74=404,124=31/1,2,3;
 4/5=5,16=3,69=1/1;
 5/5=2,38=5,53=1/2;
 7//1,2,3,16;
 1/18=20,19=15,26=3/3(-5);
 2/9=110/2;
 6/7=2,8=2,9=2,10=2,19=2,28=1/1;
 99/9=1/99;
 Leave Link    1 at Sat Aug 21 09:31:10 2021, MaxMem=           0 cpu:               3.2 elap:               0.2
 (Enter /sw/arch/RedHatEnterpriseServer7/EB_production/2020/software/Gaussian/g16.c01/l101.exe)
 -------------------------------------
 Particle #BMQZYMYBQZGEEY-UHFFFAOYSA-M
 -------------------------------------
 Symbolic Z-matrix:
 Charge =  0 Multiplicity = 1
 C                     1.12392   0.08901   2.43315 
 C                     1.66605  -0.4422    1.11208 
 N                     0.75456  -0.1099    0.02105 
 C                     0.75908   1.01454  -0.72297 
 C                    -0.29621   0.94895  -1.61034 
 N                    -0.95842  -0.20446  -1.39226 
 C                    -2.09239  -0.71651  -2.15043 
 C                    -0.29985  -0.83508  -0.40092 
 Cl                   -1.21933  -4.03315   0.92793 
 H                     1.82426  -0.16876   3.25524 
 H                     1.01715   1.19354   2.38513 
 H                     0.13353  -0.36502   2.64926 
 H                     1.7878   -1.54526   1.17836 
 H                     2.6659    0.00273   0.91639 
 H                     1.47719   1.81904  -0.63077 
 H                    -0.55661   1.68437  -2.36053 
 H                    -2.71546   0.12513  -2.52073 
 H                    -2.72111  -1.36611  -1.50511 
 H                    -1.72475  -1.30696  -3.01541 
 H                    -0.5778   -1.80183   0.00078 
 
 Add virtual bond connecting atoms H20        and Cl9        Dist= 4.72D+00.
 ITRead=  0  0  0  0  0  0  0  0  0  0  0  0  0  0  0  0  0  0  0  0
 MicOpt= -1 -1 -1 -1 -1 -1 -1 -1 -1 -1 -1 -1 -1 -1 -1 -1 -1 -1 -1 -1
 NAtoms=     20 NQM=       20 NQMF=       0 NMMI=      0 NMMIF=      0
                NMic=       0 NMicF=      0.
                    Isotopes and Nuclear Properties:
 (Nuclear quadrupole moments (NQMom) in fm**2, nuclear magnetic moments (NMagM)
  in nuclear magnetons)

  Atom         1           2           3           4           5           6           7           8           9          10
 IAtWgt=          12          12          14          12          12          14          12          12          35           1
 AtmWgt=  12.0000000  12.0000000  14.0030740  12.0000000  12.0000000  14.0030740  12.0000000  12.0000000  34.9688527   1.0078250
 NucSpn=           0           0           2           0           0           2           0           0           3           1
 AtZEff=  -0.0000000  -0.0000000  -0.0000000  -0.0000000  -0.0000000  -0.0000000  -0.0000000  -0.0000000  -0.0000000  -0.0000000
 NQMom=    0.0000000   0.0000000   2.0440000   0.0000000   0.0000000   2.0440000   0.0000000   0.0000000  -8.1650000   0.0000000
 NMagM=    0.0000000   0.0000000   0.4037610   0.0000000   0.0000000   0.4037610   0.0000000   0.0000000   0.8218740   2.7928460
 AtZNuc=   6.0000000   6.0000000   7.0000000   6.0000000   6.0000000   7.0000000   6.0000000   6.0000000  17.0000000   1.0000000

  Atom        11          12          13          14          15          16          17          18          19          20
 IAtWgt=           1           1           1           1           1           1           1           1           1           1
 AtmWgt=   1.0078250   1.0078250   1.0078250   1.0078250   1.0078250   1.0078250   1.0078250   1.0078250   1.0078250   1.0078250
 NucSpn=           1           1           1           1           1           1           1           1           1           1
 AtZEff=  -0.0000000  -0.0000000  -0.0000000  -0.0000000  -0.0000000  -0.0000000  -0.0000000  -0.0000000  -0.0000000  -0.0000000
 NQMom=    0.0000000   0.0000000   0.0000000   0.0000000   0.0000000   0.0000000   0.0000000   0.0000000   0.0000000   0.0000000
 NMagM=    2.7928460   2.7928460   2.7928460   2.7928460   2.7928460   2.7928460   2.7928460   2.7928460   2.7928460   2.7928460
 AtZNuc=   1.0000000   1.0000000   1.0000000   1.0000000   1.0000000   1.0000000   1.0000000   1.0000000   1.0000000   1.0000000
 Leave Link  101 at Sat Aug 21 09:31:10 2021, MaxMem=   104857600 cpu:               2.1 elap:               0.1
 (Enter /sw/arch/RedHatEnterpriseServer7/EB_production/2020/software/Gaussian/g16.c01/l103.exe)

 GradGradGradGradGradGradGradGradGradGradGradGradGradGradGradGradGradGrad
 Berny optimization.
 Initialization pass.
                           ----------------------------
                           !    Initial Parameters    !
                           ! (Angstroms and Degrees)  !
 --------------------------                            --------------------------
 ! Name  Definition              Value          Derivative Info.                !
 --------------------------------------------------------------------------------
 ! R1    R(1,2)                  1.5236         estimate D2E/DX2                !
 ! R2    R(1,10)                 1.1103         estimate D2E/DX2                !
 ! R3    R(1,11)                 1.1107         estimate D2E/DX2                !
 ! R4    R(1,12)                 1.1107         estimate D2E/DX2                !
 ! R5    R(2,3)                  1.46           estimate D2E/DX2                !
 ! R6    R(2,13)                 1.1117         estimate D2E/DX2                !
 ! R7    R(2,14)                 1.1117         estimate D2E/DX2                !
 ! R8    R(3,4)                  1.3483         estimate D2E/DX2                !
 ! R9    R(3,8)                  1.3475         estimate D2E/DX2                !
 ! R10   R(4,5)                  1.3803         estimate D2E/DX2                !
 ! R11   R(4,15)                 1.0823         estimate D2E/DX2                !
 ! R12   R(5,6)                  1.3477         estimate D2E/DX2                !
 ! R13   R(5,16)                 1.0823         estimate D2E/DX2                !
 ! R14   R(6,7)                  1.457          estimate D2E/DX2                !
 ! R15   R(6,8)                  1.3469         estimate D2E/DX2                !
 ! R16   R(7,17)                 1.1107         estimate D2E/DX2                !
 ! R17   R(7,18)                 1.1107         estimate D2E/DX2                !
 ! R18   R(7,19)                 1.1099         estimate D2E/DX2                !
 ! R19   R(8,20)                 1.0832         estimate D2E/DX2                !
 ! R20   R(9,20)                 2.5            estimate D2E/DX2                !
 ! A1    A(2,1,10)             109.6708         estimate D2E/DX2                !
 ! A2    A(2,1,11)             110.0864         estimate D2E/DX2                !
 ! A3    A(2,1,12)             110.0882         estimate D2E/DX2                !
 ! A4    A(10,1,11)            108.8754         estimate D2E/DX2                !
 ! A5    A(10,1,12)            108.8729         estimate D2E/DX2                !
 ! A6    A(11,1,12)            109.2192         estimate D2E/DX2                !
 ! A7    A(1,2,3)              110.2705         estimate D2E/DX2                !
 ! A8    A(1,2,13)             109.4639         estimate D2E/DX2                !
 ! A9    A(1,2,14)             109.4577         estimate D2E/DX2                !
 ! A10   A(3,2,13)             109.8004         estimate D2E/DX2                !
 ! A11   A(3,2,14)             109.8068         estimate D2E/DX2                !
 ! A12   A(13,2,14)            108.0042         estimate D2E/DX2                !
 ! A13   A(2,3,4)              126.8757         estimate D2E/DX2                !
 ! A14   A(2,3,8)              126.8735         estimate D2E/DX2                !
 ! A15   A(4,3,8)              106.1785         estimate D2E/DX2                !
 ! A16   A(3,4,5)              108.2131         estimate D2E/DX2                !
 ! A17   A(3,4,15)             125.1077         estimate D2E/DX2                !
 ! A18   A(5,4,15)             126.6786         estimate D2E/DX2                !
 ! A19   A(4,5,6)              108.1968         estimate D2E/DX2                !
 ! A20   A(4,5,16)             126.672          estimate D2E/DX2                !
 ! A21   A(6,5,16)             125.1303         estimate D2E/DX2                !
 ! A22   A(5,6,7)              126.7962         estimate D2E/DX2                !
 ! A23   A(5,6,8)              106.2324         estimate D2E/DX2                !
 ! A24   A(7,6,8)              126.7974         estimate D2E/DX2                !
 ! A25   A(6,7,17)             110.1064         estimate D2E/DX2                !
 ! A26   A(6,7,18)             110.1061         estimate D2E/DX2                !
 ! A27   A(6,7,19)             109.5532         estimate D2E/DX2                !
 ! A28   A(17,7,18)            108.6221         estimate D2E/DX2                !
 ! A29   A(17,7,19)            109.2132         estimate D2E/DX2                !
 ! A30   A(18,7,19)            109.2164         estimate D2E/DX2                !
 ! A31   A(3,8,6)              111.169          estimate D2E/DX2                !
 ! A32   A(3,8,20)             124.402          estimate D2E/DX2                !
 ! A33   A(6,8,20)             124.428          estimate D2E/DX2                !
 ! A34   L(8,20,9,1,-1)        180.0            estimate D2E/DX2                !
 ! A35   L(8,20,9,1,-2)        180.0            estimate D2E/DX2                !
 ! D1    D(10,1,2,3)          -179.9861         estimate D2E/DX2                !
 ! D2    D(10,1,2,13)           59.1153         estimate D2E/DX2                !
 ! D3    D(10,1,2,14)          -59.0836         estimate D2E/DX2                !
 ! D4    D(11,1,2,3)           -60.2152         estimate D2E/DX2                !
 ! D5    D(11,1,2,13)          178.8862         estimate D2E/DX2                !
 ! D6    D(11,1,2,14)           60.6874         estimate D2E/DX2                !
 ! D7    D(12,1,2,3)            60.245          estimate D2E/DX2                !
 ! D8    D(12,1,2,13)          -60.6536         estimate D2E/DX2                !
 ! D9    D(12,1,2,14)         -178.8524         estimate D2E/DX2                !
 ! D10   D(1,2,3,4)             88.5485         estimate D2E/DX2                !
 ! D11   D(1,2,3,8)            -87.926          estimate D2E/DX2                !
 ! D12   D(13,2,3,4)          -150.7543         estimate D2E/DX2                !
 ! D13   D(13,2,3,8)            32.7712         estimate D2E/DX2                !
 ! D14   D(14,2,3,4)           -32.1452         estimate D2E/DX2                !
 ! D15   D(14,2,3,8)           151.3804         estimate D2E/DX2                !
 ! D16   D(2,3,4,5)           -177.8318         estimate D2E/DX2                !
 ! D17   D(2,3,4,15)             2.4359         estimate D2E/DX2                !
 ! D18   D(8,3,4,5)             -0.7678         estimate D2E/DX2                !
 ! D19   D(8,3,4,15)           179.4999         estimate D2E/DX2                !
 ! D20   D(2,3,8,6)            177.283          estimate D2E/DX2                !
 ! D21   D(2,3,8,20)            -3.0629         estimate D2E/DX2                !
 ! D22   D(4,3,8,6)              0.2189         estimate D2E/DX2                !
 ! D23   D(4,3,8,20)           179.873          estimate D2E/DX2                !
 ! D24   D(3,4,5,6)              1.0514         estimate D2E/DX2                !
 ! D25   D(3,4,5,16)          -178.6157         estimate D2E/DX2                !
 ! D26   D(15,4,5,6)          -179.2217         estimate D2E/DX2                !
 ! D27   D(15,4,5,16)            1.1112         estimate D2E/DX2                !
 ! D28   D(4,5,6,7)           -176.3354         estimate D2E/DX2                !
 ! D29   D(4,5,6,8)             -0.8918         estimate D2E/DX2                !
 ! D30   D(16,5,6,7)             3.3381         estimate D2E/DX2                !
 ! D31   D(16,5,6,8)           178.7818         estimate D2E/DX2                !
 ! D32   D(5,6,7,17)           -32.712          estimate D2E/DX2                !
 ! D33   D(5,6,7,18)          -152.456          estimate D2E/DX2                !
 ! D34   D(5,6,7,19)            87.4141         estimate D2E/DX2                !
 ! D35   D(8,6,7,17)           152.7537         estimate D2E/DX2                !
 ! D36   D(8,6,7,18)            33.0097         estimate D2E/DX2                !
 ! D37   D(8,6,7,19)           -87.1202         estimate D2E/DX2                !
 ! D38   D(5,6,8,3)              0.427          estimate D2E/DX2                !
 ! D39   D(5,6,8,20)          -179.2269         estimate D2E/DX2                !
 ! D40   D(7,6,8,3)            175.8706         estimate D2E/DX2                !
 ! D41   D(7,6,8,20)            -3.7833         estimate D2E/DX2                !
 --------------------------------------------------------------------------------
 Trust Radius=3.00D-01 FncErr=1.00D-07 GrdErr=1.00D-06 EigMax=2.50D+02 EigMin=1.00D-04
 Number of steps in this run=    106 maximum allowed number of steps=    120.
 GradGradGradGradGradGradGradGradGradGradGradGradGradGradGradGradGradGrad

 Leave Link  103 at Sat Aug 21 09:31:11 2021, MaxMem=   104857600 cpu:               0.4 elap:               0.0
 (Enter /sw/arch/RedHatEnterpriseServer7/EB_production/2020/software/Gaussian/g16.c01/l202.exe)
                          Input orientation:                          
 ---------------------------------------------------------------------
 Center     Atomic      Atomic             Coordinates (Angstroms)
 Number     Number       Type             X           Y           Z
 ---------------------------------------------------------------------
      1          6           0        1.123919    0.089006    2.433146
      2          6           0        1.666051   -0.442200    1.112084
      3          7           0        0.754562   -0.109904    0.021052
      4          6           0        0.759079    1.014536   -0.722966
      5          6           0       -0.296211    0.948950   -1.610335
      6          7           0       -0.958418   -0.204459   -1.392263
      7          6           0       -2.092385   -0.716511   -2.150428
      8          6           0       -0.299845   -0.835080   -0.400920
      9         17           0       -1.219328   -4.033154    0.927935
     10          1           0        1.824263   -0.168763    3.255239
     11          1           0        1.017147    1.193537    2.385131
     12          1           0        0.133533   -0.365016    2.649258
     13          1           0        1.787801   -1.545264    1.178361
     14          1           0        2.665903    0.002726    0.916388
     15          1           0        1.477190    1.819039   -0.630773
     16          1           0       -0.556608    1.684369   -2.360533
     17          1           0       -2.715457    0.125131   -2.520730
     18          1           0       -2.721111   -1.366112   -1.505105
     19          1           0       -1.724748   -1.306963   -3.015409
     20          1           0       -0.577796   -1.801827    0.000780
 ---------------------------------------------------------------------
                    Distance matrix (angstroms):
                    1          2          3          4          5
     1  C    0.000000
     2  C    1.523579   0.000000
     3  N    2.448303   1.459994   0.000000
     4  C    3.309193   2.512387   1.348313   0.000000
     5  C    4.371042   3.632814   2.210593   1.380349   0.000000
     6  N    4.365318   3.635397   2.222769   2.209910   1.347748
     7  C    5.657086   4.984483   3.631584   3.628363   2.508326
     8  C    3.303478   2.511630   1.347485   2.155484   2.155333
     9  Cl   4.974804   4.610236   4.484481   5.667340   5.667126
    10  H    1.110299   2.166313   3.407006   4.284965   5.423975
    11  H    1.110718   2.171949   2.712338   3.123925   4.212895
    12  H    1.110723   2.171974   2.712605   3.696805   4.478317
    13  H    2.164732   1.111740   2.113576   3.350506   4.282643
    14  H    2.164651   1.111737   2.113655   2.710575   4.006718
    15  H    3.536300   2.861192   2.160530   1.082316   2.204892
    16  H    5.324351   4.639135   3.257381   2.204843   1.082333
    17  H    6.267615   5.719861   4.307775   4.011907   2.712978
    18  H    5.693105   5.191385   3.998439   4.288467   3.354210
    19  H    6.304791   5.411241   4.098783   4.100494   3.017299
    20  H    3.519586   2.849286   2.153646   3.200460   3.200274
                    6          7          8          9         10
     6  N    0.000000
     7  C    1.457015   0.000000
     8  C    1.346908   2.507596   0.000000
     9  Cl   4.484451   4.608543   3.583153   0.000000
    10  H    5.416998   6.697865   4.280574   5.441811   0.000000
    11  H    4.486196   5.821406   3.689422   5.868862   1.806761
    12  H    4.189514   5.302381   3.116466   4.271817   1.806736
    13  H    3.993443   5.179142   2.712334   3.910900   2.491888
    14  H    4.302150   5.706485   3.351549   5.602096   2.491584
    15  H    3.256777   4.634677   3.202348   6.629400   4.378688
    16  H    2.160248   2.857793   3.202130   6.628973   6.374915
    17  H    2.114061   1.110722   3.354218   5.605624   7.352364
    18  H    2.114062   1.110729   2.713623   3.910006   6.689914
    19  H    2.106509   1.109947   3.014726   4.820532   7.294656
    20  H    2.153376   2.845977   1.083153   2.500000   4.362143
                   11         12         13         14         15
    11  H    0.000000
    12  H    1.810973   0.000000
    13  H    3.090507   2.508610   0.000000
    14  H    2.508711   3.090464   1.798879   0.000000
    15  H    3.114253   4.163426   3.832490   2.665659   0.000000
    16  H    5.023838   5.456581   5.333906   4.893946   2.673301
    17  H    6.256301   5.923324   6.062411   6.386533   4.900974
    18  H    5.971626   5.139058   5.250083   6.062777   5.341851
    19  H    6.552581   6.035638   5.475627   6.037560   5.070580
    20  H    4.147430   3.095941   2.654914   3.823131   4.210997
                   16         17         18         19         20
    16  H    0.000000
    17  H    2.667867   0.000000
    18  H    3.836960   1.804254   0.000000
    19  H    3.277420   1.810278   1.810319   0.000000
    20  H    4.210678   3.826326   2.655435   3.264626   0.000000
 Stoichiometry    C6H11ClN2
 Framework group  C1[X(C6H11ClN2)]
 Deg. of freedom    54
 Full point group                 C1      NOp   1
 Largest Abelian subgroup         C1      NOp   1
 Largest concise Abelian subgroup C1      NOp   1
                         Standard orientation:                         
 ---------------------------------------------------------------------
 Center     Atomic      Atomic             Coordinates (Angstroms)
 Number     Number       Type             X           Y           Z
 ---------------------------------------------------------------------
      1          6           0       -0.655107    2.784344    0.800166
      2          6           0       -0.719623    2.055983   -0.536479
      3          7           0       -1.034920    0.645580   -0.329267
      4          6           0       -2.262714    0.092818   -0.259100
      5          6           0       -2.114757   -1.256088   -0.006270
      6          7           0       -0.797907   -1.522242    0.100932
      7          6           0       -0.184541   -2.830106    0.291108
      8          6           0       -0.159737   -0.354021   -0.104401
      9         17           0        3.401442    0.041198   -0.076323
     10          1           0       -0.415187    3.855147    0.631099
     11          1           0       -1.633579    2.713220    1.320961
     12          1           0        0.133652    2.336277    1.441103
     13          1           0        0.257858    2.150749   -1.057552
     14          1           0       -1.497446    2.525716   -1.177027
     15          1           0       -3.194627    0.628316   -0.386339
     16          1           0       -2.907503   -1.987078    0.086754
     17          1           0       -0.850393   -3.479459    0.898302
     18          1           0        0.785937   -2.723325    0.820722
     19          1           0       -0.011346   -3.306321   -0.696417
     20          1           0        0.916774   -0.234550   -0.095913
 ---------------------------------------------------------------------
 Rotational constants (GHZ):           1.2743644           0.8354316           0.5298612
 Leave Link  202 at Sat Aug 21 09:31:11 2021, MaxMem=   104857600 cpu:               0.6 elap:               0.1
 (Enter /sw/arch/RedHatEnterpriseServer7/EB_production/2020/software/Gaussian/g16.c01/l301.exe)
 Standard basis: TZVP (5D, 7F)
 Ernie: Thresh=  0.10000D-02 Tol=  0.10000D-05 Strict=F.
 There are   249 symmetry adapted cartesian basis functions of A   symmetry.
 There are   240 symmetry adapted basis functions of A   symmetry.
   240 basis functions,   415 primitive gaussians,   249 cartesian basis functions
    39 alpha electrons       39 beta electrons
       nuclear repulsion energy       499.0486539208 Hartrees.
 IExCor=  404 DFT=T Ex=B Corr=P86 ExCW=0 ScaHFX=  0.000000
 ScaDFX=  1.000000  1.000000  1.000000  1.000000 ScalE2=  1.000000  1.000000
 IRadAn=      5 IRanWt=     -1 IRanGd=            0 ICorTp=0 IEmpDi=131
 NAtoms=   20 NActive=   20 NUniq=   20 SFac= 1.00D+00 NAtFMM=   60 NAOKFM=F Big=F
 Integral buffers will be    131072 words long.
 Raffenetti 2 integral format.
 Two-electron integral symmetry is turned on.
 R6Disp:  Grimme-D3 Dispersion energy=       -0.0164348587 Hartrees.
 Nuclear repulsion after empirical dispersion term =      499.0322190621 Hartrees.
 ------------------------------------------------------------------------------
 Polarizable Continuum Model (PCM)
 =================================
 Model                : PCM.
 Atomic radii         : UFF (Universal Force Field).
 Polarization charges : Total charges.
 Charge compensation  : None.
 Solution method      : On-the-fly selection.
 Cavity type          : Scaled VdW (van der Waals Surface) (Alpha=1.100).
 Cavity algorithm     : GePol (No added spheres)
                        Default sphere list used, NSphG=   20.
                        Lebedev-Laikov grids with approx.  5.0 points / Ang**2.
                        Smoothing algorithm: York/Karplus (Gamma=1.0000).
                        Polarization charges: spherical gaussians, with
                                              point-specific exponents (IZeta= 3).
                        Self-potential: point-specific (ISelfS= 7).
                        Self-field    : sphere-specific E.n sum rule (ISelfD= 2).
 1st derivatives      : Analytical E(r).r(x)/FMM algorithm (CHGder, D1EAlg=3).
                        Cavity 1st derivative terms included.
 Solvent              : Water, Eps=  78.355300 Eps(inf)=   1.777849
 ------------------------------------------------------------------------------
 Spheres list:
 ISph  on   Nord     Re0    Alpha      Xe            Ye            Ze
    1   C      1    1.9255  1.100     -0.655107      2.784344      0.800166
    2   C      2    1.9255  1.100     -0.719623      2.055983     -0.536479
    3   N      3    1.8300  1.100     -1.034920      0.645580     -0.329267
    4   C      4    1.9255  1.100     -2.262714      0.092818     -0.259100
    5   C      5    1.9255  1.100     -2.114757     -1.256088     -0.006270
    6   N      6    1.8300  1.100     -0.797907     -1.522242      0.100932
    7   C      7    1.9255  1.100     -0.184541     -2.830106      0.291108
    8   C      8    1.9255  1.100     -0.159737     -0.354021     -0.104401
    9  Cl      9    1.9735  1.100      3.401442      0.041198     -0.076323
   10   H     10    1.4430  1.100     -0.415187      3.855147      0.631099
   11   H     11    1.4430  1.100     -1.633579      2.713220      1.320961
   12   H     12    1.4430  1.100      0.133652      2.336277      1.441103
   13   H     13    1.4430  1.100      0.257858      2.150749     -1.057552
   14   H     14    1.4430  1.100     -1.497446      2.525716     -1.177027
   15   H     15    1.4430  1.100     -3.194627      0.628316     -0.386339
   16   H     16    1.4430  1.100     -2.907503     -1.987078      0.086754
   17   H     17    1.4430  1.100     -0.850393     -3.479459      0.898302
   18   H     18    1.4430  1.100      0.785937     -2.723325      0.820722
   19   H     19    1.4430  1.100     -0.011346     -3.306321     -0.696417
   20   H     20    1.4430  1.100      0.916774     -0.234550     -0.095913
 ------------------------------------------------------------------------------
 GePol: Number of generator spheres                  =      20
 GePol: Total number of spheres                      =      20
 GePol: Number of exposed spheres                    =      20 (100.00%)
 GePol: Number of points                             =    1723
 GePol: Average weight of points                     =       0.14
 GePol: Minimum weight of points                     =   0.42D-11
 GePol: Maximum weight of points                     =    0.21616
 GePol: Number of points with low weight             =      94
 GePol: Fraction of low-weight points (<1% of avg)   =       5.46%
 GePol: Cavity surface area                          =    242.264 Ang**2
 GePol: Cavity volume                                =    227.792 Ang**3
 Leave Link  301 at Sat Aug 21 09:31:11 2021, MaxMem=   104857600 cpu:               1.4 elap:               0.1
 (Enter /sw/arch/RedHatEnterpriseServer7/EB_production/2020/software/Gaussian/g16.c01/l302.exe)
 NPDir=0 NMtPBC=     1 NCelOv=     1 NCel=       1 NClECP=     1 NCelD=      1
         NCelK=      1 NCelE2=     1 NClLst=     1 CellRange=     0.0.
 One-electron integrals computed using PRISM.
 One-electron integral symmetry used in STVInt
 NBasis=   240 RedAO= T EigKep=  1.74D-04  NBF=   240
 NBsUse=   240 1.00D-06 EigRej= -1.00D+00 NBFU=   240
 Precomputing XC quadrature grid using
 IXCGrd= 4 IRadAn=           5 IRanWt=          -1 IRanGd=           0 AccXCQ= 0.00D+00.
 Generated NRdTot=       0 NPtTot=           0 NUsed=           0 NTot=          32
 NSgBfM=   248   248   248   248   248 MxSgAt=    20 MxSgA2=    20.
 Leave Link  302 at Sat Aug 21 09:31:12 2021, MaxMem=   104857600 cpu:               6.5 elap:               0.3
 (Enter /sw/arch/RedHatEnterpriseServer7/EB_production/2020/software/Gaussian/g16.c01/l303.exe)
 DipDrv:  MaxL=1.
 Leave Link  303 at Sat Aug 21 09:31:12 2021, MaxMem=   104857600 cpu:               1.2 elap:               0.1
 (Enter /sw/arch/RedHatEnterpriseServer7/EB_production/2020/software/Gaussian/g16.c01/l401.exe)
 ExpMin= 9.52D-02 ExpMax= 6.95D+04 ExpMxC= 2.37D+03 IAcc=3 IRadAn=         5 AccDes= 0.00D+00
 Harris functional with IExCor=  404 and IRadAn=       5 diagonalized for initial guess.
 HarFok:  IExCor=  404 AccDes= 0.00D+00 IRadAn=         5 IDoV= 1 UseB2=F ITyADJ=14
 ICtDFT=  3500011 ScaDFX=  1.000000  1.000000  1.000000  1.000000
 FoFCou: FMM=F IPFlag=           0 FMFlag=      100000 FMFlg1=           0
         NFxFlg=           0 DoJE=T BraDBF=F KetDBF=T FulRan=T
         wScrn=  0.000000 ICntrl=       500 IOpCl=  0 I1Cent=   200000004 NGrid=           0
         NMat0=    1 NMatS0=      1 NMatT0=    0 NMatD0=    1 NMtDS0=    0 NMtDT0=    0
 Petite list used in FoFCou.
 Harris En= -805.193730698305    
 JPrj=0 DoOrth=F DoCkMO=F.
 Leave Link  401 at Sat Aug 21 09:31:13 2021, MaxMem=   104857600 cpu:              11.5 elap:               0.5
 (Enter /sw/arch/RedHatEnterpriseServer7/EB_production/2020/software/Gaussian/g16.c01/l502.exe)
 Integral symmetry usage will be decided dynamically.
 Closed shell SCF:
 Using DIIS extrapolation, IDIIS=  1040.
 NGot=   104857600 LenX=   104724516 LenY=   104662074
 Requested convergence on RMS density matrix=1.00D-08 within 128 cycles.
 Requested convergence on MAX density matrix=1.00D-06.
 Requested convergence on             energy=1.00D-06.
 No special actions if energy rises.
 Fock matrices will be formed incrementally for  20 cycles.

 Cycle   1  Pass 1  IDiag  1:
 FoFJK:  IHMeth= 1 ICntrl=     500 DoSepK=F KAlg= 0 I1Cent=           0 FoldK=F
 IRaf= 910000000 NMat=       1 IRICut=       1 DoRegI=T DoRafI=F ISym2E= 0 IDoP0=0 IntGTp=1.
 FoFCou: FMM=F IPFlag=           0 FMFlag=      100000 FMFlg1=           0
         NFxFlg=           0 DoJE=T BraDBF=F KetDBF=F FulRan=T
         wScrn=  0.000000 ICntrl=       500 IOpCl=  0 I1Cent=           0 NGrid=           0
         NMat0=    1 NMatS0=      1 NMatT0=    0 NMatD0=    1 NMtDS0=    0 NMtDT0=    0
 Symmetry not used in FoFCou.
 Inv3:  Mode=1 IEnd=     8906187.
 Iteration    1 A*A^-1 deviation from unit magnitude is 3.55D-15 for    965.
 Iteration    1 A*A^-1 deviation from orthogonality  is 1.88D-15 for   1380    664.
 Iteration    1 A^-1*A deviation from unit magnitude is 3.55D-15 for    965.
 Iteration    1 A^-1*A deviation from orthogonality  is 2.34D-15 for   1364    716.
 E= -805.017559886674    
 DIIS: error= 2.70D-02 at cycle   1 NSaved=   1.
 NSaved= 1 IEnMin= 1 EnMin= -805.017559886674     IErMin= 1 ErrMin= 2.70D-02
 ErrMax= 2.70D-02  0.00D+00 EMaxC= 1.00D-01 BMatC= 1.63D-01 BMatP= 1.63D-01
 IDIUse=3 WtCom= 7.30D-01 WtEn= 2.70D-01
 Coeff-Com:  0.100D+01
 Coeff-En:   0.100D+01
 Coeff:      0.100D+01
 Gap=     0.075 Goal=   None    Shift=    0.000
 GapD=    0.075 DampG=0.500 DampE=0.500 DampFc=0.2500 IDamp=-1.
 Damping current iteration by 2.50D-01
 RMSDP=3.85D-03 MaxDP=1.28D-01              OVMax= 1.84D-01

 Cycle   2  Pass 1  IDiag  1:
 RMSU=  9.59D-04    CP:  9.94D-01
 E= -805.074731297724     Delta-E=       -0.057171411050 Rises=F Damp=T
 DIIS: error= 1.22D-02 at cycle   2 NSaved=   2.
 NSaved= 2 IEnMin= 2 EnMin= -805.074731297724     IErMin= 2 ErrMin= 1.22D-02
 ErrMax= 1.22D-02  0.00D+00 EMaxC= 1.00D-01 BMatC= 3.94D-02 BMatP= 1.63D-01
 IDIUse=3 WtCom= 8.78D-01 WtEn= 1.22D-01
 Coeff-Com: -0.668D+00 0.167D+01
 Coeff-En:   0.000D+00 0.100D+01
 Coeff:     -0.586D+00 0.159D+01
 Gap=     0.139 Goal=   None    Shift=    0.000
 RMSDP=1.25D-03 MaxDP=5.54D-02 DE=-5.72D-02 OVMax= 1.61D-01

 Cycle   3  Pass 1  IDiag  1:
 RMSU=  8.43D-04    CP:  9.90D-01  1.96D+00
 E= -805.165124730185     Delta-E=       -0.090393432461 Rises=F Damp=F
 DIIS: error= 7.25D-03 at cycle   3 NSaved=   3.
 NSaved= 3 IEnMin= 3 EnMin= -805.165124730185     IErMin= 3 ErrMin= 7.25D-03
 ErrMax= 7.25D-03  0.00D+00 EMaxC= 1.00D-01 BMatC= 6.80D-03 BMatP= 3.94D-02
 IDIUse=3 WtCom= 9.28D-01 WtEn= 7.25D-02
 Coeff-Com: -0.271D+00 0.636D+00 0.635D+00
 Coeff-En:   0.000D+00 0.000D+00 0.100D+01
 Coeff:     -0.251D+00 0.590D+00 0.662D+00
 Gap=     0.126 Goal=   None    Shift=    0.000
 RMSDP=5.55D-04 MaxDP=2.28D-02 DE=-9.04D-02 OVMax= 7.70D-02

 Cycle   4  Pass 1  IDiag  1:
 RMSU=  4.01D-04    CP:  9.92D-01  1.92D+00  5.49D-01
 E= -805.166707145779     Delta-E=       -0.001582415595 Rises=F Damp=F
 DIIS: error= 7.73D-03 at cycle   4 NSaved=   4.
 NSaved= 4 IEnMin= 4 EnMin= -805.166707145779     IErMin= 3 ErrMin= 7.25D-03
 ErrMax= 7.73D-03  0.00D+00 EMaxC= 1.00D-01 BMatC= 5.09D-03 BMatP= 6.80D-03
 IDIUse=3 WtCom= 9.23D-01 WtEn= 7.73D-02
 Coeff-Com: -0.765D-01 0.181D+00 0.451D+00 0.444D+00
 Coeff-En:   0.000D+00 0.000D+00 0.449D+00 0.551D+00
 Coeff:     -0.705D-01 0.167D+00 0.451D+00 0.452D+00
 Gap=     0.134 Goal=   None    Shift=    0.000
 RMSDP=2.80D-04 MaxDP=1.27D-02 DE=-1.58D-03 OVMax= 4.54D-02

 Cycle   5  Pass 1  IDiag  1:
 RMSU=  9.20D-05    CP:  9.91D-01  1.89D+00  7.32D-01  4.68D-01
 E= -805.171888220947     Delta-E=       -0.005181075168 Rises=F Damp=F
 DIIS: error= 1.25D-03 at cycle   5 NSaved=   5.
 NSaved= 5 IEnMin= 5 EnMin= -805.171888220947     IErMin= 5 ErrMin= 1.25D-03
 ErrMax= 1.25D-03  0.00D+00 EMaxC= 1.00D-01 BMatC= 2.04D-04 BMatP= 5.09D-03
 IDIUse=3 WtCom= 9.87D-01 WtEn= 1.25D-02
 Coeff-Com: -0.268D-01 0.644D-01 0.222D+00 0.261D+00 0.480D+00
 Coeff-En:   0.000D+00 0.000D+00 0.000D+00 0.000D+00 0.100D+01
 Coeff:     -0.265D-01 0.636D-01 0.219D+00 0.257D+00 0.486D+00
 Gap=     0.135 Goal=   None    Shift=    0.000
 RMSDP=5.46D-05 MaxDP=1.94D-03 DE=-5.18D-03 OVMax= 7.47D-03

 Cycle   6  Pass 1  IDiag  1:
 RMSU=  3.42D-05    CP:  9.91D-01  1.90D+00  7.17D-01  5.04D-01  6.00D-01
 E= -805.172057055909     Delta-E=       -0.000168834962 Rises=F Damp=F
 DIIS: error= 3.21D-04 at cycle   6 NSaved=   6.
 NSaved= 6 IEnMin= 6 EnMin= -805.172057055909     IErMin= 6 ErrMin= 3.21D-04
 ErrMax= 3.21D-04  0.00D+00 EMaxC= 1.00D-01 BMatC= 2.55D-05 BMatP= 2.04D-04
 IDIUse=3 WtCom= 9.97D-01 WtEn= 3.21D-03
 Coeff-Com: -0.807D-02 0.185D-01 0.779D-01 0.102D+00 0.306D+00 0.504D+00
 Coeff-En:   0.000D+00 0.000D+00 0.000D+00 0.000D+00 0.848D-01 0.915D+00
 Coeff:     -0.804D-02 0.184D-01 0.776D-01 0.102D+00 0.305D+00 0.505D+00
 Gap=     0.135 Goal=   None    Shift=    0.000
 RMSDP=1.81D-05 MaxDP=7.58D-04 DE=-1.69D-04 OVMax= 1.60D-03

 Cycle   7  Pass 1  IDiag  1:
 RMSU=  1.07D-05    CP:  9.91D-01  1.90D+00  7.23D-01  5.08D-01  6.22D-01
                    CP:  6.06D-01
 E= -805.172076760718     Delta-E=       -0.000019704810 Rises=F Damp=F
 DIIS: error= 1.18D-04 at cycle   7 NSaved=   7.
 NSaved= 7 IEnMin= 7 EnMin= -805.172076760718     IErMin= 7 ErrMin= 1.18D-04
 ErrMax= 1.18D-04  0.00D+00 EMaxC= 1.00D-01 BMatC= 2.98D-06 BMatP= 2.55D-05
 IDIUse=3 WtCom= 9.99D-01 WtEn= 1.18D-03
 Coeff-Com: -0.343D-02 0.737D-02 0.339D-01 0.466D-01 0.164D+00 0.331D+00
 Coeff-Com:  0.421D+00
 Coeff-En:   0.000D+00 0.000D+00 0.000D+00 0.000D+00 0.000D+00 0.485D-01
 Coeff-En:   0.951D+00
 Coeff:     -0.343D-02 0.736D-02 0.339D-01 0.465D-01 0.163D+00 0.331D+00
 Coeff:      0.421D+00
 Gap=     0.135 Goal=   None    Shift=    0.000
 RMSDP=6.24D-06 MaxDP=2.04D-04 DE=-1.97D-05 OVMax= 6.92D-04

 Cycle   8  Pass 1  IDiag  1:
 RMSU=  4.50D-06    CP:  9.91D-01  1.90D+00  7.24D-01  5.08D-01  6.37D-01
                    CP:  6.05D-01  6.19D-01
 E= -805.172079256214     Delta-E=       -0.000002495496 Rises=F Damp=F
 DIIS: error= 4.23D-05 at cycle   8 NSaved=   8.
 NSaved= 8 IEnMin= 8 EnMin= -805.172079256214     IErMin= 8 ErrMin= 4.23D-05
 ErrMax= 4.23D-05  0.00D+00 EMaxC= 1.00D-01 BMatC= 2.37D-07 BMatP= 2.98D-06
 IDIUse=1 WtCom= 1.00D+00 WtEn= 0.00D+00
 Coeff-Com: -0.129D-02 0.253D-02 0.117D-01 0.163D-01 0.637D-01 0.143D+00
 Coeff-Com:  0.259D+00 0.506D+00
 Coeff:     -0.129D-02 0.253D-02 0.117D-01 0.163D-01 0.637D-01 0.143D+00
 Coeff:      0.259D+00 0.506D+00
 Gap=     0.135 Goal=   None    Shift=    0.000
 RMSDP=2.05D-06 MaxDP=8.38D-05 DE=-2.50D-06 OVMax= 2.17D-04

 Cycle   9  Pass 1  IDiag  1:
 RMSU=  1.42D-06    CP:  9.91D-01  1.90D+00  7.23D-01  5.08D-01  6.42D-01
                    CP:  6.12D-01  6.66D-01  7.31D-01
 E= -805.172079464386     Delta-E=       -0.000000208172 Rises=F Damp=F
 DIIS: error= 2.22D-05 at cycle   9 NSaved=   9.
 NSaved= 9 IEnMin= 9 EnMin= -805.172079464386     IErMin= 9 ErrMin= 2.22D-05
 ErrMax= 2.22D-05  0.00D+00 EMaxC= 1.00D-01 BMatC= 5.95D-08 BMatP= 2.37D-07
 IDIUse=1 WtCom= 1.00D+00 WtEn= 0.00D+00
 Coeff-Com: -0.367D-03 0.582D-03 0.244D-02 0.351D-02 0.177D-01 0.465D-01
 Coeff-Com:  0.116D+00 0.363D+00 0.451D+00
 Coeff:     -0.367D-03 0.582D-03 0.244D-02 0.351D-02 0.177D-01 0.465D-01
 Coeff:      0.116D+00 0.363D+00 0.451D+00
 Gap=     0.135 Goal=   None    Shift=    0.000
 RMSDP=7.09D-07 MaxDP=3.24D-05 DE=-2.08D-07 OVMax= 7.19D-05

 Cycle  10  Pass 1  IDiag  1:
 RMSU=  4.94D-07    CP:  9.91D-01  1.90D+00  7.23D-01  5.08D-01  6.41D-01
                    CP:  6.18D-01  6.66D-01  7.68D-01  7.14D-01
 E= -805.172079511606     Delta-E=       -0.000000047220 Rises=F Damp=F
 DIIS: error= 1.46D-06 at cycle  10 NSaved=  10.
 NSaved=10 IEnMin=10 EnMin= -805.172079511606     IErMin=10 ErrMin= 1.46D-06
 ErrMax= 1.46D-06  0.00D+00 EMaxC= 1.00D-01 BMatC= 6.57D-10 BMatP= 5.95D-08
 IDIUse=1 WtCom= 1.00D+00 WtEn= 0.00D+00
 Coeff-Com: -0.561D-04 0.601D-04 0.193D-03 0.269D-03 0.218D-02 0.702D-02
 Coeff-Com:  0.224D-01 0.933D-01 0.160D+00 0.715D+00
 Coeff:     -0.561D-04 0.601D-04 0.193D-03 0.269D-03 0.218D-02 0.702D-02
 Coeff:      0.224D-01 0.933D-01 0.160D+00 0.715D+00
 Gap=     0.135 Goal=   None    Shift=    0.000
 RMSDP=1.62D-07 MaxDP=5.00D-06 DE=-4.72D-08 OVMax= 6.99D-06

 Cycle  11  Pass 1  IDiag  1:
 RMSU=  1.05D-07    CP:  9.91D-01  1.90D+00  7.23D-01  5.08D-01  6.41D-01
                    CP:  6.18D-01  6.71D-01  7.85D-01  7.27D-01  8.60D-01
 E= -805.172079507995     Delta-E=        0.000000003612 Rises=F Damp=F
 DIIS: error= 7.75D-07 at cycle  11 NSaved=  11.
 NSaved=11 IEnMin=10 EnMin= -805.172079511606     IErMin=11 ErrMin= 7.75D-07
 ErrMax= 7.75D-07  0.00D+00 EMaxC= 1.00D-01 BMatC= 1.01D-10 BMatP= 6.57D-10
 IDIUse=1 WtCom= 1.00D+00 WtEn= 0.00D+00
 Coeff-Com: -0.494D-05-0.588D-05-0.749D-04-0.116D-03-0.125D-03 0.251D-03
 Coeff-Com:  0.347D-02 0.229D-01 0.499D-01 0.351D+00 0.573D+00
 Coeff:     -0.494D-05-0.588D-05-0.749D-04-0.116D-03-0.125D-03 0.251D-03
 Coeff:      0.347D-02 0.229D-01 0.499D-01 0.351D+00 0.573D+00
 Gap=     0.135 Goal=   None    Shift=    0.000
 RMSDP=4.30D-08 MaxDP=1.54D-06 DE= 3.61D-09 OVMax= 2.23D-06

 Cycle  12  Pass 1  IDiag  1:
 RMSU=  2.94D-08    CP:  9.91D-01  1.90D+00  7.23D-01  5.08D-01  6.41D-01
                    CP:  6.18D-01  6.72D-01  7.86D-01  7.34D-01  8.89D-01
                    CP:  8.09D-01
 E= -805.172079508083     Delta-E=       -0.000000000088 Rises=F Damp=F
 DIIS: error= 2.34D-07 at cycle  12 NSaved=  12.
 NSaved=12 IEnMin=10 EnMin= -805.172079511606     IErMin=12 ErrMin= 2.34D-07
 ErrMax= 2.34D-07  0.00D+00 EMaxC= 1.00D-01 BMatC= 9.76D-12 BMatP= 1.01D-10
 IDIUse=1 WtCom= 1.00D+00 WtEn= 0.00D+00
 Coeff-Com:  0.207D-05-0.676D-05-0.464D-04-0.720D-04-0.229D-03-0.500D-03
 Coeff-Com: -0.402D-03 0.260D-02 0.958D-02 0.106D+00 0.292D+00 0.591D+00
 Coeff:      0.207D-05-0.676D-05-0.464D-04-0.720D-04-0.229D-03-0.500D-03
 Coeff:     -0.402D-03 0.260D-02 0.958D-02 0.106D+00 0.292D+00 0.591D+00
 Gap=     0.135 Goal=   None    Shift=    0.000
 RMSDP=1.41D-08 MaxDP=4.29D-07 DE=-8.80D-11 OVMax= 5.90D-07

 Cycle  13  Pass 1  IDiag  1:
 RMSU=  6.91D-09    CP:  9.91D-01  1.90D+00  7.23D-01  5.08D-01  6.42D-01
                    CP:  6.18D-01  6.72D-01  7.87D-01  7.37D-01  9.02D-01
                    CP:  8.11D-01  7.39D-01
 E= -805.172079512232     Delta-E=       -0.000000004150 Rises=F Damp=F
 DIIS: error= 2.30D-08 at cycle  13 NSaved=  13.
 NSaved=13 IEnMin=13 EnMin= -805.172079512232     IErMin=13 ErrMin= 2.30D-08
 ErrMax= 2.30D-08  0.00D+00 EMaxC= 1.00D-01 BMatC= 1.26D-13 BMatP= 9.76D-12
 IDIUse=1 WtCom= 1.00D+00 WtEn= 0.00D+00
 Coeff-Com:  0.392D-06-0.102D-05-0.729D-05-0.117D-04-0.459D-04-0.132D-03
 Coeff-Com: -0.260D-03-0.273D-03 0.758D-03 0.145D-01 0.571D-01 0.164D+00
 Coeff-Com:  0.764D+00
 Coeff:      0.392D-06-0.102D-05-0.729D-05-0.117D-04-0.459D-04-0.132D-03
 Coeff:     -0.260D-03-0.273D-03 0.758D-03 0.145D-01 0.571D-01 0.164D+00
 Coeff:      0.764D+00
 Gap=     0.135 Goal=   None    Shift=    0.000
 RMSDP=3.13D-09 MaxDP=1.12D-07 DE=-4.15D-09 OVMax= 1.22D-07

 Error on total polarization charges =  0.01649
 SCF Done:  E(RB-P86) =  -805.172079512     A.U. after   13 cycles
            NFock= 13  Conv=0.31D-08     -V/T= 2.0038
 KE= 8.021514189926D+02 PE=-2.891901771713D+03 EE= 7.855460541458D+02
 Leave Link  502 at Sat Aug 21 09:31:28 2021, MaxMem=   104857600 cpu:             363.9 elap:              15.5
 (Enter /sw/arch/RedHatEnterpriseServer7/EB_production/2020/software/Gaussian/g16.c01/l601.exe)
 Copying SCF densities to generalized density rwf, IOpCl= 0 IROHF=0.

 **********************************************************************

            Population analysis using the SCF Density.

 **********************************************************************

 Orbital symmetries:
       Occupied  (A) (A) (A) (A) (A) (A) (A) (A) (A) (A) (A) (A)
                 (A) (A) (A) (A) (A) (A) (A) (A) (A) (A) (A) (A)
                 (A) (A) (A) (A) (A) (A) (A) (A) (A) (A) (A) (A)
                 (A) (A) (A)
       Virtual   (A) (A) (A) (A) (A) (A) (A) (A) (A) (A) (A) (A)
                 (A) (A) (A) (A) (A) (A) (A) (A) (A) (A) (A) (A)
                 (A) (A) (A) (A) (A) (A) (A) (A) (A) (A) (A) (A)
                 (A) (A) (A) (A) (A) (A) (A) (A) (A) (A) (A) (A)
                 (A) (A) (A) (A) (A) (A) (A) (A) (A) (A) (A) (A)
                 (A) (A) (A) (A) (A) (A) (A) (A) (A) (A) (A) (A)
                 (A) (A) (A) (A) (A) (A) (A) (A) (A) (A) (A) (A)
                 (A) (A) (A) (A) (A) (A) (A) (A) (A) (A) (A) (A)
                 (A) (A) (A) (A) (A) (A) (A) (A) (A) (A) (A) (A)
                 (A) (A) (A) (A) (A) (A) (A) (A) (A) (A) (A) (A)
                 (A) (A) (A) (A) (A) (A) (A) (A) (A) (A) (A) (A)
                 (A) (A) (A) (A) (A) (A) (A) (A) (A) (A) (A) (A)
                 (A) (A) (A) (A) (A) (A) (A) (A) (A) (A) (A) (A)
                 (A) (A) (A) (A) (A) (A) (A) (A) (A) (A) (A) (A)
                 (A) (A) (A) (A) (A) (A) (A) (A) (A) (A) (A) (A)
                 (A) (A) (A) (A) (A) (A) (A) (A) (A) (A) (A) (A)
                 (A) (A) (A) (A) (A) (A) (A) (A) (A)
 The electronic state is 1-A.
 Alpha  occ. eigenvalues -- -100.63774 -14.11482 -14.11234  -9.99745  -9.96724
 Alpha  occ. eigenvalues --   -9.96265  -9.96118  -9.96070  -9.90875  -9.07625
 Alpha  occ. eigenvalues --   -6.89466  -6.89433  -6.89422  -1.01457  -0.90930
 Alpha  occ. eigenvalues --   -0.75758  -0.72105  -0.68815  -0.62556  -0.61961
 Alpha  occ. eigenvalues --   -0.59594  -0.56769  -0.52019  -0.47627  -0.45912
 Alpha  occ. eigenvalues --   -0.44552  -0.44011  -0.41647  -0.41468  -0.40229
 Alpha  occ. eigenvalues --   -0.37839  -0.36401  -0.34953  -0.32841  -0.29700
 Alpha  occ. eigenvalues --   -0.24903  -0.20733  -0.20596  -0.20554
 Alpha virt. eigenvalues --   -0.07074  -0.03633   0.02278   0.02861   0.03861
 Alpha virt. eigenvalues --    0.05593   0.05999   0.06470   0.07142   0.08450
 Alpha virt. eigenvalues --    0.08610   0.08819   0.09542   0.10099   0.10683
 Alpha virt. eigenvalues --    0.12285   0.14299   0.15145   0.16288   0.17032
 Alpha virt. eigenvalues --    0.18108   0.18826   0.20154   0.20599   0.22369
 Alpha virt. eigenvalues --    0.22722   0.23509   0.24707   0.26055   0.27137
 Alpha virt. eigenvalues --    0.27791   0.30293   0.30770   0.32666   0.33493
 Alpha virt. eigenvalues --    0.34538   0.34905   0.35982   0.36116   0.37034
 Alpha virt. eigenvalues --    0.38355   0.39214   0.39450   0.39772   0.40797
 Alpha virt. eigenvalues --    0.41803   0.42440   0.43219   0.44319   0.44916
 Alpha virt. eigenvalues --    0.46037   0.47017   0.48329   0.49304   0.50277
 Alpha virt. eigenvalues --    0.51809   0.53830   0.55553   0.55717   0.58468
 Alpha virt. eigenvalues --    0.59740   0.63953   0.65184   0.67695   0.68564
 Alpha virt. eigenvalues --    0.71328   0.71906   0.81018   0.81030   0.81088
 Alpha virt. eigenvalues --    0.81845   0.84261   1.04146   1.04731   1.10258
 Alpha virt. eigenvalues --    1.13542   1.14561   1.15413   1.16796   1.18705
 Alpha virt. eigenvalues --    1.19233   1.20036   1.21781   1.22678   1.24725
 Alpha virt. eigenvalues --    1.25789   1.26557   1.27323   1.28055   1.30126
 Alpha virt. eigenvalues --    1.31075   1.33520   1.34758   1.34796   1.35983
 Alpha virt. eigenvalues --    1.37968   1.38860   1.41143   1.42185   1.43759
 Alpha virt. eigenvalues --    1.46135   1.48549   1.51065   1.52144   1.53864
 Alpha virt. eigenvalues --    1.55505   1.59999   1.61274   1.62408   1.63419
 Alpha virt. eigenvalues --    1.64605   1.66174   1.67267   1.67925   1.68722
 Alpha virt. eigenvalues --    1.69721   1.70531   1.70790   1.71183   1.73587
 Alpha virt. eigenvalues --    1.74724   1.76866   1.81954   1.83657   1.86316
 Alpha virt. eigenvalues --    1.86941   1.87546   1.88912   1.92598   1.97462
 Alpha virt. eigenvalues --    2.02793   2.04032   2.05658   2.07406   2.12508
 Alpha virt. eigenvalues --    2.16272   2.17791   2.18424   2.21609   2.22917
 Alpha virt. eigenvalues --    2.23331   2.24685   2.25217   2.26549   2.26813
 Alpha virt. eigenvalues --    2.28606   2.30181   2.33907   2.36144   2.36943
 Alpha virt. eigenvalues --    2.39131   2.39572   2.42238   2.42854   2.44291
 Alpha virt. eigenvalues --    2.45418   2.46430   2.49212   2.50092   2.51401
 Alpha virt. eigenvalues --    2.52182   2.52991   2.54729   2.56912   2.58340
 Alpha virt. eigenvalues --    2.64001   2.66735   2.70465   2.70839   2.74554
 Alpha virt. eigenvalues --    2.75029   2.79208   2.81493   2.86992   2.92419
 Alpha virt. eigenvalues --    2.95506   3.04046   3.11640   3.13318   3.16123
 Alpha virt. eigenvalues --    3.19651   3.20711   3.22184   3.23993   3.26935
 Alpha virt. eigenvalues --    3.28783   3.44971   3.47095   3.49838   3.61704
 Alpha virt. eigenvalues --    3.64323   3.75408  21.54471  21.67292  21.71741
 Alpha virt. eigenvalues --   21.75225  21.85498  21.90362  24.18681  31.45767
 Alpha virt. eigenvalues --   31.59131
          Condensed to atoms (all electrons):
               1          2          3          4          5          6
     1  C    5.088629   0.288903  -0.067368  -0.012750   0.002372  -0.000134
     2  C    0.288903   5.077830   0.232119  -0.051847   0.012833   0.002463
     3  N   -0.067368   0.232119   6.230465   0.412363  -0.088828  -0.068100
     4  C   -0.012750  -0.051847   0.412363   5.057861   0.471620  -0.104380
     5  C    0.002372   0.012833  -0.088828   0.471620   5.083683   0.424261
     6  N   -0.000134   0.002463  -0.068100  -0.104380   0.424261   6.157352
     7  C    0.000042  -0.000648   0.004815   0.013683  -0.061249   0.261400
     8  C   -0.010145  -0.051535   0.449117  -0.104635  -0.127364   0.463130
     9  Cl  -0.002228  -0.001178  -0.000765  -0.000101  -0.000282  -0.001099
    10  H    0.399701  -0.038453   0.007885   0.000433  -0.000062   0.000010
    11  H    0.390948  -0.033867  -0.001611   0.006500  -0.001156   0.000143
    12  H    0.385108  -0.029643  -0.003070  -0.003886   0.001122  -0.000631
    13  H   -0.042562   0.380453  -0.022660   0.009542  -0.002143   0.001264
    14  H   -0.043174   0.395691  -0.023136  -0.013584   0.002849  -0.000425
    15  H   -0.002528  -0.002588  -0.027859   0.409723  -0.040948   0.003615
    16  H   -0.000003   0.000025   0.003693  -0.027141   0.395910  -0.024507
    17  H   -0.000007   0.000043  -0.000365   0.003095  -0.012904  -0.020516
    18  H   -0.000022   0.000170   0.001361  -0.001933   0.009690  -0.019974
    19  H    0.000016  -0.000028   0.000032  -0.001253  -0.001142  -0.038089
    20  H   -0.002852  -0.002589  -0.041731   0.011028   0.004607  -0.039134
               7          8          9         10         11         12
     1  C    0.000042  -0.010145  -0.002228   0.399701   0.390948   0.385108
     2  C   -0.000648  -0.051535  -0.001178  -0.038453  -0.033867  -0.029643
     3  N    0.004815   0.449117  -0.000765   0.007885  -0.001611  -0.003070
     4  C    0.013683  -0.104635  -0.000101   0.000433   0.006500  -0.003886
     5  C   -0.061249  -0.127364  -0.000282  -0.000062  -0.001156   0.001122
     6  N    0.261400   0.463130  -0.001099   0.000010   0.000143  -0.000631
     7  C    4.967825  -0.063320  -0.001541   0.000001  -0.000002  -0.000013
     8  C   -0.063320   5.044434  -0.022960   0.000448  -0.001987   0.005189
     9  Cl  -0.001541  -0.022960  17.871726  -0.000006   0.000051   0.003883
    10  H    0.000001   0.000448  -0.000006   0.506995  -0.019973  -0.019425
    11  H   -0.000002  -0.001987   0.000051  -0.019973   0.537664  -0.023618
    12  H   -0.000013   0.005189   0.003883  -0.019425  -0.023618   0.540599
    13  H    0.000156  -0.007670   0.007748  -0.001866   0.007418  -0.006606
    14  H    0.000032   0.007985   0.000151  -0.001320  -0.006638   0.007469
    15  H   -0.000186   0.011622   0.000005   0.000044   0.000554  -0.000057
    16  H   -0.007816   0.010719   0.000004  -0.000001   0.000012   0.000014
    17  H    0.384217   0.008738   0.000152   0.000000  -0.000000  -0.000001
    18  H    0.370596  -0.006882   0.007227   0.000001  -0.000000   0.000011
    19  H    0.410313  -0.005240  -0.000032  -0.000000  -0.000000  -0.000002
    20  H   -0.005682   0.357133   0.052631   0.000085   0.000059   0.000430
              13         14         15         16         17         18
     1  C   -0.042562  -0.043174  -0.002528  -0.000003  -0.000007  -0.000022
     2  C    0.380453   0.395691  -0.002588   0.000025   0.000043   0.000170
     3  N   -0.022660  -0.023136  -0.027859   0.003693  -0.000365   0.001361
     4  C    0.009542  -0.013584   0.409723  -0.027141   0.003095  -0.001933
     5  C   -0.002143   0.002849  -0.040948   0.395910  -0.012904   0.009690
     6  N    0.001264  -0.000425   0.003615  -0.024507  -0.020516  -0.019974
     7  C    0.000156   0.000032  -0.000186  -0.007816   0.384217   0.370596
     8  C   -0.007670   0.007985   0.011622   0.010719   0.008738  -0.006882
     9  Cl   0.007748   0.000151   0.000005   0.000004   0.000152   0.007227
    10  H   -0.001866  -0.001320   0.000044  -0.000001   0.000000   0.000001
    11  H    0.007418  -0.006638   0.000554   0.000012  -0.000000  -0.000000
    12  H   -0.006606   0.007469  -0.000057   0.000014  -0.000001   0.000011
    13  H    0.521904  -0.021701   0.000308   0.000006  -0.000003  -0.000059
    14  H   -0.021701   0.513956  -0.000319   0.000029  -0.000001  -0.000002
    15  H    0.000308  -0.000319   0.465857   0.001183   0.000031   0.000006
    16  H    0.000006   0.000029   0.001183   0.455744   0.000184   0.000226
    17  H   -0.000003  -0.000001   0.000031   0.000184   0.500051  -0.018596
    18  H   -0.000059  -0.000002   0.000006   0.000226  -0.018596   0.506400
    19  H   -0.000012  -0.000002  -0.000011   0.000251  -0.023711  -0.021832
    20  H    0.001903  -0.000057  -0.000158  -0.000293  -0.000122   0.002109
              19         20
     1  C    0.000016  -0.002852
     2  C   -0.000028  -0.002589
     3  N    0.000032  -0.041731
     4  C   -0.001253   0.011028
     5  C   -0.001142   0.004607
     6  N   -0.038089  -0.039134
     7  C    0.410313  -0.005682
     8  C   -0.005240   0.357133
     9  Cl  -0.000032   0.052631
    10  H   -0.000000   0.000085
    11  H   -0.000000   0.000059
    12  H   -0.000002   0.000430
    13  H   -0.000012   0.001903
    14  H   -0.000002  -0.000057
    15  H   -0.000011  -0.000158
    16  H    0.000251  -0.000293
    17  H   -0.023711  -0.000122
    18  H   -0.021832   0.002109
    19  H    0.486706  -0.000016
    20  H   -0.000016   0.559210
 Mulliken charges:
               1
     1  C   -0.371945
     2  C   -0.178153
     3  N    0.003644
     4  C   -0.074339
     5  C   -0.072869
     6  N    0.003351
     7  C   -0.272623
     8  C    0.043225
     9  Cl  -0.913384
    10  H    0.165505
    11  H    0.145504
    12  H    0.143128
    13  H    0.174581
    14  H    0.182198
    15  H    0.181707
    16  H    0.191761
    17  H    0.179715
    18  H    0.171504
    19  H    0.194051
    20  H    0.103439
 Sum of Mulliken charges =  -0.00000
 Mulliken charges with hydrogens summed into heavy atoms:
               1
     1  C    0.082192
     2  C    0.178626
     3  N    0.003644
     4  C    0.107368
     5  C    0.118893
     6  N    0.003351
     7  C    0.272646
     8  C    0.146665
     9  Cl  -0.913384
 Electronic spatial extent (au):  <R**2>=           2073.2862
 Charge=             -0.0000 electrons
 Dipole moment (field-independent basis, Debye):
    X=            -19.0167    Y=             -1.9101    Z=             -0.0558  Tot=             19.1125
 Quadrupole moment (field-independent basis, Debye-Ang):
   XX=           -102.8526   YY=            -40.2345   ZZ=            -63.9134
   XY=             -0.4134   XZ=              2.0760   YZ=             -3.1705
 Traceless Quadrupole moment (field-independent basis, Debye-Ang):
   XX=            -33.8524   YY=             28.7656   ZZ=              5.0868
   XY=             -0.4134   XZ=              2.0760   YZ=             -3.1705
 Octapole moment (field-independent basis, Debye-Ang**2):
  XXX=           -236.8809  YYY=            -24.3781  ZZZ=             -0.5434  XYY=            -25.8820
  XXY=             -7.1348  XXZ=              1.7613  XZZ=             -6.2713  YZZ=             -0.5369
  YYZ=              1.1252  XYZ=              3.3207
 Hexadecapole moment (field-independent basis, Debye-Ang**3):
 XXXX=          -2123.9314 YYYY=           -911.1960 ZZZZ=           -149.4509 XXXY=              3.0659
 XXXZ=             24.1826 YYYX=             13.2032 YYYZ=            -25.7095 ZZZX=              2.2283
 ZZZY=             -5.9985 XXYY=           -420.3793 XXZZ=           -303.5264 YYZZ=           -198.5879
 XXYZ=            -10.8647 YYXZ=             -0.8162 ZZXY=             -4.2267
 N-N= 4.990322190621D+02 E-N=-2.891901773516D+03  KE= 8.021514189926D+02
 No NMR shielding tensors so no spin-rotation constants.
 Leave Link  601 at Sat Aug 21 09:31:29 2021, MaxMem=   104857600 cpu:               4.7 elap:               0.2
 (Enter /sw/arch/RedHatEnterpriseServer7/EB_production/2020/software/Gaussian/g16.c01/l701.exe)
 ... and contract with generalized density number  0.
 Compute integral first derivatives.
 R6Disp: Adding Grimme-D3 dispersion energy 1st derivatives to the gradient.
 D1PCM: PCM CHGder 1st derivatives, ID1Alg=3 FixD1E=F DoIter=F DoCFld=F I1PDM=0.
 GePol: Maximum number of non-zero 1st derivatives   =     284
 Leave Link  701 at Sat Aug 21 09:31:30 2021, MaxMem=   104857600 cpu:              20.2 elap:               0.9
 (Enter /sw/arch/RedHatEnterpriseServer7/EB_production/2020/software/Gaussian/g16.c01/l702.exe)
 L702 exits ... SP integral derivatives will be done elsewhere.
 Leave Link  702 at Sat Aug 21 09:31:30 2021, MaxMem=   104857600 cpu:               0.4 elap:               0.0
 (Enter /sw/arch/RedHatEnterpriseServer7/EB_production/2020/software/Gaussian/g16.c01/l703.exe)
 Integral derivatives from FoFJK, PRISM(SPDF).
 Compute integral first derivatives, UseDBF=F ICtDFT=           0.
 Calling FoFJK, ICntrl=      2527 FMM=F ISym2X=0 I1Cent= 0 IOpClX= 0 NMat=1 NMatS=1 NMatT=0.
 FoFJK:  IHMeth= 1 ICntrl=    2527 DoSepK=F KAlg= 0 I1Cent=           0 FoldK=F
 IRaf=         0 NMat=       1 IRICut=       1 DoRegI=T DoRafI=F ISym2E= 0 IDoP0=0 IntGTp=1.
 FoFCou: FMM=F IPFlag=           0 FMFlag=      100000 FMFlg1=         800
         NFxFlg=           0 DoJE=F BraDBF=F KetDBF=F FulRan=T
         wScrn=  0.000000 ICntrl=      2527 IOpCl=  0 I1Cent=           0 NGrid=           0
         NMat0=    1 NMatS0=      1 NMatT0=    0 NMatD0=    1 NMtDS0=    0 NMtDT0=    0
 Symmetry not used in FoFCou.
 Leave Link  703 at Sat Aug 21 09:31:32 2021, MaxMem=   104857600 cpu:              50.7 elap:               2.2
 (Enter /sw/arch/RedHatEnterpriseServer7/EB_production/2020/software/Gaussian/g16.c01/l716.exe)
 Dipole        =-7.48173899D+00-7.51503980D-01-2.19537477D-02
 ***** Axes restored to original set *****
 -------------------------------------------------------------------
 Center     Atomic                   Forces (Hartrees/Bohr)
 Number     Number              X              Y              Z
 -------------------------------------------------------------------
      1        6          -0.003966314    0.003844750    0.007825622
      2        6           0.011817038   -0.008229616    0.014420852
      3        7          -0.012074037   -0.014592787   -0.010304946
      4        6          -0.000371193    0.032298693   -0.023218974
      5        6           0.019893776    0.034497193   -0.004699156
      6        7           0.007140730   -0.011067272    0.014307894
      7        6          -0.013560679   -0.008464600   -0.007054440
      8        6          -0.007629998   -0.026467920    0.011368636
      9       17           0.000756466    0.002543718   -0.000910594
     10        1          -0.004787446    0.001984539   -0.004973991
     11        1          -0.000040219   -0.006725459    0.002238354
     12        1           0.006054624    0.003546373    0.000252884
     13        1          -0.002312203    0.007901969   -0.005854766
     14        1          -0.009135403   -0.003506578   -0.004906537
     15        1           0.003051918   -0.001357373    0.003245160
     16        1          -0.004065233   -0.001459206   -0.001766322
     17        1           0.007331217   -0.005314375    0.004484865
     18        1           0.006828094    0.005261984   -0.004051647
     19        1          -0.002330243    0.004149238    0.005779088
     20        1          -0.002600896   -0.008843271    0.003818019
 -------------------------------------------------------------------
 Cartesian Forces:  Max     0.034497193 RMS     0.010413670
 Leave Link  716 at Sat Aug 21 09:31:33 2021, MaxMem=   104857600 cpu:               0.7 elap:               0.1
 (Enter /sw/arch/RedHatEnterpriseServer7/EB_production/2020/software/Gaussian/g16.c01/l103.exe)

 GradGradGradGradGradGradGradGradGradGradGradGradGradGradGradGradGradGrad
 Berny optimization.
 FormGI is forming the generalized inverse of G from B-inverse, IUseBI=4.
 Internal  Forces:  Max     0.034195762 RMS     0.007203272
 Search for a local minimum.
 Step number   1 out of a maximum of  106
 All quantities printed in internal units (Hartrees-Bohrs-Radians)
 RMS Force = .72033D-02 SwitMx=.10000D-02 MixMth= 1
 Mixed Optimization -- RFO/linear search
 Second derivative matrix not updated -- first step.
 ITU=  0
     Eigenvalues ---    0.00230   0.00230   0.00454   0.00898   0.00938
     Eigenvalues ---    0.01644   0.01759   0.02360   0.02368   0.02372
     Eigenvalues ---    0.02387   0.02390   0.02583   0.04497   0.05597
     Eigenvalues ---    0.05742   0.05805   0.07527   0.07562   0.09070
     Eigenvalues ---    0.12610   0.16000   0.16000   0.16000   0.16000
     Eigenvalues ---    0.16000   0.16000   0.16000   0.16000   0.16000
     Eigenvalues ---    0.21944   0.22809   0.23537   0.24862   0.24943
     Eigenvalues ---    0.30024   0.32416   0.32417   0.32523   0.32524
     Eigenvalues ---    0.32524   0.32524   0.32568   0.32606   0.35616
     Eigenvalues ---    0.35714   0.35716   0.36965   0.37341   0.44272
     Eigenvalues ---    0.48266   0.52650   0.55465   0.55577
 RFO step:  Lambda=-1.49693374D-02 EMin= 2.30000000D-03
 Linear search not attempted -- first point.
 Iteration  1 RMS(Cart)=  0.04235963 RMS(Int)=  0.00085573
 Iteration  2 RMS(Cart)=  0.00109151 RMS(Int)=  0.00038553
 Iteration  3 RMS(Cart)=  0.00000044 RMS(Int)=  0.00038553
 ITry= 1 IFail=0 DXMaxC= 1.67D-01 DCOld= 1.00D+10 DXMaxT= 3.00D-01 DXLimC= 3.00D+00 Rises=F
 Variable       Old X    -DE/DX   Delta X   Delta X   Delta X     New X
                                 (Linear)    (Quad)   (Total)
    R1        2.87915   0.00653   0.00000   0.02071   0.02071   2.89986
    R2        2.09816  -0.00716   0.00000  -0.02103  -0.02103   2.07713
    R3        2.09895  -0.00678   0.00000  -0.01993  -0.01993   2.07902
    R4        2.09896  -0.00680   0.00000  -0.01999  -0.01999   2.07897
    R5        2.75899   0.00552   0.00000   0.01434   0.01434   2.77333
    R6        2.10088  -0.00844   0.00000  -0.02489  -0.02489   2.07599
    R7        2.10088  -0.00876   0.00000  -0.02582  -0.02582   2.07506
    R8        2.54794   0.03380   0.00000   0.05969   0.05971   2.60766
    R9        2.54638   0.00011   0.00000  -0.00057  -0.00059   2.54579
   R10        2.60848  -0.00952   0.00000  -0.01782  -0.01778   2.59070
   R11        2.04528   0.00129   0.00000   0.00347   0.00347   2.04875
   R12        2.54688   0.03420   0.00000   0.06029   0.06029   2.60717
   R13        2.04531   0.00121   0.00000   0.00325   0.00325   2.04857
   R14        2.75336   0.00332   0.00000   0.00855   0.00855   2.76191
   R15        2.54529   0.00059   0.00000   0.00029   0.00025   2.54554
   R16        2.09896  -0.00963   0.00000  -0.02832  -0.02832   2.07064
   R17        2.09897  -0.00930   0.00000  -0.02732  -0.02732   2.07165
   R18        2.09750  -0.00748   0.00000  -0.02194  -0.02194   2.07555
   R19        2.04686   0.00717   0.00000   0.01933   0.01933   2.06619
   R20        4.72432  -0.00280   0.00000  -0.06868  -0.06868   4.65564
    A1        1.91412  -0.00020   0.00000  -0.00249  -0.00248   1.91164
    A2        1.92137   0.00262   0.00000   0.01581   0.01573   1.93710
    A3        1.92140   0.00204   0.00000   0.01217   0.01209   1.93350
    A4        1.90023  -0.00137   0.00000  -0.00884  -0.00882   1.89141
    A5        1.90019  -0.00119   0.00000  -0.00844  -0.00843   1.89176
    A6        1.90623  -0.00199   0.00000  -0.00872  -0.00887   1.89736
    A7        1.92458   0.00641   0.00000   0.02771   0.02797   1.95255
    A8        1.91050   0.00181   0.00000   0.02893   0.02904   1.93955
    A9        1.91040   0.00255   0.00000   0.03214   0.03235   1.94275
   A10        1.91638  -0.00519   0.00000  -0.03967  -0.04041   1.87597
   A11        1.91649  -0.00625   0.00000  -0.04961  -0.05028   1.86621
   A12        1.88503   0.00057   0.00000   0.00029  -0.00187   1.88316
   A13        2.21440  -0.00471   0.00000  -0.01885  -0.01884   2.19556
   A14        2.21436  -0.01237   0.00000  -0.04777  -0.04773   2.16663
   A15        1.85316   0.01707   0.00000   0.06644   0.06640   1.91956
   A16        1.88868  -0.00780   0.00000  -0.02734  -0.02735   1.86133
   A17        2.18354  -0.00067   0.00000  -0.01241  -0.01245   2.17109
   A18        2.21096   0.00847   0.00000   0.03982   0.03975   2.25071
   A19        1.88839  -0.00768   0.00000  -0.02680  -0.02678   1.86161
   A20        2.21084   0.00842   0.00000   0.03954   0.03952   2.25036
   A21        2.18394  -0.00074   0.00000  -0.01277  -0.01277   2.17116
   A22        2.21301  -0.00498   0.00000  -0.01953  -0.01953   2.19348
   A23        1.85411   0.01670   0.00000   0.06566   0.06558   1.91969
   A24        2.21303  -0.01171   0.00000  -0.04500  -0.04500   2.16803
   A25        1.92172  -0.00415   0.00000  -0.02463  -0.02472   1.89700
   A26        1.92171  -0.00221   0.00000  -0.01271  -0.01280   1.90891
   A27        1.91206   0.00101   0.00000   0.00674   0.00676   1.91882
   A28        1.89581   0.00280   0.00000   0.01416   0.01395   1.90976
   A29        1.90613   0.00160   0.00000   0.00927   0.00929   1.91542
   A30        1.90619   0.00102   0.00000   0.00759   0.00761   1.91379
   A31        1.94027  -0.01829   0.00000  -0.07758  -0.07768   1.86259
   A32        2.17122   0.00871   0.00000   0.03635   0.03637   2.20760
   A33        2.17168   0.00958   0.00000   0.04129   0.04132   2.21299
   A34        3.14159  -0.00066   0.00000  -0.03841  -0.03841   3.10318
   A35        3.14159  -0.00011   0.00000  -0.00660  -0.00660   3.13500
    D1       -3.14135   0.00030   0.00000   0.00581   0.00582  -3.13553
    D2        1.03176   0.00151   0.00000   0.01889   0.01893   1.05069
    D3       -1.03120  -0.00176   0.00000  -0.01752  -0.01758  -1.04878
    D4       -1.05095   0.00011   0.00000   0.00318   0.00315  -1.04780
    D5        3.12215   0.00132   0.00000   0.01625   0.01625   3.13841
    D6        1.05919  -0.00195   0.00000  -0.02016  -0.02025   1.03894
    D7        1.05147   0.00062   0.00000   0.01023   0.01028   1.06176
    D8       -1.05860   0.00183   0.00000   0.02330   0.02339  -1.03522
    D9       -3.12156  -0.00144   0.00000  -0.01311  -0.01312  -3.13469
   D10        1.54546   0.00008   0.00000  -0.00677  -0.00662   1.53885
   D11       -1.53460  -0.00016   0.00000  -0.00463  -0.00484  -1.53943
   D12       -2.63116   0.00308   0.00000   0.02134   0.02058  -2.61058
   D13        0.57197   0.00285   0.00000   0.02348   0.02236   0.59432
   D14       -0.56104  -0.00316   0.00000  -0.03247  -0.03132  -0.59236
   D15        2.64209  -0.00339   0.00000  -0.03033  -0.02954   2.61255
   D16       -3.10375   0.00093   0.00000   0.02066   0.02083  -3.08292
   D17        0.04251   0.00036   0.00000   0.00495   0.00565   0.04817
   D18       -0.01340   0.00040   0.00000   0.01604   0.01632   0.00292
   D19        3.13286  -0.00018   0.00000   0.00033   0.00114   3.13401
   D20        3.09417  -0.00052   0.00000  -0.01021  -0.01002   3.08415
   D21       -0.05346  -0.00014   0.00000  -0.00079  -0.00071  -0.05417
   D22        0.00382  -0.00028   0.00000  -0.00672  -0.00663  -0.00281
   D23        3.13938   0.00010   0.00000   0.00271   0.00268  -3.14113
   D24        0.01835  -0.00078   0.00000  -0.02097  -0.02019  -0.00184
   D25       -3.11743  -0.00056   0.00000  -0.01568  -0.01518  -3.13261
   D26       -3.12801  -0.00022   0.00000  -0.00513  -0.00427  -3.13228
   D27        0.01939  -0.00000   0.00000   0.00016   0.00074   0.02013
   D28       -3.07763   0.00042   0.00000   0.00205   0.00183  -3.07581
   D29       -0.01556   0.00026   0.00000   0.01529   0.01573   0.00016
   D30        0.05826   0.00024   0.00000  -0.00291  -0.00267   0.05559
   D31        3.12033   0.00008   0.00000   0.01032   0.01123   3.13156
   D32       -0.57093   0.00012   0.00000  -0.00158  -0.00156  -0.57250
   D33       -2.66086   0.00067   0.00000   0.00445   0.00429  -2.65657
   D34        1.52566   0.00015   0.00000  -0.00124  -0.00131   1.52435
   D35        2.66605  -0.00099   0.00000  -0.02253  -0.02236   2.64369
   D36        0.57613  -0.00045   0.00000  -0.01650  -0.01651   0.55961
   D37       -1.52053  -0.00096   0.00000  -0.02219  -0.02211  -1.54265
   D38        0.00745  -0.00009   0.00000  -0.00562  -0.00583   0.00162
   D39       -3.12810  -0.00047   0.00000  -0.01503  -0.01516   3.13993
   D40        3.06952   0.00016   0.00000   0.00913   0.00923   3.07875
   D41       -0.06603  -0.00022   0.00000  -0.00027  -0.00010  -0.06613
         Item               Value     Threshold  Converged?
 Maximum Force            0.034196     0.000450     NO 
 RMS     Force            0.007203     0.000300     NO 
 Maximum Displacement     0.166772     0.001800     NO 
 RMS     Displacement     0.042388     0.001200     NO 
 Predicted change in Energy=-7.950735D-03
 Lowest energy point so far.  Saving SCF results.
 GradGradGradGradGradGradGradGradGradGradGradGradGradGradGradGradGradGrad

 Leave Link  103 at Sat Aug 21 09:31:33 2021, MaxMem=   104857600 cpu:               4.8 elap:               0.2
 (Enter /sw/arch/RedHatEnterpriseServer7/EB_production/2020/software/Gaussian/g16.c01/l202.exe)
                          Input orientation:                          
 ---------------------------------------------------------------------
 Center     Atomic      Atomic             Coordinates (Angstroms)
 Number     Number       Type             X           Y           Z
 ---------------------------------------------------------------------
      1          6           0        1.107210    0.077992    2.442922
      2          6           0        1.632609   -0.447225    1.100195
      3          7           0        0.733267   -0.108630   -0.009013
      4          6           0        0.771866    1.052398   -0.753781
      5          6           0       -0.282817    0.993650   -1.627664
      6          7           0       -0.928336   -0.202048   -1.388799
      7          6           0       -2.066977   -0.721637   -2.143536
      8          6           0       -0.304639   -0.872782   -0.401053
      9         17           0       -1.192616   -4.011473    1.016186
     10          1           0        1.810977   -0.190748    3.243339
     11          1           0        1.004623    1.173219    2.424715
     12          1           0        0.127916   -0.364325    2.678838
     13          1           0        1.738999   -1.540500    1.116921
     14          1           0        2.613501   -0.016372    0.859393
     15          1           0        1.509289    1.836978   -0.627174
     16          1           0       -0.583946    1.712311   -2.381336
     17          1           0       -2.678404    0.122287   -2.482040
     18          1           0       -2.667693   -1.370044   -1.495063
     19          1           0       -1.711621   -1.293921   -3.011034
     20          1           0       -0.585665   -1.847087    0.007897
 ---------------------------------------------------------------------
                    Distance matrix (angstroms):
                    1          2          3          4          5
     1  C    0.000000
     2  C    1.534539   0.000000
     3  N    2.487297   1.467585   0.000000
     4  C    3.358695   2.535148   1.379912   0.000000
     5  C    4.397757   3.631279   2.206236   1.370940   0.000000
     6  N    4.347868   3.579615   2.161819   2.206257   1.379654
     7  C    5.634755   4.927883   3.573980   3.624589   2.528154
     8  C    3.314435   2.487523   1.347172   2.233740   2.233521
     9  Cl   4.903927   4.548935   4.471268   5.712684   5.733143
    10  H    1.099171   2.165794   3.427243   4.313019   5.432627
    11  H    1.100172   2.185076   2.764019   3.189296   4.255762
    12  H    1.100145   2.182449   2.767015   3.768905   4.534176
    13  H    2.185624   1.098566   2.080739   3.340358   4.247634
    14  H    2.187552   1.098076   2.073143   2.671371   3.948956
    15  H    3.561065   2.866461   2.183970   1.084153   2.218969
    16  H    5.366979   4.658087   3.267842   2.218703   1.084055
    17  H    6.211931   5.633967   4.220034   3.969426   2.688507
    18  H    5.643973   5.106815   3.919954   4.271802   3.360397
    19  H    6.290754   5.366840   4.049015   4.094888   3.031201
    20  H    3.535689   2.841384   2.182223   3.290905   3.291893
                    6          7          8          9         10
     6  N    0.000000
     7  C    1.461542   0.000000
     8  C    1.347043   2.482927   0.000000
     9  Cl   4.512817   4.644499   3.556466   0.000000
    10  H    5.381512   6.658738   4.268793   5.346000   0.000000
    11  H    4.491166   5.821866   3.726292   5.804553   1.783469
    12  H    4.205671   5.310416   3.151406   4.220178   1.783672
    13  H    3.896763   5.078048   2.631834   3.835390   2.519656
    14  H    4.199221   5.605520   3.292067   5.520139   2.521439
    15  H    3.267984   4.651402   3.268679   6.648706   4.379904
    16  H    2.183691   2.860076   3.268370   6.683962   6.402676
    17  H    2.088805   1.095736   3.309899   5.615437   7.282341
    18  H    2.097825   1.096271   2.651066   3.931841   6.625834
    19  H    2.106507   1.098335   2.994822   4.885996   7.262429
    20  H    2.185025   2.844220   1.093383   2.463657   4.353784
                   11         12         13         14         15
    11  H    0.000000
    12  H    1.788082   0.000000
    13  H    3.100630   2.533488   0.000000
    14  H    2.540443   3.099934   1.775962   0.000000
    15  H    3.163746   4.205192   3.808148   2.619938   0.000000
    16  H    5.090412   5.515843   5.311747   4.869737   2.733909
    17  H    6.224579   5.894648   5.935556   6.260085   4.890549
    18  H    5.942958   5.123314   5.125471   5.938595   5.337172
    19  H    6.558363   6.051668   5.385870   5.942981   5.085232
    20  H    4.182376   3.137149   2.593838   3.783018   4.285380
                   16         17         18         19         20
    16  H    0.000000
    17  H    2.631553   0.000000
    18  H    3.824709   1.789215   0.000000
    19  H    3.271942   1.794478   1.793889   0.000000
    20  H    4.286928   3.802338   2.611762   3.269207   0.000000
 Stoichiometry    C6H11ClN2
 Framework group  C1[X(C6H11ClN2)]
 Deg. of freedom    54
 Full point group                 C1      NOp   1
 RotChk:  IX=0 Diff= 1.19D-01
 Largest Abelian subgroup         C1      NOp   1
 Largest concise Abelian subgroup C1      NOp   1
                         Standard orientation:                         
 ---------------------------------------------------------------------
 Center     Atomic      Atomic             Coordinates (Angstroms)
 Number     Number       Type             X           Y           Z
 ---------------------------------------------------------------------
      1          6           0       -0.392973    2.815735    0.792130
      2          6           0       -0.538403    2.059842   -0.535382
      3          7           0       -0.983681    0.676467   -0.330920
      4          6           0       -2.294988    0.253432   -0.255618
      5          6           0       -2.259305   -1.089925    0.015666
      6          7           0       -0.927752   -1.442346    0.094482
      7          6           0       -0.414652   -2.796660    0.291115
      8          6           0       -0.152043   -0.361932   -0.118839
      9         17           0        3.399001   -0.170925   -0.073489
     10          1           0       -0.064862    3.845969    0.594297
     11          1           0       -1.351597    2.854516    1.330568
     12          1           0        0.354845    2.331164    1.437327
     13          1           0        0.416908    2.022534   -1.076526
     14          1           0       -1.278112    2.540439   -1.189315
     15          1           0       -3.155507    0.900451   -0.383149
     16          1           0       -3.084398   -1.781763    0.141193
     17          1           0       -1.120916   -3.352107    0.918257
     18          1           0        0.558422   -2.747472    0.793625
     19          1           0       -0.304446   -3.299976   -0.678868
     20          1           0        0.940867   -0.329837   -0.117457
 ---------------------------------------------------------------------
 Rotational constants (GHZ):           1.2959309           0.8277386           0.5302462
 Leave Link  202 at Sat Aug 21 09:31:33 2021, MaxMem=   104857600 cpu:               0.4 elap:               0.0
 (Enter /sw/arch/RedHatEnterpriseServer7/EB_production/2020/software/Gaussian/g16.c01/l301.exe)
 Standard basis: TZVP (5D, 7F)
 Ernie: Thresh=  0.10000D-02 Tol=  0.10000D-05 Strict=F.
 There are   249 symmetry adapted cartesian basis functions of A   symmetry.
 There are   240 symmetry adapted basis functions of A   symmetry.
   240 basis functions,   415 primitive gaussians,   249 cartesian basis functions
    39 alpha electrons       39 beta electrons
       nuclear repulsion energy       498.4353137779 Hartrees.
 IExCor=  404 DFT=T Ex=B Corr=P86 ExCW=0 ScaHFX=  0.000000
 ScaDFX=  1.000000  1.000000  1.000000  1.000000 ScalE2=  1.000000  1.000000
 IRadAn=      5 IRanWt=     -1 IRanGd=            0 ICorTp=0 IEmpDi=131
 NAtoms=   20 NActive=   20 NUniq=   20 SFac= 1.00D+00 NAtFMM=   60 NAOKFM=F Big=F
 Integral buffers will be    131072 words long.
 Raffenetti 2 integral format.
 Two-electron integral symmetry is turned on.
 R6Disp:  Grimme-D3 Dispersion energy=       -0.0166238395 Hartrees.
 Nuclear repulsion after empirical dispersion term =      498.4186899384 Hartrees.
 ------------------------------------------------------------------------------
 Polarizable Continuum Model (PCM)
 =================================
 Model                : PCM.
 Atomic radii         : UFF (Universal Force Field).
 Polarization charges : Total charges.
 Charge compensation  : None.
 Solution method      : On-the-fly selection.
 Cavity type          : Scaled VdW (van der Waals Surface) (Alpha=1.100).
 Cavity algorithm     : GePol (No added spheres)
                        Default sphere list used, NSphG=   20.
                        Lebedev-Laikov grids with approx.  5.0 points / Ang**2.
                        Smoothing algorithm: York/Karplus (Gamma=1.0000).
                        Polarization charges: spherical gaussians, with
                                              point-specific exponents (IZeta= 3).
                        Self-potential: point-specific (ISelfS= 7).
[...]
    8   C      8    2.0000  1.000     -0.370636     -0.437707     -0.063234
    9  Cl      9    2.0500  1.000      2.822748     -1.410292     -0.086954
   10   H     10    1.3000  1.000      2.019074      3.114069      0.652267
   11   H     11    1.3000  1.000      0.291016      3.173326      1.080436
   12   H     12    1.3000  1.000      1.307742      1.814496      1.643856
   13   H     13    1.3000  1.000      1.634721      1.037414     -0.718583
   14   H     14    1.3000  1.000      0.635365      2.392776     -1.323055
   15   H     15    1.3000  1.000     -1.972309      2.352564     -0.524393
   16   H     16    1.3000  1.000     -3.572187      0.118921     -0.031058
   17   H     17    1.3000  1.000     -2.631654     -2.268157      1.278933
   18   H     18    1.3000  1.000     -1.156218     -2.857955      0.451747
   19   H     19    1.3000  1.000     -2.663403     -2.608925     -0.484427
   20   H     20    1.3000  1.000      0.553480     -1.030751      0.004729
 ------------------------------------------------------------------------------
 One-electron integrals computed using PRISM.
 NBasis=   240 RedAO= T EigKep=  1.48D-04  NBF=   240
 NBsUse=   240 1.00D-06 EigRej= -1.00D+00 NBFU=   240
 Initial guess from the checkpoint file:  "BMQZYMYBQZGEEY-UHFFFAOYSA-M.chk"
 B after Tr=     0.000000    0.000000    0.000000
         Rot=    1.000000   -0.000000   -0.000000    0.000000 Ang=   0.00 deg.
 Requested convergence on RMS density matrix=1.00D-08 within 128 cycles.
 Requested convergence on MAX density matrix=1.00D-06.
 Requested convergence on             energy=1.00D-06.
 No special actions if energy rises.
 Inv3:  Mode=1 IEnd=     6091875.
 Iteration    1 A*A^-1 deviation from unit magnitude is 7.11D-15 for    200.
 Iteration    1 A*A^-1 deviation from orthogonality  is 2.50D-15 for   1017    200.
 Iteration    1 A^-1*A deviation from unit magnitude is 3.11D-15 for    924.
 Iteration    1 A^-1*A deviation from orthogonality  is 2.83D-14 for   1017    200.
 Error on nuclear    polarization charges =  0.02514
 Error on electronic polarization charges = -0.05909
 SCF Done:  E(RB-P86) =  -805.174199994     A.U. after   10 cycles
            NFock= 10  Conv=0.79D-08     -V/T= 2.0038
 --------------------------------------------------------------------
 Variational C-PCM results
 =========================
 <psi(f)|   H    |psi(f)>                     (a.u.) =    -805.105767
 <psi(f)|H+V(f)/2|psi(f)>                     (a.u.) =    -805.174200
 Total free energy in solution:
 - with all non electrostatic terms           (a.u.) =    -805.158782
 --------------------------------------------------------------------
 (Polarized solute)-Solvent               (kcal/mol) =     -42.94
 --------------------------------------------------------------------
 Cavitation energy                        (kcal/mol) =      25.80
 Dispersion energy                        (kcal/mol) =     -17.62
 Repulsion energy                         (kcal/mol) =       1.49
 Total non electrostatic                  (kcal/mol) =       9.67
 --------------------------------------------------------------------
 Partition over spheres:
 Sphere  on Atom  Surface  Charge   GEl     GCav    GDR
    1      C1      18.28  -0.000   -0.11    2.15   -1.20
    2      C2      10.31  -0.043   -0.41    1.21   -0.65
    3      N3       1.88  -0.007   -0.09    0.23   -0.06
    4      C4      15.31  -0.037   -0.97    1.80   -1.02
    5      C5      15.79  -0.040   -1.14    1.85   -1.21
    6      N6       2.42  -0.010   -0.17    0.29   -0.08
    7      C7      19.55  -0.086   -1.64    2.30   -1.41
    8      C8      14.64  -0.060   -0.34    1.72   -0.80
    9     Cl9      45.27   0.767  -29.58    5.27   -3.21
   10      H10      6.52  -0.034   -0.21    0.92   -0.79
   11      H11      6.48  -0.033   -0.57    0.92   -0.62
   12      H12      6.53  -0.029   -0.04    0.92   -0.59
   13      H13      3.88  -0.018    0.20    0.55   -0.16
   14      H14      6.51  -0.049   -0.86    0.92   -0.79
   15      H15      6.34  -0.072   -1.99    0.89   -0.71
   16      H16      6.34  -0.072   -2.12    0.89   -0.75
   17      H17      6.49  -0.053   -1.21    0.92   -0.77
   18      H18      6.32  -0.056   -0.61    0.89   -0.54
   19      H19      6.49  -0.053   -1.18    0.92   -0.78
   20      H20      1.74  -0.013    0.08    0.24    0.00
 --------------------------------------------------------------------
 - cavitation energy not included in the total energy.
 - dispersion energy not included in the total energy.
 - repulsion  energy not included in the total energy.
 After PCM corrections, the energy is  -805.174199994     a.u.
 --------------------------------------------------------------------
 Writing COSMO formatted file "BMQZYMYBQZGEEY-UHFFFAOYSA-M.cosmo"
 Recomputed dielectric energy= -0.068711 old= -0.068433 diff=-2.78D-04

 **********************************************************************

            Population analysis using the SCF Density.

 **********************************************************************

 Orbital symmetries:
       Occupied  (A) (A) (A) (A) (A) (A) (A) (A) (A) (A) (A) (A)
                 (A) (A) (A) (A) (A) (A) (A) (A) (A) (A) (A) (A)
                 (A) (A) (A) (A) (A) (A) (A) (A) (A) (A) (A) (A)
                 (A) (A) (A)
       Virtual   (A) (A) (A) (A) (A) (A) (A) (A) (A) (A) (A) (A)
                 (A) (A) (A) (A) (A) (A) (A) (A) (A) (A) (A) (A)
                 (A) (A) (A) (A) (A) (A) (A) (A) (A) (A) (A) (A)
                 (A) (A) (A) (A) (A) (A) (A) (A) (A) (A) (A) (A)
                 (A) (A) (A) (A) (A) (A) (A) (A) (A) (A) (A) (A)
                 (A) (A) (A) (A) (A) (A) (A) (A) (A) (A) (A) (A)
                 (A) (A) (A) (A) (A) (A) (A) (A) (A) (A) (A) (A)
                 (A) (A) (A) (A) (A) (A) (A) (A) (A) (A) (A) (A)
                 (A) (A) (A) (A) (A) (A) (A) (A) (A) (A) (A) (A)
                 (A) (A) (A) (A) (A) (A) (A) (A) (A) (A) (A) (A)
                 (A) (A) (A) (A) (A) (A) (A) (A) (A) (A) (A) (A)
                 (A) (A) (A) (A) (A) (A) (A) (A) (A) (A) (A) (A)
                 (A) (A) (A) (A) (A) (A) (A) (A) (A) (A) (A) (A)
                 (A) (A) (A) (A) (A) (A) (A) (A) (A) (A) (A) (A)
                 (A) (A) (A) (A) (A) (A) (A) (A) (A) (A) (A) (A)
                 (A) (A) (A) (A) (A) (A) (A) (A) (A) (A) (A) (A)
                 (A) (A) (A) (A) (A) (A) (A) (A) (A)
 The electronic state is 1-A.
 Alpha  occ. eigenvalues -- -100.64837 -14.09969 -14.09510  -9.98770  -9.95470
 Alpha  occ. eigenvalues --   -9.95422  -9.94911  -9.94529  -9.89591  -9.08716
 Alpha  occ. eigenvalues --   -6.90545  -6.90525  -6.90515  -0.99232  -0.88214
 Alpha  occ. eigenvalues --   -0.74192  -0.71117  -0.67019  -0.63865  -0.60692
 Alpha  occ. eigenvalues --   -0.57899  -0.55434  -0.50434  -0.45788  -0.44113
 Alpha  occ. eigenvalues --   -0.42973  -0.42583  -0.41304  -0.39926  -0.39339
 Alpha  occ. eigenvalues --   -0.36835  -0.35327  -0.34003  -0.31998  -0.27790
 Alpha  occ. eigenvalues --   -0.24659  -0.21833  -0.21747  -0.21651
 Alpha virt. eigenvalues --   -0.05638  -0.03178   0.03417   0.03933   0.04924
 Alpha virt. eigenvalues --    0.06331   0.07354   0.07387   0.07953   0.09336
 Alpha virt. eigenvalues --    0.09638   0.10427   0.10854   0.11053   0.11834
 Alpha virt. eigenvalues --    0.12569   0.14708   0.15367   0.16970   0.17552
 Alpha virt. eigenvalues --    0.18933   0.20113   0.20645   0.21454   0.22700
 Alpha virt. eigenvalues --    0.23462   0.24317   0.25900   0.26475   0.27914
 Alpha virt. eigenvalues --    0.28787   0.29295   0.30552   0.33603   0.34098
 Alpha virt. eigenvalues --    0.35220   0.36360   0.36553   0.37162   0.38117
 Alpha virt. eigenvalues --    0.38921   0.40032   0.40712   0.41254   0.41648
 Alpha virt. eigenvalues --    0.42854   0.42971   0.43558   0.44135   0.45316
 Alpha virt. eigenvalues --    0.46473   0.47544   0.49161   0.49559   0.51273
 Alpha virt. eigenvalues --    0.51606   0.52266   0.57098   0.58379   0.59342
 Alpha virt. eigenvalues --    0.60829   0.62796   0.67322   0.67591   0.69985
 Alpha virt. eigenvalues --    0.72179   0.75022   0.79884   0.80480   0.82155
 Alpha virt. eigenvalues --    0.85336   0.87716   1.02927   1.04374   1.11431
 Alpha virt. eigenvalues --    1.14866   1.15547   1.17550   1.18554   1.19458
 Alpha virt. eigenvalues --    1.20581   1.21728   1.23581   1.24426   1.25573
 Alpha virt. eigenvalues --    1.26827   1.27844   1.28714   1.29039   1.31990
 Alpha virt. eigenvalues --    1.33228   1.34725   1.35162   1.36247   1.36748
 Alpha virt. eigenvalues --    1.37909   1.39891   1.42355   1.43885   1.44276
 Alpha virt. eigenvalues --    1.47656   1.51230   1.51871   1.53309   1.54717
 Alpha virt. eigenvalues --    1.56629   1.61152   1.61259   1.62576   1.63604
 Alpha virt. eigenvalues --    1.66267   1.67965   1.69177   1.69763   1.70660
 Alpha virt. eigenvalues --    1.70899   1.71181   1.72297   1.72908   1.73932
 Alpha virt. eigenvalues --    1.77009   1.77685   1.81512   1.82605   1.86680
 Alpha virt. eigenvalues --    1.87202   1.87668   1.89706   1.91353   1.93307
 Alpha virt. eigenvalues --    2.04338   2.06165   2.07897   2.12467   2.14605
 Alpha virt. eigenvalues --    2.17965   2.19026   2.21448   2.21968   2.23724
 Alpha virt. eigenvalues --    2.24989   2.26036   2.28188   2.28560   2.28969
 Alpha virt. eigenvalues --    2.30209   2.32083   2.34763   2.35890   2.38715
 Alpha virt. eigenvalues --    2.39747   2.41443   2.42671   2.43703   2.44182
 Alpha virt. eigenvalues --    2.46602   2.48065   2.48920   2.50385   2.51502
 Alpha virt. eigenvalues --    2.53520   2.54171   2.56060   2.57817   2.58527
 Alpha virt. eigenvalues --    2.63375   2.65444   2.68805   2.71317   2.72061
 Alpha virt. eigenvalues --    2.74001   2.82574   2.83121   2.87125   2.90407
 Alpha virt. eigenvalues --    3.00432   3.05370   3.11982   3.15379   3.19673
 Alpha virt. eigenvalues --    3.21040   3.23748   3.25582   3.27188   3.29394
 Alpha virt. eigenvalues --    3.30998   3.42665   3.46448   3.51133   3.61945
 Alpha virt. eigenvalues --    3.63861   3.76509  21.48888  21.68531  21.75336
 Alpha virt. eigenvalues --   21.77598  21.86095  21.91400  24.26806  31.45968
 Alpha virt. eigenvalues --   31.62673
          Condensed to atoms (all electrons):
               1          2          3          4          5          6
     1  C    5.110223   0.266124  -0.065223  -0.011876   0.004352  -0.000221
     2  C    0.266124   5.133273   0.221126  -0.057547   0.015260   0.003281
     3  N   -0.065223   0.221126   6.296104   0.415331  -0.100513  -0.084912
     4  C   -0.011876  -0.057547   0.415331   5.055690   0.465862  -0.110129
     5  C    0.004352   0.015260  -0.100513   0.465862   5.078474   0.418678
     6  N   -0.000221   0.003281  -0.084912  -0.110129   0.418678   6.212395
     7  C    0.000006  -0.000428   0.006930   0.012192  -0.059682   0.256690
     8  C   -0.008191  -0.057090   0.456493  -0.102527  -0.109678   0.471889
     9  Cl   0.002618  -0.030050  -0.001241  -0.000722  -0.000124   0.000444
    10  H    0.398810  -0.037837   0.007907   0.000553  -0.000135   0.000016
    11  H    0.399849  -0.037708  -0.002697   0.006581  -0.000201   0.000126
    12  H    0.383287  -0.024281  -0.000892  -0.002808   0.000278  -0.000608
    13  H   -0.032484   0.348251  -0.023032   0.010976  -0.001816   0.002027
    14  H   -0.046533   0.411551  -0.029971  -0.010351   0.001073  -0.000490
    15  H   -0.003615  -0.001778  -0.028032   0.413455  -0.041313   0.002672
    16  H    0.000030  -0.000020   0.002725  -0.029597   0.399905  -0.025300
    17  H   -0.000005   0.000007  -0.000203   0.000596  -0.006854  -0.032879
    18  H   -0.000017   0.000279   0.001074  -0.001314   0.009122  -0.017472
    19  H    0.000002   0.000021  -0.000356   0.000499  -0.006831  -0.034015
    20  H   -0.002494   0.000609  -0.041751   0.006575   0.007016  -0.026489
               7          8          9         10         11         12
     1  C    0.000006  -0.008191   0.002618   0.398810   0.399849   0.383287
     2  C   -0.000428  -0.057090  -0.030050  -0.037837  -0.037708  -0.024281
     3  N    0.006930   0.456493  -0.001241   0.007907  -0.002697  -0.000892
     4  C    0.012192  -0.102527  -0.000722   0.000553   0.006581  -0.002808
     5  C   -0.059682  -0.109678  -0.000124  -0.000135  -0.000201   0.000278
     6  N    0.256690   0.471889   0.000444   0.000016   0.000126  -0.000608
     7  C    4.950864  -0.052291  -0.000800   0.000001   0.000010   0.000008
     8  C   -0.052291   4.983267  -0.036104   0.000252  -0.000933   0.003684
     9  Cl  -0.000800  -0.036104  17.848037  -0.000054   0.000151   0.003881
    10  H    0.000001   0.000252  -0.000054   0.508254  -0.020951  -0.020530
    11  H    0.000010  -0.000933   0.000151  -0.020951   0.525057  -0.025041
    12  H    0.000008   0.003684   0.003881  -0.020530  -0.025041   0.540415
    13  H    0.000271  -0.002018   0.038606  -0.001551   0.006899  -0.008069
    14  H    0.000021   0.005901   0.000658  -0.001125  -0.004557   0.007286
    15  H   -0.000215   0.010091   0.000006   0.000098   0.000250   0.000038
    16  H   -0.004766   0.009883   0.000005  -0.000001   0.000017   0.000006
    17  H    0.403714   0.002615   0.000022   0.000000  -0.000000   0.000001
    18  H    0.381554  -0.012424   0.002400   0.000000  -0.000001   0.000000
    19  H    0.405978   0.002004   0.000022  -0.000000  -0.000000  -0.000001
    20  H   -0.006869   0.361917   0.054658   0.000061  -0.000125   0.000524
              13         14         15         16         17         18
     1  C   -0.032484  -0.046533  -0.003615   0.000030  -0.000005  -0.000017
     2  C    0.348251   0.411551  -0.001778  -0.000020   0.000007   0.000279
     3  N   -0.023032  -0.029971  -0.028032   0.002725  -0.000203   0.001074
     4  C    0.010976  -0.010351   0.413455  -0.029597   0.000596  -0.001314
     5  C   -0.001816   0.001073  -0.041313   0.399905  -0.006854   0.009122
     6  N    0.002027  -0.000490   0.002672  -0.025300  -0.032879  -0.017472
     7  C    0.000271   0.000021  -0.000215  -0.004766   0.403714   0.381554
     8  C   -0.002018   0.005901   0.010091   0.009883   0.002615  -0.012424
     9  Cl   0.038606   0.000658   0.000006   0.000005   0.000022   0.002400
    10  H   -0.001551  -0.001125   0.000098  -0.000001   0.000000   0.000000
    11  H    0.006899  -0.004557   0.000250   0.000017  -0.000000  -0.000001
    12  H   -0.008069   0.007286   0.000038   0.000006   0.000001   0.000000
    13  H    0.551150  -0.023086   0.000295   0.000010  -0.000003  -0.000113
    14  H   -0.023086   0.506204   0.000093   0.000005  -0.000001  -0.000004
    15  H    0.000295   0.000093   0.454729   0.001019  -0.000001   0.000008
    16  H    0.000010   0.000005   0.001019   0.447762   0.000247   0.000171
    17  H   -0.000003  -0.000001  -0.000001   0.000247   0.493245  -0.020408
    18  H   -0.000113  -0.000004   0.000008   0.000171  -0.020408   0.492724
    19  H   -0.000008  -0.000001   0.000002   0.000002  -0.027803  -0.020326
    20  H   -0.005886   0.000156  -0.000102  -0.000175  -0.000117   0.003778
              19         20
     1  C    0.000002  -0.002494
     2  C    0.000021   0.000609
     3  N   -0.000356  -0.041751
     4  C    0.000499   0.006575
     5  C   -0.006831   0.007016
     6  N   -0.034015  -0.026489
     7  C    0.405978  -0.006869
     8  C    0.002004   0.361917
     9  Cl   0.000022   0.054658
    10  H   -0.000000   0.000061
    11  H   -0.000000  -0.000125
    12  H   -0.000001   0.000524
    13  H   -0.000008  -0.005886
    14  H   -0.000001   0.000156
    15  H    0.000002  -0.000102
    16  H    0.000002  -0.000175
    17  H   -0.027803  -0.000117
    18  H   -0.020326   0.003778
    19  H    0.492194  -0.000005
    20  H   -0.000005   0.532668
 Mulliken charges:
               1
     1  C   -0.394640
     2  C   -0.153046
     3  N   -0.028868
     4  C   -0.061441
     5  C   -0.072873
     6  N   -0.035705
     7  C   -0.293187
     8  C    0.073260
     9  Cl  -0.882414
    10  H    0.166233
    11  H    0.153274
    12  H    0.142822
    13  H    0.139581
    14  H    0.183170
    15  H    0.192298
    16  H    0.198070
    17  H    0.187825
    18  H    0.180968
    19  H    0.188623
    20  H    0.116052
 Sum of Mulliken charges =  -0.00000
 Mulliken charges with hydrogens summed into heavy atoms:
               1
     1  C    0.067688
     2  C    0.169704
     3  N   -0.028868
     4  C    0.130857
     5  C    0.125197
     6  N   -0.035705
     7  C    0.264228
     8  C    0.189311
     9  Cl  -0.882414
 Electronic spatial extent (au):  <R**2>=           1948.6697
 Charge=              0.0000 electrons
 Dipole moment (field-independent basis, Debye):
    X=            -16.6042    Y=              6.0608    Z=              0.1470  Tot=             17.6764
 Quadrupole moment (field-independent basis, Debye-Ang):
   XX=            -81.1659   YY=            -54.8467   ZZ=            -64.0284
   XY=             23.0768   XZ=              0.2763   YZ=             -3.7096
 Traceless Quadrupole moment (field-independent basis, Debye-Ang):
   XX=            -14.4856   YY=             11.8336   ZZ=              2.6519
   XY=             23.0768   XZ=              0.2763   YZ=             -3.7096
 Octapole moment (field-independent basis, Debye-Ang**2):
  XXX=           -168.0128  YYY=             22.4143  ZZZ=              1.0750  XYY=            -48.8661
  XXY=             45.4690  XXZ=              4.1270  XZZ=             -6.2137  YZZ=              1.8896
  YYZ=             -1.0695  XYZ=              2.0721
 Hexadecapole moment (field-independent basis, Debye-Ang**3):
 XXXX=          -1656.2361 YYYY=           -941.0702 ZZZZ=           -148.0918 XXXY=            201.3058
 XXXZ=              3.5739 YYYX=             91.6394 YYYZ=            -21.6147 ZZZX=             -4.1968
 ZZZY=             -8.5399 XXYY=           -439.4142 XXZZ=           -282.9445 YYZZ=           -189.5131
 XXYZ=            -14.4584 YYXZ=              2.5703 ZZXY=             17.4156
 N-N= 5.063321168794D+02 E-N=-2.906912778015D+03  KE= 8.021054763854D+02
 Unable to Open any file for archive entry.
 1\1\GINC-TCN1051\SP\RBP86\TZVP\C6H11Cl1N2\ELENAA\21-Aug-2021\0\\# BP86
 /TZVP SCRF=COSMORS geom=CHECKPOINT guess=CHECKPOINT\\COSMO-file for #B
 MQZYMYBQZGEEY-UHFFFAOYSA-M\\0,1\C,0,1.0923783769,0.1507815415,2.438113
 1267\C,0,1.5103771732,-0.5755322849,1.1612211904\N,0,0.6679562905,-0.1
 828544468,0.0104191539\C,0,0.7500112277,1.0027538501,-0.704363889\C,0,
 -0.2557573136,0.9790455212,-1.6320702436\N,0,-0.9362897115,-0.21828454
 5,-1.4592731785\C,0,-2.0885567902,-0.6686579628,-2.2484307619\C,0,-0.3
 630038687,-0.9084627967,-0.457566587\Cl,0,-0.4582687371,-3.7573036313,
 1.2800229516\H,0,1.7423371337,-0.1685422313,3.2650436396\H,0,1.1829963
 7,1.2411287179,2.3307049113\H,0,0.0532199932,-0.0949202651,2.699716168
 \H,0,1.3901379769,-1.6632855988,1.269760425\H,0,2.5514020941,-0.356614
 3225,0.8887324352\H,0,1.5097001188,1.7476397107,-0.4992202303\H,0,-0.5
 406824113,1.6962081563,-2.3927446168\H,0,-2.9010086284,0.0618443556,-2
 .1549749482\H,0,-2.4193953007,-1.6388403825,-1.8638903507\H,0,-1.79432
 76762,-0.769065423,-3.300145016\H,0,-0.6456857692,-1.8949969698,-0.061
 1424449\\Version=ES64L-G16RevC.01\State=1-A\HF=-805.1742\RMSD=7.936e-0
 9\Dipole=0.4397331,6.0714207,-3.3628347\Quadrupole=10.5041164,-17.8516
 808,7.3475644,-1.2332512,9.4500745,8.2658211\PG=C01 [X(C6H11Cl1N2)]\\@
 The archive entry for this job was punched.


 We're simply so accustomed to the marvels of everyday thought
 that we never wonder about it.
 -- Marvin Minsky in "Why people think computers are smart"
 Job cpu time:       0 days  0 hours  4 minutes 48.8 seconds.
 Elapsed time:       0 days  0 hours  0 minutes 12.5 seconds.
 File lengths (MBytes):  RWF=     53 Int=      0 D2E=      0 Chk=      9 Scr=      1
 Normal termination of Gaussian 16 at Sat Aug 21 09:39:13 2021.
