 Entering Gaussian System, Link 0=g16
 Input=BNQRPLGZFADFGA-UHFFFAOYSA-N.gjf
 Output=BNQRPLGZFADFGA-UHFFFAOYSA-N.log
 Initial command:
 /sw/arch/RedHatEnterpriseServer7/EB_production/2019/software/Gaussian/g16.c01/l1.exe "/scratch-local/elenaa.9715933/Gau-14450.inp" -scrdir="/scratch-local/elenaa.9715933/"
 Entering Link 1 = /sw/arch/RedHatEnterpriseServer7/EB_production/2019/software/Gaussian/g16.c01/l1.exe PID=     14452.
  
 Copyright (c) 1988-2019, Gaussian, Inc.  All Rights Reserved.
  
 This is part of the Gaussian(R) 16 program.  It is based on
 the Gaussian(R) 09 system (copyright 2009, Gaussian, Inc.),
 the Gaussian(R) 03 system (copyright 2003, Gaussian, Inc.),
 the Gaussian(R) 98 system (copyright 1998, Gaussian, Inc.),
 the Gaussian(R) 94 system (copyright 1995, Gaussian, Inc.),
 the Gaussian 92(TM) system (copyright 1992, Gaussian, Inc.),
 the Gaussian 90(TM) system (copyright 1990, Gaussian, Inc.),
 the Gaussian 88(TM) system (copyright 1988, Gaussian, Inc.),
 the Gaussian 86(TM) system (copyright 1986, Carnegie Mellon
 University), and the Gaussian 82(TM) system (copyright 1983,
 Carnegie Mellon University). Gaussian is a federally registered
 trademark of Gaussian, Inc.
  
 This software contains proprietary and confidential information,
 including trade secrets, belonging to Gaussian, Inc.
  
 This software is provided under written license and may be
 used, copied, transmitted, or stored only in accord with that
 written license.
  
 The following legend is applicable only to US Government
 contracts under FAR:
  
                    RESTRICTED RIGHTS LEGEND
  
 Use, reproduction and disclosure by the US Government is
 subject to restrictions as set forth in subparagraphs (a)
 and (c) of the Commercial Computer Software - Restricted
 Rights clause in FAR 52.227-19.
  
 Gaussian, Inc.
 340 Quinnipiac St., Bldg. 40, Wallingford CT 06492
  
  
 ---------------------------------------------------------------
 Warning -- This program may not be used in any manner that
 competes with the business of Gaussian, Inc. or will provide
 assistance to any competitor of Gaussian, Inc.  The licensee
 of this program is prohibited from giving any competitor of
 Gaussian, Inc. access to this program.  By using this program,
 the user acknowledges that Gaussian, Inc. is engaged in the
 business of creating and licensing software in the field of
 computational chemistry and represents and warrants to the
 licensee that it is not a competitor of Gaussian, Inc. and that
 it will not use this program in any manner prohibited above.
 ---------------------------------------------------------------
  

 Cite this work as:
 Gaussian 16, Revision C.01,
 M. J. Frisch, G. W. Trucks, H. B. Schlegel, G. E. Scuseria, 
 M. A. Robb, J. R. Cheeseman, G. Scalmani, V. Barone, 
 G. A. Petersson, H. Nakatsuji, X. Li, M. Caricato, A. V. Marenich, 
 J. Bloino, B. G. Janesko, R. Gomperts, B. Mennucci, H. P. Hratchian, 
 J. V. Ortiz, A. F. Izmaylov, J. L. Sonnenberg, D. Williams-Young, 
 F. Ding, F. Lipparini, F. Egidi, J. Goings, B. Peng, A. Petrone, 
 T. Henderson, D. Ranasinghe, V. G. Zakrzewski, J. Gao, N. Rega, 
 G. Zheng, W. Liang, M. Hada, M. Ehara, K. Toyota, R. Fukuda, 
 J. Hasegawa, M. Ishida, T. Nakajima, Y. Honda, O. Kitao, H. Nakai, 
 T. Vreven, K. Throssell, J. A. Montgomery, Jr., J. E. Peralta, 
 F. Ogliaro, M. J. Bearpark, J. J. Heyd, E. N. Brothers, K. N. Kudin, 
 V. N. Staroverov, T. A. Keith, R. Kobayashi, J. Normand, 
 K. Raghavachari, A. P. Rendell, J. C. Burant, S. S. Iyengar, 
 J. Tomasi, M. Cossi, J. M. Millam, M. Klene, C. Adamo, R. Cammi, 
 J. W. Ochterski, R. L. Martin, K. Morokuma, O. Farkas, 
 J. B. Foresman, and D. J. Fox, Gaussian, Inc., Wallingford CT, 2019.
 
 ******************************************
 Gaussian 16:  ES64L-G16RevC.01  3-Jul-2019
                23-Feb-2021 
 ******************************************
 %chk=BNQRPLGZFADFGA-UHFFFAOYSA-N.chk
 %NProcShared=32
 Will use up to   32 processors via shared memory.
 -------------------------------------------------------------
 #P BP86/TZVP EmpiricalDispersion=GD3 SCRF=(Solvent=Water) Opt
 -------------------------------------------------------------
 1/18=20,19=15,26=3,38=1/1,3;
 2/9=110,12=2,17=6,18=5,40=1/2;
 3/5=19,7=101,11=2,25=1,30=1,70=2201,71=1,72=1,74=404,124=31/1,2,3;
 4//1;
 5/5=2,38=5,53=1/2;
 6/7=2,8=2,9=2,10=2,28=1/1;
 7//1,2,3,16;
 1/18=20,19=15,26=3/3(2);
 2/9=110/2;
 99//99;
 2/9=110/2;
 3/5=19,7=101,11=2,25=1,30=1,70=2205,71=1,72=1,74=404,124=31/1,2,3;
 4/5=5,16=3,69=1/1;
 5/5=2,38=5,53=1/2;
 7//1,2,3,16;
 1/18=20,19=15,26=3/3(-5);
 2/9=110/2;
 6/7=2,8=2,9=2,10=2,19=2,28=1/1;
 99/9=1/99;
 Leave Link    1 at Tue Feb 23 00:11:03 2021, MaxMem=           0 cpu:               1.8 elap:               0.1
 (Enter /sw/arch/RedHatEnterpriseServer7/EB_production/2019/software/Gaussian/g16.c01/l101.exe)
 -------------------------------------
 Particle #BNQRPLGZFADFGA-UHFFFAOYSA-N
 -------------------------------------
 Symbolic Z-matrix:
 Charge =  1 Multiplicity = 1
 C                    -2.71185  -5.23406  -0.36616 
 C                    -3.43058  -4.02608  -0.39269 
 C                    -2.9286   -2.89363   0.27311 
 C                    -1.70226  -2.9567    0.97937 
 C                    -1.19936  -1.77355   1.72348 
 P                     0.10505  -0.90799   0.94743 
 C                    -0.40386  -0.63205  -0.64574 
 C                    -0.25908  -1.626    -1.64949 
 C                    -0.66225  -1.39184  -2.97663 
 C                    -1.26669  -0.17313  -3.32193 
 C                    -1.48622   0.79948  -2.33368 
 C                    -1.06615   0.56882  -1.00979 
 C                     1.54456  -1.79196   1.05222 
 C                     2.46051  -1.89784  -0.02554 
 C                     3.63399  -2.66514   0.08582 
 C                     3.94438  -3.30811   1.29516 
 C                     3.09111  -3.15867   2.39912 
 C                     1.91561  -2.39655   2.28231 
 C                     0.38669   0.5504    1.75983 
 C                    -0.07555   0.79404   3.07856 
 C                     0.21643   2.00056   3.74 
 C                     0.96509   2.99554   3.09201 
 C                     1.43708   2.77486   1.78768 
 C                     1.16582   1.55737   1.13538 
 C                    -0.98145  -4.17384   0.97899 
 C                    -1.48182  -5.3033    0.30952 
 H                    -3.08565  -6.05872  -0.83749 
 H                    -4.32069  -3.96973  -0.89636 
 H                    -3.46575  -2.0216    0.23944 
 H                    -2.01518  -1.05949   1.85181 
 H                    -0.91914  -2.08921   2.72971 
 H                     0.14426  -2.53917  -1.43106 
 H                    -0.52006  -2.11116  -3.68928 
 H                    -1.55461   0.00129  -4.28722 
 H                    -1.95609   1.67448  -2.57663 
 H                    -1.26619   1.29307  -0.31685 
 H                     2.29734  -1.4138   -0.9099 
 H                     4.26763  -2.74813  -0.71294 
 H                     4.79372  -3.87201   1.3769 
 H                     3.3257   -3.60036   3.28909 
 H                     1.3396   -2.29028   3.11726 
 H                    -0.61774   0.0982    3.59189 
 H                    -0.11184   2.14788   4.69805 
 H                     1.17143   3.87294   3.57305 
 H                     1.9831    3.50021   1.31661 
 H                     1.54451   1.42327   0.19352 
 H                    -0.09043  -4.25196   1.47145 
 H                    -0.95168  -6.17763   0.31964 
 
 ITRead=  0  0  0  0  0  0  0  0  0  0  0  0  0  0  0  0  0  0  0  0
 ITRead=  0  0  0  0  0  0  0  0  0  0  0  0  0  0  0  0  0  0  0  0
 ITRead=  0  0  0  0  0  0  0  0
 MicOpt= -1 -1 -1 -1 -1 -1 -1 -1 -1 -1 -1 -1 -1 -1 -1 -1 -1 -1 -1 -1
 MicOpt= -1 -1 -1 -1 -1 -1 -1 -1 -1 -1 -1 -1 -1 -1 -1 -1 -1 -1 -1 -1
 MicOpt= -1 -1 -1 -1 -1 -1 -1 -1
 NAtoms=     48 NQM=       48 NQMF=       0 NMMI=      0 NMMIF=      0
                NMic=       0 NMicF=      0.
                    Isotopes and Nuclear Properties:
 (Nuclear quadrupole moments (NQMom) in fm**2, nuclear magnetic moments (NMagM)
  in nuclear magnetons)

  Atom         1           2           3           4           5           6           7           8           9          10
 IAtWgt=          12          12          12          12          12          31          12          12          12          12
 AtmWgt=  12.0000000  12.0000000  12.0000000  12.0000000  12.0000000  30.9737634  12.0000000  12.0000000  12.0000000  12.0000000
 NucSpn=           0           0           0           0           0           1           0           0           0           0
 AtZEff=  -0.0000000  -0.0000000  -0.0000000  -0.0000000  -0.0000000  -0.0000000  -0.0000000  -0.0000000  -0.0000000  -0.0000000
 NQMom=    0.0000000   0.0000000   0.0000000   0.0000000   0.0000000   0.0000000   0.0000000   0.0000000   0.0000000   0.0000000
 NMagM=    0.0000000   0.0000000   0.0000000   0.0000000   0.0000000   1.1316000   0.0000000   0.0000000   0.0000000   0.0000000
 AtZNuc=   6.0000000   6.0000000   6.0000000   6.0000000   6.0000000  15.0000000   6.0000000   6.0000000   6.0000000   6.0000000

  Atom        11          12          13          14          15          16          17          18          19          20
 IAtWgt=          12          12          12          12          12          12          12          12          12          12
 AtmWgt=  12.0000000  12.0000000  12.0000000  12.0000000  12.0000000  12.0000000  12.0000000  12.0000000  12.0000000  12.0000000
 NucSpn=           0           0           0           0           0           0           0           0           0           0
 AtZEff=  -0.0000000  -0.0000000  -0.0000000  -0.0000000  -0.0000000  -0.0000000  -0.0000000  -0.0000000  -0.0000000  -0.0000000
 NQMom=    0.0000000   0.0000000   0.0000000   0.0000000   0.0000000   0.0000000   0.0000000   0.0000000   0.0000000   0.0000000
 NMagM=    0.0000000   0.0000000   0.0000000   0.0000000   0.0000000   0.0000000   0.0000000   0.0000000   0.0000000   0.0000000
 AtZNuc=   6.0000000   6.0000000   6.0000000   6.0000000   6.0000000   6.0000000   6.0000000   6.0000000   6.0000000   6.0000000

  Atom        21          22          23          24          25          26          27          28          29          30
 IAtWgt=          12          12          12          12          12          12           1           1           1           1
 AtmWgt=  12.0000000  12.0000000  12.0000000  12.0000000  12.0000000  12.0000000   1.0078250   1.0078250   1.0078250   1.0078250
 NucSpn=           0           0           0           0           0           0           1           1           1           1
 AtZEff=  -0.0000000  -0.0000000  -0.0000000  -0.0000000  -0.0000000  -0.0000000  -0.0000000  -0.0000000  -0.0000000  -0.0000000
 NQMom=    0.0000000   0.0000000   0.0000000   0.0000000   0.0000000   0.0000000   0.0000000   0.0000000   0.0000000   0.0000000
 NMagM=    0.0000000   0.0000000   0.0000000   0.0000000   0.0000000   0.0000000   2.7928460   2.7928460   2.7928460   2.7928460
 AtZNuc=   6.0000000   6.0000000   6.0000000   6.0000000   6.0000000   6.0000000   1.0000000   1.0000000   1.0000000   1.0000000

  Atom        31          32          33          34          35          36          37          38          39          40
 IAtWgt=           1           1           1           1           1           1           1           1           1           1
 AtmWgt=   1.0078250   1.0078250   1.0078250   1.0078250   1.0078250   1.0078250   1.0078250   1.0078250   1.0078250   1.0078250
 NucSpn=           1           1           1           1           1           1           1           1           1           1
 AtZEff=  -0.0000000  -0.0000000  -0.0000000  -0.0000000  -0.0000000  -0.0000000  -0.0000000  -0.0000000  -0.0000000  -0.0000000
 NQMom=    0.0000000   0.0000000   0.0000000   0.0000000   0.0000000   0.0000000   0.0000000   0.0000000   0.0000000   0.0000000
 NMagM=    2.7928460   2.7928460   2.7928460   2.7928460   2.7928460   2.7928460   2.7928460   2.7928460   2.7928460   2.7928460
 AtZNuc=   1.0000000   1.0000000   1.0000000   1.0000000   1.0000000   1.0000000   1.0000000   1.0000000   1.0000000   1.0000000

  Atom        41          42          43          44          45          46          47          48
 IAtWgt=           1           1           1           1           1           1           1           1
 AtmWgt=   1.0078250   1.0078250   1.0078250   1.0078250   1.0078250   1.0078250   1.0078250   1.0078250
 NucSpn=           1           1           1           1           1           1           1           1
 AtZEff=  -0.0000000  -0.0000000  -0.0000000  -0.0000000  -0.0000000  -0.0000000  -0.0000000  -0.0000000
 NQMom=    0.0000000   0.0000000   0.0000000   0.0000000   0.0000000   0.0000000   0.0000000   0.0000000
 NMagM=    2.7928460   2.7928460   2.7928460   2.7928460   2.7928460   2.7928460   2.7928460   2.7928460
 AtZNuc=   1.0000000   1.0000000   1.0000000   1.0000000   1.0000000   1.0000000   1.0000000   1.0000000
 Leave Link  101 at Tue Feb 23 00:11:04 2021, MaxMem=   104857600 cpu:               3.2 elap:               0.1
 (Enter /sw/arch/RedHatEnterpriseServer7/EB_production/2019/software/Gaussian/g16.c01/l103.exe)

 GradGradGradGradGradGradGradGradGradGradGradGradGradGradGradGradGradGrad
 Berny optimization.
 Initialization pass.
                           ----------------------------
                           !    Initial Parameters    !
                           ! (Angstroms and Degrees)  !
 --------------------------                            --------------------------
 ! Name  Definition              Value          Derivative Info.                !
 --------------------------------------------------------------------------------
 ! R1    R(1,2)                  1.4059         estimate D2E/DX2                !
 ! R2    R(1,26)                 1.4051         estimate D2E/DX2                !
 ! R3    R(1,27)                 1.0208         estimate D2E/DX2                !
 ! R4    R(2,3)                  1.4063         estimate D2E/DX2                !
 ! R5    R(2,28)                 1.0243         estimate D2E/DX2                !
 ! R6    R(3,4)                  1.4166         estimate D2E/DX2                !
 ! R7    R(3,29)                 1.0247         estimate D2E/DX2                !
 ! R8    R(4,5)                  1.4854         estimate D2E/DX2                !
 ! R9    R(4,25)                 1.4146         estimate D2E/DX2                !
 ! R10   R(5,6)                  1.7473         estimate D2E/DX2                !
 ! R11   R(5,30)                 1.0917         estimate D2E/DX2                !
 ! R12   R(5,31)                 1.0912         estimate D2E/DX2                !
 ! R13   R(6,7)                  1.6951         estimate D2E/DX2                !
 ! R14   R(6,13)                 1.6925         estimate D2E/DX2                !
 ! R15   R(6,19)                 1.693          estimate D2E/DX2                !
 ! R16   R(7,8)                  1.42           estimate D2E/DX2                !
 ! R17   R(7,12)                 1.4189         estimate D2E/DX2                !
 ! R18   R(8,9)                  1.4067         estimate D2E/DX2                !
 ! R19   R(8,32)                 1.0219         estimate D2E/DX2                !
 ! R20   R(9,10)                 1.4035         estimate D2E/DX2                !
 ! R21   R(9,33)                 1.0225         estimate D2E/DX2                !
 ! R22   R(10,11)                1.4039         estimate D2E/DX2                !
 ! R23   R(10,34)                1.0223         estimate D2E/DX2                !
 ! R24   R(11,12)                1.408          estimate D2E/DX2                !
 ! R25   R(11,35)                1.0225         estimate D2E/DX2                !
 ! R26   R(12,36)                1.0221         estimate D2E/DX2                !
 ! R27   R(13,14)                1.4184         estimate D2E/DX2                !
 ! R28   R(13,18)                1.42           estimate D2E/DX2                !
 ! R29   R(14,15)                1.4065         estimate D2E/DX2                !
 ! R30   R(14,37)                1.0213         estimate D2E/DX2                !
 ! R31   R(15,16)                1.4044         estimate D2E/DX2                !
 ! R32   R(15,38)                1.0229         estimate D2E/DX2                !
 ! R33   R(16,17)                1.4033         estimate D2E/DX2                !
 ! R34   R(16,39)                1.0228         estimate D2E/DX2                !
 ! R35   R(17,18)                1.4058         estimate D2E/DX2                !
 ! R36   R(17,40)                1.0209         estimate D2E/DX2                !
 ! R37   R(18,41)                1.0199         estimate D2E/DX2                !
 ! R38   R(19,20)                1.4185         estimate D2E/DX2                !
 ! R39   R(19,24)                1.4181         estimate D2E/DX2                !
 ! R40   R(20,21)                1.4066         estimate D2E/DX2                !
 ! R41   R(20,42)                1.0206         estimate D2E/DX2                !
 ! R42   R(21,22)                1.4037         estimate D2E/DX2                !
 ! R43   R(21,43)                1.0234         estimate D2E/DX2                !
 ! R44   R(22,23)                1.4045         estimate D2E/DX2                !
 ! R45   R(22,44)                1.0217         estimate D2E/DX2                !
 ! R46   R(23,24)                1.4076         estimate D2E/DX2                !
 ! R47   R(23,45)                1.0228         estimate D2E/DX2                !
 ! R48   R(24,46)                1.024          estimate D2E/DX2                !
 ! R49   R(25,26)                1.4051         estimate D2E/DX2                !
 ! R50   R(25,47)                1.021          estimate D2E/DX2                !
 ! R51   R(26,48)                1.0225         estimate D2E/DX2                !
 ! A1    A(2,1,26)             119.9305         estimate D2E/DX2                !
 ! A2    A(2,1,27)             119.8838         estimate D2E/DX2                !
 ! A3    A(26,1,27)            120.1857         estimate D2E/DX2                !
 ! A4    A(1,2,3)              120.0326         estimate D2E/DX2                !
 ! A5    A(1,2,28)             120.0539         estimate D2E/DX2                !
 ! A6    A(3,2,28)             119.9135         estimate D2E/DX2                !
 ! A7    A(2,3,4)              120.6105         estimate D2E/DX2                !
 ! A8    A(2,3,29)             118.8551         estimate D2E/DX2                !
 ! A9    A(4,3,29)             120.5344         estimate D2E/DX2                !
 ! A10   A(3,4,5)              120.4898         estimate D2E/DX2                !
 ! A11   A(3,4,25)             118.6401         estimate D2E/DX2                !
 ! A12   A(5,4,25)             120.8614         estimate D2E/DX2                !
 ! A13   A(4,5,6)              115.1399         estimate D2E/DX2                !
 ! A14   A(4,5,30)             109.0779         estimate D2E/DX2                !
 ! A15   A(4,5,31)             108.5706         estimate D2E/DX2                !
 ! A16   A(6,5,30)             106.6226         estimate D2E/DX2                !
 ! A17   A(6,5,31)             111.1717         estimate D2E/DX2                !
 ! A18   A(30,5,31)            105.8258         estimate D2E/DX2                !
 ! A19   A(5,6,7)              105.8998         estimate D2E/DX2                !
 ! A20   A(5,6,13)             110.4092         estimate D2E/DX2                !
 ! A21   A(5,6,19)             109.7427         estimate D2E/DX2                !
 ! A22   A(7,6,13)             113.4883         estimate D2E/DX2                !
 ! A23   A(7,6,19)             111.1446         estimate D2E/DX2                !
 ! A24   A(13,6,19)            106.1833         estimate D2E/DX2                !
 ! A25   A(6,7,8)              121.3194         estimate D2E/DX2                !
 ! A26   A(6,7,12)             121.269          estimate D2E/DX2                !
 ! A27   A(8,7,12)             117.2992         estimate D2E/DX2                !
 ! A28   A(7,8,9)              121.4104         estimate D2E/DX2                !
 ! A29   A(7,8,32)             120.9733         estimate D2E/DX2                !
 ! A30   A(9,8,32)             117.6163         estimate D2E/DX2                !
 ! A31   A(8,9,10)             120.0067         estimate D2E/DX2                !
 ! A32   A(8,9,33)             120.04           estimate D2E/DX2                !
 ! A33   A(10,9,33)            119.9523         estimate D2E/DX2                !
 ! A34   A(9,10,11)            119.719          estimate D2E/DX2                !
 ! A35   A(9,10,34)            120.1157         estimate D2E/DX2                !
 ! A36   A(11,10,34)           120.1622         estimate D2E/DX2                !
 ! A37   A(10,11,12)           120.1169         estimate D2E/DX2                !
 ! A38   A(10,11,35)           119.834          estimate D2E/DX2                !
 ! A39   A(12,11,35)           120.0484         estimate D2E/DX2                !
 ! A40   A(7,12,11)            121.2765         estimate D2E/DX2                !
 ! A41   A(7,12,36)            121.1386         estimate D2E/DX2                !
 ! A42   A(11,12,36)           117.5803         estimate D2E/DX2                !
 ! A43   A(6,13,14)            122.7649         estimate D2E/DX2                !
 ! A44   A(6,13,18)            119.8848         estimate D2E/DX2                !
 ! A45   A(14,13,18)           117.2401         estimate D2E/DX2                !
 ! A46   A(13,14,15)           121.2893         estimate D2E/DX2                !
 ! A47   A(13,14,37)           121.2943         estimate D2E/DX2                !
 ! A48   A(15,14,37)           117.4146         estimate D2E/DX2                !
 ! A49   A(14,15,16)           120.1557         estimate D2E/DX2                !
 ! A50   A(14,15,38)           119.9502         estimate D2E/DX2                !
 ! A51   A(16,15,38)           119.8916         estimate D2E/DX2                !
 ! A52   A(15,16,17)           119.6242         estimate D2E/DX2                !
 ! A53   A(15,16,39)           120.3174         estimate D2E/DX2                !
 ! A54   A(17,16,39)           120.053          estimate D2E/DX2                !
 ! A55   A(16,17,18)           120.0539         estimate D2E/DX2                !
 ! A56   A(16,17,40)           120.0022         estimate D2E/DX2                !
 ! A57   A(18,17,40)           119.9434         estimate D2E/DX2                !
 ! A58   A(13,18,17)           121.4197         estimate D2E/DX2                !
 ! A59   A(13,18,41)           121.1469         estimate D2E/DX2                !
 ! A60   A(17,18,41)           117.4328         estimate D2E/DX2                !
 ! A61   A(6,19,20)            122.6746         estimate D2E/DX2                !
 ! A62   A(6,19,24)            119.4581         estimate D2E/DX2                !
 ! A63   A(20,19,24)           117.8045         estimate D2E/DX2                !
 ! A64   A(19,20,21)           121.1225         estimate D2E/DX2                !
 ! A65   A(19,20,42)           121.574          estimate D2E/DX2                !
 ! A66   A(21,20,42)           117.295          estimate D2E/DX2                !
 ! A67   A(20,21,22)           120.1089         estimate D2E/DX2                !
 ! A68   A(20,21,43)           119.8096         estimate D2E/DX2                !
 ! A69   A(22,21,43)           120.0795         estimate D2E/DX2                !
 ! A70   A(21,22,23)           119.7721         estimate D2E/DX2                !
 ! A71   A(21,22,44)           119.9404         estimate D2E/DX2                !
 ! A72   A(23,22,44)           120.2853         estimate D2E/DX2                !
 ! A73   A(22,23,24)           120.0982         estimate D2E/DX2                !
 ! A74   A(22,23,45)           119.7136         estimate D2E/DX2                !
 ! A75   A(24,23,45)           120.1872         estimate D2E/DX2                !
 ! A76   A(19,24,23)           121.0644         estimate D2E/DX2                !
 ! A77   A(19,24,46)           121.0134         estimate D2E/DX2                !
 ! A78   A(23,24,46)           117.9214         estimate D2E/DX2                !
 ! A79   A(4,25,26)            120.685          estimate D2E/DX2                !
 ! A80   A(4,25,47)            120.6887         estimate D2E/DX2                !
 ! A81   A(26,25,47)           118.6245         estimate D2E/DX2                !
 ! A82   A(1,26,25)            120.083          estimate D2E/DX2                !
 ! A83   A(1,26,48)            120.0494         estimate D2E/DX2                !
 ! A84   A(25,26,48)           119.8666         estimate D2E/DX2                !
 ! D1    D(26,1,2,3)            -0.9443         estimate D2E/DX2                !
 ! D2    D(26,1,2,28)          179.0954         estimate D2E/DX2                !
 ! D3    D(27,1,2,3)           179.0137         estimate D2E/DX2                !
 ! D4    D(27,1,2,28)           -0.9466         estimate D2E/DX2                !
 ! D5    D(2,1,26,25)            1.1641         estimate D2E/DX2                !
 ! D6    D(2,1,26,48)         -179.2011         estimate D2E/DX2                !
 ! D7    D(27,1,26,25)        -178.7937         estimate D2E/DX2                !
 ! D8    D(27,1,26,48)           0.841          estimate D2E/DX2                !
 ! D9    D(1,2,3,4)             -0.2551         estimate D2E/DX2                !
 ! D10   D(1,2,3,29)           179.8005         estimate D2E/DX2                !
 ! D11   D(28,2,3,4)           179.7052         estimate D2E/DX2                !
 ! D12   D(28,2,3,29)           -0.2392         estimate D2E/DX2                !
 ! D13   D(2,3,4,5)           -177.7271         estimate D2E/DX2                !
 ! D14   D(2,3,4,25)             1.2123         estimate D2E/DX2                !
 ! D15   D(29,3,4,5)             2.2163         estimate D2E/DX2                !
 ! D16   D(29,3,4,25)         -178.8443         estimate D2E/DX2                !
 ! D17   D(3,4,5,6)           -103.8879         estimate D2E/DX2                !
 ! D18   D(3,4,5,30)            15.8918         estimate D2E/DX2                !
 ! D19   D(3,4,5,31)           130.7646         estimate D2E/DX2                !
 ! D20   D(25,4,5,6)            77.1965         estimate D2E/DX2                !
 ! D21   D(25,4,5,30)         -163.0238         estimate D2E/DX2                !
 ! D22   D(25,4,5,31)          -48.151          estimate D2E/DX2                !
 ! D23   D(3,4,25,26)           -0.9927         estimate D2E/DX2                !
 ! D24   D(3,4,25,47)          179.4998         estimate D2E/DX2                !
 ! D25   D(5,4,25,26)          177.9426         estimate D2E/DX2                !
 ! D26   D(5,4,25,47)           -1.5649         estimate D2E/DX2                !
 ! D27   D(4,5,6,7)             50.0381         estimate D2E/DX2                !
 ! D28   D(4,5,6,13)           -73.2029         estimate D2E/DX2                !
 ! D29   D(4,5,6,19)           170.0864         estimate D2E/DX2                !
 ! D30   D(30,5,6,7)           -71.0866         estimate D2E/DX2                !
 ! D31   D(30,5,6,13)          165.6725         estimate D2E/DX2                !
 ! D32   D(30,5,6,19)           48.9617         estimate D2E/DX2                !
 ! D33   D(31,5,6,7)           174.0261         estimate D2E/DX2                !
 ! D34   D(31,5,6,13)           50.7851         estimate D2E/DX2                !
 ! D35   D(31,5,6,19)          -65.9257         estimate D2E/DX2                !
 ! D36   D(5,6,7,8)            -83.0735         estimate D2E/DX2                !
 ! D37   D(5,6,7,12)            92.9677         estimate D2E/DX2                !
 ! D38   D(13,6,7,8)            38.2012         estimate D2E/DX2                !
 ! D39   D(13,6,7,12)         -145.7576         estimate D2E/DX2                !
 ! D40   D(19,6,7,8)           157.7987         estimate D2E/DX2                !
 ! D41   D(19,6,7,12)          -26.1601         estimate D2E/DX2                !
 ! D42   D(5,6,13,14)          138.9001         estimate D2E/DX2                !
 ! D43   D(5,6,13,18)          -45.0241         estimate D2E/DX2                !
 ! D44   D(7,6,13,14)           20.188          estimate D2E/DX2                !
 ! D45   D(7,6,13,18)         -163.7362         estimate D2E/DX2                !
 ! D46   D(19,6,13,14)        -102.2005         estimate D2E/DX2                !
 ! D47   D(19,6,13,18)          73.8753         estimate D2E/DX2                !
 ! D48   D(5,6,19,20)           18.005          estimate D2E/DX2                !
 ! D49   D(5,6,19,24)         -164.941          estimate D2E/DX2                !
 ! D50   D(7,6,19,20)          134.8054         estimate D2E/DX2                !
 ! D51   D(7,6,19,24)          -48.1407         estimate D2E/DX2                !
 ! D52   D(13,6,19,20)        -101.3317         estimate D2E/DX2                !
 ! D53   D(13,6,19,24)          75.7223         estimate D2E/DX2                !
 ! D54   D(6,7,8,9)           -179.0295         estimate D2E/DX2                !
 ! D55   D(6,7,8,32)             0.9045         estimate D2E/DX2                !
 ! D56   D(12,7,8,9)             4.7782         estimate D2E/DX2                !
 ! D57   D(12,7,8,32)         -175.2879         estimate D2E/DX2                !
 ! D58   D(6,7,12,11)          179.8541         estimate D2E/DX2                !
 ! D59   D(6,7,12,36)           -0.9385         estimate D2E/DX2                !
 ! D60   D(8,7,12,11)           -3.9515         estimate D2E/DX2                !
 ! D61   D(8,7,12,36)          175.2559         estimate D2E/DX2                !
 ! D62   D(7,8,9,10)            -2.3613         estimate D2E/DX2                !
 ! D63   D(7,8,9,33)           177.9835         estimate D2E/DX2                !
 ! D64   D(32,8,9,10)          177.7025         estimate D2E/DX2                !
 ! D65   D(32,8,9,33)           -1.9526         estimate D2E/DX2                !
 ! D66   D(8,9,10,11)           -1.0505         estimate D2E/DX2                !
 ! D67   D(8,9,10,34)          179.5868         estimate D2E/DX2                !
 ! D68   D(33,9,10,11)         178.605          estimate D2E/DX2                !
 ! D69   D(33,9,10,34)          -0.7577         estimate D2E/DX2                !
 ! D70   D(9,10,11,12)           1.86           estimate D2E/DX2                !
 ! D71   D(9,10,11,35)        -177.8521         estimate D2E/DX2                !
 ! D72   D(34,10,11,12)       -178.7776         estimate D2E/DX2                !
 ! D73   D(34,10,11,35)          1.5103         estimate D2E/DX2                !
 ! D74   D(10,11,12,7)           0.7161         estimate D2E/DX2                !
 ! D75   D(10,11,12,36)       -178.5185         estimate D2E/DX2                !
 ! D76   D(35,11,12,7)        -179.5724         estimate D2E/DX2                !
 ! D77   D(35,11,12,36)          1.193          estimate D2E/DX2                !
 ! D78   D(6,13,14,15)        -178.5859         estimate D2E/DX2                !
 ! D79   D(6,13,14,37)           1.9162         estimate D2E/DX2                !
 ! D80   D(18,13,14,15)          5.2408         estimate D2E/DX2                !
 ! D81   D(18,13,14,37)       -174.2571         estimate D2E/DX2                !
 ! D82   D(6,13,18,17)         178.7896         estimate D2E/DX2                !
 ! D83   D(6,13,18,41)          -1.4811         estimate D2E/DX2                !
 ! D84   D(14,13,18,17)         -4.9216         estimate D2E/DX2                !
 ! D85   D(14,13,18,41)        174.8077         estimate D2E/DX2                !
 ! D86   D(13,14,15,16)         -2.2494         estimate D2E/DX2                !
 ! D87   D(13,14,15,38)        178.328          estimate D2E/DX2                !
 ! D88   D(37,14,15,16)        177.2673         estimate D2E/DX2                !
 ! D89   D(37,14,15,38)         -2.1553         estimate D2E/DX2                !
 ! D90   D(14,15,16,17)         -1.2724         estimate D2E/DX2                !
 ! D91   D(14,15,16,39)        179.5728         estimate D2E/DX2                !
 ! D92   D(38,15,16,17)        178.1505         estimate D2E/DX2                !
 ! D93   D(38,15,16,39)         -1.0043         estimate D2E/DX2                !
 ! D94   D(15,16,17,18)          1.5922         estimate D2E/DX2                !
 ! D95   D(15,16,17,40)       -178.1548         estimate D2E/DX2                !
 ! D96   D(39,16,17,18)       -179.2508         estimate D2E/DX2                !
 ! D97   D(39,16,17,40)          1.0022         estimate D2E/DX2                !
 ! D98   D(16,17,18,13)          1.5968         estimate D2E/DX2                !
 ! D99   D(16,17,18,41)       -178.1422         estimate D2E/DX2                !
 ! D100  D(40,17,18,13)       -178.656          estimate D2E/DX2                !
 ! D101  D(40,17,18,41)          1.605          estimate D2E/DX2                !
 ! D102  D(6,19,20,21)         177.7904         estimate D2E/DX2                !
 ! D103  D(6,19,20,42)          -1.122          estimate D2E/DX2                !
 ! D104  D(24,19,20,21)          0.6904         estimate D2E/DX2                !
 ! D105  D(24,19,20,42)       -178.222          estimate D2E/DX2                !
 ! D106  D(6,19,24,23)        -179.0818         estimate D2E/DX2                !
 ! D107  D(6,19,24,46)           1.2485         estimate D2E/DX2                !
 ! D108  D(20,19,24,23)         -1.8852         estimate D2E/DX2                !
 ! D109  D(20,19,24,46)        178.4451         estimate D2E/DX2                !
 ! D110  D(19,20,21,22)          0.6707         estimate D2E/DX2                !
 ! D111  D(19,20,21,43)       -178.8177         estimate D2E/DX2                !
 ! D112  D(42,20,21,22)        179.628          estimate D2E/DX2                !
 ! D113  D(42,20,21,43)          0.1395         estimate D2E/DX2                !
 ! D114  D(20,21,22,23)         -0.8647         estimate D2E/DX2                !
 ! D115  D(20,21,22,44)        179.6738         estimate D2E/DX2                !
 ! D116  D(43,21,22,23)        178.6223         estimate D2E/DX2                !
 ! D117  D(43,21,22,44)         -0.8392         estimate D2E/DX2                !
 ! D118  D(21,22,23,24)         -0.3185         estimate D2E/DX2                !
 ! D119  D(21,22,23,45)       -179.9554         estimate D2E/DX2                !
 ! D120  D(44,22,23,24)        179.1411         estimate D2E/DX2                !
 ! D121  D(44,22,23,45)         -0.4958         estimate D2E/DX2                !
 ! D122  D(22,23,24,19)          1.7262         estimate D2E/DX2                !
 ! D123  D(22,23,24,46)       -178.5941         estimate D2E/DX2                !
 ! D124  D(45,23,24,19)       -178.6387         estimate D2E/DX2                !
 ! D125  D(45,23,24,46)          1.041          estimate D2E/DX2                !
 ! D126  D(4,25,26,1)           -0.1856         estimate D2E/DX2                !
 ! D127  D(4,25,26,48)        -179.821          estimate D2E/DX2                !
 ! D128  D(47,25,26,1)         179.332          estimate D2E/DX2                !
 ! D129  D(47,25,26,48)         -0.3035         estimate D2E/DX2                !
 --------------------------------------------------------------------------------
 Trust Radius=3.00D-01 FncErr=1.00D-07 GrdErr=1.00D-06 EigMax=2.50D+02 EigMin=1.00D-04
 Number of steps in this run=    274 maximum allowed number of steps=    288.
 GradGradGradGradGradGradGradGradGradGradGradGradGradGradGradGradGradGrad

 Leave Link  103 at Tue Feb 23 00:11:04 2021, MaxMem=   104857600 cpu:               0.7 elap:               0.1
 (Enter /sw/arch/RedHatEnterpriseServer7/EB_production/2019/software/Gaussian/g16.c01/l202.exe)
                          Input orientation:                          
 ---------------------------------------------------------------------
 Center     Atomic      Atomic             Coordinates (Angstroms)
 Number     Number       Type             X           Y           Z
 ---------------------------------------------------------------------
      1          6           0       -2.711850   -5.234060   -0.366160
      2          6           0       -3.430580   -4.026080   -0.392690
      3          6           0       -2.928600   -2.893630    0.273110
      4          6           0       -1.702260   -2.956700    0.979370
      5          6           0       -1.199360   -1.773550    1.723480
      6         15           0        0.105050   -0.907990    0.947430
      7          6           0       -0.403860   -0.632050   -0.645740
      8          6           0       -0.259080   -1.626000   -1.649490
      9          6           0       -0.662250   -1.391840   -2.976630
     10          6           0       -1.266690   -0.173130   -3.321930
     11          6           0       -1.486220    0.799480   -2.333680
     12          6           0       -1.066150    0.568820   -1.009790
     13          6           0        1.544560   -1.791960    1.052220
     14          6           0        2.460510   -1.897840   -0.025540
     15          6           0        3.633990   -2.665140    0.085820
     16          6           0        3.944380   -3.308110    1.295160
     17          6           0        3.091110   -3.158670    2.399120
     18          6           0        1.915610   -2.396550    2.282310
     19          6           0        0.386690    0.550400    1.759830
     20          6           0       -0.075550    0.794040    3.078560
     21          6           0        0.216430    2.000560    3.740000
     22          6           0        0.965090    2.995540    3.092010
     23          6           0        1.437080    2.774860    1.787680
     24          6           0        1.165820    1.557370    1.135380
     25          6           0       -0.981450   -4.173840    0.978990
     26          6           0       -1.481820   -5.303300    0.309520
     27          1           0       -3.085650   -6.058720   -0.837490
     28          1           0       -4.320690   -3.969730   -0.896360
     29          1           0       -3.465750   -2.021600    0.239440
     30          1           0       -2.015180   -1.059490    1.851810
     31          1           0       -0.919140   -2.089210    2.729710
     32          1           0        0.144260   -2.539170   -1.431060
     33          1           0       -0.520060   -2.111160   -3.689280
     34          1           0       -1.554610    0.001290   -4.287220
     35          1           0       -1.956090    1.674480   -2.576630
     36          1           0       -1.266190    1.293070   -0.316850
     37          1           0        2.297340   -1.413800   -0.909900
     38          1           0        4.267630   -2.748130   -0.712940
     39          1           0        4.793720   -3.872010    1.376900
     40          1           0        3.325700   -3.600360    3.289090
     41          1           0        1.339600   -2.290280    3.117260
     42          1           0       -0.617740    0.098200    3.591890
     43          1           0       -0.111840    2.147880    4.698050
     44          1           0        1.171430    3.872940    3.573050
     45          1           0        1.983100    3.500210    1.316610
     46          1           0        1.544510    1.423270    0.193520
     47          1           0       -0.090430   -4.251960    1.471450
     48          1           0       -0.951680   -6.177630    0.319640
 ---------------------------------------------------------------------
                    Distance matrix (angstroms):
                    1          2          3          4          5
     1  C    0.000000
     2  C    1.405878   0.000000
     3  C    2.435828   1.406313   0.000000
     4  C    2.831270   2.452185   1.416577   0.000000
     5  C    4.316173   3.811877   2.519608   1.485413   0.000000
     6  P    5.326850   4.900927   3.687886   2.732142   1.747264
     7  C    5.155917   4.554614   3.511886   3.119427   2.747553
     8  C    4.547649   4.171132   3.525566   3.280920   3.504686
     9  C    5.077211   4.612984   4.237042   4.379537   4.746075
    10  C    6.036396   5.301706   4.804933   5.141903   5.293585
    11  C    6.463506   5.552838   4.744984   5.013169   4.812829
    12  C    6.065971   5.204272   4.135591   4.097644   3.602111
    13  C    5.654810   5.641903   4.672242   3.450184   2.824894
    14  C    6.164389   6.274484   5.488469   4.411313   4.058222
    15  C    6.861000   7.210359   6.569237   5.418395   5.180554
    16  C    7.125634   7.599629   6.960908   5.666371   5.384830
    17  C    6.754877   7.146960   6.389607   5.003287   4.558857
    18  C    6.039805   6.196188   5.267859   3.885924   3.225439
    19  C    6.897881   6.336329   5.006279   4.156029   2.813826
    20  C    7.426585   6.821976   5.441448   4.595741   3.113151
    21  C    8.819019   8.167019   6.772270   5.989731   4.507185
    22  C    9.654281   8.987113   7.601930   6.856177   5.413126
    23  C    9.273373   8.642969   7.313335   6.584801   5.257658
    24  C    7.963320   7.391671   6.108943   5.350425   4.127344
    25  C    2.434703   2.810974   2.434871   1.414566   2.522527
    26  C    1.405102   2.433527   2.810873   2.450270   3.812899
    27  H    1.020756   2.109135   3.357959   3.851919   5.336604
    28  H    2.113766   1.024282   2.112715   3.376502   4.629197
    29  H    3.354850   2.102086   1.024744   2.128804   2.720373
    30  H    4.778261   3.980175   2.586639   2.111510   1.091747
    31  H    4.763224   4.450638   3.274127   2.104639   1.091175
    32  H    4.068637   4.008565   3.531615   3.064986   3.513205
    33  H    5.059602   4.796410   4.702537   4.889665   5.465656
    34  H    6.642500   5.908158   5.573600   6.042224   6.277322
    35  H    7.292824   6.280135   5.471236   5.844433   5.563497
    36  H    6.685491   5.743143   4.543140   4.464402   3.683961
    37  H    6.323134   6.316691   5.558764   4.684729   4.392155
    38  H    7.417091   7.810131   7.264929   6.208623   6.064151
    39  H    7.824770   8.413935   7.861921   6.572182   6.359297
    40  H    7.244435   7.706105   6.979389   5.570412   5.124894
    41  H    6.100353   6.171496   5.164373   3.777248   2.942100
    42  H    6.963078   6.387381   5.030449   4.163395   2.707893
    43  H    9.321980   8.662993   7.275373   6.512661   5.040673
    44  H   10.655266   9.964944   8.572416   7.850430   6.397218
    45  H   10.057919   9.427337   8.129876   7.442264   6.173017
    46  H    7.921482   7.402066   6.216967   5.508467   4.482104
    47  H    3.348608   3.831794   3.366940   2.125520   2.726859
    48  H    2.111598   3.358798   3.833410   3.372388   4.629042
                    6          7          8          9         10
     6  P    0.000000
     7  C    1.695088   0.000000
     8  C    2.718846   1.420004   0.000000
     9  C    4.027544   2.465176   1.406655   0.000000
    10  C    4.544131   2.849048   2.433755   1.403508   0.000000
    11  C    4.026571   2.463721   2.803024   2.427796   1.403852
    12  C    2.717239   1.418890   2.424420   2.806382   2.436534
    13  C    1.692505   2.832808   3.252675   4.611045   5.445817
    14  C    2.733983   3.192411   3.179195   4.326268   5.266197
    15  C    4.035265   4.579614   4.387152   5.427483   6.468349
    16  C    4.541139   5.462196   5.400883   6.568205   7.635501
    17  C    4.011174   5.279185   5.473947   6.790294   7.786802
    18  C    2.697377   4.131208   4.558736   5.942327   6.817487
    19  C    1.692990   2.794624   4.095998   5.225574   5.392722
    20  C    2.733356   4.001491   5.314577   6.464334   6.581831
    21  C    4.033673   5.152680   6.513421   7.575855   7.536274
    22  C    4.536126   5.385556   6.733428   7.663272   7.493993
    23  C    4.005460   4.573579   5.835980   6.668375   6.489155
    24  C    2.690457   3.229527   4.463147   5.380363   5.364639
    25  C    3.441984   3.939243   3.731248   4.846477   5.880897
    26  C    4.716337   4.888261   4.342275   5.173973   6.289066
    27  H    6.316370   6.056196   5.319572   5.677020   6.642381
    28  H    5.688672   5.152133   4.749416   4.935304   5.442837
    29  H    3.806835   3.477005   3.742631   4.312692   4.575594
    30  H    2.310028   3.002801   3.957767   5.025406   5.302212
    31  H    2.370816   3.712478   4.452823   5.754532   6.357240
    32  H    2.884354   2.134074   1.021897   2.087010   3.341304
    33  H    4.830886   3.385913   2.112873   1.022501   2.109114
    34  H    5.566222   3.871140   3.359180   2.110631   1.022304
    35  H    4.830781   3.384942   3.825258   3.352065   2.108176
    36  H    2.885025   2.134917   3.363208   3.827259   3.343688
    37  H    2.917474   2.824428   2.669701   3.609852   4.478779
    38  H    4.844586   5.128853   4.756827   5.591738   6.638234
    39  H    5.563586   6.450058   6.303522   7.407569   8.514064
    40  H    4.806747   6.180887   6.413916   7.748584   8.748802
    41  H    2.853595   4.466492   5.071386   6.476889   7.262110
    42  H    2.920276   4.305406   5.529337   6.735552   6.949508
    43  H    4.842782   6.030703   7.386143   8.469550   8.428573
    44  H    5.557728   6.369824   7.717488   8.601081   8.357982
    45  H    4.805787   5.159842   6.332705   7.025805   6.750601
    46  H    2.841689   2.953785   3.993453   4.779590   4.775953
    47  H    3.390420   4.205292   4.082202   5.319086   6.402885
    48  H    5.411091   5.655574   5.007445   5.818329   7.029529
                   11         12         13         14         15
    11  C    0.000000
    12  C    1.407959   0.000000
    13  C    5.231205   4.079335   0.000000
    14  C    5.308458   4.414804   1.418359   0.000000
    15  C    6.638834   5.809490   2.462131   1.406487   0.000000
    16  C    7.715711   6.741572   2.849012   2.436181   1.404370
    17  C    7.682337   6.541992   2.464519   2.804697   2.426860
    18  C    6.564634   5.340621   1.419975   2.423180   2.801703
    19  C    4.508509   3.127599   2.707033   3.671805   4.866926
    20  C    5.593064   4.212674   3.663087   4.828380   5.889236
    21  C    6.421152   5.124002   4.834387   5.866235   6.841162
    22  C    6.345842   5.180702   5.236094   5.991708   6.942874
    23  C    5.425257   4.354149   4.626910   5.115594   6.108710
    24  C    4.431940   3.249719   3.371702   3.868131   5.002302
    25  C    5.996873   5.143466   3.472671   4.246922   4.937227
    26  C    6.650598   6.032840   4.694687   5.220286   5.760333
    27  H    7.199421   6.930538   6.573818   6.980836   7.584355
    28  H    5.731097   5.585994   6.552923   7.143930   8.120564
    29  H    4.300928   3.745522   5.080999   5.933472   7.130501
    30  H    4.610195   3.426486   3.721237   4.925350   6.132696
    31  H    5.856964   4.590272   2.995354   4.364637   5.296493
    32  H    3.823581   3.361869   2.947175   2.784206   3.807231
    33  H    3.353050   3.828861   5.181348   4.727821   5.640426
    34  H    2.111422   3.361879   6.428858   6.155469   7.290741
    35  H    1.022462   2.114111   6.118767   6.227029   7.561080
    36  H    2.087977   1.022115   4.392275   4.914780   6.311999
    37  H    4.608805   3.905615   2.135321   1.021279   2.084213
    38  H    6.951196   6.288043   3.383070   2.112154   1.022939
    39  H    8.661921   7.730158   3.871571   3.362745   2.113858
    40  H    8.609803   7.426357   3.383247   3.825428   3.351211
    41  H    6.873472   5.567282   2.134179   3.359708   3.820258
    42  H    6.029795   4.647366   3.833819   5.152242   6.164883
    43  H    7.290564   5.998631   5.617658   6.730315   7.646507
    44  H    7.169290   6.076709   6.211675   6.921956   7.808423
    45  H    5.714433   4.827329   5.316887   5.582851   6.500140
    46  H    3.995144   2.998931   3.327923   3.452074   4.592670
    47  H    6.476441   5.508947   2.983378   3.780232   4.278934
    48  H    7.483709   6.877141   5.099215   5.484414   5.781058
                   16         17         18         19         20
    16  C    0.000000
    17  C    1.403257   0.000000
    18  C    2.433375   1.405799   0.000000
    19  C    5.268888   4.634628   3.360818   0.000000
    20  C    6.013983   5.110116   3.844294   1.418476   0.000000
    21  C    6.932303   6.056352   4.934232   2.460290   1.406572
    22  C    7.200058   6.547851   5.534775   2.843934   2.435101
    23  C    6.597852   6.190028   5.217004   2.460146   2.806790
    24  C    5.605249   5.248315   4.184629   1.418087   2.428913
    25  C    5.011313   4.430924   3.640104   4.979956   5.468883
    26  C    5.864803   5.466036   4.887088   6.313520   6.842714
    27  H    7.844449   7.552370   6.939542   7.904662   8.447276
    28  H    8.576239   8.151858   7.174279   7.046016   7.517626
    29  H    7.594714   6.996396   5.768270   4.875250   5.242317
    30  H    6.393943   5.548000   4.174227   2.892954   2.950026
    31  H    5.215120   4.163549   2.886249   3.100548   3.024313
    32  H    4.739668   4.872164   4.116690   4.448145   5.612065
    33  H    6.797688   7.155868   6.455527   6.131794   7.378444
    34  H    8.506115   8.733568   7.807099   6.374714   7.554521
    35  H    8.639011   8.578558   7.427829   5.055399   6.024349
    36  H    7.135788   6.795627   5.522027   2.756115   3.632556
    37  H    3.341174   3.824167   3.361803   3.825719   5.139356
    38  H    2.109629   3.352262   3.824543   5.661854   6.766510
    39  H    1.022762   2.110135   3.358611   6.255099   6.955391
    40  H    2.108064   1.020867   2.109767   5.310859   5.560897
    41  H    3.337799   2.082694   1.019913   3.289395   3.393697
    42  H    6.139288   5.077940   3.789016   2.137711   1.020623
    43  H    7.602658   6.610858   5.531564   3.381362   2.111148
    44  H    8.027796   7.382874   6.444092   3.865599   3.358438
    45  H    7.085217   6.836680   5.975693   3.383245   3.829604
    46  H    5.418389   5.315150   4.369415   2.134426   3.368083
    47  H    4.147484   3.489706   2.850305   4.834611   5.295766
    48  H    5.758228   5.457335   5.135172   7.009406   7.548737
                   21         22         23         24         25
    21  C    0.000000
    22  C    1.403698   0.000000
    23  C    2.429214   1.404547   0.000000
    24  C    2.807455   2.436601   1.407608   0.000000
    25  C    6.868865   7.723592   7.401871   6.122254   0.000000
    26  C    8.246127   9.088474   8.715595   7.400056   1.405077
    27  H    9.839164  10.669072  10.265415   8.942709   3.358576
    28  H    8.816215   9.610492   9.265284   8.048515   3.835247
    29  H    6.479980   7.276070   7.031416   5.921417   3.369097
    30  H    4.231932   5.182989   5.159889   4.180908   3.395525
    31  H    4.363075   5.434728   5.486198   4.492938   2.722974
    32  H    6.881440   7.194786   6.345911   4.940834   3.122132
    33  H    8.523078   8.618001   7.596096   6.291077   5.124478
    34  H    8.459901   8.352692   7.317603   6.263123   6.744864
    35  H    6.687749   6.512447   5.636634   4.851706   6.913408
    36  H    4.376841   4.415579   3.732615   2.844908   5.625601
    37  H    6.132667   6.101840   5.055874   3.780391   4.683609
    38  H    7.667526   7.640298   6.690929   5.619150   5.696325
    39  H    7.811716   8.047562   7.457657   6.534383   5.796725
    40  H    6.421930   7.008368   6.816491   5.992139   4.921075
    41  H    4.478909   5.299131   5.237645   4.331565   3.675224
    42  H    2.082486   3.339133   3.826482   3.368190   5.020942
    43  H    1.023389   2.111320   3.355966   3.830631   7.385917
    44  H    2.108484   1.021668   2.112793   3.362162   8.724374
    45  H    3.353042   2.107862   1.022828   2.115518   8.233686
    46  H    3.830742   3.347985   2.092769   1.023958   6.190725
    47  H    6.658415   7.501106   7.197881   5.953102   1.021047
    48  H    8.941260   9.772773   9.381279   8.060984   2.109693
                   26         27         28         29         30
    26  C    0.000000
    27  H    2.111531   0.000000
    28  H    3.360318   2.427482   0.000000
    29  H    3.835420   4.195544   2.411675   0.000000
    30  H    4.546763   5.776724   4.619233   2.372666   0.000000
    31  H    4.062549   5.759834   5.315570   3.562476   1.741360
    32  H    3.648859   4.813717   4.718918   4.011312   4.198794
    33  H    5.206260   5.504379   5.069465   4.911207   5.834816
    34  H    7.019544   7.139219   5.909156   5.313680   6.247005
    35  H    7.565990   8.006428   6.346002   4.885727   5.204725
    36  H    6.629550   7.591463   6.112517   4.016785   3.286124
    37  H    5.558529   7.110352   7.094454   5.907928   5.133265
    38  H    6.374205   8.065125   8.676704   7.825602   6.993079
    39  H    6.524591   8.471700   9.394133   8.540297   7.382203
    40  H    5.906783   8.011093   8.724775   7.610298   6.086608
    41  H    4.992204   7.030222   7.139228   5.607622   3.790878
    42  H    6.379404   7.976067   7.099597   4.882994   2.514153
    43  H    8.755348  10.336055   9.297150   6.965090   4.691589
    44  H   10.094243  11.671052  10.566290   8.207435   6.119315
    45  H    9.514289  11.032022  10.021727   7.832027   6.087984
    46  H    7.376915   8.858981   8.041944   6.080456   4.646011
    47  H    2.095558   4.191292   4.856056   4.229083   3.747159
    48  H    1.022548   2.430415   4.207577   4.857938   5.447379
                   31         32         33         34         35
    31  H    0.000000
    32  H    4.318019   0.000000
    33  H    6.431421   2.392503   0.000000
    34  H    7.349239   4.183031   2.426988   0.000000
    35  H    6.587706   4.845477   4.198957   2.426287   0.000000
    36  H    4.565281   4.232836   4.849616   4.185179   2.393333
    37  H    4.903946   2.484717   4.018583   5.314724   5.514266
    38  H    6.260080   4.190649   5.673298   7.364324   7.859231
    39  H    6.135572   5.592726   7.550035   9.348048   9.589259
    40  H    4.540391   5.790294   8.105877   9.705142   9.493572
    41  H    2.300550   4.709352   7.058286   8.273697   7.681229
    42  H    2.370434   5.724193   7.609616   7.935206   6.505880
    43  H    4.741205   7.720105   9.415592   9.350108   7.519730
    44  H    6.374083   8.198253   9.560964   9.176318   7.241075
    45  H    6.454569   6.885139   7.925416   7.494047   5.831623
    46  H    4.983909   4.505651   5.641877   5.630595   4.471134
    47  H    2.635805   3.378357   5.603636   7.307273   7.415547
    48  H    4.746017   4.183829   5.726597   7.730830   8.429285
                   36         37         38         39         40
    36  H    0.000000
    37  H    4.514155   0.000000
    38  H    6.863771   2.387734   0.000000
    39  H    8.140599   4.183798   2.430495   0.000000
    40  H    7.617999   4.844593   4.198782   2.425973   0.000000
    41  H    5.605680   4.231253   4.842873   4.178716   2.385462
    42  H    4.138412   5.572248   7.106335   7.067719   5.414956
    43  H    5.216555   7.066740   8.510551   8.445924   6.844276
    44  H    5.265837   7.022402   8.473177   8.827701   7.782784
    45  H    4.254121   5.404034   6.955566   7.890047   7.490751
    46  H    2.859627   3.135802   5.063362   6.324377   6.163769
    47  H    5.943718   4.407655   5.101544   4.899819   3.924072
    48  H    7.504358   5.895929   6.329999   6.280390   5.809986
                   41         42         43         44         45
    41  H    0.000000
    42  H    3.124306   0.000000
    43  H    4.929791   2.383425   0.000000
    44  H    6.182338   4.177337   2.426569   0.000000
    45  H    6.098049   4.849221   4.201393   2.426779   0.000000
    46  H    4.730824   4.240289   4.853797   4.190620   2.401535
    47  H    2.932894   4.868081   7.167242   8.486637   8.026185
    48  H    5.309250   7.085561   9.444042  10.775260  10.162060
                   46         47         48
    46  H    0.000000
    47  H    6.042712   0.000000
    48  H    8.001284   2.403461   0.000000
 Stoichiometry    C25H22P(1+)
 Framework group  C1[X(C25H22P)]
 Deg. of freedom   138
 Full point group                 C1      NOp   1
 Largest Abelian subgroup         C1      NOp   1
 Largest concise Abelian subgroup C1      NOp   1
                         Standard orientation:                         
 ---------------------------------------------------------------------
 Center     Atomic      Atomic             Coordinates (Angstroms)
 Number     Number       Type             X           Y           Z
 ---------------------------------------------------------------------
      1          6           0       -4.724844    0.330969   -1.211954
      2          6           0       -4.135379   -0.890614   -1.581764
      3          6           0       -2.739427   -0.983871   -1.724372
      4          6           0       -1.914700    0.146554   -1.503794
      5          6           0       -0.445491    0.058178   -1.703964
      6         15           0        0.499214   -0.035343   -0.237091
      7          6           0       -0.206943   -1.264393    0.692480
      8          6           0       -1.339481   -1.012478    1.511203
      9          6           0       -1.914732   -2.026085    2.298835
     10          6           0       -1.400409   -3.330997    2.248714
     11          6           0       -0.325833   -3.623167    1.393890
     12          6           0        0.258602   -2.602752    0.619591
     13          6           0        0.529680    1.466828    0.542092
     14          6           0        0.412023    1.604386    1.948853
     15          6           0        0.411821    2.870415    2.561534
     16          6           0        0.576835    4.029523    1.785973
     17          6           0        0.768628    3.915649    0.400557
     18          6           0        0.761543    2.649105   -0.209433
     19          6           0        2.107836   -0.403405   -0.615351
     20          6           0        2.646646   -0.233761   -1.916497
     21          6           0        4.000338   -0.506479   -2.184058
     22          6           0        4.841475   -0.968240   -1.159541
     23          6           0        4.331155   -1.139624    0.137745
     24          6           0        2.982531   -0.842853    0.410692
     25          6           0       -2.521825    1.362739   -1.112272
     26          6           0       -3.916286    1.453413   -0.965652
     27          1           0       -5.739438    0.400003   -1.123777
     28          1           0       -4.721964   -1.713626   -1.748268
     29          1           0       -2.328641   -1.883843   -1.991592
     30          1           0       -0.217290   -0.840566   -2.280242
     31          1           0       -0.128142    0.897954   -2.324229
     32          1           0       -1.765204   -0.084244    1.548832
     33          1           0       -2.711034   -1.814108    2.904209
     34          1           0       -1.813159   -4.067515    2.825154
     35          1           0        0.028856   -4.580103    1.331467
     36          1           0        1.023346   -2.862983   -0.006641
     37          1           0        0.331780    0.787745    2.556858
     38          1           0        0.300085    2.947078    3.575458
     39          1           0        0.570561    4.951765    2.228097
     40          1           0        0.917312    4.752638   -0.164696
     41          1           0        0.933644    2.610402   -1.213975
     42          1           0        2.075520    0.105460   -2.691362
     43          1           0        4.372307   -0.359815   -3.126105
     44          1           0        5.823124   -1.170281   -1.357910
     45          1           0        4.945030   -1.475491    0.883754
     46          1           0        2.651207   -0.958967    1.372581
     47          1           0       -1.956479    2.194854   -0.937615
     48          1           0       -4.342211    2.339559   -0.684695
 ---------------------------------------------------------------------
 Rotational constants (GHZ):           0.2454469           0.1762181           0.1466048
 Leave Link  202 at Tue Feb 23 00:11:04 2021, MaxMem=   104857600 cpu:               0.4 elap:               0.0
 (Enter /sw/arch/RedHatEnterpriseServer7/EB_production/2019/software/Gaussian/g16.c01/l301.exe)
 Standard basis: TZVP (5D, 7F)
 Ernie: Thresh=  0.10000D-02 Tol=  0.10000D-05 Strict=F.
 There are   655 symmetry adapted cartesian basis functions of A   symmetry.
 There are   629 symmetry adapted basis functions of A   symmetry.
   629 basis functions,  1098 primitive gaussians,   655 cartesian basis functions
    93 alpha electrons       93 beta electrons
       nuclear repulsion energy      2404.3591952277 Hartrees.
 IExCor=  404 DFT=T Ex=B Corr=P86 ExCW=0 ScaHFX=  0.000000
 ScaDFX=  1.000000  1.000000  1.000000  1.000000 ScalE2=  1.000000  1.000000
 IRadAn=      5 IRanWt=     -1 IRanGd=            0 ICorTp=0 IEmpDi=131
 NAtoms=   48 NActive=   48 NUniq=   48 SFac= 1.00D+00 NAtFMM=   60 NAOKFM=F Big=F
 Integral buffers will be    131072 words long.
 Raffenetti 2 integral format.
 Two-electron integral symmetry is turned on.
 R6Disp:  Grimme-D3 Dispersion energy=       -0.0645786240 Hartrees.
 Nuclear repulsion after empirical dispersion term =     2404.2946166037 Hartrees.
 ------------------------------------------------------------------------------
 Polarizable Continuum Model (PCM)
 =================================
 Model                : PCM.
 Atomic radii         : UFF (Universal Force Field).
 Polarization charges : Total charges.
 Charge compensation  : None.
 Solution method      : On-the-fly selection.
 Cavity type          : Scaled VdW (van der Waals Surface) (Alpha=1.100).
 Cavity algorithm     : GePol (No added spheres)
                        Default sphere list used, NSphG=   48.
                        Lebedev-Laikov grids with approx.  5.0 points / Ang**2.
                        Smoothing algorithm: York/Karplus (Gamma=1.0000).
                        Polarization charges: spherical gaussians, with
                                              point-specific exponents (IZeta= 3).
                        Self-potential: point-specific (ISelfS= 7).
                        Self-field    : sphere-specific E.n sum rule (ISelfD= 2).
 1st derivatives      : Analytical E(r).r(x)/FMM algorithm (CHGder, D1EAlg=3).
                        Cavity 1st derivative terms included.
 Solvent              : Water, Eps=  78.355300 Eps(inf)=   1.777849
 ------------------------------------------------------------------------------
 GePol: Number of generator spheres                  =      48
 GePol: Total number of spheres                      =      48
 GePol: Number of exposed spheres                    =      48 (100.00%)
 GePol: Number of points                             =    3433
 GePol: Average weight of points                     =       0.12
 GePol: Minimum weight of points                     =   0.51D-11
 GePol: Maximum weight of points                     =    0.20577
 GePol: Number of points with low weight             =     239
 GePol: Fraction of low-weight points (<1% of avg)   =       6.96%
 GePol: Cavity surface area                          =    427.937 Ang**2
 GePol: Cavity volume                                =    495.016 Ang**3
 Leave Link  301 at Tue Feb 23 00:11:04 2021, MaxMem=   104857600 cpu:               3.4 elap:               0.1
 (Enter /sw/arch/RedHatEnterpriseServer7/EB_production/2019/software/Gaussian/g16.c01/l302.exe)
 NPDir=0 NMtPBC=     1 NCelOv=     1 NCel=       1 NClECP=     1 NCelD=      1
         NCelK=      1 NCelE2=     1 NClLst=     1 CellRange=     0.0.
 One-electron integrals computed using PRISM.
 One-electron integral symmetry used in STVInt
 PrsmSu:  requested number of processors reduced to:  22 ShMem   1 Linda.
 NBasis=   629 RedAO= T EigKep=  7.57D-06  NBF=   629
 NBsUse=   629 1.00D-06 EigRej= -1.00D+00 NBFU=   629
 Precomputing XC quadrature grid using
 IXCGrd= 4 IRadAn=           5 IRanWt=          -1 IRanGd=           0 AccXCQ= 0.00D+00.
 Generated NRdTot=       0 NPtTot=           0 NUsed=           0 NTot=          32
 NSgBfM=   639   639   639   639   639 MxSgAt=    48 MxSgA2=    48.
 Leave Link  302 at Tue Feb 23 00:11:05 2021, MaxMem=   104857600 cpu:              23.3 elap:               0.8
 (Enter /sw/arch/RedHatEnterpriseServer7/EB_production/2019/software/Gaussian/g16.c01/l303.exe)
 DipDrv:  MaxL=1.
 Leave Link  303 at Tue Feb 23 00:11:05 2021, MaxMem=   104857600 cpu:               5.5 elap:               0.3
 (Enter /sw/arch/RedHatEnterpriseServer7/EB_production/2019/software/Gaussian/g16.c01/l401.exe)
 ExpMin= 9.04D-02 ExpMax= 5.24D+04 ExpMxC= 1.79D+03 IAcc=3 IRadAn=         5 AccDes= 0.00D+00
 Harris functional with IExCor=  404 and IRadAn=       5 diagonalized for initial guess.
 HarFok:  IExCor=  404 AccDes= 0.00D+00 IRadAn=         5 IDoV= 1 UseB2=F ITyADJ=14
 ICtDFT=  3500011 ScaDFX=  1.000000  1.000000  1.000000  1.000000
 FoFCou: FMM=F IPFlag=           0 FMFlag=      100000 FMFlg1=           0
         NFxFlg=           0 DoJE=T BraDBF=F KetDBF=T FulRan=T
         wScrn=  0.000000 ICntrl=       500 IOpCl=  0 I1Cent=   200000004 NGrid=           0
         NMat0=    1 NMatS0=      1 NMatT0=    0 NMatD0=    1 NMtDS0=    0 NMtDT0=    0
 Petite list used in FoFCou.
 Harris En= -1307.84553569739    
 JPrj=0 DoOrth=F DoCkMO=F.
 Leave Link  401 at Tue Feb 23 00:11:07 2021, MaxMem=   104857600 cpu:              58.2 elap:               1.9
 (Enter /sw/arch/RedHatEnterpriseServer7/EB_production/2019/software/Gaussian/g16.c01/l502.exe)
 Integral symmetry usage will be decided dynamically.
 Closed shell SCF:
 Using DIIS extrapolation, IDIIS=  1040.
 NGot=   104857600 LenX=   103970950 LenY=   103541270
 Requested convergence on RMS density matrix=1.00D-08 within 128 cycles.
 Requested convergence on MAX density matrix=1.00D-06.
 Requested convergence on             energy=1.00D-06.
 No special actions if energy rises.
 Fock matrices will be formed incrementally for  20 cycles.

 Cycle   1  Pass 1  IDiag  1:
 FoFJK:  IHMeth= 1 ICntrl=     500 DoSepK=F KAlg= 0 I1Cent=           0 FoldK=F
 IRaf= 800000000 NMat=       1 IRICut=       1 DoRegI=T DoRafI=F ISym2E= 0 IDoP0=0 IntGTp=1.
 FoFCou: FMM=F IPFlag=           0 FMFlag=      100000 FMFlg1=           0
         NFxFlg=           0 DoJE=T BraDBF=F KetDBF=F FulRan=T
         wScrn=  0.000000 ICntrl=       500 IOpCl=  0 I1Cent=           0 NGrid=           0
         NMat0=    1 NMatS0=      1 NMatT0=    0 NMatD0=    1 NMtDS0=    0 NMtDT0=    0
 Symmetry not used in FoFCou.
 Inv3:  Mode=1 IEnd=    35356467.
 Iteration    1 A*A^-1 deviation from unit magnitude is 2.89D-15 for   3148.
 Iteration    1 A*A^-1 deviation from orthogonality  is 2.05D-15 for   1548   1411.
 Iteration    1 A^-1*A deviation from unit magnitude is 3.22D-15 for   2724.
 Iteration    1 A^-1*A deviation from orthogonality  is 2.76D-15 for   1511   1381.
 E= -1306.85479835008    
 DIIS: error= 2.88D-02 at cycle   1 NSaved=   1.
 NSaved= 1 IEnMin= 1 EnMin= -1306.85479835008     IErMin= 1 ErrMin= 2.88D-02
 ErrMax= 2.88D-02  0.00D+00 EMaxC= 1.00D-01 BMatC= 5.22D-01 BMatP= 5.22D-01
 IDIUse=3 WtCom= 7.12D-01 WtEn= 2.88D-01
 Coeff-Com:  0.100D+01
 Coeff-En:   0.100D+01
 Coeff:      0.100D+01
 Gap=     0.114 Goal=   None    Shift=    0.000
 GapD=    0.114 DampG=1.000 DampE=0.500 DampFc=0.5000 IDamp=-1.
 Damping current iteration by 5.00D-01
 RMSDP=9.12D-03 MaxDP=8.71D-01              OVMax= 2.20D-01

 Cycle   2  Pass 1  IDiag  1:
 RMSU=  4.43D-03    CP:  1.10D+00
 E= -1307.02966071700     Delta-E=       -0.174862366926 Rises=F Damp=T
 DIIS: error= 6.28D-03 at cycle   2 NSaved=   2.
 NSaved= 2 IEnMin= 2 EnMin= -1307.02966071700     IErMin= 2 ErrMin= 6.28D-03
 ErrMax= 6.28D-03  0.00D+00 EMaxC= 1.00D-01 BMatC= 5.77D-02 BMatP= 5.22D-01
 IDIUse=3 WtCom= 9.37D-01 WtEn= 6.28D-02
 Coeff-Com:  0.154D+00 0.846D+00
 Coeff-En:   0.289D+00 0.711D+00
 Coeff:      0.163D+00 0.837D+00
 Gap=     0.162 Goal=   None    Shift=    0.000
 RMSDP=5.36D-03 MaxDP=5.30D-01 DE=-1.75D-01 OVMax= 2.63D-01

 Cycle   3  Pass 1  IDiag  1:
 RMSU=  1.92D-03    CP:  8.94D-01 -1.80D-02
 E= -1307.25312752425     Delta-E=       -0.223466807245 Rises=F Damp=F
 DIIS: error= 1.17D-02 at cycle   3 NSaved=   3.
 NSaved= 3 IEnMin= 3 EnMin= -1307.25312752425     IErMin= 2 ErrMin= 6.28D-03
 ErrMax= 1.17D-02  0.00D+00 EMaxC= 1.00D-01 BMatC= 1.15D-01 BMatP= 5.77D-02
 IDIUse=2 WtCom= 0.00D+00 WtEn= 1.00D+00
 Coeff-En:   0.000D+00 0.371D-01 0.963D+00
 Coeff:      0.000D+00 0.371D-01 0.963D+00
 Gap=     0.126 Goal=   None    Shift=    0.000
 RMSDP=1.11D-02 MaxDP=1.11D+00 DE=-2.23D-01 OVMax= 3.34D-01

 Cycle   4  Pass 1  IDiag  1:
 RMSU=  3.26D-03    CP:  1.30D+00  2.05D+00 -7.82D-01
 E= -1306.33336650764     Delta-E=        0.919761016604 Rises=F Damp=F
 DIIS: error= 2.84D-02 at cycle   4 NSaved=   4.
 NSaved= 4 IEnMin= 3 EnMin= -1307.25312752425     IErMin= 2 ErrMin= 6.28D-03
 ErrMax= 2.84D-02  0.00D+00 EMaxC= 1.00D-01 BMatC= 8.97D-01 BMatP= 5.77D-02
 IDIUse=2 WtCom= 0.00D+00 WtEn= 1.00D+00
 Coeff-En:   0.000D+00 0.000D+00 0.816D+00 0.184D+00
 Coeff:      0.000D+00 0.000D+00 0.816D+00 0.184D+00
 Gap=     0.130 Goal=   None    Shift=    0.000
 RMSDP=6.94D-03 MaxDP=7.14D-01 DE= 9.20D-01 OVMax= 2.15D-01

 Cycle   5  Pass 1  IDiag  1:
 RMSU=  8.91D-04    CP:  1.05D+00  7.97D-01  2.43D-01  2.51D-01
 E= -1307.28912903818     Delta-E=       -0.955762530531 Rises=F Damp=F
 DIIS: error= 9.72D-03 at cycle   5 NSaved=   5.
 NSaved= 5 IEnMin= 5 EnMin= -1307.28912903818     IErMin= 2 ErrMin= 6.28D-03
 ErrMax= 9.72D-03  0.00D+00 EMaxC= 1.00D-01 BMatC= 8.74D-02 BMatP= 5.77D-02
 IDIUse=3 WtCom= 9.21D-02 WtEn= 9.08D-01
 Coeff-Com:  0.108D-01 0.556D-01 0.392D+00-0.575D-01 0.599D+00
 Coeff-En:   0.000D+00 0.000D+00 0.449D+00 0.000D+00 0.551D+00
 Coeff:      0.993D-03 0.512D-02 0.444D+00-0.530D-02 0.556D+00
 Gap=     0.136 Goal=   None    Shift=    0.000
 RMSDP=2.51D-03 MaxDP=2.44D-01 DE=-9.56D-01 OVMax= 1.03D-01

 Cycle   6  Pass 1  IDiag  1:
 RMSU=  1.63D-04    CP:  9.59D-01  3.30D-01  6.50D-01  5.13D-02  7.49D-01
 E= -1307.38985984813     Delta-E=       -0.100730809954 Rises=F Damp=F
 DIIS: error= 1.18D-03 at cycle   6 NSaved=   6.
 NSaved= 6 IEnMin= 6 EnMin= -1307.38985984813     IErMin= 6 ErrMin= 1.18D-03
 ErrMax= 1.18D-03  0.00D+00 EMaxC= 1.00D-01 BMatC= 1.46D-03 BMatP= 5.77D-02
 IDIUse=3 WtCom= 9.88D-01 WtEn= 1.18D-02
 Coeff-Com: -0.868D-03 0.299D-02 0.165D+00-0.460D-01 0.376D+00 0.503D+00
 Coeff-En:   0.000D+00 0.000D+00 0.000D+00 0.000D+00 0.000D+00 0.100D+01
 Coeff:     -0.858D-03 0.295D-02 0.163D+00-0.454D-01 0.372D+00 0.509D+00
 Gap=     0.134 Goal=   None    Shift=    0.000
 RMSDP=1.73D-04 MaxDP=1.49D-02 DE=-1.01D-01 OVMax= 1.18D-02

 Cycle   7  Pass 1  IDiag  1:
 RMSU=  4.96D-05    CP:  9.65D-01  3.58D-01  6.31D-01  7.22D-02  7.63D-01
                    CP:  7.26D-01
 E= -1307.39130750769     Delta-E=       -0.001447659555 Rises=F Damp=F
 DIIS: error= 2.79D-04 at cycle   7 NSaved=   7.
 NSaved= 7 IEnMin= 7 EnMin= -1307.39130750769     IErMin= 7 ErrMin= 2.79D-04
 ErrMax= 2.79D-04  0.00D+00 EMaxC= 1.00D-01 BMatC= 6.01D-05 BMatP= 1.46D-03
 IDIUse=3 WtCom= 9.97D-01 WtEn= 2.79D-03
 Coeff-Com: -0.482D-03 0.320D-02 0.690D-01-0.223D-01 0.159D+00 0.249D+00
 Coeff-Com:  0.543D+00
 Coeff-En:   0.000D+00 0.000D+00 0.000D+00 0.000D+00 0.000D+00 0.000D+00
 Coeff-En:   0.100D+01
 Coeff:     -0.480D-03 0.319D-02 0.688D-01-0.223D-01 0.159D+00 0.248D+00
 Coeff:      0.544D+00
 Gap=     0.133 Goal=   None    Shift=    0.000
 RMSDP=2.05D-05 MaxDP=8.96D-04 DE=-1.45D-03 OVMax= 2.29D-03

 Cycle   8  Pass 1  IDiag  1:
 RMSU=  1.61D-05    CP:  9.65D-01  3.59D-01  6.33D-01  6.96D-02  7.67D-01
                    CP:  7.53D-01  8.66D-01
 E= -1307.39136223142     Delta-E=       -0.000054723732 Rises=F Damp=F
 DIIS: error= 8.49D-05 at cycle   8 NSaved=   8.
 NSaved= 8 IEnMin= 8 EnMin= -1307.39136223142     IErMin= 8 ErrMin= 8.49D-05
 ErrMax= 8.49D-05  0.00D+00 EMaxC= 1.00D-01 BMatC= 8.49D-06 BMatP= 6.01D-05
 IDIUse=1 WtCom= 1.00D+00 WtEn= 0.00D+00
 Coeff-Com: -0.837D-04 0.140D-02 0.125D-01-0.424D-02 0.240D-01 0.667D-01
 Coeff-Com:  0.319D+00 0.581D+00
 Coeff:     -0.837D-04 0.140D-02 0.125D-01-0.424D-02 0.240D-01 0.667D-01
 Coeff:      0.319D+00 0.581D+00
 Gap=     0.134 Goal=   None    Shift=    0.000
 RMSDP=1.30D-05 MaxDP=1.11D-03 DE=-5.47D-05 OVMax= 6.91D-04

 Cycle   9  Pass 1  IDiag  1:
 RMSU=  4.67D-06    CP:  9.64D-01  3.56D-01  6.34D-01  6.90D-02  7.65D-01
                    CP:  7.61D-01  8.82D-01  7.25D-01
 E= -1307.39137008501     Delta-E=       -0.000007853590 Rises=F Damp=F
 DIIS: error= 2.30D-05 at cycle   9 NSaved=   9.
 NSaved= 9 IEnMin= 9 EnMin= -1307.39137008501     IErMin= 9 ErrMin= 2.30D-05
 ErrMax= 2.30D-05  0.00D+00 EMaxC= 1.00D-01 BMatC= 8.34D-07 BMatP= 8.49D-06
 IDIUse=1 WtCom= 1.00D+00 WtEn= 0.00D+00
 Coeff-Com: -0.467D-04 0.374D-03 0.321D-02-0.886D-03 0.377D-02 0.290D-01
 Coeff-Com:  0.159D+00 0.358D+00 0.448D+00
 Coeff:     -0.467D-04 0.374D-03 0.321D-02-0.886D-03 0.377D-02 0.290D-01
 Coeff:      0.159D+00 0.358D+00 0.448D+00
 Gap=     0.134 Goal=   None    Shift=    0.000
 RMSDP=4.62D-06 MaxDP=4.26D-04 DE=-7.85D-06 OVMax= 3.32D-04

 Cycle  10  Pass 1  IDiag  1:
 RMSU=  2.22D-06    CP:  9.64D-01  3.56D-01  6.35D-01  6.88D-02  7.64D-01
                    CP:  7.65D-01  8.78D-01  7.12D-01  6.74D-01
 E= -1307.39137092546     Delta-E=       -0.000000840450 Rises=F Damp=F
 DIIS: error= 7.91D-06 at cycle  10 NSaved=  10.
 NSaved=10 IEnMin=10 EnMin= -1307.39137092546     IErMin=10 ErrMin= 7.91D-06
 ErrMax= 7.91D-06  0.00D+00 EMaxC= 1.00D-01 BMatC= 8.07D-08 BMatP= 8.34D-07
 IDIUse=1 WtCom= 1.00D+00 WtEn= 0.00D+00
 Coeff-Com: -0.315D-04 0.141D-04 0.582D-03-0.321D-04-0.515D-03 0.123D-01
 Coeff-Com:  0.679D-01 0.170D+00 0.292D+00 0.458D+00
 Coeff:     -0.315D-04 0.141D-04 0.582D-03-0.321D-04-0.515D-03 0.123D-01
 Coeff:      0.679D-01 0.170D+00 0.292D+00 0.458D+00
 Gap=     0.134 Goal=   None    Shift=    0.000
 RMSDP=1.14D-06 MaxDP=4.68D-05 DE=-8.40D-07 OVMax= 1.02D-04

 Cycle  11  Pass 1  IDiag  1:
 RMSU=  6.05D-07    CP:  9.64D-01  3.56D-01  6.35D-01  6.88D-02  7.64D-01
                    CP:  7.64D-01  8.82D-01  7.20D-01  6.76D-01  6.08D-01
 E= -1307.39137098655     Delta-E=       -0.000000061088 Rises=F Damp=F
 DIIS: error= 1.59D-06 at cycle  11 NSaved=  11.
 NSaved=11 IEnMin=11 EnMin= -1307.39137098655     IErMin=11 ErrMin= 1.59D-06
 ErrMax= 1.59D-06  0.00D+00 EMaxC= 1.00D-01 BMatC= 5.06D-09 BMatP= 8.07D-08
 IDIUse=1 WtCom= 1.00D+00 WtEn= 0.00D+00
 Coeff-Com: -0.195D-04-0.904D-05 0.224D-03 0.102D-04-0.347D-03 0.595D-02
 Coeff-Com:  0.306D-01 0.786D-01 0.145D+00 0.276D+00 0.463D+00
 Coeff:     -0.195D-04-0.904D-05 0.224D-03 0.102D-04-0.347D-03 0.595D-02
 Coeff:      0.306D-01 0.786D-01 0.145D+00 0.276D+00 0.463D+00
 Gap=     0.134 Goal=   None    Shift=    0.000
 RMSDP=2.91D-07 MaxDP=1.71D-05 DE=-6.11D-08 OVMax= 2.17D-05

 Cycle  12  Pass 1  IDiag  1:
 RMSU=  1.61D-07    CP:  9.64D-01  3.56D-01  6.35D-01  6.89D-02  7.64D-01
                    CP:  7.64D-01  8.81D-01  7.20D-01  6.65D-01  6.30D-01
                    CP:  7.39D-01
 E= -1307.39137099457     Delta-E=       -0.000000008027 Rises=F Damp=F
 DIIS: error= 5.26D-07 at cycle  12 NSaved=  12.
 NSaved=12 IEnMin=12 EnMin= -1307.39137099457     IErMin=12 ErrMin= 5.26D-07
 ErrMax= 5.26D-07  0.00D+00 EMaxC= 1.00D-01 BMatC= 3.99D-10 BMatP= 5.06D-09
 IDIUse=1 WtCom= 1.00D+00 WtEn= 0.00D+00
 Coeff-Com: -0.885D-05 0.271D-05 0.637D-04 0.990D-05-0.168D-03 0.214D-02
 Coeff-Com:  0.105D-01 0.278D-01 0.530D-01 0.108D+00 0.261D+00 0.538D+00
 Coeff:     -0.885D-05 0.271D-05 0.637D-04 0.990D-05-0.168D-03 0.214D-02
 Coeff:      0.105D-01 0.278D-01 0.530D-01 0.108D+00 0.261D+00 0.538D+00
 Gap=     0.134 Goal=   None    Shift=    0.000
 RMSDP=6.30D-08 MaxDP=2.81D-06 DE=-8.03D-09 OVMax= 7.07D-06

 Cycle  13  Pass 1  IDiag  1:
 RMSU=  5.32D-08    CP:  9.64D-01  3.56D-01  6.35D-01  6.89D-02  7.64D-01
                    CP:  7.64D-01  8.81D-01  7.20D-01  6.69D-01  6.33D-01
                    CP:  7.29D-01  9.03D-01
 E= -1307.39137097699     Delta-E=        0.000000017581 Rises=F Damp=F
 DIIS: error= 1.73D-07 at cycle  13 NSaved=  13.
 NSaved=13 IEnMin=12 EnMin= -1307.39137099457     IErMin=13 ErrMin= 1.73D-07
 ErrMax= 1.73D-07  0.00D+00 EMaxC= 1.00D-01 BMatC= 4.75D-11 BMatP= 3.99D-10
 IDIUse=1 WtCom= 1.00D+00 WtEn= 0.00D+00
 Coeff-Com: -0.293D-05 0.448D-05 0.921D-05 0.330D-05-0.510D-04 0.486D-03
 Coeff-Com:  0.213D-02 0.607D-02 0.120D-01 0.260D-01 0.891D-01 0.307D+00
 Coeff-Com:  0.557D+00
 Coeff:     -0.293D-05 0.448D-05 0.921D-05 0.330D-05-0.510D-04 0.486D-03
 Coeff:      0.213D-02 0.607D-02 0.120D-01 0.260D-01 0.891D-01 0.307D+00
 Coeff:      0.557D+00
 Gap=     0.134 Goal=   None    Shift=    0.000
 RMSDP=4.24D-08 MaxDP=3.53D-06 DE= 1.76D-08 OVMax= 2.01D-06

 Cycle  14  Pass 1  IDiag  1:
 RMSU=  2.22D-08    CP:  9.64D-01  3.56D-01  6.35D-01  6.89D-02  7.64D-01
                    CP:  7.64D-01  8.81D-01  7.20D-01  6.71D-01  6.37D-01
                    CP:  7.34D-01  8.97D-01  8.02D-01
 E= -1307.39137097702     Delta-E=       -0.000000000025 Rises=F Damp=F
 DIIS: error= 7.90D-08 at cycle  14 NSaved=  14.
 NSaved=14 IEnMin=12 EnMin= -1307.39137099457     IErMin=14 ErrMin= 7.90D-08
 ErrMax= 7.90D-08  0.00D+00 EMaxC= 1.00D-01 BMatC= 7.36D-12 BMatP= 4.75D-11
 IDIUse=1 WtCom= 1.00D+00 WtEn= 0.00D+00
 Coeff-Com: -0.142D-05 0.267D-05 0.200D-05 0.153D-05-0.226D-04 0.184D-03
 Coeff-Com:  0.729D-03 0.222D-02 0.455D-02 0.103D-01 0.427D-01 0.169D+00
 Coeff-Com:  0.368D+00 0.402D+00
 Coeff:     -0.142D-05 0.267D-05 0.200D-05 0.153D-05-0.226D-04 0.184D-03
 Coeff:      0.729D-03 0.222D-02 0.455D-02 0.103D-01 0.427D-01 0.169D+00
 Coeff:      0.368D+00 0.402D+00
 Gap=     0.134 Goal=   None    Shift=    0.000
 RMSDP=1.27D-08 MaxDP=9.42D-07 DE=-2.46D-11 OVMax= 1.05D-06

 Cycle  15  Pass 1  IDiag  1:
 RMSU=  7.20D-09    CP:  9.64D-01  3.56D-01  6.35D-01  6.89D-02  7.64D-01
                    CP:  7.64D-01  8.81D-01  7.20D-01  6.70D-01  6.36D-01
                    CP:  7.41D-01  9.05D-01  8.33D-01  6.53D-01
 E= -1307.39137097703     Delta-E=       -0.000000000017 Rises=F Damp=F
 DIIS: error= 1.89D-08 at cycle  15 NSaved=  15.
 NSaved=15 IEnMin=12 EnMin= -1307.39137099457     IErMin=15 ErrMin= 1.89D-08
 ErrMax= 1.89D-08  0.00D+00 EMaxC= 1.00D-01 BMatC= 5.84D-13 BMatP= 7.36D-12
 IDIUse=1 WtCom= 1.00D+00 WtEn= 0.00D+00
 Coeff-Com: -0.300D-06 0.649D-06-0.311D-06 0.221D-06-0.301D-05 0.161D-04
 Coeff-Com:  0.255D-04 0.158D-03 0.403D-03 0.116D-02 0.854D-02 0.416D-01
 Coeff-Com:  0.109D+00 0.241D+00 0.599D+00
 Coeff:     -0.300D-06 0.649D-06-0.311D-06 0.221D-06-0.301D-05 0.161D-04
 Coeff:      0.255D-04 0.158D-03 0.403D-03 0.116D-02 0.854D-02 0.416D-01
 Coeff:      0.109D+00 0.241D+00 0.599D+00
 Gap=     0.134 Goal=   None    Shift=    0.000
 RMSDP=3.37D-09 MaxDP=2.03D-07 DE=-1.68D-11 OVMax= 2.54D-07

 Error on total polarization charges =  0.01724
 SCF Done:  E(RB-P86) =  -1307.39137098     A.U. after   15 cycles
            NFock= 15  Conv=0.34D-08     -V/T= 2.0027
 KE= 1.303848586118D+03 PE=-7.837665360997D+03 EE= 2.822130787297D+03
 Leave Link  502 at Tue Feb 23 00:13:34 2021, MaxMem=   104857600 cpu:            4628.4 elap:             146.4
 (Enter /sw/arch/RedHatEnterpriseServer7/EB_production/2019/software/Gaussian/g16.c01/l601.exe)
 Copying SCF densities to generalized density rwf, IOpCl= 0 IROHF=0.

 **********************************************************************

            Population analysis using the SCF Density.

 **********************************************************************

 Orbital symmetries:
[...]
    20  C   -0.000382   0.000023  -0.000000  -0.000000  -0.000071  -0.001854
    21  C   -0.000009   0.000000   0.000000  -0.000000  -0.000008   0.000246
    22  C    0.000002   0.000000  -0.000000  -0.000000   0.000001  -0.000093
    23  C   -0.000015   0.000000   0.000000   0.000000  -0.000001   0.000145
    24  C    0.000036   0.000002  -0.000000   0.000000   0.000016  -0.000382
    25  C    5.329036   0.296748   0.018792  -0.003068   0.016975   0.006289
    26  C    0.296748   5.208574  -0.063473   0.015388  -0.004488  -0.000920
    27  H    0.018792  -0.063473   0.519221  -0.007027  -0.000106   0.000002
    28  H   -0.003068   0.015388  -0.007027   0.521978  -0.006569  -0.000007
    29  H    0.016975  -0.004488  -0.000106  -0.006569   0.510756   0.000258
    30  H    0.006289  -0.000920   0.000002  -0.000007   0.000258   0.413290
    31  H   -0.001518   0.000322   0.000000   0.000012   0.000374  -0.007655
    32  H   -0.009691   0.001952  -0.000061   0.000134   0.000330  -0.000170
    33  H    0.000045   0.000198   0.000000   0.000044  -0.000040   0.000000
    34  H    0.000000  -0.000001   0.000000  -0.000001  -0.000001  -0.000001
    35  H    0.000000  -0.000000   0.000000   0.000000   0.000000  -0.000000
    36  H   -0.000006  -0.000001  -0.000000   0.000000  -0.000004   0.000171
    37  H    0.000219  -0.000114   0.000000  -0.000000   0.000004   0.000009
    38  H   -0.000008   0.000001  -0.000000   0.000000   0.000000  -0.000000
    39  H   -0.000004  -0.000000  -0.000000  -0.000000  -0.000000   0.000000
    40  H   -0.000113  -0.000009   0.000000   0.000000   0.000000  -0.000000
    41  H    0.002860  -0.000103  -0.000000  -0.000000  -0.000005   0.000417
    42  H   -0.000062   0.000005  -0.000000  -0.000000   0.000128   0.002106
    43  H    0.000000  -0.000000   0.000000   0.000000  -0.000000   0.000020
    44  H    0.000000  -0.000000  -0.000000  -0.000000   0.000000  -0.000001
    45  H    0.000000   0.000000   0.000000   0.000000  -0.000000   0.000001
    46  H    0.000021  -0.000000  -0.000000   0.000000   0.000000   0.000001
    47  H    0.430268  -0.043700  -0.000147   0.000009   0.000001   0.000261
    48  H   -0.059522   0.435132  -0.006657  -0.000161   0.000012   0.000007
              31         32         33         34         35         36
     1  C   -0.000036  -0.004473   0.000508  -0.000003   0.000000   0.000000
     2  C   -0.000622   0.006071   0.000806  -0.000024   0.000000   0.000015
     3  C    0.001341  -0.000581  -0.000324  -0.000005  -0.000001   0.000005
     4  C   -0.034688   0.018443  -0.000266  -0.000011   0.000009  -0.000373
     5  C    0.382360  -0.006084  -0.000069   0.000013  -0.000031   0.000492
     6  P   -0.007759  -0.006403  -0.000966  -0.000057  -0.000731  -0.022177
     7  C    0.008912  -0.093993   0.021414  -0.006374   0.019857  -0.081371
     8  C   -0.000606   0.437885  -0.066574   0.023441  -0.001824   0.017611
     9  C    0.000066  -0.040544   0.443194  -0.072515   0.013828  -0.004537
    10  C   -0.000011   0.014807  -0.065266   0.443651  -0.062836   0.014631
    11  C    0.000044  -0.004538   0.015511  -0.067956   0.433366  -0.049695
    12  C    0.000267   0.013118  -0.002706   0.021869  -0.057168   0.435505
    13  C   -0.006858  -0.002044   0.000100   0.000001   0.000006  -0.000405
    14  C   -0.000714  -0.001088  -0.000145  -0.000001  -0.000001   0.000287
    15  C    0.000198   0.000013  -0.000021  -0.000000   0.000000  -0.000023
    16  C   -0.000163  -0.000066   0.000001   0.000000   0.000000  -0.000001
    17  C    0.000458   0.000392  -0.000001  -0.000000   0.000000   0.000008
    18  C   -0.003468  -0.001722   0.000002   0.000000  -0.000001  -0.000153
    19  C   -0.010733   0.000359  -0.000020   0.000008  -0.000059   0.020894
    20  C    0.001481   0.000014  -0.000000   0.000003   0.000046  -0.005038
    21  C   -0.000575   0.000000   0.000000   0.000000  -0.000002   0.000814
    22  C    0.000060  -0.000001   0.000000   0.000000   0.000005  -0.001335
    23  C   -0.000040   0.000007   0.000000   0.000000  -0.000006   0.001002
    24  C    0.000816  -0.000117   0.000001   0.000000   0.000001   0.000616
    25  C   -0.001518  -0.009691   0.000045   0.000000   0.000000  -0.000006
    26  C    0.000322   0.001952   0.000198  -0.000001  -0.000000  -0.000001
    27  H    0.000000  -0.000061   0.000000   0.000000   0.000000  -0.000000
    28  H    0.000012   0.000134   0.000044  -0.000001   0.000000   0.000000
    29  H    0.000374   0.000330  -0.000040  -0.000001   0.000000  -0.000004
    30  H   -0.007655  -0.000170   0.000000  -0.000001  -0.000000   0.000171
    31  H    0.412679   0.000151  -0.000000  -0.000000   0.000000  -0.000010
    32  H    0.000151   0.457963  -0.006389  -0.000084   0.000011   0.000126
    33  H   -0.000000  -0.006389   0.513862  -0.007180  -0.000109   0.000012
    34  H   -0.000000  -0.000084  -0.007180   0.513845  -0.006719  -0.000133
    35  H    0.000000   0.000011  -0.000109  -0.006719   0.512215  -0.005971
    36  H   -0.000010   0.000126   0.000012  -0.000133  -0.005971   0.491038
    37  H   -0.000003  -0.000258   0.000077   0.000005   0.000001   0.000074
    38  H    0.000000   0.000030  -0.000001  -0.000000  -0.000000   0.000000
    39  H   -0.000001  -0.000003   0.000000   0.000000  -0.000000  -0.000000
    40  H    0.000040   0.000002  -0.000000  -0.000000  -0.000000   0.000000
    41  H    0.000011  -0.000047   0.000000   0.000000  -0.000000  -0.000002
    42  H    0.000132  -0.000016  -0.000000  -0.000000  -0.000002  -0.000306
    43  H   -0.000015  -0.000000  -0.000000   0.000000  -0.000001   0.000092
    44  H    0.000000   0.000000  -0.000000   0.000000   0.000000   0.000009
    45  H   -0.000002   0.000000  -0.000000  -0.000000  -0.000000   0.000017
    46  H   -0.000081  -0.000038  -0.000000  -0.000000  -0.000001  -0.000055
    47  H   -0.000819  -0.000137   0.000002  -0.000000   0.000000   0.000001
    48  H   -0.000010  -0.000025   0.000001  -0.000000  -0.000000  -0.000000
              37         38         39         40         41         42
     1  C    0.000031   0.000001  -0.000000  -0.000000   0.000020  -0.000001
     2  C   -0.000016  -0.000000   0.000000  -0.000000   0.000013  -0.000010
     3  C    0.000015   0.000000   0.000000  -0.000001  -0.000123   0.000248
     4  C   -0.000409  -0.000004   0.000001   0.000056  -0.006458   0.000435
     5  C    0.001152  -0.000003  -0.000000  -0.000059   0.011372   0.000064
     6  P   -0.016594  -0.000763   0.000005  -0.000665  -0.009899  -0.005128
     7  C    0.007906   0.000193   0.000000   0.000015   0.000563  -0.004341
     8  C    0.001813  -0.000059   0.000005  -0.000005   0.000095  -0.000994
     9  C   -0.001684   0.000002   0.000000   0.000000   0.000008   0.000057
    10  C   -0.000160  -0.000000  -0.000000   0.000000  -0.000001  -0.000020
    11  C    0.000188  -0.000002  -0.000000   0.000000   0.000003  -0.000062
    12  C    0.001377   0.000019  -0.000000   0.000001  -0.000058   0.002475
    13  C   -0.076497   0.018875  -0.005577   0.023679  -0.086455   0.001344
    14  C    0.438342  -0.056756   0.019609  -0.002752   0.017629  -0.000025
    15  C   -0.045835   0.432715  -0.063743   0.015315  -0.005640   0.000005
    16  C    0.013448  -0.061501   0.441305  -0.067089   0.017247  -0.000002
    17  C   -0.003457   0.013746  -0.068425   0.445092  -0.054911   0.000012
    18  C    0.012237  -0.001996   0.020544  -0.070710   0.451156  -0.000188
    19  C   -0.002451  -0.000031   0.000014  -0.000073  -0.001455  -0.077247
    20  C   -0.000212  -0.000001   0.000000  -0.000000  -0.000631   0.441172
    21  C    0.000004  -0.000000  -0.000000  -0.000001   0.000016  -0.052830
    22  C    0.000000   0.000000  -0.000000   0.000001   0.000062   0.015201
    23  C   -0.000122  -0.000000  -0.000000   0.000001  -0.000498  -0.005160
    24  C    0.000652  -0.000008  -0.000013   0.000005   0.001782   0.016532
    25  C    0.000219  -0.000008  -0.000004  -0.000113   0.002860  -0.000062
    26  C   -0.000114   0.000001  -0.000000  -0.000009  -0.000103   0.000005
    27  H    0.000000  -0.000000  -0.000000   0.000000  -0.000000  -0.000000
    28  H   -0.000000   0.000000  -0.000000   0.000000  -0.000000  -0.000000
    29  H    0.000004   0.000000  -0.000000   0.000000  -0.000005   0.000128
    30  H    0.000009  -0.000000   0.000000  -0.000000   0.000417   0.002106
    31  H   -0.000003   0.000000  -0.000001   0.000040   0.000011   0.000132
    32  H   -0.000258   0.000030  -0.000003   0.000002  -0.000047  -0.000016
    33  H    0.000077  -0.000001   0.000000  -0.000000   0.000000  -0.000000
    34  H    0.000005  -0.000000   0.000000  -0.000000   0.000000  -0.000000
    35  H    0.000001  -0.000000  -0.000000  -0.000000  -0.000000  -0.000002
    36  H    0.000074   0.000000  -0.000000   0.000000  -0.000002  -0.000306
    37  H    0.482830  -0.005815  -0.000132   0.000014   0.000098  -0.000005
    38  H   -0.005815   0.510787  -0.006636  -0.000115   0.000006   0.000000
    39  H   -0.000132  -0.006636   0.510536  -0.007143  -0.000064   0.000000
    40  H    0.000014  -0.000115  -0.007143   0.514519  -0.006827   0.000000
    41  H    0.000098   0.000006  -0.000064  -0.006827   0.488008  -0.000013
    42  H   -0.000005   0.000000   0.000000   0.000000  -0.000013   0.485140
    43  H   -0.000000  -0.000000   0.000000  -0.000000   0.000000  -0.005596
    44  H   -0.000000  -0.000000   0.000000   0.000000  -0.000000  -0.000085
    45  H   -0.000001  -0.000000   0.000000  -0.000000  -0.000006   0.000011
    46  H    0.000229   0.000049   0.000007  -0.000005   0.000682   0.000125
    47  H    0.000033   0.000001  -0.000005  -0.000020   0.000530  -0.000003
    48  H    0.000001  -0.000000   0.000001  -0.000000  -0.000002   0.000000
              43         44         45         46         47         48
     1  C   -0.000000   0.000000  -0.000000  -0.000000   0.013480  -0.062264
     2  C    0.000000  -0.000000   0.000000  -0.000000  -0.003298   0.014201
     3  C    0.000001  -0.000000  -0.000000   0.000001   0.013108  -0.001951
     4  C   -0.000010  -0.000000  -0.000001  -0.000084  -0.066962   0.018495
     5  C    0.000128  -0.000007   0.000014   0.000813  -0.005188  -0.001051
     6  P   -0.000965  -0.000013  -0.000984  -0.022833  -0.008845   0.000019
     7  C   -0.000060   0.000013  -0.000032  -0.002435   0.000395   0.000008
     8  C    0.000001   0.000000   0.000000  -0.000410  -0.000055   0.000114
     9  C   -0.000000  -0.000000  -0.000000   0.000029   0.000057  -0.000005
    10  C    0.000001   0.000000   0.000000  -0.000007  -0.000007  -0.000000
    11  C   -0.000009  -0.000000  -0.000001  -0.000066   0.000004  -0.000000
    12  C   -0.000088  -0.000013   0.000002   0.000563   0.000055  -0.000001
    13  C   -0.000009   0.000007   0.000030   0.014721   0.003837  -0.000154
    14  C    0.000000   0.000001   0.000039  -0.001639   0.000593  -0.000013
    15  C    0.000000   0.000000  -0.000002   0.000077   0.000420  -0.000013
    16  C    0.000000   0.000000   0.000000  -0.000419   0.000335   0.000040
    17  C    0.000000  -0.000000   0.000003  -0.000388  -0.002148   0.000009
    18  C    0.000002   0.000001  -0.000070   0.002047   0.001901   0.000073
    19  C    0.019411  -0.005478   0.019072  -0.066816  -0.000132   0.000000
    20  C   -0.064023   0.020039  -0.001460   0.015064  -0.000033   0.000000
    21  C    0.438131  -0.066600   0.013240  -0.004115  -0.000002  -0.000000
    22  C   -0.062474   0.439260  -0.061339   0.013955   0.000000   0.000000
    23  C    0.014360  -0.062997   0.432855  -0.054760  -0.000001  -0.000000
    24  C   -0.001638   0.019120  -0.057726   0.432866   0.000042   0.000000
    25  C    0.000000   0.000000   0.000000   0.000021   0.430268  -0.059522
    26  C   -0.000000  -0.000000   0.000000  -0.000000  -0.043700   0.435132
    27  H    0.000000  -0.000000   0.000000  -0.000000  -0.000147  -0.006657
    28  H    0.000000  -0.000000   0.000000   0.000000   0.000009  -0.000161
    29  H   -0.000000   0.000000  -0.000000   0.000000   0.000001   0.000012
    30  H    0.000020  -0.000001   0.000001   0.000001   0.000261   0.000007
    31  H   -0.000015   0.000000  -0.000002  -0.000081  -0.000819  -0.000010
    32  H   -0.000000   0.000000   0.000000  -0.000038  -0.000137  -0.000025
    33  H   -0.000000  -0.000000  -0.000000  -0.000000   0.000002   0.000001
    34  H    0.000000   0.000000  -0.000000  -0.000000  -0.000000  -0.000000
    35  H   -0.000001   0.000000  -0.000000  -0.000001   0.000000  -0.000000
    36  H    0.000092   0.000009   0.000017  -0.000055   0.000001  -0.000000
    37  H   -0.000000  -0.000000  -0.000001   0.000229   0.000033   0.000001
    38  H   -0.000000  -0.000000  -0.000000   0.000049   0.000001  -0.000000
    39  H    0.000000   0.000000   0.000000   0.000007  -0.000005   0.000001
    40  H   -0.000000   0.000000  -0.000000  -0.000005  -0.000020  -0.000000
    41  H    0.000000  -0.000000  -0.000006   0.000682   0.000530  -0.000002
    42  H   -0.005596  -0.000085   0.000011   0.000125  -0.000003   0.000000
    43  H    0.511743  -0.006887  -0.000119   0.000022  -0.000000   0.000000
    44  H   -0.006887   0.509982  -0.006579  -0.000130  -0.000000  -0.000000
    45  H   -0.000119  -0.006579   0.510566  -0.005774  -0.000000   0.000000
    46  H    0.000022  -0.000130  -0.005774   0.487433   0.000008   0.000000
    47  H   -0.000000  -0.000000  -0.000000   0.000008   0.492570  -0.006187
    48  H    0.000000  -0.000000   0.000000   0.000000  -0.006187   0.520987
 Mulliken charges:
               1
     1  C   -0.119896
     2  C   -0.155301
     3  C   -0.064041
     4  C   -0.036248
     5  C   -0.549254
     6  P    0.433661
     7  C   -0.215370
     8  C   -0.037192
     9  C   -0.158597
    10  C   -0.102018
    11  C   -0.151192
    12  C   -0.044762
    13  C   -0.282582
    14  C   -0.024492
    15  C   -0.144802
    16  C   -0.109893
    17  C   -0.109624
    18  C   -0.070720
    19  C   -0.259045
    20  C   -0.035186
    21  C   -0.119364
    22  C   -0.106210
    23  C   -0.137881
    24  C   -0.031566
    25  C   -0.085832
    26  C   -0.172855
    27  H    0.152057
    28  H    0.149479
    29  H    0.154853
    30  H    0.252632
    31  H    0.266662
    32  H    0.226765
    33  H    0.154299
    34  H    0.158230
    35  H    0.156117
    36  H    0.188175
    37  H    0.193005
    38  H    0.157272
    39  H    0.159719
    40  H    0.156848
    41  H    0.180621
    42  H    0.186905
    43  H    0.157983
    44  H    0.160358
    45  H    0.158241
    46  H    0.191343
    47  H    0.179778
    48  H    0.148918
 Sum of Mulliken charges =   1.00000
 Mulliken charges with hydrogens summed into heavy atoms:
               1
     1  C    0.032162
     2  C   -0.005822
     3  C    0.090812
     4  C   -0.036248
     5  C   -0.029960
     6  P    0.433661
     7  C   -0.215370
     8  C    0.189573
     9  C   -0.004298
    10  C    0.056212
    11  C    0.004925
    12  C    0.143413
    13  C   -0.282582
    14  C    0.168513
    15  C    0.012469
    16  C    0.049827
    17  C    0.047224
    18  C    0.109901
    19  C   -0.259045
    20  C    0.151719
    21  C    0.038618
    22  C    0.054148
    23  C    0.020360
    24  C    0.159778
    25  C    0.093946
    26  C   -0.023937
 Electronic spatial extent (au):  <R**2>=           8691.2177
 Charge=              1.0000 electrons
 Dipole moment (field-independent basis, Debye):
    X=              2.7411    Y=              0.0068    Z=             -0.2263  Tot=              2.7504
 Quadrupole moment (field-independent basis, Debye-Ang):
   XX=           -120.9682   YY=           -119.4043   ZZ=           -141.1394
   XY=             -1.2437   XZ=             -9.9992   YZ=              2.5312
 Traceless Quadrupole moment (field-independent basis, Debye-Ang):
   XX=              6.2024   YY=              7.7663   ZZ=            -13.9687
   XY=             -1.2437   XZ=             -9.9992   YZ=              2.5312
 Octapole moment (field-independent basis, Debye-Ang**2):
  XXX=             61.5523  YYY=             43.8964  ZZZ=             24.5304  XYY=              0.5290
  XXY=            -36.8790  XXZ=             -6.3662  XZZ=              9.8688  YZZ=            -11.9578
  YYZ=             32.7021  XYZ=             20.3220
 Hexadecapole moment (field-independent basis, Debye-Ang**3):
 XXXX=          -4886.6275 YYYY=          -3254.5438 ZZZZ=          -2090.0772 XXXY=            -62.1102
 XXXZ=           -132.5880 YYYX=              7.0292 YYYZ=            -28.6356 ZZZX=           -130.5338
 ZZZY=             41.1923 XXYY=          -1568.7517 XXZZ=          -1384.4437 YYZZ=           -794.7698
 XXYZ=             64.2849 YYXZ=            -61.5581 ZZXY=              0.3987
 N-N= 2.370740083780D+03 E-N=-7.768536155700D+03  KE= 1.301390730338D+03
 Unable to Open any file for archive entry.
 1\1\GINC-TCN1656\SP\RBP86\TZVP\C25H22P1(1+)\ELENAA\23-Feb-2021\0\\# BP
 86/TZVP SCRF=COSMORS geom=CHECKPOINT guess=CHECKPOINT\\COSMO-file for 
 #BNQRPLGZFADFGA-UHFFFAOYSA-N\\1,1\C,0,-2.4537420546,-5.2803968277,-0.4
 121342327\C,0,-3.2440257609,-4.1263263037,-0.3537597732\C,0,-2.8443886
 266,-3.0425793583,0.4341863731\C,0,-1.6548582857,-3.105256174,1.178762
 3078\C,0,-1.1945949208,-1.9018125463,1.9607544582\P,0,0.0717147088,-0.
 9168755039,1.0205961959\C,0,-0.5309171645,-0.5926270066,-0.6646679179\
 C,0,-0.7054859893,-1.6678679977,-1.5586305818\C,0,-1.1960929407,-1.419
 6888943,-2.841892597\C,0,-1.5120295151,-0.1130792506,-3.2347835257\C,0
 ,-1.3329388809,0.9532544388,-2.3461316079\C,0,-0.8408966422,0.71967093
 42,-1.0587071231\C,0,1.6213340437,-1.869720968,0.9562103888\C,0,2.3368
 602259,-2.0048861542,-0.2440893793\C,0,3.5397812893,-2.7180236204,-0.2
 512514655\C,0,4.0275177005,-3.2868029971,0.9300051086\C,0,3.3190392771
 ,-3.1376586389,2.1296267343\C,0,2.1175695395,-2.4275768242,2.149403935
 2\C,0,0.3765451347,0.6526377017,1.8907106294\C,0,-0.6991745113,1.38477
 23019,2.4255595191\C,0,-0.4519787911,2.6086982222,3.0524562129\C,0,0.8
 560885592,3.0997524857,3.146145347\C,0,1.9237468295,2.3695507661,2.610
 9337394\C,0,1.6902239597,1.1440894906,1.9813696203\C,0,-0.8724681219,-
 4.2718751246,1.1271085789\C,0,-1.2697221867,-5.3522214495,0.3330603097
 \H,0,-2.7609870539,-6.1238312104,-1.0335189256\H,0,-4.1695738805,-4.06
 50818631,-0.9293734438\H,0,-3.450282218,-2.1339533959,0.4605205945\H,0
 ,-2.0237641493,-1.2127654049,2.1720655404\H,0,-0.7230772992,-2.1670402
 068,2.9178534295\H,0,-0.4590282988,-2.6880042017,-1.260806701\H,0,-1.3
 312041192,-2.2514154812,-3.5350426217\H,0,-1.8953539918,0.0746522,-4.2
 394888022\H,0,-1.5733614824,1.9722152077,-2.6537115982\H,0,-0.69748342
 36,1.5543412422,-0.3709665896\H,0,1.9639831167,-1.5585089489,-1.166510
 763\H,0,4.0946355682,-2.8269555982,-1.1844390154\H,0,4.9653042807,-3.8
 451571212,0.9187730487\H,0,3.702330482,-3.5743902073,3.0530814228\H,0,
 1.5804184121,-2.3093743943,3.0923057428\H,0,-1.724715801,1.0197367226,
 2.3501304051\H,0,-1.2844261959,3.1782013658,3.4686630278\H,0,1.0434349
 961,4.0557020657,3.6385542134\H,0,2.9431716276,2.7517813724,2.68436734
 89\H,0,2.5240648791,0.5745879602,1.5676768901\H,0,0.0544624817,-4.3309
 645996,1.7013189945\H,0,-0.6528148061,-6.2522062045,0.2967365474\\Vers
 ion=ES64L-G16RevC.01\State=1-A\HF=-1307.4401021\RMSD=7.571e-10\Dipole=
 0.3814992,0.8692859,0.5193806\Quadrupole=-1.3956135,3.2664593,-1.87084
 58,-6.1873853,6.6410912,7.1026402\PG=C01 [X(C25H22P1)]\\@
 The archive entry for this job was punched.


 SIC AS THE CAWSE OF EWERY THING IS, SIC WILBE THE EFFECT.
 -- PROVERBS AND REASONS OF THE YEAR 1585
           AS REPRINTED IN PAISLEY MAGAZINE 1828.
 Job cpu time:       0 days  1 hours  2 minutes 58.9 seconds.
 Elapsed time:       0 days  0 hours  1 minutes 59.9 seconds.
 File lengths (MBytes):  RWF=    290 Int=      0 D2E=      0 Chk=     36 Scr=      1
 Normal termination of Gaussian 16 at Tue Feb 23 01:18:59 2021.
