 Entering Gaussian System, Link 0=g16
 Input=BPRYUXCVCCNUFE-UHFFFAOYSA-N.gjf
 Output=BPRYUXCVCCNUFE-UHFFFAOYSA-N.log
 Initial command:
 /sw/arch/RedHatEnterpriseServer7/EB_production/2019/software/Gaussian/g16.c01/l1.exe "/scratch-local/elenaa.9715186/Gau-10043.inp" -scrdir="/scratch-local/elenaa.9715186/"
 Entering Link 1 = /sw/arch/RedHatEnterpriseServer7/EB_production/2019/software/Gaussian/g16.c01/l1.exe PID=     10045.
  
 Copyright (c) 1988-2019, Gaussian, Inc.  All Rights Reserved.
  
 This is part of the Gaussian(R) 16 program.  It is based on
 the Gaussian(R) 09 system (copyright 2009, Gaussian, Inc.),
 the Gaussian(R) 03 system (copyright 2003, Gaussian, Inc.),
 the Gaussian(R) 98 system (copyright 1998, Gaussian, Inc.),
 the Gaussian(R) 94 system (copyright 1995, Gaussian, Inc.),
 the Gaussian 92(TM) system (copyright 1992, Gaussian, Inc.),
 the Gaussian 90(TM) system (copyright 1990, Gaussian, Inc.),
 the Gaussian 88(TM) system (copyright 1988, Gaussian, Inc.),
 the Gaussian 86(TM) system (copyright 1986, Carnegie Mellon
 University), and the Gaussian 82(TM) system (copyright 1983,
 Carnegie Mellon University). Gaussian is a federally registered
 trademark of Gaussian, Inc.
  
 This software contains proprietary and confidential information,
 including trade secrets, belonging to Gaussian, Inc.
  
 This software is provided under written license and may be
 used, copied, transmitted, or stored only in accord with that
 written license.
  
 The following legend is applicable only to US Government
 contracts under FAR:
  
                    RESTRICTED RIGHTS LEGEND
  
 Use, reproduction and disclosure by the US Government is
 subject to restrictions as set forth in subparagraphs (a)
 and (c) of the Commercial Computer Software - Restricted
 Rights clause in FAR 52.227-19.
  
 Gaussian, Inc.
 340 Quinnipiac St., Bldg. 40, Wallingford CT 06492
  
  
 ---------------------------------------------------------------
 Warning -- This program may not be used in any manner that
 competes with the business of Gaussian, Inc. or will provide
 assistance to any competitor of Gaussian, Inc.  The licensee
 of this program is prohibited from giving any competitor of
 Gaussian, Inc. access to this program.  By using this program,
 the user acknowledges that Gaussian, Inc. is engaged in the
 business of creating and licensing software in the field of
 computational chemistry and represents and warrants to the
 licensee that it is not a competitor of Gaussian, Inc. and that
 it will not use this program in any manner prohibited above.
 ---------------------------------------------------------------
  

 Cite this work as:
 Gaussian 16, Revision C.01,
 M. J. Frisch, G. W. Trucks, H. B. Schlegel, G. E. Scuseria, 
 M. A. Robb, J. R. Cheeseman, G. Scalmani, V. Barone, 
 G. A. Petersson, H. Nakatsuji, X. Li, M. Caricato, A. V. Marenich, 
 J. Bloino, B. G. Janesko, R. Gomperts, B. Mennucci, H. P. Hratchian, 
 J. V. Ortiz, A. F. Izmaylov, J. L. Sonnenberg, D. Williams-Young, 
 F. Ding, F. Lipparini, F. Egidi, J. Goings, B. Peng, A. Petrone, 
 T. Henderson, D. Ranasinghe, V. G. Zakrzewski, J. Gao, N. Rega, 
 G. Zheng, W. Liang, M. Hada, M. Ehara, K. Toyota, R. Fukuda, 
 J. Hasegawa, M. Ishida, T. Nakajima, Y. Honda, O. Kitao, H. Nakai, 
 T. Vreven, K. Throssell, J. A. Montgomery, Jr., J. E. Peralta, 
 F. Ogliaro, M. J. Bearpark, J. J. Heyd, E. N. Brothers, K. N. Kudin, 
 V. N. Staroverov, T. A. Keith, R. Kobayashi, J. Normand, 
 K. Raghavachari, A. P. Rendell, J. C. Burant, S. S. Iyengar, 
 J. Tomasi, M. Cossi, J. M. Millam, M. Klene, C. Adamo, R. Cammi, 
 J. W. Ochterski, R. L. Martin, K. Morokuma, O. Farkas, 
 J. B. Foresman, and D. J. Fox, Gaussian, Inc., Wallingford CT, 2019.
 
 ******************************************
 Gaussian 16:  ES64L-G16RevC.01  3-Jul-2019
                22-Feb-2021 
 ******************************************
 %chk=BPRYUXCVCCNUFE-UHFFFAOYSA-N.chk
 %NProcShared=32
 Will use up to   32 processors via shared memory.
 -------------------------------------------------------------
 #P BP86/TZVP EmpiricalDispersion=GD3 SCRF=(Solvent=Water) Opt
 -------------------------------------------------------------
 1/18=20,19=15,26=3,38=1/1,3;
 2/9=110,12=2,17=6,18=5,40=1/2;
 3/5=19,7=101,11=2,25=1,30=1,70=2201,71=1,72=1,74=404,124=31/1,2,3;
 4//1;
 5/5=2,38=5,53=1/2;
 6/7=2,8=2,9=2,10=2,28=1/1;
 7//1,2,3,16;
 1/18=20,19=15,26=3/3(2);
 2/9=110/2;
 99//99;
 2/9=110/2;
 3/5=19,7=101,11=2,25=1,30=1,70=2205,71=1,72=1,74=404,124=31/1,2,3;
 4/5=5,16=3,69=1/1;
 5/5=2,38=5,53=1/2;
 7//1,2,3,16;
 1/18=20,19=15,26=3/3(-5);
 2/9=110/2;
 6/7=2,8=2,9=2,10=2,19=2,28=1/1;
 99/9=1/99;
 Leave Link    1 at Mon Feb 22 20:57:18 2021, MaxMem=           0 cpu:               2.5 elap:               0.1
 (Enter /sw/arch/RedHatEnterpriseServer7/EB_production/2019/software/Gaussian/g16.c01/l101.exe)
 -------------------------------------
 Particle #BPRYUXCVCCNUFE-UHFFFAOYSA-N
 -------------------------------------
 Symbolic Z-matrix:
 Charge =  0 Multiplicity = 1
 C                    -0.52993  -2.83073  -1.7387 
 C                    -0.72434  -1.43587  -1.27468 
 C                    -0.11463  -0.98265  -0.08477 
 C                    -0.28665   0.34458   0.36903 
 C                     0.35516   0.80269   1.62758 
 C                    -1.08175   1.2315   -0.39763 
 O                    -1.24819   2.51556   0.02054 
 C                    -1.6983    0.8024   -1.5986 
 C                    -2.5312    1.73877  -2.39559 
 C                    -1.50654  -0.53124  -2.02489 
 H                    -0.38403  -3.51125  -0.89626 
 H                    -1.39508  -3.18335  -2.30551 
 H                     0.35137  -2.8738   -2.38099 
 H                     0.46417  -1.62936   0.45731 
 H                    -0.41128   1.13426   2.33048 
 H                     0.93661   0.01343   2.11055 
 H                     1.02705   1.63646   1.41671 
 H                    -2.13115   2.77812  -0.3144 
 H                    -3.36704   2.09285  -1.78943 
 H                    -2.94096   1.27098  -3.29422 
 H                    -1.9299    2.59544  -2.70484 
 H                    -1.94094  -0.84936  -2.89506 
 
 ITRead=  0  0  0  0  0  0  0  0  0  0  0  0  0  0  0  0  0  0  0  0
 ITRead=  0  0
 MicOpt= -1 -1 -1 -1 -1 -1 -1 -1 -1 -1 -1 -1 -1 -1 -1 -1 -1 -1 -1 -1
 MicOpt= -1 -1
 NAtoms=     22 NQM=       22 NQMF=       0 NMMI=      0 NMMIF=      0
                NMic=       0 NMicF=      0.
                    Isotopes and Nuclear Properties:
 (Nuclear quadrupole moments (NQMom) in fm**2, nuclear magnetic moments (NMagM)
  in nuclear magnetons)

  Atom         1           2           3           4           5           6           7           8           9          10
 IAtWgt=          12          12          12          12          12          12          16          12          12          12
 AtmWgt=  12.0000000  12.0000000  12.0000000  12.0000000  12.0000000  12.0000000  15.9949146  12.0000000  12.0000000  12.0000000
 NucSpn=           0           0           0           0           0           0           0           0           0           0
 AtZEff=  -0.0000000  -0.0000000  -0.0000000  -0.0000000  -0.0000000  -0.0000000  -0.0000000  -0.0000000  -0.0000000  -0.0000000
 NQMom=    0.0000000   0.0000000   0.0000000   0.0000000   0.0000000   0.0000000   0.0000000   0.0000000   0.0000000   0.0000000
 NMagM=    0.0000000   0.0000000   0.0000000   0.0000000   0.0000000   0.0000000   0.0000000   0.0000000   0.0000000   0.0000000
 AtZNuc=   6.0000000   6.0000000   6.0000000   6.0000000   6.0000000   6.0000000   8.0000000   6.0000000   6.0000000   6.0000000

  Atom        11          12          13          14          15          16          17          18          19          20
 IAtWgt=           1           1           1           1           1           1           1           1           1           1
 AtmWgt=   1.0078250   1.0078250   1.0078250   1.0078250   1.0078250   1.0078250   1.0078250   1.0078250   1.0078250   1.0078250
 NucSpn=           1           1           1           1           1           1           1           1           1           1
 AtZEff=  -0.0000000  -0.0000000  -0.0000000  -0.0000000  -0.0000000  -0.0000000  -0.0000000  -0.0000000  -0.0000000  -0.0000000
 NQMom=    0.0000000   0.0000000   0.0000000   0.0000000   0.0000000   0.0000000   0.0000000   0.0000000   0.0000000   0.0000000
 NMagM=    2.7928460   2.7928460   2.7928460   2.7928460   2.7928460   2.7928460   2.7928460   2.7928460   2.7928460   2.7928460
 AtZNuc=   1.0000000   1.0000000   1.0000000   1.0000000   1.0000000   1.0000000   1.0000000   1.0000000   1.0000000   1.0000000

  Atom        21          22
 IAtWgt=           1           1
 AtmWgt=   1.0078250   1.0078250
 NucSpn=           1           1
 AtZEff=  -0.0000000  -0.0000000
 NQMom=    0.0000000   0.0000000
 NMagM=    2.7928460   2.7928460
 AtZNuc=   1.0000000   1.0000000
 Leave Link  101 at Mon Feb 22 20:57:19 2021, MaxMem=   104857600 cpu:               2.9 elap:               0.1
 (Enter /sw/arch/RedHatEnterpriseServer7/EB_production/2019/software/Gaussian/g16.c01/l103.exe)

 GradGradGradGradGradGradGradGradGradGradGradGradGradGradGradGradGradGrad
 Berny optimization.
 Initialization pass.
                           ----------------------------
                           !    Initial Parameters    !
                           ! (Angstroms and Degrees)  !
 --------------------------                            --------------------------
 ! Name  Definition              Value          Derivative Info.                !
 --------------------------------------------------------------------------------
 ! R1    R(1,2)                  1.4828         estimate D2E/DX2                !
 ! R2    R(1,11)                 1.0927         estimate D2E/DX2                !
 ! R3    R(1,12)                 1.0927         estimate D2E/DX2                !
 ! R4    R(1,13)                 1.0914         estimate D2E/DX2                !
 ! R5    R(2,3)                  1.4118         estimate D2E/DX2                !
 ! R6    R(2,10)                 1.4117         estimate D2E/DX2                !
 ! R7    R(3,4)                  1.4132         estimate D2E/DX2                !
 ! R8    R(3,14)                 1.0233         estimate D2E/DX2                !
 ! R9    R(4,5)                  1.4852         estimate D2E/DX2                !
 ! R10   R(4,6)                  1.4165         estimate D2E/DX2                !
 ! R11   R(5,15)                 1.0915         estimate D2E/DX2                !
 ! R12   R(5,16)                 1.0928         estimate D2E/DX2                !
 ! R13   R(5,17)                 1.0914         estimate D2E/DX2                !
 ! R14   R(6,7)                  1.3607         estimate D2E/DX2                !
 ! R15   R(6,8)                  1.4165         estimate D2E/DX2                !
 ! R16   R(7,18)                 0.9802         estimate D2E/DX2                !
 ! R17   R(8,9)                  1.4852         estimate D2E/DX2                !
 ! R18   R(8,10)                 1.4132         estimate D2E/DX2                !
 ! R19   R(9,19)                 1.0915         estimate D2E/DX2                !
 ! R20   R(9,20)                 1.0928         estimate D2E/DX2                !
 ! R21   R(9,21)                 1.0914         estimate D2E/DX2                !
 ! R22   R(10,22)                1.0233         estimate D2E/DX2                !
 ! A1    A(2,1,11)             111.2276         estimate D2E/DX2                !
 ! A2    A(2,1,12)             111.2272         estimate D2E/DX2                !
 ! A3    A(2,1,13)             109.0966         estimate D2E/DX2                !
 ! A4    A(11,1,12)            107.7362         estimate D2E/DX2                !
 ! A5    A(11,1,13)            108.7426         estimate D2E/DX2                !
 ! A6    A(12,1,13)            108.7433         estimate D2E/DX2                !
 ! A7    A(1,2,3)              120.6056         estimate D2E/DX2                !
 ! A8    A(1,2,10)             120.6059         estimate D2E/DX2                !
 ! A9    A(3,2,10)             118.7821         estimate D2E/DX2                !
 ! A10   A(2,3,4)              121.3053         estimate D2E/DX2                !
 ! A11   A(2,3,14)             119.2026         estimate D2E/DX2                !
 ! A12   A(4,3,14)             119.492          estimate D2E/DX2                !
 ! A13   A(3,4,5)              120.6115         estimate D2E/DX2                !
 ! A14   A(3,4,6)              118.8532         estimate D2E/DX2                !
 ! A15   A(5,4,6)              120.5353         estimate D2E/DX2                !
 ! A16   A(4,5,15)             109.6307         estimate D2E/DX2                !
 ! A17   A(4,5,16)             112.4368         estimate D2E/DX2                !
 ! A18   A(4,5,17)             109.7529         estimate D2E/DX2                !
 ! A19   A(15,5,16)            107.9621         estimate D2E/DX2                !
 ! A20   A(15,5,17)            108.9438         estimate D2E/DX2                !
 ! A21   A(16,5,17)            108.0343         estimate D2E/DX2                !
 ! A22   A(4,6,7)              119.5511         estimate D2E/DX2                !
 ! A23   A(4,6,8)              120.8971         estimate D2E/DX2                !
 ! A24   A(7,6,8)              119.5503         estimate D2E/DX2                !
 ! A25   A(6,7,18)             104.9496         estimate D2E/DX2                !
 ! A26   A(6,8,9)              120.5358         estimate D2E/DX2                !
 ! A27   A(6,8,10)             118.8525         estimate D2E/DX2                !
 ! A28   A(9,8,10)             120.6117         estimate D2E/DX2                !
 ! A29   A(8,9,19)             109.6307         estimate D2E/DX2                !
 ! A30   A(8,9,20)             112.4374         estimate D2E/DX2                !
 ! A31   A(8,9,21)             109.7535         estimate D2E/DX2                !
 ! A32   A(19,9,20)            107.9618         estimate D2E/DX2                !
 ! A33   A(19,9,21)            108.9431         estimate D2E/DX2                !
 ! A34   A(20,9,21)            108.034          estimate D2E/DX2                !
 ! A35   A(2,10,8)             121.3058         estimate D2E/DX2                !
 ! A36   A(2,10,22)            119.2024         estimate D2E/DX2                !
 ! A37   A(8,10,22)            119.4917         estimate D2E/DX2                !
 ! D1    D(11,1,2,3)            30.4168         estimate D2E/DX2                !
 ! D2    D(11,1,2,10)         -150.5141         estimate D2E/DX2                !
 ! D3    D(12,1,2,3)           150.5141         estimate D2E/DX2                !
 ! D4    D(12,1,2,10)          -30.4168         estimate D2E/DX2                !
 ! D5    D(13,1,2,3)           -89.5343         estimate D2E/DX2                !
 ! D6    D(13,1,2,10)           89.5349         estimate D2E/DX2                !
 ! D7    D(1,2,3,4)            179.8086         estimate D2E/DX2                !
 ! D8    D(1,2,3,14)            -0.0856         estimate D2E/DX2                !
 ! D9    D(10,2,3,4)             0.7227         estimate D2E/DX2                !
 ! D10   D(10,2,3,14)         -179.1715         estimate D2E/DX2                !
 ! D11   D(1,2,10,8)          -179.8086         estimate D2E/DX2                !
 ! D12   D(1,2,10,22)            0.0858         estimate D2E/DX2                !
 ! D13   D(3,2,10,8)            -0.7227         estimate D2E/DX2                !
 ! D14   D(3,2,10,22)          179.1717         estimate D2E/DX2                !
 ! D15   D(2,3,4,5)            179.62           estimate D2E/DX2                !
 ! D16   D(2,3,4,6)             -0.4051         estimate D2E/DX2                !
 ! D17   D(14,3,4,5)            -0.486          estimate D2E/DX2                !
 ! D18   D(14,3,4,6)           179.4888         estimate D2E/DX2                !
 ! D19   D(3,4,5,15)          -120.0956         estimate D2E/DX2                !
 ! D20   D(3,4,5,16)             0.0048         estimate D2E/DX2                !
 ! D21   D(3,4,5,17)           120.2803         estimate D2E/DX2                !
 ! D22   D(6,4,5,15)            59.93           estimate D2E/DX2                !
 ! D23   D(6,4,5,16)          -179.9696         estimate D2E/DX2                !
 ! D24   D(6,4,5,17)           -59.6942         estimate D2E/DX2                !
 ! D25   D(3,4,6,7)           -179.4805         estimate D2E/DX2                !
 ! D26   D(3,4,6,8)              0.0752         estimate D2E/DX2                !
 ! D27   D(5,4,6,7)              0.4944         estimate D2E/DX2                !
 ! D28   D(5,4,6,8)           -179.9499         estimate D2E/DX2                !
 ! D29   D(4,6,7,18)          -150.4383         estimate D2E/DX2                !
 ! D30   D(8,6,7,18)            30.0            estimate D2E/DX2                !
 ! D31   D(4,6,8,9)            179.9501         estimate D2E/DX2                !
 ! D32   D(4,6,8,10)            -0.0752         estimate D2E/DX2                !
 ! D33   D(7,6,8,9)             -0.4942         estimate D2E/DX2                !
 ! D34   D(7,6,8,10)           179.4805         estimate D2E/DX2                !
 ! D35   D(6,8,9,19)           -59.93           estimate D2E/DX2                !
 ! D36   D(6,8,9,20)           179.9695         estimate D2E/DX2                !
 ! D37   D(6,8,9,21)            59.6936         estimate D2E/DX2                !
 ! D38   D(10,8,9,19)          120.0957         estimate D2E/DX2                !
 ! D39   D(10,8,9,20)           -0.0048         estimate D2E/DX2                !
 ! D40   D(10,8,9,21)         -120.2807         estimate D2E/DX2                !
 ! D41   D(6,8,10,2)             0.4051         estimate D2E/DX2                !
 ! D42   D(6,8,10,22)         -179.489          estimate D2E/DX2                !
 ! D43   D(9,8,10,2)          -179.6202         estimate D2E/DX2                !
 ! D44   D(9,8,10,22)            0.4857         estimate D2E/DX2                !
 --------------------------------------------------------------------------------
 Trust Radius=3.00D-01 FncErr=1.00D-07 GrdErr=1.00D-06 EigMax=2.50D+02 EigMin=1.00D-04
 Number of steps in this run=    113 maximum allowed number of steps=    132.
 GradGradGradGradGradGradGradGradGradGradGradGradGradGradGradGradGradGrad

 Leave Link  103 at Mon Feb 22 20:57:19 2021, MaxMem=   104857600 cpu:               0.5 elap:               0.0
 (Enter /sw/arch/RedHatEnterpriseServer7/EB_production/2019/software/Gaussian/g16.c01/l202.exe)
                          Input orientation:                          
 ---------------------------------------------------------------------
 Center     Atomic      Atomic             Coordinates (Angstroms)
 Number     Number       Type             X           Y           Z
 ---------------------------------------------------------------------
      1          6           0       -0.529930   -2.830730   -1.738700
      2          6           0       -0.724340   -1.435870   -1.274680
      3          6           0       -0.114630   -0.982650   -0.084770
      4          6           0       -0.286650    0.344580    0.369030
      5          6           0        0.355160    0.802690    1.627580
      6          6           0       -1.081750    1.231500   -0.397630
      7          8           0       -1.248190    2.515560    0.020540
      8          6           0       -1.698300    0.802400   -1.598600
      9          6           0       -2.531200    1.738770   -2.395590
     10          6           0       -1.506540   -0.531240   -2.024890
     11          1           0       -0.384030   -3.511250   -0.896260
     12          1           0       -1.395080   -3.183350   -2.305510
     13          1           0        0.351370   -2.873800   -2.380990
     14          1           0        0.464170   -1.629360    0.457310
     15          1           0       -0.411280    1.134260    2.330480
     16          1           0        0.936610    0.013430    2.110550
     17          1           0        1.027050    1.636460    1.416710
     18          1           0       -2.131145    2.778125   -0.314401
     19          1           0       -3.367040    2.092850   -1.789430
     20          1           0       -2.940960    1.270980   -3.294220
     21          1           0       -1.929900    2.595440   -2.704840
     22          1           0       -1.940940   -0.849360   -2.895060
 ---------------------------------------------------------------------
                    Distance matrix (angstroms):
                    1          2          3          4          5
     1  C    0.000000
     2  C    1.482816   0.000000
     3  C    2.514629   1.411751   0.000000
     4  C    3.818940   2.462389   1.413175   0.000000
     5  C    5.031597   3.820940   2.517992   1.485171   0.000000
     6  C    4.313315   2.830516   2.436322   1.416538   2.519933
     7  O    5.673944   4.191159   3.678794   2.399825   2.843806
     8  C    3.818946   2.462392   2.825968   2.464533   3.824256
     9  C    5.031592   3.820932   4.311128   3.824251   5.039168
    10  C    2.514622   1.411739   2.430072   2.825959   4.311129
    11  H    1.092749   2.136870   2.669253   4.059294   5.052351
    12  H    1.092748   2.136864   3.378508   4.563778   5.866946
    13  H    1.091367   2.109198   3.011018   4.281080   5.439230
    14  H    2.693322   2.109451   1.023276   2.113756   2.701163
    15  H    5.682733   4.438553   3.225328   2.118115   1.091530
    16  H    5.005668   4.039679   2.629964   2.153815   1.092829
    17  H    5.686527   4.444115   3.227633   2.119527   1.091364
    18  H    6.004313   4.545216   4.273464   3.129118   3.722277
    19  H    5.682729   4.438547   4.789858   4.147795   5.214906
    20  H    5.005670   4.039676   4.834000   4.617681   5.942038
    21  H    5.686534   4.444119   4.791941   4.149135   5.215871
    22  H    2.693315   2.109441   3.354237   3.849214   5.334381
                    6          7          8          9         10
     6  C    0.000000
     7  O    1.360654   0.000000
     8  C    1.416541   2.399819   0.000000
     9  C    2.519935   2.843801   1.485161   0.000000
    10  C    2.436324   3.678793   1.413185   2.517994   0.000000
    11  H    4.819660   6.157088   4.563788   5.866945   3.378505
    12  H    4.819656   6.157082   4.059294   5.052341   2.669243
    13  H    4.779230   6.113194   4.281090   5.439230   3.011017
    14  H    3.362337   4.505919   3.849221   5.334377   3.354233
    15  H    2.810973   2.818551   4.147797   5.214905   4.789857
    16  H    3.442156   3.924557   4.617685   5.942037   4.833995
    17  H    2.811203   2.810485   4.149130   5.215864   4.791932
    18  H    1.870884   0.980171   2.395832   2.360435   3.777274
    19  H    2.810975   2.818546   2.118105   1.091527   3.225329
    20  H    3.442158   3.924549   2.153810   1.092825   2.629973
    21  H    2.811211   2.810481   2.119528   1.091366   3.227645
    22  H    3.362342   4.505920   2.113763   2.701165   1.023279
                   11         12         13         14         15
    11  H    0.000000
    12  H    1.765142   0.000000
    13  H    1.775269   1.775276   0.000000
    14  H    2.468422   3.674897   3.101177   0.000000
    15  H    5.656267   6.411086   6.232506   3.451489   0.000000
    16  H    4.817506   5.929398   5.371456   2.378058   1.766759
    17  H    5.817207   6.553793   5.934772   3.450053   1.776506
    18  H    6.553412   6.328151   6.509833   5.172728   3.557474
    19  H    6.411087   5.656258   6.232506   5.794899   5.160336
    20  H    5.929404   4.817504   5.371464   5.837881   6.168892
    21  H    6.553803   5.817208   5.934784   5.794799   5.458544
    22  H    3.674892   2.468409   3.101179   4.198969   5.794901
                   16         17         18         19         20
    16  H    0.000000
    17  H    1.767433   0.000000
    18  H    4.789055   3.778140   0.000000
    19  H    6.168893   5.458539   2.042731   0.000000
    20  H    6.769676   6.170214   3.436075   1.766751   0.000000
    21  H    6.170222   5.162400   2.405842   1.776498   1.767429
    22  H    5.837879   5.794793   4.455853   3.451489   2.378069
                   21         22
    21  H    0.000000
    22  H    3.450066   0.000000
 Stoichiometry    C9H12O
 Framework group  C1[X(C9H12O)]
 Deg. of freedom    60
 Full point group                 C1      NOp   1
 Largest Abelian subgroup         C1      NOp   1
 Largest concise Abelian subgroup C1      NOp   1
                         Standard orientation:                         
 ---------------------------------------------------------------------
 Center     Atomic      Atomic             Coordinates (Angstroms)
 Number     Number       Type             X           Y           Z
 ---------------------------------------------------------------------
      1          6           0       -3.210159   -0.115418   -0.010295
      2          6           0       -1.728493   -0.057026   -0.008905
      3          6           0       -1.058148    1.185397   -0.000983
      4          6           0        0.353137    1.258267    0.004478
      5          6           0        1.042499    2.573757    0.004314
      6          6           0        1.099758    0.054482    0.010659
      7          8           0        2.459261    0.108089    0.026696
      8          6           0        0.450193   -1.204349    0.009796
      9          6           0        1.240932   -2.461491    0.015193
     10          6           0       -0.962458   -1.242784    0.004261
     11          1           0       -3.639741    0.749806   -0.521122
     12          1           0       -3.570226   -1.013962   -0.517314
     13          1           0       -3.567989   -0.127287    1.020674
     14          1           0       -1.607182    2.048904    0.002475
     15          1           0        1.672878    2.657313   -0.882860
     16          1           0        0.341407    3.412044   -0.000248
     17          1           0        1.668910    2.662025    0.893635
     18          1           0        2.749843   -0.704033   -0.438874
     19          1           0        1.876083   -2.499009   -0.871716
     20          1           0        0.607995   -3.352365    0.014367
     21          1           0        1.872206   -2.496359    0.904776
     22          1           0       -1.441837   -2.146799    0.011535
 ---------------------------------------------------------------------
 Rotational constants (GHZ):           1.7412066           1.2625930           0.7426062
 Leave Link  202 at Mon Feb 22 20:57:19 2021, MaxMem=   104857600 cpu:               0.8 elap:               0.1
 (Enter /sw/arch/RedHatEnterpriseServer7/EB_production/2019/software/Gaussian/g16.c01/l301.exe)
 Standard basis: TZVP (5D, 7F)
 Ernie: Thresh=  0.10000D-02 Tol=  0.10000D-05 Strict=F.
 There are   272 symmetry adapted cartesian basis functions of A   symmetry.
 There are   262 symmetry adapted basis functions of A   symmetry.
   262 basis functions,   446 primitive gaussians,   272 cartesian basis functions
    37 alpha electrons       37 beta electrons
       nuclear repulsion energy       515.1175960921 Hartrees.
 IExCor=  404 DFT=T Ex=B Corr=P86 ExCW=0 ScaHFX=  0.000000
 ScaDFX=  1.000000  1.000000  1.000000  1.000000 ScalE2=  1.000000  1.000000
 IRadAn=      5 IRanWt=     -1 IRanGd=            0 ICorTp=0 IEmpDi=131
 NAtoms=   22 NActive=   22 NUniq=   22 SFac= 1.00D+00 NAtFMM=   60 NAOKFM=F Big=F
 Integral buffers will be    131072 words long.
 Raffenetti 2 integral format.
 Two-electron integral symmetry is turned on.
 R6Disp:  Grimme-D3 Dispersion energy=       -0.0182884637 Hartrees.
 Nuclear repulsion after empirical dispersion term =      515.0993076284 Hartrees.
 ------------------------------------------------------------------------------
 Polarizable Continuum Model (PCM)
 =================================
 Model                : PCM.
 Atomic radii         : UFF (Universal Force Field).
 Polarization charges : Total charges.
 Charge compensation  : None.
 Solution method      : On-the-fly selection.
 Cavity type          : Scaled VdW (van der Waals Surface) (Alpha=1.100).
 Cavity algorithm     : GePol (No added spheres)
                        Default sphere list used, NSphG=   22.
                        Lebedev-Laikov grids with approx.  5.0 points / Ang**2.
                        Smoothing algorithm: York/Karplus (Gamma=1.0000).
                        Polarization charges: spherical gaussians, with
                                              point-specific exponents (IZeta= 3).
                        Self-potential: point-specific (ISelfS= 7).
                        Self-field    : sphere-specific E.n sum rule (ISelfD= 2).
 1st derivatives      : Analytical E(r).r(x)/FMM algorithm (CHGder, D1EAlg=3).
                        Cavity 1st derivative terms included.
 Solvent              : Water, Eps=  78.355300 Eps(inf)=   1.777849
 ------------------------------------------------------------------------------
 GePol: Number of generator spheres                  =      22
 GePol: Total number of spheres                      =      22
 GePol: Number of exposed spheres                    =      22 (100.00%)
 GePol: Number of points                             =    1670
 GePol: Average weight of points                     =       0.13
 GePol: Minimum weight of points                     =   0.11D-09
 GePol: Maximum weight of points                     =    0.20577
 GePol: Number of points with low weight             =     111
 GePol: Fraction of low-weight points (<1% of avg)   =       6.65%
 GePol: Cavity surface area                          =    218.899 Ang**2
 GePol: Cavity volume                                =    220.583 Ang**3
 Leave Link  301 at Mon Feb 22 20:57:20 2021, MaxMem=   104857600 cpu:               1.9 elap:               0.1
 (Enter /sw/arch/RedHatEnterpriseServer7/EB_production/2019/software/Gaussian/g16.c01/l302.exe)
 NPDir=0 NMtPBC=     1 NCelOv=     1 NCel=       1 NClECP=     1 NCelD=      1
         NCelK=      1 NCelE2=     1 NClLst=     1 CellRange=     0.0.
 One-electron integrals computed using PRISM.
 One-electron integral symmetry used in STVInt
 PrsmSu:  requested number of processors reduced to:  28 ShMem   1 Linda.
 NBasis=   262 RedAO= T EigKep=  7.95D-06  NBF=   262
 NBsUse=   262 1.00D-06 EigRej= -1.00D+00 NBFU=   262
 Precomputing XC quadrature grid using
 IXCGrd= 4 IRadAn=           5 IRanWt=          -1 IRanGd=           0 AccXCQ= 0.00D+00.
 Generated NRdTot=       0 NPtTot=           0 NUsed=           0 NTot=          32
 NSgBfM=   269   269   269   269   269 MxSgAt=    22 MxSgA2=    22.
 Leave Link  302 at Mon Feb 22 20:57:20 2021, MaxMem=   104857600 cpu:              10.2 elap:               0.4
 (Enter /sw/arch/RedHatEnterpriseServer7/EB_production/2019/software/Gaussian/g16.c01/l303.exe)
 DipDrv:  MaxL=1.
 Leave Link  303 at Mon Feb 22 20:57:20 2021, MaxMem=   104857600 cpu:               3.7 elap:               0.2
 (Enter /sw/arch/RedHatEnterpriseServer7/EB_production/2019/software/Gaussian/g16.c01/l401.exe)
 ExpMin= 9.52D-02 ExpMax= 2.70D+04 ExpMxC= 9.22D+02 IAcc=3 IRadAn=         5 AccDes= 0.00D+00
 Harris functional with IExCor=  404 and IRadAn=       5 diagonalized for initial guess.
 HarFok:  IExCor=  404 AccDes= 0.00D+00 IRadAn=         5 IDoV= 1 UseB2=F ITyADJ=14
 ICtDFT=  3500011 ScaDFX=  1.000000  1.000000  1.000000  1.000000
 FoFCou: FMM=F IPFlag=           0 FMFlag=      100000 FMFlg1=           0
         NFxFlg=           0 DoJE=T BraDBF=F KetDBF=T FulRan=T
         wScrn=  0.000000 ICntrl=       500 IOpCl=  0 I1Cent=   200000004 NGrid=           0
         NMat0=    1 NMatS0=      1 NMatT0=    0 NMatD0=    1 NMtDS0=    0 NMtDT0=    0
 Petite list used in FoFCou.
 Harris En= -425.807835462939    
 JPrj=0 DoOrth=F DoCkMO=F.
 Leave Link  401 at Mon Feb 22 20:57:21 2021, MaxMem=   104857600 cpu:              15.1 elap:               0.6
 (Enter /sw/arch/RedHatEnterpriseServer7/EB_production/2019/software/Gaussian/g16.c01/l502.exe)
 Integral symmetry usage will be decided dynamically.
 Closed shell SCF:
 Using DIIS extrapolation, IDIIS=  1040.
 NGot=   104857600 LenX=   104697542 LenY=   104623117
 Requested convergence on RMS density matrix=1.00D-08 within 128 cycles.
 Requested convergence on MAX density matrix=1.00D-06.
 Requested convergence on             energy=1.00D-06.
 No special actions if energy rises.
 Fock matrices will be formed incrementally for  20 cycles.

 Cycle   1  Pass 1  IDiag  1:
 FoFJK:  IHMeth= 1 ICntrl=     500 DoSepK=F KAlg= 0 I1Cent=           0 FoldK=F
 IRaf= 920000000 NMat=       1 IRICut=       1 DoRegI=T DoRafI=F ISym2E= 0 IDoP0=0 IntGTp=1.
 FoFCou: FMM=F IPFlag=           0 FMFlag=      100000 FMFlg1=           0
         NFxFlg=           0 DoJE=T BraDBF=F KetDBF=F FulRan=T
         wScrn=  0.000000 ICntrl=       500 IOpCl=  0 I1Cent=           0 NGrid=           0
         NMat0=    1 NMatS0=      1 NMatT0=    0 NMatD0=    1 NMtDS0=    0 NMtDT0=    0
 Symmetry not used in FoFCou.
 Inv3:  Mode=1 IEnd=     8366700.
 Iteration    1 A*A^-1 deviation from unit magnitude is 3.00D-15 for   1310.
 Iteration    1 A*A^-1 deviation from orthogonality  is 1.53D-15 for    765    705.
 Iteration    1 A^-1*A deviation from unit magnitude is 3.00D-15 for   1310.
 Iteration    1 A^-1*A deviation from orthogonality  is 2.00D-15 for   1293     34.
 E= -425.275664357886    
 DIIS: error= 3.69D-02 at cycle   1 NSaved=   1.
 NSaved= 1 IEnMin= 1 EnMin= -425.275664357886     IErMin= 1 ErrMin= 3.69D-02
 ErrMax= 3.69D-02  0.00D+00 EMaxC= 1.00D-01 BMatC= 2.87D-01 BMatP= 2.87D-01
 IDIUse=3 WtCom= 6.31D-01 WtEn= 3.69D-01
 Coeff-Com:  0.100D+01
 Coeff-En:   0.100D+01
 Coeff:      0.100D+01
 Gap=     0.167 Goal=   None    Shift=    0.000
 GapD=    0.167 DampG=1.000 DampE=0.500 DampFc=0.5000 IDamp=-1.
 Damping current iteration by 5.00D-01
 RMSDP=1.10D-02 MaxDP=6.44D-01              OVMax= 1.99D-01

 Cycle   2  Pass 1  IDiag  1:
 RMSU=  5.48D-03    CP:  1.04D+00
 E= -425.382622987225     Delta-E=       -0.106958629339 Rises=F Damp=T
 DIIS: error= 5.90D-03 at cycle   2 NSaved=   2.
 NSaved= 2 IEnMin= 2 EnMin= -425.382622987225     IErMin= 2 ErrMin= 5.90D-03
 ErrMax= 5.90D-03  0.00D+00 EMaxC= 1.00D-01 BMatC= 2.08D-02 BMatP= 2.87D-01
 IDIUse=3 WtCom= 9.41D-01 WtEn= 5.90D-02
 Coeff-Com:  0.155D+00 0.845D+00
 Coeff-En:   0.261D+00 0.739D+00
 Coeff:      0.161D+00 0.839D+00
 Gap=     0.194 Goal=   None    Shift=    0.000
 RMSDP=2.96D-03 MaxDP=1.44D-01 DE=-1.07D-01 OVMax= 1.63D-01

 Cycle   3  Pass 1  IDiag  1:
 RMSU=  1.65D-03    CP:  1.00D+00  5.60D-01
 E= -425.552878092458     Delta-E=       -0.170255105232 Rises=F Damp=F
 DIIS: error= 7.82D-03 at cycle   3 NSaved=   3.
 NSaved= 3 IEnMin= 3 EnMin= -425.552878092458     IErMin= 2 ErrMin= 5.90D-03
 ErrMax= 7.82D-03  0.00D+00 EMaxC= 1.00D-01 BMatC= 1.31D-02 BMatP= 2.08D-02
 IDIUse=3 WtCom= 9.22D-01 WtEn= 7.82D-02
 Coeff-Com:  0.558D-01 0.453D+00 0.491D+00
 Coeff-En:   0.000D+00 0.000D+00 0.100D+01
 Coeff:      0.514D-01 0.418D+00 0.531D+00
 Gap=     0.153 Goal=   None    Shift=    0.000
 RMSDP=7.98D-04 MaxDP=2.34D-02 DE=-1.70D-01 OVMax= 8.60D-02

 Cycle   4  Pass 1  IDiag  1:
 RMSU=  7.29D-04    CP:  1.01D+00  5.79D-01  8.16D-01
 E= -425.559742237015     Delta-E=       -0.006864144557 Rises=F Damp=F
 DIIS: error= 6.46D-03 at cycle   4 NSaved=   4.
 NSaved= 4 IEnMin= 4 EnMin= -425.559742237015     IErMin= 2 ErrMin= 5.90D-03
 ErrMax= 6.46D-03  0.00D+00 EMaxC= 1.00D-01 BMatC= 5.91D-03 BMatP= 1.31D-02
 IDIUse=3 WtCom= 9.35D-01 WtEn= 6.46D-02
 Coeff-Com:  0.685D-02 0.115D+00 0.395D+00 0.484D+00
 Coeff-En:   0.000D+00 0.000D+00 0.367D+00 0.633D+00
 Coeff:      0.641D-02 0.107D+00 0.393D+00 0.493D+00
 Gap=     0.152 Goal=   None    Shift=    0.000
 RMSDP=4.19D-04 MaxDP=1.11D-02 DE=-6.86D-03 OVMax= 4.05D-02

 Cycle   5  Pass 1  IDiag  1:
 RMSU=  1.98D-04    CP:  1.01D+00  5.98D-01  8.91D-01  5.46D-01
 E= -425.565861285913     Delta-E=       -0.006119048898 Rises=F Damp=F
 DIIS: error= 1.55D-03 at cycle   5 NSaved=   5.
 NSaved= 5 IEnMin= 5 EnMin= -425.565861285913     IErMin= 5 ErrMin= 1.55D-03
 ErrMax= 1.55D-03  0.00D+00 EMaxC= 1.00D-01 BMatC= 3.20D-04 BMatP= 5.91D-03
 IDIUse=3 WtCom= 9.85D-01 WtEn= 1.55D-02
 Coeff-Com:  0.180D-02 0.444D-01 0.227D+00 0.316D+00 0.410D+00
 Coeff-En:   0.000D+00 0.000D+00 0.000D+00 0.000D+00 0.100D+01
 Coeff:      0.177D-02 0.438D-01 0.224D+00 0.311D+00 0.419D+00
 Gap=     0.152 Goal=   None    Shift=    0.000
 RMSDP=1.69D-04 MaxDP=1.00D-02 DE=-6.12D-03 OVMax= 8.69D-03

 Cycle   6  Pass 1  IDiag  1:
 RMSU=  8.72D-05    CP:  1.00D+00  5.77D-01  8.81D-01  5.87D-01  6.35D-01
 E= -425.566149235277     Delta-E=       -0.000287949364 Rises=F Damp=F
 DIIS: error= 3.77D-04 at cycle   6 NSaved=   6.
 NSaved= 6 IEnMin= 6 EnMin= -425.566149235277     IErMin= 6 ErrMin= 3.77D-04
 ErrMax= 3.77D-04  0.00D+00 EMaxC= 1.00D-01 BMatC= 2.27D-05 BMatP= 3.20D-04
 IDIUse=3 WtCom= 9.96D-01 WtEn= 3.77D-03
 Coeff-Com:  0.223D-03 0.735D-02 0.640D-01 0.948D-01 0.242D+00 0.591D+00
 Coeff-En:   0.000D+00 0.000D+00 0.000D+00 0.000D+00 0.491D-01 0.951D+00
 Coeff:      0.223D-03 0.732D-02 0.637D-01 0.944D-01 0.242D+00 0.593D+00
 Gap=     0.152 Goal=   None    Shift=    0.000
 RMSDP=6.63D-05 MaxDP=4.60D-03 DE=-2.88D-04 OVMax= 1.69D-03

 Cycle   7  Pass 1  IDiag  1:
 RMSU=  1.95D-05    CP:  1.00D+00  5.86D-01  8.88D-01  5.82D-01  6.79D-01
                    CP:  5.93D-01
 E= -425.566168505208     Delta-E=       -0.000019269931 Rises=F Damp=F
 DIIS: error= 8.81D-05 at cycle   7 NSaved=   7.
 NSaved= 7 IEnMin= 7 EnMin= -425.566168505208     IErMin= 7 ErrMin= 8.81D-05
 ErrMax= 8.81D-05  0.00D+00 EMaxC= 1.00D-01 BMatC= 1.58D-06 BMatP= 2.27D-05
 IDIUse=1 WtCom= 1.00D+00 WtEn= 0.00D+00
 Coeff-Com:  0.135D-03 0.289D-02 0.303D-01 0.452D-01 0.129D+00 0.352D+00
 Coeff-Com:  0.440D+00
 Coeff:      0.135D-03 0.289D-02 0.303D-01 0.452D-01 0.129D+00 0.352D+00
 Coeff:      0.440D+00
 Gap=     0.152 Goal=   None    Shift=    0.000
 RMSDP=1.47D-05 MaxDP=1.06D-03 DE=-1.93D-05 OVMax= 6.07D-04

 Cycle   8  Pass 1  IDiag  1:
 RMSU=  7.08D-06    CP:  1.00D+00  5.84D-01  8.87D-01  5.84D-01  6.72D-01
                    CP:  6.34D-01  8.17D-01
 E= -425.566169757657     Delta-E=       -0.000001252449 Rises=F Damp=F
 DIIS: error= 3.40D-05 at cycle   8 NSaved=   8.
 NSaved= 8 IEnMin= 8 EnMin= -425.566169757657     IErMin= 8 ErrMin= 3.40D-05
 ErrMax= 3.40D-05  0.00D+00 EMaxC= 1.00D-01 BMatC= 1.56D-07 BMatP= 1.58D-06
 IDIUse=1 WtCom= 1.00D+00 WtEn= 0.00D+00
 Coeff-Com:  0.629D-04 0.210D-03 0.392D-02 0.565D-02 0.208D-01 0.711D-01
 Coeff-Com:  0.256D+00 0.642D+00
 Coeff:      0.629D-04 0.210D-03 0.392D-02 0.565D-02 0.208D-01 0.711D-01
 Coeff:      0.256D+00 0.642D+00
 Gap=     0.152 Goal=   None    Shift=    0.000
 RMSDP=3.35D-06 MaxDP=1.82D-04 DE=-1.25D-06 OVMax= 2.09D-04

 Cycle   9  Pass 1  IDiag  1:
 RMSU=  1.49D-06    CP:  1.00D+00  5.84D-01  8.87D-01  5.84D-01  6.78D-01
                    CP:  6.24D-01  8.74D-01  8.71D-01
 E= -425.566169882048     Delta-E=       -0.000000124391 Rises=F Damp=F
 DIIS: error= 8.93D-06 at cycle   9 NSaved=   9.
 NSaved= 9 IEnMin= 9 EnMin= -425.566169882048     IErMin= 9 ErrMin= 8.93D-06
 ErrMax= 8.93D-06  0.00D+00 EMaxC= 1.00D-01 BMatC= 2.17D-08 BMatP= 1.56D-07
 IDIUse=1 WtCom= 1.00D+00 WtEn= 0.00D+00
 Coeff-Com:  0.321D-04-0.606D-04 0.554D-03 0.644D-03 0.425D-02 0.206D-01
 Coeff-Com:  0.128D+00 0.397D+00 0.449D+00
 Coeff:      0.321D-04-0.606D-04 0.554D-03 0.644D-03 0.425D-02 0.206D-01
 Coeff:      0.128D+00 0.397D+00 0.449D+00
 Gap=     0.152 Goal=   None    Shift=    0.000
 RMSDP=7.79D-07 MaxDP=2.21D-05 DE=-1.24D-07 OVMax= 6.13D-05

 Cycle  10  Pass 1  IDiag  1:
 RMSU=  4.23D-07    CP:  1.00D+00  5.84D-01  8.87D-01  5.84D-01  6.78D-01
                    CP:  6.28D-01  8.74D-01  8.65D-01  6.70D-01
 E= -425.566169902833     Delta-E=       -0.000000020785 Rises=F Damp=F
 DIIS: error= 2.02D-06 at cycle  10 NSaved=  10.
 NSaved=10 IEnMin=10 EnMin= -425.566169902833     IErMin=10 ErrMin= 2.02D-06
 ErrMax= 2.02D-06  0.00D+00 EMaxC= 1.00D-01 BMatC= 1.08D-09 BMatP= 2.17D-08
 IDIUse=1 WtCom= 1.00D+00 WtEn= 0.00D+00
 Coeff-Com:  0.112D-04-0.390D-04-0.758D-05-0.119D-03 0.473D-03 0.529D-02
 Coeff-Com:  0.459D-01 0.155D+00 0.238D+00 0.556D+00
 Coeff:      0.112D-04-0.390D-04-0.758D-05-0.119D-03 0.473D-03 0.529D-02
 Coeff:      0.459D-01 0.155D+00 0.238D+00 0.556D+00
 Gap=     0.152 Goal=   None    Shift=    0.000
 RMSDP=2.41D-07 MaxDP=1.05D-05 DE=-2.08D-08 OVMax= 2.21D-05

 Cycle  11  Pass 1  IDiag  1:
 RMSU=  1.50D-07    CP:  1.00D+00  5.84D-01  8.87D-01  5.84D-01  6.78D-01
                    CP:  6.28D-01  8.78D-01  8.70D-01  6.95D-01  6.57D-01
 E= -425.566169903615     Delta-E=       -0.000000000782 Rises=F Damp=F
 DIIS: error= 1.28D-06 at cycle  11 NSaved=  11.
 NSaved=11 IEnMin=11 EnMin= -425.566169903615     IErMin=11 ErrMin= 1.28D-06
 ErrMax= 1.28D-06  0.00D+00 EMaxC= 1.00D-01 BMatC= 3.16D-10 BMatP= 1.08D-09
 IDIUse=1 WtCom= 1.00D+00 WtEn= 0.00D+00
 Coeff-Com:  0.382D-05-0.198D-04-0.761D-04-0.172D-03-0.189D-03 0.141D-02
 Coeff-Com:  0.176D-01 0.635D-01 0.115D+00 0.386D+00 0.417D+00
 Coeff:      0.382D-05-0.198D-04-0.761D-04-0.172D-03-0.189D-03 0.141D-02
 Coeff:      0.176D-01 0.635D-01 0.115D+00 0.386D+00 0.417D+00
 Gap=     0.152 Goal=   None    Shift=    0.000
 RMSDP=9.97D-08 MaxDP=2.24D-06 DE=-7.82D-10 OVMax= 9.67D-06

 Cycle  12  Pass 1  IDiag  1:
 RMSU=  4.43D-08    CP:  1.00D+00  5.84D-01  8.87D-01  5.84D-01  6.78D-01
                    CP:  6.28D-01  8.80D-01  8.72D-01  6.86D-01  7.44D-01
                    CP:  5.51D-01
 E= -425.566169903946     Delta-E=       -0.000000000330 Rises=F Damp=F
 DIIS: error= 2.18D-07 at cycle  12 NSaved=  12.
 NSaved=12 IEnMin=12 EnMin= -425.566169903946     IErMin=12 ErrMin= 2.18D-07
 ErrMax= 2.18D-07  0.00D+00 EMaxC= 1.00D-01 BMatC= 1.14D-11 BMatP= 3.16D-10
 IDIUse=1 WtCom= 1.00D+00 WtEn= 0.00D+00
 Coeff-Com:  0.439D-06-0.523D-05-0.345D-04-0.706D-04-0.142D-03 0.223D-03
 Coeff-Com:  0.394D-02 0.160D-01 0.336D-01 0.138D+00 0.214D+00 0.595D+00
 Coeff:      0.439D-06-0.523D-05-0.345D-04-0.706D-04-0.142D-03 0.223D-03
 Coeff:      0.394D-02 0.160D-01 0.336D-01 0.138D+00 0.214D+00 0.595D+00
 Gap=     0.152 Goal=   None    Shift=    0.000
 RMSDP=2.33D-08 MaxDP=5.59D-07 DE=-3.30D-10 OVMax= 2.19D-06

 Cycle  13  Pass 1  IDiag  1:
 RMSU=  1.31D-08    CP:  1.00D+00  5.84D-01  8.87D-01  5.84D-01  6.78D-01
                    CP:  6.28D-01  8.80D-01  8.73D-01  6.92D-01  7.36D-01
                    CP:  6.04D-01  7.70D-01
 E= -425.566169903957     Delta-E=       -0.000000000011 Rises=F Damp=F
 DIIS: error= 1.27D-07 at cycle  13 NSaved=  13.
 NSaved=13 IEnMin=13 EnMin= -425.566169903957     IErMin=13 ErrMin= 1.27D-07
 ErrMax= 1.27D-07  0.00D+00 EMaxC= 1.00D-01 BMatC= 3.25D-12 BMatP= 1.14D-11
 IDIUse=1 WtCom= 1.00D+00 WtEn= 0.00D+00
 Coeff-Com: -0.165D-06-0.120D-05-0.141D-04-0.278D-04-0.690D-04 0.218D-04
 Coeff-Com:  0.816D-03 0.426D-02 0.107D-01 0.517D-01 0.986D-01 0.403D+00
 Coeff-Com:  0.431D+00
 Coeff:     -0.165D-06-0.120D-05-0.141D-04-0.278D-04-0.690D-04 0.218D-04
 Coeff:      0.816D-03 0.426D-02 0.107D-01 0.517D-01 0.986D-01 0.403D+00
 Coeff:      0.431D+00
 Gap=     0.152 Goal=   None    Shift=    0.000
 RMSDP=8.28D-09 MaxDP=2.86D-07 DE=-1.13D-11 OVMax= 7.67D-07

 Error on total polarization charges =  0.01497
 SCF Done:  E(RB-P86) =  -425.566169904     A.U. after   13 cycles
            NFock= 13  Conv=0.83D-08     -V/T= 2.0040
 KE= 4.238510911239D+02 PE=-2.020463928088D+03 EE= 6.559473594317D+02
 Leave Link  502 at Mon Feb 22 20:57:36 2021, MaxMem=   104857600 cpu:             466.9 elap:              15.0
 (Enter /sw/arch/RedHatEnterpriseServer7/EB_production/2019/software/Gaussian/g16.c01/l601.exe)
 Copying SCF densities to generalized density rwf, IOpCl= 0 IROHF=0.

 **********************************************************************

            Population analysis using the SCF Density.

 **********************************************************************

 Orbital symmetries:
       Occupied  (A) (A) (A) (A) (A) (A) (A) (A) (A) (A) (A) (A)
                 (A) (A) (A) (A) (A) (A) (A) (A) (A) (A) (A) (A)
                 (A) (A) (A) (A) (A) (A) (A) (A) (A) (A) (A) (A)
                 (A)
       Virtual   (A) (A) (A) (A) (A) (A) (A) (A) (A) (A) (A) (A)
                 (A) (A) (A) (A) (A) (A) (A) (A) (A) (A) (A) (A)
                 (A) (A) (A) (A) (A) (A) (A) (A) (A) (A) (A) (A)
                 (A) (A) (A) (A) (A) (A) (A) (A) (A) (A) (A) (A)
                 (A) (A) (A) (A) (A) (A) (A) (A) (A) (A) (A) (A)
                 (A) (A) (A) (A) (A) (A) (A) (A) (A) (A) (A) (A)
                 (A) (A) (A) (A) (A) (A) (A) (A) (A) (A) (A) (A)
                 (A) (A) (A) (A) (A) (A) (A) (A) (A) (A) (A) (A)
                 (A) (A) (A) (A) (A) (A) (A) (A) (A) (A) (A) (A)
                 (A) (A) (A) (A) (A) (A) (A) (A) (A) (A) (A) (A)
                 (A) (A) (A) (A) (A) (A) (A) (A) (A) (A) (A) (A)
                 (A) (A) (A) (A) (A) (A) (A) (A) (A) (A) (A) (A)
                 (A) (A) (A) (A) (A) (A) (A) (A) (A) (A) (A) (A)
                 (A) (A) (A) (A) (A) (A) (A) (A) (A) (A) (A) (A)
                 (A) (A) (A) (A) (A) (A) (A) (A) (A) (A) (A) (A)
                 (A) (A) (A) (A) (A) (A) (A) (A) (A) (A) (A) (A)
                 (A) (A) (A) (A) (A) (A) (A) (A) (A) (A) (A) (A)
                 (A) (A) (A) (A) (A) (A) (A) (A) (A) (A) (A) (A)
                 (A) (A) (A) (A) (A) (A) (A) (A) (A)
 The electronic state is 1-A.
 Alpha  occ. eigenvalues --  -18.80261  -9.95199  -9.90830  -9.90714  -9.90138
 Alpha  occ. eigenvalues --   -9.89781  -9.88913  -9.88801  -9.88768  -9.88681
 Alpha  occ. eigenvalues --   -0.98380  -0.78045  -0.72053  -0.70940  -0.64124
 Alpha  occ. eigenvalues --   -0.62150  -0.61393  -0.53827  -0.51770  -0.49340
 Alpha  occ. eigenvalues --   -0.44687  -0.41306  -0.39973  -0.38864  -0.37953
 Alpha  occ. eigenvalues --   -0.37637  -0.36551  -0.36288  -0.36169  -0.35216
 Alpha  occ. eigenvalues --   -0.33470  -0.31570  -0.30385  -0.29435  -0.28040
 Alpha  occ. eigenvalues --   -0.21691  -0.19243
 Alpha virt. eigenvalues --   -0.04040  -0.03015   0.00866   0.04000   0.04888
 Alpha virt. eigenvalues --    0.06675   0.07160   0.07766   0.07950   0.09908
 Alpha virt. eigenvalues --    0.10487   0.10967   0.11150   0.12341   0.12600
 Alpha virt. eigenvalues --    0.13616   0.14314   0.14575   0.16273   0.17231
 Alpha virt. eigenvalues --    0.18215   0.18590   0.19180   0.20090   0.21436
 Alpha virt. eigenvalues --    0.23071   0.23623   0.24722   0.25862   0.26157
 Alpha virt. eigenvalues --    0.26579   0.27301   0.28223   0.29385   0.31237
 Alpha virt. eigenvalues --    0.32178   0.32811   0.33535   0.34042   0.35670
 Alpha virt. eigenvalues --    0.36017   0.37362   0.37758   0.39119   0.39323
 Alpha virt. eigenvalues --    0.40444   0.40762   0.41766   0.42339   0.42717
 Alpha virt. eigenvalues --    0.42761   0.43973   0.44565   0.45917   0.46457
 Alpha virt. eigenvalues --    0.46860   0.49340   0.50318   0.50627   0.51611
 Alpha virt. eigenvalues --    0.53989   0.54485   0.56412   0.57130   0.59215
 Alpha virt. eigenvalues --    0.59416   0.60405   0.60732   0.63788   0.66422
 Alpha virt. eigenvalues --    0.66788   0.68997   0.73402   0.77068   0.78000
 Alpha virt. eigenvalues --    0.86158   0.90633   1.05496   1.10057   1.12137
 Alpha virt. eigenvalues --    1.12384   1.17440   1.18453   1.20818   1.22433
 Alpha virt. eigenvalues --    1.23114   1.24488   1.24691   1.25158   1.25637
 Alpha virt. eigenvalues --    1.25674   1.28089   1.29372   1.29615   1.30803
 Alpha virt. eigenvalues --    1.31365   1.32645   1.33748   1.34327   1.36377
 Alpha virt. eigenvalues --    1.37459   1.37850   1.39287   1.39741   1.40329
 Alpha virt. eigenvalues --    1.41384   1.42717   1.46591   1.46966   1.47200
 Alpha virt. eigenvalues --    1.47946   1.48410   1.48644   1.50003   1.51553
 Alpha virt. eigenvalues --    1.51950   1.53108   1.54068   1.55623   1.56155
 Alpha virt. eigenvalues --    1.59510   1.59945   1.61678   1.63920   1.65817
 Alpha virt. eigenvalues --    1.66853   1.71812   1.72652   1.72807   1.73343
 Alpha virt. eigenvalues --    1.73668   1.74046   1.76427   1.78959   1.81508
 Alpha virt. eigenvalues --    1.82181   1.85381   1.86509   1.88548   1.89888
 Alpha virt. eigenvalues --    1.92072   1.97944   1.98910   2.01248   2.01637
 Alpha virt. eigenvalues --    2.07193   2.08809   2.09298   2.12646   2.13321
 Alpha virt. eigenvalues --    2.14905   2.17758   2.18502   2.19392   2.20737
 Alpha virt. eigenvalues --    2.21132   2.23194   2.23423   2.24080   2.26373
 Alpha virt. eigenvalues --    2.28295   2.29681   2.31555   2.32530   2.34342
 Alpha virt. eigenvalues --    2.38580   2.39883   2.40390   2.40810   2.45166
 Alpha virt. eigenvalues --    2.49237   2.51330   2.52234   2.52326   2.53529
 Alpha virt. eigenvalues --    2.54253   2.55226   2.57438   2.58623   2.59034
 Alpha virt. eigenvalues --    2.60681   2.64099   2.67366   2.67591   2.69780
 Alpha virt. eigenvalues --    2.72119   2.74396   2.84038   2.85680   2.91563
 Alpha virt. eigenvalues --    2.93786   2.94481   2.98100   3.01817   3.03537
 Alpha virt. eigenvalues --    3.07924   3.09414   3.12566   3.13029   3.14805
 Alpha virt. eigenvalues --    3.15724   3.21133   3.23370   3.23991   3.24459
 Alpha virt. eigenvalues --    3.24928   3.25539   3.28954   3.29502   3.33173
 Alpha virt. eigenvalues --    3.39478   3.50473   3.58312   3.93389   4.18181
 Alpha virt. eigenvalues --   21.07318  21.55215  21.57968  21.77496  21.84418
 Alpha virt. eigenvalues --   21.84991  21.87028  21.89955  21.97743  43.24696
          Condensed to atoms (all electrons):
               1          2          3          4          5          6
     1  C    5.143389   0.275396  -0.104885   0.026008  -0.000908   0.000851
     2  C    0.275396   5.417759   0.258508   0.085126   0.036626  -0.242595
     3  C   -0.104885   0.258508   5.368331   0.361876  -0.100291   0.073046
     4  C    0.026008   0.085126   0.361876   5.729909   0.294093   0.092245
     5  C   -0.000908   0.036626  -0.100291   0.294093   5.131341  -0.155284
     6  C    0.000851  -0.242595   0.073046   0.092245  -0.155284   5.751706
     7  O    0.000027  -0.002467   0.007226  -0.132796   0.012683   0.403953
     8  C    0.029017   0.175217  -0.255921  -0.070726   0.036502  -0.085203
     9  C   -0.000903   0.024248   0.001078   0.042788  -0.000521  -0.172673
    10  C   -0.108196   0.200587   0.113534  -0.187956  -0.006324   0.186922
    11  H    0.418847  -0.053207  -0.008947   0.002581   0.000103  -0.000576
    12  H    0.418537  -0.055013   0.010174  -0.001186   0.000044  -0.000210
    13  H    0.402119  -0.041845  -0.003769  -0.001773  -0.000066   0.001086
    14  H   -0.010953  -0.078192   0.440232  -0.069595  -0.020712   0.033222
    15  H    0.000028  -0.002978   0.003691  -0.052768   0.400794  -0.000563
    16  H    0.000068   0.002595  -0.013459  -0.051964   0.409791   0.018828
    17  H    0.000012  -0.000587   0.000970  -0.033252   0.412937  -0.019970
    18  H   -0.000019  -0.001879   0.001119   0.006630  -0.002652  -0.005491
    19  H    0.000028  -0.003541   0.001076  -0.004299  -0.000126   0.006963
    20  H    0.000129   0.002784  -0.000580   0.000474   0.000027   0.014635
    21  H    0.000004   0.000755  -0.000282   0.001350   0.000101  -0.023204
    22  H   -0.010132  -0.062813   0.019117  -0.001959   0.000048   0.024519
               7          8          9         10         11         12
     1  C    0.000027   0.029017  -0.000903  -0.108196   0.418847   0.418537
     2  C   -0.002467   0.175217   0.024248   0.200587  -0.053207  -0.055013
     3  C    0.007226  -0.255921   0.001078   0.113534  -0.008947   0.010174
     4  C   -0.132796  -0.070726   0.042788  -0.187956   0.002581  -0.001186
     5  C    0.012683   0.036502  -0.000521  -0.006324   0.000103   0.000044
     6  C    0.403953  -0.085203  -0.172673   0.186922  -0.000576  -0.000210
     7  O    7.783220  -0.133083   0.024543   0.015531  -0.000002  -0.000001
     8  C   -0.133083   6.359035   0.174232   0.022896  -0.000794   0.002463
     9  C    0.024543   0.174232   5.282322  -0.050581   0.000063   0.000074
    10  C    0.015531   0.022896  -0.050581   5.562674   0.009564  -0.007512
    11  H   -0.000002  -0.000794   0.000063   0.009564   0.539050  -0.029146
    12  H   -0.000001   0.002463   0.000074  -0.007512  -0.029146   0.539315
    13  H   -0.000001  -0.002455  -0.000105  -0.005037  -0.026626  -0.026623
    14  H   -0.000070  -0.006144  -0.000000   0.024204   0.000931   0.000101
    15  H    0.008143  -0.001606  -0.000289   0.000692  -0.000014  -0.000001
    16  H    0.000488   0.000440  -0.000001  -0.000643   0.000001  -0.000000
    17  H    0.001385  -0.000390   0.000084   0.000133   0.000008  -0.000001
    18  H    0.300188  -0.051599   0.003906   0.007787  -0.000001  -0.000002
    19  H   -0.005260  -0.060063   0.400023   0.008899  -0.000001  -0.000014
    20  H    0.001077  -0.031651   0.388141  -0.011772   0.000002   0.000020
    21  H    0.003915  -0.056407   0.442957  -0.006788  -0.000001   0.000010
    22  H   -0.000151  -0.052973  -0.017051   0.419905  -0.000059   0.000716
              13         14         15         16         17         18
     1  C    0.402119  -0.010953   0.000028   0.000068   0.000012  -0.000019
     2  C   -0.041845  -0.078192  -0.002978   0.002595  -0.000587  -0.001879
     3  C   -0.003769   0.440232   0.003691  -0.013459   0.000970   0.001119
     4  C   -0.001773  -0.069595  -0.052768  -0.051964  -0.033252   0.006630
     5  C   -0.000066  -0.020712   0.400794   0.409791   0.412937  -0.002652
     6  C    0.001086   0.033222  -0.000563   0.018828  -0.019970  -0.005491
     7  O   -0.000001  -0.000070   0.008143   0.000488   0.001385   0.300188
     8  C   -0.002455  -0.006144  -0.001606   0.000440  -0.000390  -0.051599
     9  C   -0.000105  -0.000000  -0.000289  -0.000001   0.000084   0.003906
    10  C   -0.005037   0.024204   0.000692  -0.000643   0.000133   0.007787
    11  H   -0.026626   0.000931  -0.000014   0.000001   0.000008  -0.000001
    12  H   -0.026623   0.000101  -0.000001  -0.000000  -0.000001  -0.000002
    13  H    0.547007   0.000326   0.000005   0.000005  -0.000005   0.000003
    14  H    0.000326   0.547110   0.000476   0.003836  -0.000077   0.000059
    15  H    0.000005   0.000476   0.551271  -0.023356  -0.031537   0.000656
    16  H    0.000005   0.003836  -0.023356   0.528148  -0.025322   0.000024
    17  H   -0.000005  -0.000077  -0.031537  -0.025322   0.547171  -0.000259
    18  H    0.000003   0.000059   0.000656   0.000024  -0.000259   0.436156
    19  H    0.000005   0.000005  -0.000009   0.000001   0.000025   0.008599
    20  H   -0.000015  -0.000003  -0.000003  -0.000001  -0.000000  -0.000028
    21  H   -0.000007  -0.000004   0.000017  -0.000001  -0.000041  -0.005602
    22  H    0.000769  -0.000304   0.000008  -0.000001  -0.000003   0.000102
              19         20         21         22
     1  C    0.000028   0.000129   0.000004  -0.010132
     2  C   -0.003541   0.002784   0.000755  -0.062813
     3  C    0.001076  -0.000580  -0.000282   0.019117
     4  C   -0.004299   0.000474   0.001350  -0.001959
     5  C   -0.000126   0.000027   0.000101   0.000048
     6  C    0.006963   0.014635  -0.023204   0.024519
     7  O   -0.005260   0.001077   0.003915  -0.000151
     8  C   -0.060063  -0.031651  -0.056407  -0.052973
     9  C    0.400023   0.388141   0.442957  -0.017051
    10  C    0.008899  -0.011772  -0.006788   0.419905
    11  H   -0.000001   0.000002  -0.000001  -0.000059
    12  H   -0.000014   0.000020   0.000010   0.000716
    13  H    0.000005  -0.000015  -0.000007   0.000769
    14  H    0.000005  -0.000003  -0.000004  -0.000304
    15  H   -0.000009  -0.000003   0.000017   0.000008
    16  H    0.000001  -0.000001  -0.000001  -0.000001
    17  H    0.000025  -0.000000  -0.000041  -0.000003
    18  H    0.008599  -0.000028  -0.005602   0.000102
    19  H    0.551057  -0.019558  -0.042858   0.001018
    20  H   -0.019558   0.503381  -0.015229   0.002715
    21  H   -0.042858  -0.015229   0.523529  -0.000810
    22  H    0.001018   0.002715  -0.000810   0.537151
 Mulliken charges:
               1
     1  C   -0.478466
     2  C    0.065516
     3  C   -0.171844
     4  C   -0.034808
     5  C   -0.448206
     6  C    0.097794
     7  O   -0.288546
     8  C    0.009215
     9  C   -0.542333
    10  C   -0.188516
    11  H    0.148226
    12  H    0.148255
    13  H    0.157003
    14  H    0.135555
    15  H    0.147344
    16  H    0.150524
    17  H    0.148720
    18  H    0.302302
    19  H    0.158031
    20  H    0.165454
    21  H    0.178594
    22  H    0.140188
 Sum of Mulliken charges =  -0.00000
 Mulliken charges with hydrogens summed into heavy atoms:
               1
     1  C   -0.024982
     2  C    0.065516
     3  C   -0.036289
     4  C   -0.034808
     5  C   -0.001618
     6  C    0.097794
     7  O    0.013755
     8  C    0.009215
     9  C   -0.040255
    10  C   -0.048329
 Electronic spatial extent (au):  <R**2>=           1583.5675
 Charge=             -0.0000 electrons
 Dipole moment (field-independent basis, Debye):
    X=             -0.0066    Y=             -1.6519    Z=             -0.7511  Tot=              1.8147
 Quadrupole moment (field-independent basis, Debye-Ang):
   XX=            -57.6046   YY=            -53.9578   ZZ=            -63.4611
   XY=             -4.4772   XZ=             -2.4794   YZ=              0.6730
 Traceless Quadrupole moment (field-independent basis, Debye-Ang):
   XX=              0.7366   YY=              4.3834   ZZ=             -5.1200
   XY=             -4.4772   XZ=             -2.4794   YZ=              0.6730
 Octapole moment (field-independent basis, Debye-Ang**2):
  XXX=              5.1674  YYY=             -4.5948  ZZZ=              0.2585  XYY=              4.3467
  XXY=            -12.7491  XXZ=             -7.3676  XZZ=              7.3650  YZZ=             -0.6120
  YYZ=             -0.7600  XYZ=              2.0426
 Hexadecapole moment (field-independent basis, Debye-Ang**3):
 XXXX=          -1137.6675 YYYY=           -868.9262 ZZZZ=            -92.2862 XXXY=            -38.4450
 XXXZ=            -20.0171 YYYX=             -5.6329 YYYZ=              0.3041 ZZZX=             -4.2091
 ZZZY=              0.4143 XXYY=           -327.8821 XXZZ=           -201.9656 YYZZ=           -171.0488
 XXYZ=              5.5734 YYXZ=              1.1141 ZZXY=             -1.3742
 N-N= 5.150993076284D+02 E-N=-2.020463927264D+03  KE= 4.238510911239D+02
 No NMR shielding tensors so no spin-rotation constants.
 Leave Link  601 at Mon Feb 22 20:57:36 2021, MaxMem=   104857600 cpu:               6.4 elap:               0.3
 (Enter /sw/arch/RedHatEnterpriseServer7/EB_production/2019/software/Gaussian/g16.c01/l701.exe)
 ... and contract with generalized density number  0.
 Compute integral first derivatives.
 R6Disp: Adding Grimme-D3 dispersion energy 1st derivatives to the gradient.
 PrsmSu:  requested number of processors reduced to:  29 ShMem   1 Linda.
 D1PCM: PCM CHGder 1st derivatives, ID1Alg=3 FixD1E=F DoIter=F DoCFld=F I1PDM=0.
 GePol: Maximum number of non-zero 1st derivatives   =     212
 CoulSu:  requested number of processors reduced to:  29 ShMem   1 Linda.
 CoulSu:  requested number of processors reduced to:  30 ShMem   1 Linda.
 Leave Link  701 at Mon Feb 22 20:57:37 2021, MaxMem=   104857600 cpu:              22.2 elap:               0.7
 (Enter /sw/arch/RedHatEnterpriseServer7/EB_production/2019/software/Gaussian/g16.c01/l702.exe)
 L702 exits ... SP integral derivatives will be done elsewhere.
 Leave Link  702 at Mon Feb 22 20:57:37 2021, MaxMem=   104857600 cpu:               0.8 elap:               0.1
 (Enter /sw/arch/RedHatEnterpriseServer7/EB_production/2019/software/Gaussian/g16.c01/l703.exe)
 Integral derivatives from FoFJK, PRISM(SPDF).
 Compute integral first derivatives, UseDBF=F ICtDFT=           0.
 Calling FoFJK, ICntrl=      2527 FMM=F ISym2X=0 I1Cent= 0 IOpClX= 0 NMat=1 NMatS=1 NMatT=0.
 FoFJK:  IHMeth= 1 ICntrl=    2527 DoSepK=F KAlg= 0 I1Cent=           0 FoldK=F
 IRaf=         0 NMat=       1 IRICut=       1 DoRegI=T DoRafI=F ISym2E= 0 IDoP0=0 IntGTp=1.
 FoFCou: FMM=F IPFlag=           0 FMFlag=      100000 FMFlg1=         800
         NFxFlg=           0 DoJE=F BraDBF=F KetDBF=F FulRan=T
         wScrn=  0.000000 ICntrl=      2527 IOpCl=  0 I1Cent=           0 NGrid=           0
         NMat0=    1 NMatS0=      1 NMatT0=    0 NMatD0=    1 NMtDS0=    0 NMtDT0=    0
 Symmetry not used in FoFCou.
 Leave Link  703 at Mon Feb 22 20:57:40 2021, MaxMem=   104857600 cpu:              71.9 elap:               2.4
 (Enter /sw/arch/RedHatEnterpriseServer7/EB_production/2019/software/Gaussian/g16.c01/l716.exe)
 Dipole        =-2.58193212D-03-6.49903232D-01-2.95517933D-01
 ***** Axes restored to original set *****
 -------------------------------------------------------------------
 Center     Atomic                   Forces (Hartrees/Bohr)
 Number     Number              X              Y              Z
 -------------------------------------------------------------------
      1        6          -0.000587739   -0.006202055   -0.001168913
      2        6          -0.004849493    0.018878444    0.007565675
      3        6          -0.037882653    0.042745301   -0.037214372
      4        6          -0.003329297   -0.009308480   -0.013834053
      5        6           0.001329138    0.001619690    0.003247654
      6        6           0.003882231   -0.027430190   -0.010356722
      7        8          -0.008515102    0.013338541    0.008018751
      8        6           0.010590474   -0.022074768    0.002737560
      9        6           0.000757306    0.001813958   -0.001716457
     10        6           0.028395039    0.019901049    0.056961767
     11        1           0.002412239   -0.003985618    0.002491259
     12        1          -0.002256439   -0.002514399   -0.004057987
     13        1           0.005337986   -0.005278458   -0.005031068
     14        1           0.030647222   -0.033908313    0.030549356
     15        1          -0.002040884    0.005340716    0.005847130
     16        1           0.001626320   -0.003582564    0.000355938
     17        1           0.003376120    0.006819334    0.002917423
     18        1           0.005145157    0.007616104    0.002548649
     19        1          -0.008591041    0.006295471    0.000838710
     20        1          -0.001476939   -0.002085729   -0.001543522
     21        1           0.000533642    0.008218563   -0.002628785
     22        1          -0.024503286   -0.016216597   -0.046527994
 -------------------------------------------------------------------
 Cartesian Forces:  Max     0.056961767 RMS     0.016653513
 Leave Link  716 at Mon Feb 22 20:57:40 2021, MaxMem=   104857600 cpu:               0.8 elap:               0.1
 (Enter /sw/arch/RedHatEnterpriseServer7/EB_production/2019/software/Gaussian/g16.c01/l103.exe)

 GradGradGradGradGradGradGradGradGradGradGradGradGradGradGradGradGradGrad
 Berny optimization.
 FormGI is forming the generalized inverse of G from B-inverse, IUseBI=4.
 Internal  Forces:  Max     0.055009709 RMS     0.009338154
 Search for a local minimum.
 Step number   1 out of a maximum of  113
 All quantities printed in internal units (Hartrees-Bohrs-Radians)
 RMS Force = .93382D-02 SwitMx=.10000D-02 MixMth= 1
 Mixed Optimization -- RFO/linear search
 Second derivative matrix not updated -- first step.
 ITU=  0
     Eigenvalues ---    0.00962   0.00962   0.00993   0.01494   0.01530
     Eigenvalues ---    0.01558   0.01877   0.01906   0.01923   0.01924
     Eigenvalues ---    0.01930   0.01936   0.02212   0.07282   0.07282
     Eigenvalues ---    0.07359   0.07560   0.07563   0.07563   0.16000
     Eigenvalues ---    0.16000   0.16000   0.16000   0.16000   0.16000
     Eigenvalues ---    0.16000   0.16000   0.16000   0.16000   0.16000
     Eigenvalues ---    0.16000   0.23454   0.23485   0.24997   0.24999
     Eigenvalues ---    0.25000   0.25000   0.25000   0.33984   0.33985
     Eigenvalues ---    0.34249   0.34488   0.34488   0.34497   0.34497
     Eigenvalues ---    0.34636   0.34637   0.34655   0.34655   0.34656
     Eigenvalues ---    0.39999   0.40060   0.43086   0.43395   0.43504
     Eigenvalues ---    0.43686   0.43819   0.43819   0.51352   0.52816
 RFO step:  Lambda=-2.26126680D-02 EMin= 9.62106537D-03
 Linear search not attempted -- first point.
 Iteration  1 RMS(Cart)=  0.04305804 RMS(Int)=  0.00159894
 Iteration  2 RMS(Cart)=  0.00180600 RMS(Int)=  0.00013172
 Iteration  3 RMS(Cart)=  0.00000312 RMS(Int)=  0.00013170
 Iteration  4 RMS(Cart)=  0.00000000 RMS(Int)=  0.00013170
 ITry= 1 IFail=0 DXMaxC= 2.21D-01 DCOld= 1.00D+10 DXMaxT= 3.00D-01 DXLimC= 3.00D+00 Rises=F
 Variable       Old X    -DE/DX   Delta X   Delta X   Delta X     New X
                                 (Linear)    (Quad)   (Total)
    R1        2.80212   0.01999   0.00000   0.05474   0.05474   2.85686
    R2        2.06500   0.00473   0.00000   0.01285   0.01285   2.07785
    R3        2.06500   0.00470   0.00000   0.01279   0.01279   2.07779
    R4        2.06238   0.00748   0.00000   0.02026   0.02026   2.08265
    R5        2.66782  -0.00534   0.00000  -0.01181  -0.01181   2.65601
    R6        2.66780  -0.00603   0.00000  -0.01313  -0.01313   2.65467
    R7        2.67051  -0.00708   0.00000  -0.01564  -0.01564   2.65488
    R8        1.93371   0.05495   0.00000   0.11924   0.11924   2.05296
    R9        2.80657   0.01548   0.00000   0.04271   0.04271   2.84928
   R10        2.67687  -0.00858   0.00000  -0.01893  -0.01893   2.65794
   R11        2.06269   0.00682   0.00000   0.01849   0.01849   2.08118
   R12        2.06515   0.00361   0.00000   0.00982   0.00982   2.07497
   R13        2.06238   0.00673   0.00000   0.01822   0.01822   2.08060
   R14        2.57126   0.02343   0.00000   0.04255   0.04255   2.61381
   R15        2.67688  -0.00284   0.00000  -0.00607  -0.00608   2.67080
   R16        1.85226  -0.00346   0.00000  -0.00646  -0.00646   1.84579
   R17        2.80655   0.01661   0.00000   0.04583   0.04583   2.85238
   R18        2.67053  -0.00699   0.00000  -0.01510  -0.01510   2.65543
   R19        2.06269   0.00909   0.00000   0.02463   0.02463   2.08731
   R20        2.06514   0.00272   0.00000   0.00739   0.00739   2.07253
   R21        2.06238   0.00749   0.00000   0.02029   0.02029   2.08267
   R22        1.93372   0.05501   0.00000   0.11938   0.11938   2.05309
    A1        1.94129   0.00105   0.00000   0.00614   0.00606   1.94735
    A2        1.94128   0.00119   0.00000   0.00698   0.00689   1.94817
    A3        1.90410   0.00624   0.00000   0.03334   0.03321   1.93731
    A4        1.88035  -0.00077   0.00000  -0.00265  -0.00269   1.87766
    A5        1.89792  -0.00403   0.00000  -0.02299  -0.02311   1.87481
    A6        1.89793  -0.00404   0.00000  -0.02283  -0.02296   1.87497
    A7        2.10496   0.00164   0.00000   0.00636   0.00635   2.11131
    A8        2.10497   0.00165   0.00000   0.00639   0.00638   2.11135
    A9        2.07314  -0.00329   0.00000  -0.01285  -0.01285   2.06029
   A10        2.11718   0.00336   0.00000   0.01269   0.01270   2.12988
   A11        2.08048  -0.00025   0.00000   0.00148   0.00147   2.08195
   A12        2.08553  -0.00311   0.00000  -0.01417  -0.01417   2.07135
   A13        2.10507   0.00511   0.00000   0.01907   0.01906   2.12413
   A14        2.07438  -0.00169   0.00000  -0.00683  -0.00682   2.06756
   A15        2.10374  -0.00342   0.00000  -0.01224  -0.01224   2.09150
   A16        1.91342   0.00463   0.00000   0.02497   0.02489   1.93831
   A17        1.96239  -0.00376   0.00000  -0.01951  -0.01939   1.94301
   A18        1.91555   0.00516   0.00000   0.02761   0.02754   1.94309
   A19        1.88429  -0.00024   0.00000  -0.00007   0.00004   1.88433
   A20        1.90143  -0.00547   0.00000  -0.03211  -0.03236   1.86907
   A21        1.88555  -0.00064   0.00000  -0.00268  -0.00256   1.88299
   A22        2.08656  -0.01045   0.00000  -0.03838  -0.03840   2.04816
   A23        2.11005   0.00107   0.00000   0.00390   0.00386   2.11392
   A24        2.08655   0.00938   0.00000   0.03438   0.03435   2.12090
   A25        1.83172   0.01579   0.00000   0.08645   0.08645   1.91817
   A26        2.10375  -0.00161   0.00000  -0.00603  -0.00603   2.09772
   A27        2.07437  -0.00159   0.00000  -0.00556  -0.00557   2.06879
   A28        2.10507   0.00320   0.00000   0.01160   0.01160   2.11667
   A29        1.91342   0.00731   0.00000   0.04006   0.03980   1.95321
   A30        1.96240  -0.00353   0.00000  -0.02083  -0.02065   1.94175
   A31        1.91556   0.00503   0.00000   0.02902   0.02872   1.94428
   A32        1.88429  -0.00288   0.00000  -0.01854  -0.01833   1.86596
   A33        1.90142  -0.00539   0.00000  -0.02645  -0.02714   1.87428
   A34        1.88555  -0.00095   0.00000  -0.00532  -0.00518   1.88037
   A35        2.11719   0.00215   0.00000   0.00873   0.00872   2.12591
   A36        2.08047   0.00011   0.00000   0.00212   0.00213   2.08260
   A37        2.08552  -0.00226   0.00000  -0.01086  -0.01086   2.07467
    D1        0.53087  -0.00013   0.00000   0.00080   0.00085   0.53173
    D2       -2.62697  -0.00042   0.00000  -0.00640  -0.00639  -2.63336
    D3        2.62697   0.00040   0.00000   0.00628   0.00627   2.63324
    D4       -0.53087   0.00011   0.00000  -0.00091  -0.00098  -0.53185
    D5       -1.56267   0.00017   0.00000   0.00390   0.00393  -1.55874
    D6        1.56268  -0.00012   0.00000  -0.00330  -0.00332   1.55936
    D7        3.13825  -0.00047   0.00000  -0.01187  -0.01181   3.12644
    D8       -0.00149  -0.00066   0.00000  -0.01628  -0.01630  -0.01779
    D9        0.01261  -0.00023   0.00000  -0.00498  -0.00494   0.00767
   D10       -3.12713  -0.00042   0.00000  -0.00939  -0.00943  -3.13656
   D11       -3.13825   0.00070   0.00000   0.01702   0.01704  -3.12121
   D12        0.00150   0.00055   0.00000   0.01364   0.01358   0.01508
   D13       -0.01261   0.00045   0.00000   0.01013   0.01017  -0.00244
   D14        3.12714   0.00030   0.00000   0.00675   0.00671   3.13385
   D15        3.13496  -0.00002   0.00000  -0.00020  -0.00028   3.13468
   D16       -0.00707   0.00002   0.00000   0.00059   0.00056  -0.00651
   D17       -0.00848   0.00018   0.00000   0.00424   0.00419  -0.00429
   D18        3.13267   0.00021   0.00000   0.00503   0.00503   3.13770
   D19       -2.09606  -0.00044   0.00000  -0.00598  -0.00581  -2.10188
   D20        0.00008  -0.00002   0.00000  -0.00169  -0.00167  -0.00158
   D21        2.09929   0.00026   0.00000   0.00109   0.00097   2.10025
   D22        1.04598  -0.00047   0.00000  -0.00679  -0.00667   1.03931
   D23       -3.14106  -0.00005   0.00000  -0.00250  -0.00252   3.13960
   D24       -1.04186   0.00022   0.00000   0.00028   0.00011  -1.04175
   D25       -3.13253   0.00051   0.00000   0.01299   0.01271  -3.11981
   D26        0.00131  -0.00005   0.00000  -0.00129  -0.00126   0.00006
   D27        0.00863   0.00055   0.00000   0.01379   0.01354   0.02217
   D28       -3.14072  -0.00002   0.00000  -0.00048  -0.00042  -3.14114
   D29       -2.62564  -0.00254   0.00000  -0.05733  -0.05731  -2.68295
   D30        0.52360  -0.00195   0.00000  -0.04312  -0.04314   0.48045
   D31        3.14072   0.00019   0.00000   0.00414   0.00418  -3.13829
   D32       -0.00131   0.00026   0.00000   0.00621   0.00620   0.00489
   D33       -0.00863  -0.00046   0.00000  -0.01046  -0.01070  -0.01933
   D34        3.13253  -0.00039   0.00000  -0.00839  -0.00867   3.12385
   D35       -1.04598  -0.00071   0.00000  -0.00898  -0.00934  -1.05531
   D36        3.14106   0.00022   0.00000   0.00061   0.00062  -3.14150
   D37        1.04185   0.00027   0.00000   0.00106   0.00137   1.04322
   D38        2.09607  -0.00079   0.00000  -0.01108  -0.01142   2.08465
   D39       -0.00008   0.00014   0.00000  -0.00150  -0.00146  -0.00154
   D40       -2.09929   0.00020   0.00000  -0.00104  -0.00071  -2.10000
   D41        0.00707  -0.00045   0.00000  -0.01066  -0.01075  -0.00368
   D42       -3.13267  -0.00030   0.00000  -0.00728  -0.00732  -3.13999
   D43       -3.13496  -0.00037   0.00000  -0.00859  -0.00870   3.13952
   D44        0.00848  -0.00023   0.00000  -0.00521  -0.00527   0.00321
         Item               Value     Threshold  Converged?
 Maximum Force            0.055010     0.000450     NO 
 RMS     Force            0.009338     0.000300     NO 
 Maximum Displacement     0.220994     0.001800     NO 
 RMS     Displacement     0.043504     0.001200     NO 
 Predicted change in Energy=-1.209091D-02
 Lowest energy point so far.  Saving SCF results.
 GradGradGradGradGradGradGradGradGradGradGradGradGradGradGradGradGradGrad

 Leave Link  103 at Mon Feb 22 20:57:40 2021, MaxMem=   104857600 cpu:               7.1 elap:               0.3
 (Enter /sw/arch/RedHatEnterpriseServer7/EB_production/2019/software/Gaussian/g16.c01/l202.exe)
                          Input orientation:                          
 ---------------------------------------------------------------------
 Center     Atomic      Atomic             Coordinates (Angstroms)
 Number     Number       Type             X           Y           Z
 ---------------------------------------------------------------------
      1          6           0       -0.514640   -2.860507   -1.755735
      2          6           0       -0.728912   -1.442874   -1.276254
      3          6           0       -0.126822   -0.980690   -0.093330
      4          6           0       -0.296190    0.337059    0.363392
      5          6           0        0.346095    0.822550    1.638204
      6          6           0       -1.088605    1.214091   -0.398966
      7          8           0       -1.218294    2.513178    0.057885
      8          6           0       -1.703785    0.787596   -1.597775
      9          6           0       -2.546452    1.747697   -2.401794
     10          6           0       -1.512804   -0.540713   -2.014535
     11          1           0       -0.356175   -3.551899   -0.915570
     12          1           0       -1.376679   -3.228431   -2.330590
     13          1           0        0.370411   -2.926929   -2.409091
     14          1           0        0.487525   -1.660050    0.490848
     15          1           0       -0.413103    1.169881    2.356443
     16          1           0        0.928967    0.026448    2.120017
     17          1           0        1.023187    1.669679    1.448131
     18          1           0       -2.059200    2.895070   -0.260046
     19          1           0       -3.408599    2.123883   -1.822798
     20          1           0       -2.951219    1.265454   -3.299813
     21          1           0       -1.960289    2.622898   -2.725930
     22          1           0       -1.981962   -0.873957   -2.936063
 ---------------------------------------------------------------------
                    Distance matrix (angstroms):
                    1          2          3          4          5
     1  C    0.000000
     2  C    1.511786   0.000000
     3  C    2.539233   1.405502   0.000000
     4  C    3.842245   2.458424   1.404900   0.000000
     5  C    5.081791   3.844717   2.544314   1.507772   0.000000
     6  C    4.332737   2.821078   2.415679   1.406520   2.522248
     7  O    5.714966   4.203543   3.663508   2.383087   2.793376
     8  C    3.840270   2.455352   2.806600   2.455705   3.830769
     9  C    5.077519   3.840578   4.315984   3.834037   5.054139
    10  C    2.538652   1.404792   2.409471   2.811613   4.319316
    11  H    1.099551   2.171868   2.709206   4.094305   5.113780
    12  H    1.099517   2.172427   3.408785   4.597577   5.927034
    13  H    1.102090   2.166622   3.065589   4.334125   5.517226
    14  H    2.737255   2.156277   1.086378   2.149162   2.738564
    15  H    5.758850   4.485835   3.272354   2.163218   1.101312
    16  H    5.043805   4.054889   2.651023   2.164075   1.098026
    17  H    5.757800   4.492228   3.274611   2.166401   1.101004
    18  H    6.144055   4.649742   4.333981   3.168643   3.699208
    19  H    5.763995   4.494573   4.837303   4.202292   5.269700
    20  H    5.034346   4.045798   4.827413   4.618459   5.954196
    21  H    5.753165   4.488692   4.824732   4.187863   5.254173
    22  H    2.737259   2.156100   3.396184   3.898049   5.405729
                    6          7          8          9         10
     6  C    0.000000
     7  O    1.383170   0.000000
     8  C    1.413325   2.440193   0.000000
     9  C    2.534043   2.898273   1.509413   0.000000
    10  C    2.422673   3.702419   1.405193   2.540712   0.000000
    11  H    4.849536   6.202904   4.594853   5.923842   3.407749
    12  H    4.852851   6.220609   4.095423   5.112269   2.709659
    13  H    4.828808   6.180997   4.331076   5.510016   3.065322
    14  H    3.396564   4.529140   3.892963   5.402327   3.395758
    15  H    2.837347   2.781394   4.177062   5.246511   4.820884
    16  H    3.438949   3.879039   4.618735   5.957182   4.835125
    17  H    2.842358   2.769209   4.182343   5.250747   4.827747
    18  H    1.946032   0.976752   2.521365   2.478097   3.896329
    19  H    2.870085   2.913066   2.177771   1.104559   3.275801
    20  H    3.447735   3.979193   2.163647   1.096737   2.642577
    21  H    2.856454   2.883092   2.169530   1.102102   3.273341
    22  H    3.405127   4.584713   2.151547   2.734440   1.086451
                   11         12         13         14         15
    11  H    0.000000
    12  H    1.774357   0.000000
    13  H    1.774576   1.774651   0.000000
    14  H    2.503784   3.727679   3.166756   0.000000
    15  H    5.744956   6.499378   6.333093   3.507148   0.000000
    16  H    4.865280   5.976466   5.435738   2.386072   1.778901
    17  H    5.895303   6.635479   6.035983   3.505770   1.771372
    18  H    6.700255   6.500019   6.664614   5.272454   3.540046
    19  H    6.508061   5.747505   6.335248   5.903464   5.229644
    20  H    5.968731   4.859379   5.422424   5.895137   6.200355
    21  H    6.631645   5.893636   6.027697   5.889236   5.507773
    22  H    3.727861   2.505297   3.166394   4.296513   5.886358
                   16         17         18         19         20
    16  H    0.000000
    17  H    1.777784   0.000000
    18  H    4.777325   3.731027   0.000000
    19  H    6.225713   5.526845   2.204042   0.000000
    20  H    6.779789   6.205020   3.562517   1.768522   0.000000
    21  H    6.210681   5.218481   2.482830   1.778276   1.775933
    22  H    5.903235   5.892551   4.623050   3.501670   2.376731
                   21         22
    21  H    0.000000
    22  H    3.503230   0.000000
 Stoichiometry    C9H12O
 Framework group  C1[X(C9H12O)]
 Deg. of freedom    60
 Full point group                 C1      NOp   1
 RotChk:  IX=0 Diff= 3.36D-02
 Largest Abelian subgroup         C1      NOp   1
 Largest concise Abelian subgroup C1      NOp   1
                         Standard orientation:                         
 ---------------------------------------------------------------------
 Center     Atomic      Atomic             Coordinates (Angstroms)
 Number     Number       Type             X           Y           Z
 ---------------------------------------------------------------------
      1          6           0       -3.244430   -0.041139    0.001329
      2          6           0       -1.732849   -0.020747   -0.012949
      3          6           0       -1.025815    1.193941   -0.004397
      4          6           0        0.378359    1.238802    0.000714
[...]
 Iteration    1 A*A^-1 deviation from orthogonality  is 6.43D-15 for   1016    583.
 Iteration    1 A^-1*A deviation from unit magnitude is 4.66D-15 for    583.
 Iteration    1 A^-1*A deviation from orthogonality  is 2.14D-15 for   1060    314.
 Error on nuclear    polarization charges =  0.02407
 Error on electronic polarization charges = -0.05868
 SCF Done:  E(RB-P86) =  -425.565895845     A.U. after   11 cycles
            NFock= 11  Conv=0.55D-08     -V/T= 2.0050
 --------------------------------------------------------------------
 Variational C-PCM results
 =========================
 <psi(f)|   H    |psi(f)>                     (a.u.) =    -425.553228
 <psi(f)|H+V(f)/2|psi(f)>                     (a.u.) =    -425.565896
 Total free energy in solution:
 - with all non electrostatic terms           (a.u.) =    -425.553122
 --------------------------------------------------------------------
 (Polarized solute)-Solvent               (kcal/mol) =      -7.95
 --------------------------------------------------------------------
 Cavitation energy                        (kcal/mol) =      24.59
 Dispersion energy                        (kcal/mol) =     -18.04
 Repulsion energy                         (kcal/mol) =       1.47
 Total non electrostatic                  (kcal/mol) =       8.02
 --------------------------------------------------------------------
 Partition over spheres:
 Sphere  on Atom  Surface  Charge   GEl     GCav    GDR
    1      C1      17.98   0.030   -0.03    2.11   -1.25
    2      C2       5.82   0.036   -0.34    0.68   -0.34
    3      C3      12.12   0.056   -0.52    1.42   -0.90
    4      C4       5.81   0.031   -0.30    0.68   -0.36
    5      C5      16.82   0.030   -0.13    1.98   -1.22
    6      C6       7.76   0.026   -0.26    0.91   -0.57
    7      O7      14.73   0.131   -1.76    1.83   -1.30
    8      C8       5.83   0.029   -0.20    0.68   -0.37
    9      C9      16.12  -0.002   -0.20    1.89   -1.18
   10      C10     12.10   0.055   -0.44    1.42   -0.92
   11      H11      6.54  -0.025   -0.10    0.92   -0.70
   12      H12      6.50  -0.025   -0.12    0.92   -0.67
   13      H13      6.57  -0.026   -0.08    0.93   -0.82
   14      H14      6.45  -0.032   -0.15    0.91   -0.62
   15      H15      6.56  -0.026    0.01    0.93   -0.73
   16      H16      6.40  -0.028   -0.11    0.90   -0.65
   17      H17      6.56  -0.026    0.01    0.93   -0.73
   18      H18      6.16  -0.102   -1.92    0.87   -0.52
   19      H19      6.58  -0.035   -0.39    0.93   -0.75
   20      H20      6.38  -0.032   -0.28    0.90   -0.65
   21      H21      6.58  -0.035   -0.41    0.93   -0.74
   22      H22      6.44  -0.032   -0.23    0.91   -0.60
 --------------------------------------------------------------------
 - cavitation energy not included in the total energy.
 - dispersion energy not included in the total energy.
 - repulsion  energy not included in the total energy.
 After PCM corrections, the energy is  -425.565895845     a.u.
 --------------------------------------------------------------------
 Writing COSMO formatted file "BPRYUXCVCCNUFE-UHFFFAOYSA-N.cosmo"
 Recomputed dielectric energy= -0.012724 old= -0.012668 diff=-5.59D-05

 **********************************************************************

            Population analysis using the SCF Density.

 **********************************************************************

 Orbital symmetries:
       Occupied  (A) (A) (A) (A) (A) (A) (A) (A) (A) (A) (A) (A)
                 (A) (A) (A) (A) (A) (A) (A) (A) (A) (A) (A) (A)
                 (A) (A) (A) (A) (A) (A) (A) (A) (A) (A) (A) (A)
                 (A)
       Virtual   (A) (A) (A) (A) (A) (A) (A) (A) (A) (A) (A) (A)
                 (A) (A) (A) (A) (A) (A) (A) (A) (A) (A) (A) (A)
                 (A) (A) (A) (A) (A) (A) (A) (A) (A) (A) (A) (A)
                 (A) (A) (A) (A) (A) (A) (A) (A) (A) (A) (A) (A)
                 (A) (A) (A) (A) (A) (A) (A) (A) (A) (A) (A) (A)
                 (A) (A) (A) (A) (A) (A) (A) (A) (A) (A) (A) (A)
                 (A) (A) (A) (A) (A) (A) (A) (A) (A) (A) (A) (A)
                 (A) (A) (A) (A) (A) (A) (A) (A) (A) (A) (A) (A)
                 (A) (A) (A) (A) (A) (A) (A) (A) (A) (A) (A) (A)
                 (A) (A) (A) (A) (A) (A) (A) (A) (A) (A) (A) (A)
                 (A) (A) (A) (A) (A) (A) (A) (A) (A) (A) (A) (A)
                 (A) (A) (A) (A) (A) (A) (A) (A) (A) (A) (A) (A)
                 (A) (A) (A) (A) (A) (A) (A) (A) (A) (A) (A) (A)
                 (A) (A) (A) (A) (A) (A) (A) (A) (A) (A) (A) (A)
                 (A) (A) (A) (A) (A) (A) (A) (A) (A) (A) (A) (A)
                 (A) (A) (A) (A) (A) (A) (A) (A) (A) (A) (A) (A)
                 (A) (A) (A) (A) (A) (A) (A) (A) (A) (A) (A) (A)
                 (A) (A) (A) (A) (A) (A) (A) (A) (A) (A) (A) (A)
                 (A) (A) (A) (A) (A) (A) (A) (A) (A)
 The electronic state is 1-A.
 Alpha  occ. eigenvalues --  -18.79968  -9.95263  -9.90871  -9.90620  -9.90207
 Alpha  occ. eigenvalues --   -9.89625  -9.89367  -9.89295  -9.89050  -9.88848
 Alpha  occ. eigenvalues --   -0.97195  -0.78182  -0.71369  -0.70329  -0.63514
 Alpha  occ. eigenvalues --   -0.61615  -0.61122  -0.53750  -0.51651  -0.48452
 Alpha  occ. eigenvalues --   -0.44193  -0.40156  -0.39351  -0.37864  -0.36828
 Alpha  occ. eigenvalues --   -0.36596  -0.36030  -0.35583  -0.35499  -0.33780
 Alpha  occ. eigenvalues --   -0.33242  -0.32032  -0.30364  -0.29135  -0.28574
 Alpha  occ. eigenvalues --   -0.21852  -0.19208
 Alpha virt. eigenvalues --   -0.03808  -0.02793   0.01760   0.04138   0.05085
 Alpha virt. eigenvalues --    0.06239   0.07739   0.07848   0.08079   0.10114
 Alpha virt. eigenvalues --    0.10665   0.11069   0.11361   0.12586   0.12908
 Alpha virt. eigenvalues --    0.13564   0.13938   0.14598   0.16211   0.16886
 Alpha virt. eigenvalues --    0.17736   0.18662   0.19245   0.20024   0.21638
 Alpha virt. eigenvalues --    0.23435   0.23599   0.24233   0.25820   0.26325
 Alpha virt. eigenvalues --    0.26836   0.26945   0.27923   0.29442   0.30580
 Alpha virt. eigenvalues --    0.32436   0.33023   0.33884   0.33991   0.35216
 Alpha virt. eigenvalues --    0.36575   0.37180   0.38453   0.38921   0.39713
 Alpha virt. eigenvalues --    0.40204   0.40778   0.41346   0.41995   0.42527
 Alpha virt. eigenvalues --    0.42969   0.43529   0.44500   0.45374   0.46083
 Alpha virt. eigenvalues --    0.46302   0.48331   0.50312   0.51389   0.52601
 Alpha virt. eigenvalues --    0.53367   0.54028   0.56348   0.57366   0.58507
 Alpha virt. eigenvalues --    0.59627   0.60546   0.63057   0.65197   0.66643
 Alpha virt. eigenvalues --    0.67146   0.71298   0.76259   0.76800   0.83182
 Alpha virt. eigenvalues --    0.85659   0.90186   1.06834   1.10865   1.11484
 Alpha virt. eigenvalues --    1.12585   1.18122   1.18436   1.21343   1.22890
 Alpha virt. eigenvalues --    1.24508   1.25173   1.25276   1.25523   1.25922
 Alpha virt. eigenvalues --    1.26689   1.29384   1.29785   1.30396   1.30567
 Alpha virt. eigenvalues --    1.31465   1.33773   1.33807   1.35135   1.36122
 Alpha virt. eigenvalues --    1.37632   1.38398   1.39049   1.39688   1.40588
 Alpha virt. eigenvalues --    1.41178   1.44927   1.45171   1.45894   1.46980
 Alpha virt. eigenvalues --    1.47715   1.48293   1.48757   1.49429   1.50789
 Alpha virt. eigenvalues --    1.51366   1.52247   1.53124   1.54485   1.55750
 Alpha virt. eigenvalues --    1.58536   1.58825   1.60315   1.64571   1.65460
 Alpha virt. eigenvalues --    1.66992   1.70940   1.72186   1.72527   1.73022
 Alpha virt. eigenvalues --    1.73244   1.73668   1.75055   1.76962   1.79942
 Alpha virt. eigenvalues --    1.81031   1.83110   1.84946   1.87424   1.88585
 Alpha virt. eigenvalues --    1.92538   1.97232   1.98624   1.98893   2.01172
 Alpha virt. eigenvalues --    2.06035   2.06647   2.06931   2.13672   2.14166
 Alpha virt. eigenvalues --    2.16873   2.17931   2.18514   2.19288   2.20736
 Alpha virt. eigenvalues --    2.22637   2.23478   2.23630   2.25464   2.26913
 Alpha virt. eigenvalues --    2.29668   2.30555   2.31540   2.32191   2.34822
 Alpha virt. eigenvalues --    2.36963   2.39047   2.39470   2.40729   2.44622
 Alpha virt. eigenvalues --    2.46746   2.49663   2.50893   2.51484   2.51754
 Alpha virt. eigenvalues --    2.52962   2.54006   2.55323   2.57182   2.57857
 Alpha virt. eigenvalues --    2.60123   2.63662   2.64817   2.66175   2.68958
 Alpha virt. eigenvalues --    2.71518   2.72578   2.83425   2.88798   2.88942
 Alpha virt. eigenvalues --    2.92511   2.93700   2.98896   3.02183   3.02499
 Alpha virt. eigenvalues --    3.05188   3.07576   3.11958   3.12751   3.14136
 Alpha virt. eigenvalues --    3.15814   3.19631   3.21807   3.22508   3.23114
 Alpha virt. eigenvalues --    3.23627   3.24395   3.28165   3.30359   3.32219
 Alpha virt. eigenvalues --    3.40392   3.51346   3.54347   3.92478   4.20258
 Alpha virt. eigenvalues --   21.02952  21.54563  21.55910  21.76351  21.80828
 Alpha virt. eigenvalues --   21.82791  21.84509  21.88053  21.97794  43.23279
          Condensed to atoms (all electrons):
               1          2          3          4          5          6
     1  C    5.161985   0.293085  -0.108221   0.025259  -0.000793  -0.000608
     2  C    0.293085   5.363737   0.280283   0.057674   0.029955  -0.215704
     3  C   -0.108221   0.280283   5.339457   0.386513  -0.089243   0.049662
     4  C    0.025259   0.057674   0.386513   5.783117   0.290214   0.125717
     5  C   -0.000793   0.029955  -0.089243   0.290214   5.132442  -0.136346
     6  C   -0.000608  -0.215704   0.049662   0.125717  -0.136346   5.600628
     7  O    0.000036   0.000989   0.003156  -0.134413   0.015318   0.420536
     8  C    0.030491   0.083075  -0.173457  -0.211572   0.027072   0.002360
     9  C   -0.000942   0.020569   0.003687   0.024702  -0.001528  -0.107319
    10  C   -0.108814   0.293357   0.043054  -0.135999  -0.002268   0.120763
    11  H    0.413626  -0.052715  -0.003250   0.001415   0.000010   0.000149
    12  H    0.414771  -0.056908   0.010169  -0.001208   0.000028   0.000204
    13  H    0.394640  -0.028007  -0.005681  -0.000713  -0.000002   0.000032
    14  H   -0.010834  -0.087388   0.451045  -0.077091  -0.021112   0.034925
    15  H    0.000013  -0.001862   0.000955  -0.036342   0.403843  -0.009127
    16  H    0.000065   0.001742  -0.007698  -0.058485   0.408959   0.019079
    17  H    0.000021  -0.000568  -0.001056  -0.033657   0.406931  -0.013511
    18  H   -0.000006  -0.000538  -0.000513   0.025047  -0.001232  -0.010236
    19  H    0.000006  -0.001606   0.000251  -0.001154   0.000031  -0.008377
    20  H    0.000094   0.001544  -0.000242  -0.000200   0.000017   0.017832
    21  H    0.000026  -0.000102   0.000030   0.000217   0.000021  -0.012379
    22  H   -0.012563  -0.064410   0.019128  -0.001756   0.000103   0.022522
               7          8          9         10         11         12
     1  C    0.000036   0.030491  -0.000942  -0.108814   0.413626   0.414771
     2  C    0.000989   0.083075   0.020569   0.293357  -0.052715  -0.056908
     3  C    0.003156  -0.173457   0.003687   0.043054  -0.003250   0.010169
     4  C   -0.134413  -0.211572   0.024702  -0.135999   0.001415  -0.001208
     5  C    0.015318   0.027072  -0.001528  -0.002268   0.000010   0.000028
     6  C    0.420536   0.002360  -0.107319   0.120763   0.000149   0.000204
     7  O    7.795529  -0.113428   0.001940   0.006586  -0.000001  -0.000001
     8  C   -0.113428   6.139071   0.208040   0.219106  -0.001456   0.001671
     9  C    0.001940   0.208040   5.261244  -0.058502   0.000026   0.000004
    10  C    0.006586   0.219106  -0.058502   5.382350   0.008421  -0.001454
    11  H   -0.000001  -0.001456   0.000026   0.008421   0.534448  -0.026981
    12  H   -0.000001   0.001671   0.000004  -0.001454  -0.026981   0.526906
    13  H   -0.000003  -0.001018   0.000012  -0.007668  -0.028867  -0.024711
    14  H   -0.000157  -0.006660   0.000013   0.024809   0.001139   0.000191
    15  H    0.004627  -0.000863  -0.000005   0.000269  -0.000009  -0.000001
    16  H    0.000475   0.000702   0.000020  -0.000575   0.000008   0.000001
    17  H    0.004423  -0.000201  -0.000025   0.000176   0.000007  -0.000001
    18  H    0.305513  -0.048220   0.006507   0.003106   0.000000   0.000000
    19  H    0.001940  -0.051428   0.418852   0.000555  -0.000001  -0.000008
    20  H    0.000569  -0.033431   0.379440  -0.006427  -0.000000   0.000011
    21  H    0.001813  -0.049691   0.422394  -0.002142  -0.000000   0.000006
    22  H   -0.000184  -0.051338  -0.015641   0.418009   0.000209   0.002148
              13         14         15         16         17         18
     1  C    0.394640  -0.010834   0.000013   0.000065   0.000021  -0.000006
     2  C   -0.028007  -0.087388  -0.001862   0.001742  -0.000568  -0.000538
     3  C   -0.005681   0.451045   0.000955  -0.007698  -0.001056  -0.000513
     4  C   -0.000713  -0.077091  -0.036342  -0.058485  -0.033657   0.025047
     5  C   -0.000002  -0.021112   0.403843   0.408959   0.406931  -0.001232
     6  C    0.000032   0.034925  -0.009127   0.019079  -0.013511  -0.010236
     7  O   -0.000003  -0.000157   0.004627   0.000475   0.004423   0.305513
     8  C   -0.001018  -0.006660  -0.000863   0.000702  -0.000201  -0.048220
     9  C    0.000012   0.000013  -0.000005   0.000020  -0.000025   0.006507
    10  C   -0.007668   0.024809   0.000269  -0.000575   0.000176   0.003106
    11  H   -0.028867   0.001139  -0.000009   0.000008   0.000007   0.000000
    12  H   -0.024711   0.000191  -0.000001   0.000001  -0.000001   0.000000
    13  H    0.541483   0.000291   0.000004  -0.000002  -0.000007   0.000000
    14  H    0.000291   0.556863   0.000341   0.004531   0.000128   0.000036
    15  H    0.000004   0.000341   0.542850  -0.022237  -0.034465  -0.000003
    16  H   -0.000002   0.004531  -0.022237   0.517652  -0.022614  -0.000006
    17  H   -0.000007   0.000128  -0.034465  -0.022614   0.542373  -0.000006
    18  H    0.000000   0.000036  -0.000003  -0.000006  -0.000006   0.396243
    19  H    0.000003   0.000000  -0.000022  -0.000000   0.000014  -0.000504
    20  H   -0.000003  -0.000001  -0.000001  -0.000000  -0.000001   0.000265
    21  H   -0.000006  -0.000002   0.000014  -0.000000  -0.000020  -0.000646
    22  H    0.000221  -0.000244   0.000000  -0.000000  -0.000001  -0.000006
              19         20         21         22
     1  C    0.000006   0.000094   0.000026  -0.012563
     2  C   -0.001606   0.001544  -0.000102  -0.064410
     3  C    0.000251  -0.000242   0.000030   0.019128
     4  C   -0.001154  -0.000200   0.000217  -0.001756
     5  C    0.000031   0.000017   0.000021   0.000103
     6  C   -0.008377   0.017832  -0.012379   0.022522
     7  O    0.001940   0.000569   0.001813  -0.000184
     8  C   -0.051428  -0.033431  -0.049691  -0.051338
     9  C    0.418852   0.379440   0.422394  -0.015641
    10  C    0.000555  -0.006427  -0.002142   0.418009
    11  H   -0.000001  -0.000000  -0.000000   0.000209
    12  H   -0.000008   0.000011   0.000006   0.002148
    13  H    0.000003  -0.000003  -0.000006   0.000221
    14  H    0.000000  -0.000001  -0.000002  -0.000244
    15  H   -0.000022  -0.000001   0.000014   0.000000
    16  H   -0.000000  -0.000000  -0.000000  -0.000000
    17  H    0.000014  -0.000001  -0.000020  -0.000001
    18  H   -0.000504   0.000265  -0.000646  -0.000006
    19  H    0.526089  -0.016366  -0.042697   0.000234
    20  H   -0.016366   0.496180  -0.016801   0.004379
    21  H   -0.042697  -0.016801   0.526098  -0.000057
    22  H    0.000234   0.004379  -0.000057   0.545949
 Mulliken charges:
               1
     1  C   -0.491337
     2  C    0.083796
     3  C   -0.198032
     4  C   -0.027286
     5  C   -0.462420
     6  C    0.099199
     7  O   -0.315264
     8  C    0.031176
     9  C   -0.563487
    10  C   -0.196713
    11  H    0.153821
    12  H    0.155161
    13  H    0.160001
    14  H    0.129177
    15  H    0.152019
    16  H    0.158386
    17  H    0.152058
    18  H    0.325198
    19  H    0.174187
    20  H    0.173141
    21  H    0.173923
    22  H    0.133295
 Sum of Mulliken charges =  -0.00000
 Mulliken charges with hydrogens summed into heavy atoms:
               1
     1  C   -0.022355
     2  C    0.083796
     3  C   -0.068855
     4  C   -0.027286
     5  C    0.000043
     6  C    0.099199
     7  O    0.009934
     8  C    0.031176
     9  C   -0.042235
    10  C   -0.063418
 Electronic spatial extent (au):  <R**2>=           1600.8550
 Charge=             -0.0000 electrons
 Dipole moment (field-independent basis, Debye):
    X=              0.2576    Y=             -1.9909    Z=              0.0487  Tot=              2.0081
 Quadrupole moment (field-independent basis, Debye-Ang):
   XX=            -55.7532   YY=            -53.3169   ZZ=            -64.4240
   XY=             -5.6240   XZ=             -0.1083   YZ=             -0.0226
 Traceless Quadrupole moment (field-independent basis, Debye-Ang):
   XX=              2.0781   YY=              4.5145   ZZ=             -6.5926
   XY=             -5.6240   XZ=             -0.1083   YZ=             -0.0226
 Octapole moment (field-independent basis, Debye-Ang**2):
  XXX=              9.8472  YYY=             -5.1176  ZZZ=              0.8834  XYY=              6.3972
  XXY=            -16.4045  XXZ=              0.2457  XZZ=              6.4081  YZZ=             -0.3393
  YYZ=             -0.6377  XYZ=             -0.0449
 Hexadecapole moment (field-independent basis, Debye-Ang**3):
 XXXX=          -1122.8326 YYYY=           -873.8958 ZZZZ=            -93.0223 XXXY=            -49.8368
 XXXZ=             -0.1090 YYYX=             -6.8642 YYYZ=              0.0844 ZZZX=             -2.6740
 ZZZY=             -0.0063 XXYY=           -323.9203 XXZZ=           -209.5806 YYZZ=           -173.8775
 XXYZ=             -0.3206 YYXZ=              2.5474 ZZXY=             -2.2540
 N-N= 5.124178983116D+02 E-N=-2.014900859908D+03  KE= 4.234496658903D+02
 Unable to Open any file for archive entry.
 1\1\GINC-TCN1789\SP\RBP86\TZVP\C9H12O1\ELENAA\22-Feb-2021\0\\# BP86/TZ
 VP SCRF=COSMORS geom=CHECKPOINT guess=CHECKPOINT\\COSMO-file for #BPRY
 UXCVCCNUFE-UHFFFAOYSA-N\\0,1\C,0,-0.4960298355,-2.8532018287,-1.767559
 9382\C,0,-0.7297622123,-1.4426676888,-1.2753470842\C,0,-0.1312409018,-
 0.982684304,-0.0906524024\C,0,-0.3017949364,0.3283121996,0.3729863079\
 C,0,0.3401411039,0.8138719695,1.6480108176\C,0,-1.1042989861,1.2019957
 008,-0.3871937571\O,0,-1.2508728044,2.4865849155,0.1055021578\C,0,-1.7
 267359964,0.7816196415,-1.5789839763\C,0,-2.5893990279,1.7375820715,-2
 .3687341857\C,0,-1.5236472863,-0.5421473037,-1.9997475207\H,0,-0.44152
 13499,-3.5673149507,-0.9319166338\H,0,-1.298265999,-3.1808789901,-2.44
 49506062\H,0,0.4543131395,-2.9298815404,-2.3224523758\H,0,0.4891641454
 ,-1.6667291449,0.4969373284\H,0,-0.4171368857,1.1587851404,2.370325553
 6\H,0,0.9303625913,0.0163275411,2.1197762109\H,0,1.0050936499,1.671844
 1564,1.4587900635\H,0,-1.8241873928,3.0000690964,-0.4928493499\H,0,-3.
 4498196884,2.1003390161,-1.779562945\H,0,-2.9929479036,1.2496478875,-3
 .2658366993\H,0,-2.022435094,2.6228576394,-2.7061401765\H,0,-2.0065237
 755,-0.8748966013,-2.9237713086\\Version=ES64L-G16RevC.01\State=1-A\HF
 =-425.5658958\RMSD=5.473e-09\Dipole=-0.4516653,0.2328124,-0.6049351\Qu
 adrupole=-1.2898964,2.3174932,-1.0275968,-4.133661,3.2439987,-2.161626
 4\PG=C01 [X(C9H12O1)]\\@
 The archive entry for this job was punched.


 THERE ARE TWO THINGS THAT EVERYBODY THINKS THEY CAN DO BETTER THAN
 ANYONE ELSE - PUNCH THE FIRE, AND EDIT A DAILY PAPER.
 -- UNCLE ESEK, "CENTURY MAGAZINE", 1885
 Job cpu time:       0 days  0 hours  6 minutes 44.3 seconds.
 Elapsed time:       0 days  0 hours  0 minutes 13.2 seconds.
 File lengths (MBytes):  RWF=     59 Int=      0 D2E=      0 Chk=     10 Scr=      1
 Normal termination of Gaussian 16 at Mon Feb 22 21:03:04 2021.
