 Entering Gaussian System, Link 0=g16
 Input=BSYNRYMUTXBXSQ-UHFFFAOYSA-N.gjf
 Output=BSYNRYMUTXBXSQ-UHFFFAOYSA-N.log
 Initial command:
 /sw/arch/RedHatEnterpriseServer7/EB_production/2019/software/Gaussian/g16.c01/l1.exe "/scratch-local/elenaa.9715187/Gau-14576.inp" -scrdir="/scratch-local/elenaa.9715187/"
 Entering Link 1 = /sw/arch/RedHatEnterpriseServer7/EB_production/2019/software/Gaussian/g16.c01/l1.exe PID=     14578.
  
 Copyright (c) 1988-2019, Gaussian, Inc.  All Rights Reserved.
  
 This is part of the Gaussian(R) 16 program.  It is based on
 the Gaussian(R) 09 system (copyright 2009, Gaussian, Inc.),
 the Gaussian(R) 03 system (copyright 2003, Gaussian, Inc.),
 the Gaussian(R) 98 system (copyright 1998, Gaussian, Inc.),
 the Gaussian(R) 94 system (copyright 1995, Gaussian, Inc.),
 the Gaussian 92(TM) system (copyright 1992, Gaussian, Inc.),
 the Gaussian 90(TM) system (copyright 1990, Gaussian, Inc.),
 the Gaussian 88(TM) system (copyright 1988, Gaussian, Inc.),
 the Gaussian 86(TM) system (copyright 1986, Carnegie Mellon
 University), and the Gaussian 82(TM) system (copyright 1983,
 Carnegie Mellon University). Gaussian is a federally registered
 trademark of Gaussian, Inc.
  
 This software contains proprietary and confidential information,
 including trade secrets, belonging to Gaussian, Inc.
  
 This software is provided under written license and may be
 used, copied, transmitted, or stored only in accord with that
 written license.
  
 The following legend is applicable only to US Government
 contracts under FAR:
  
                    RESTRICTED RIGHTS LEGEND
  
 Use, reproduction and disclosure by the US Government is
 subject to restrictions as set forth in subparagraphs (a)
 and (c) of the Commercial Computer Software - Restricted
 Rights clause in FAR 52.227-19.
  
 Gaussian, Inc.
 340 Quinnipiac St., Bldg. 40, Wallingford CT 06492
  
  
 ---------------------------------------------------------------
 Warning -- This program may not be used in any manner that
 competes with the business of Gaussian, Inc. or will provide
 assistance to any competitor of Gaussian, Inc.  The licensee
 of this program is prohibited from giving any competitor of
 Gaussian, Inc. access to this program.  By using this program,
 the user acknowledges that Gaussian, Inc. is engaged in the
 business of creating and licensing software in the field of
 computational chemistry and represents and warrants to the
 licensee that it is not a competitor of Gaussian, Inc. and that
 it will not use this program in any manner prohibited above.
 ---------------------------------------------------------------
  

 Cite this work as:
 Gaussian 16, Revision C.01,
 M. J. Frisch, G. W. Trucks, H. B. Schlegel, G. E. Scuseria, 
 M. A. Robb, J. R. Cheeseman, G. Scalmani, V. Barone, 
 G. A. Petersson, H. Nakatsuji, X. Li, M. Caricato, A. V. Marenich, 
 J. Bloino, B. G. Janesko, R. Gomperts, B. Mennucci, H. P. Hratchian, 
 J. V. Ortiz, A. F. Izmaylov, J. L. Sonnenberg, D. Williams-Young, 
 F. Ding, F. Lipparini, F. Egidi, J. Goings, B. Peng, A. Petrone, 
 T. Henderson, D. Ranasinghe, V. G. Zakrzewski, J. Gao, N. Rega, 
 G. Zheng, W. Liang, M. Hada, M. Ehara, K. Toyota, R. Fukuda, 
 J. Hasegawa, M. Ishida, T. Nakajima, Y. Honda, O. Kitao, H. Nakai, 
 T. Vreven, K. Throssell, J. A. Montgomery, Jr., J. E. Peralta, 
 F. Ogliaro, M. J. Bearpark, J. J. Heyd, E. N. Brothers, K. N. Kudin, 
 V. N. Staroverov, T. A. Keith, R. Kobayashi, J. Normand, 
 K. Raghavachari, A. P. Rendell, J. C. Burant, S. S. Iyengar, 
 J. Tomasi, M. Cossi, J. M. Millam, M. Klene, C. Adamo, R. Cammi, 
 J. W. Ochterski, R. L. Martin, K. Morokuma, O. Farkas, 
 J. B. Foresman, and D. J. Fox, Gaussian, Inc., Wallingford CT, 2019.
 
 ******************************************
 Gaussian 16:  ES64L-G16RevC.01  3-Jul-2019
                22-Feb-2021 
 ******************************************
 %chk=BSYNRYMUTXBXSQ-UHFFFAOYSA-N.chk
 %NProcShared=32
 Will use up to   32 processors via shared memory.
 -------------------------------------------------------------
 #P BP86/TZVP EmpiricalDispersion=GD3 SCRF=(Solvent=Water) Opt
 -------------------------------------------------------------
 1/18=20,19=15,26=3,38=1/1,3;
 2/9=110,12=2,17=6,18=5,40=1/2;
 3/5=19,7=101,11=2,25=1,30=1,70=2201,71=1,72=1,74=404,124=31/1,2,3;
 4//1;
 5/5=2,38=5,53=1/2;
 6/7=2,8=2,9=2,10=2,28=1/1;
 7//1,2,3,16;
 1/18=20,19=15,26=3/3(2);
 2/9=110/2;
 99//99;
 2/9=110/2;
 3/5=19,7=101,11=2,25=1,30=1,70=2205,71=1,72=1,74=404,124=31/1,2,3;
 4/5=5,16=3,69=1/1;
 5/5=2,38=5,53=1/2;
 7//1,2,3,16;
 1/18=20,19=15,26=3/3(-5);
 2/9=110/2;
 6/7=2,8=2,9=2,10=2,19=2,28=1/1;
 99/9=1/99;
 Leave Link    1 at Mon Feb 22 20:57:18 2021, MaxMem=           0 cpu:               2.8 elap:               0.1
 (Enter /sw/arch/RedHatEnterpriseServer7/EB_production/2019/software/Gaussian/g16.c01/l101.exe)
 -------------------------------------
 Particle #BSYNRYMUTXBXSQ-UHFFFAOYSA-N
 -------------------------------------
 Symbolic Z-matrix:
 Charge =  0 Multiplicity = 1
 C                    -1.91518  -3.40622   1.03124 
 C                    -0.52604  -3.30836   0.55953 
 O                    -0.01085  -4.32077   0.03015 
 O                     0.12503  -2.10722   0.65511 
 C                     1.41441  -1.71761   0.37247 
 C                     2.49079  -2.63871   0.35485 
 C                     3.80364  -2.21147   0.09477 
 C                     4.05991  -0.85406  -0.14454 
 C                     3.00476   0.07311  -0.12588 
 C                     1.66977  -0.33508   0.13382 
 C                     0.635     0.64656   0.13632 
 O                    -0.58071   0.35872   0.04521 
 O                     0.91955   1.96832   0.23396 
 H                    -2.56802  -3.62825   0.1861 
 H                    -1.99909  -4.20927   1.76629 
 H                    -2.24641  -2.47212   1.49231 
 H                     2.33632  -3.62765   0.54755 
 H                     4.57349  -2.88625   0.08564 
 H                     5.01441  -0.54094  -0.3327 
 H                     3.23071   1.0542   -0.3127 
 H                     0.20225   2.63576   0.22881 
 
 ITRead=  0  0  0  0  0  0  0  0  0  0  0  0  0  0  0  0  0  0  0  0
 ITRead=  0
 MicOpt= -1 -1 -1 -1 -1 -1 -1 -1 -1 -1 -1 -1 -1 -1 -1 -1 -1 -1 -1 -1
 MicOpt= -1
 NAtoms=     21 NQM=       21 NQMF=       0 NMMI=      0 NMMIF=      0
                NMic=       0 NMicF=      0.
                    Isotopes and Nuclear Properties:
 (Nuclear quadrupole moments (NQMom) in fm**2, nuclear magnetic moments (NMagM)
  in nuclear magnetons)

  Atom         1           2           3           4           5           6           7           8           9          10
 IAtWgt=          12          12          16          16          12          12          12          12          12          12
 AtmWgt=  12.0000000  12.0000000  15.9949146  15.9949146  12.0000000  12.0000000  12.0000000  12.0000000  12.0000000  12.0000000
 NucSpn=           0           0           0           0           0           0           0           0           0           0
 AtZEff=  -0.0000000  -0.0000000  -0.0000000  -0.0000000  -0.0000000  -0.0000000  -0.0000000  -0.0000000  -0.0000000  -0.0000000
 NQMom=    0.0000000   0.0000000   0.0000000   0.0000000   0.0000000   0.0000000   0.0000000   0.0000000   0.0000000   0.0000000
 NMagM=    0.0000000   0.0000000   0.0000000   0.0000000   0.0000000   0.0000000   0.0000000   0.0000000   0.0000000   0.0000000
 AtZNuc=   6.0000000   6.0000000   8.0000000   8.0000000   6.0000000   6.0000000   6.0000000   6.0000000   6.0000000   6.0000000

  Atom        11          12          13          14          15          16          17          18          19          20
 IAtWgt=          12          16          16           1           1           1           1           1           1           1
 AtmWgt=  12.0000000  15.9949146  15.9949146   1.0078250   1.0078250   1.0078250   1.0078250   1.0078250   1.0078250   1.0078250
 NucSpn=           0           0           0           1           1           1           1           1           1           1
 AtZEff=  -0.0000000  -0.0000000  -0.0000000  -0.0000000  -0.0000000  -0.0000000  -0.0000000  -0.0000000  -0.0000000  -0.0000000
 NQMom=    0.0000000   0.0000000   0.0000000   0.0000000   0.0000000   0.0000000   0.0000000   0.0000000   0.0000000   0.0000000
 NMagM=    0.0000000   0.0000000   0.0000000   2.7928460   2.7928460   2.7928460   2.7928460   2.7928460   2.7928460   2.7928460
 AtZNuc=   6.0000000   8.0000000   8.0000000   1.0000000   1.0000000   1.0000000   1.0000000   1.0000000   1.0000000   1.0000000

  Atom        21
 IAtWgt=           1
 AtmWgt=   1.0078250
 NucSpn=           1
 AtZEff=  -0.0000000
 NQMom=    0.0000000
 NMagM=    2.7928460
 AtZNuc=   1.0000000
 Leave Link  101 at Mon Feb 22 20:57:19 2021, MaxMem=   104857600 cpu:               3.0 elap:               0.1
 (Enter /sw/arch/RedHatEnterpriseServer7/EB_production/2019/software/Gaussian/g16.c01/l103.exe)

 GradGradGradGradGradGradGradGradGradGradGradGradGradGradGradGradGradGrad
 Berny optimization.
 Initialization pass.
                           ----------------------------
                           !    Initial Parameters    !
                           ! (Angstroms and Degrees)  !
 --------------------------                            --------------------------
 ! Name  Definition              Value          Derivative Info.                !
 --------------------------------------------------------------------------------
 ! R1    R(1,2)                  1.4703         estimate D2E/DX2                !
 ! R2    R(1,14)                 1.0908         estimate D2E/DX2                !
 ! R3    R(1,15)                 1.0919         estimate D2E/DX2                !
 ! R4    R(1,16)                 1.0931         estimate D2E/DX2                !
 ! R5    R(2,3)                  1.2533         estimate D2E/DX2                !
 ! R6    R(2,4)                  1.3696         estimate D2E/DX2                !
 ! R7    R(4,5)                  1.3763         estimate D2E/DX2                !
 ! R8    R(5,6)                  1.4168         estimate D2E/DX2                !
 ! R9    R(5,10)                 1.426          estimate D2E/DX2                !
 ! R10   R(6,7)                  1.4049         estimate D2E/DX2                !
 ! R11   R(6,17)                 1.0193         estimate D2E/DX2                !
 ! R12   R(7,8)                  1.402          estimate D2E/DX2                !
 ! R13   R(7,18)                 1.0238         estimate D2E/DX2                !
 ! R14   R(8,9)                  1.4048         estimate D2E/DX2                !
 ! R15   R(8,19)                 1.022          estimate D2E/DX2                !
 ! R16   R(9,10)                 1.42           estimate D2E/DX2                !
 ! R17   R(9,20)                 1.024          estimate D2E/DX2                !
 ! R18   R(10,11)                1.4263         estimate D2E/DX2                !
 ! R19   R(11,12)                1.2526         estimate D2E/DX2                !
 ! R20   R(11,13)                1.3556         estimate D2E/DX2                !
 ! R21   R(13,21)                0.9798         estimate D2E/DX2                !
 ! A1    A(2,1,14)             109.2958         estimate D2E/DX2                !
 ! A2    A(2,1,15)             109.7266         estimate D2E/DX2                !
 ! A3    A(2,1,16)             111.3918         estimate D2E/DX2                !
 ! A4    A(14,1,15)            109.0198         estimate D2E/DX2                !
 ! A5    A(14,1,16)            108.627          estimate D2E/DX2                !
 ! A6    A(15,1,16)            108.7387         estimate D2E/DX2                !
 ! A7    A(1,2,3)              118.0434         estimate D2E/DX2                !
 ! A8    A(1,2,4)              119.0202         estimate D2E/DX2                !
 ! A9    A(3,2,4)              122.8561         estimate D2E/DX2                !
 ! A10   A(2,4,5)              132.7886         estimate D2E/DX2                !
 ! A11   A(4,5,6)              122.023          estimate D2E/DX2                !
 ! A12   A(4,5,10)             118.4625         estimate D2E/DX2                !
 ! A13   A(6,5,10)             119.4833         estimate D2E/DX2                !
 ! A14   A(5,6,7)              120.9668         estimate D2E/DX2                !
 ! A15   A(5,6,17)             120.882          estimate D2E/DX2                !
 ! A16   A(7,6,17)             118.1419         estimate D2E/DX2                !
 ! A17   A(6,7,8)              119.7924         estimate D2E/DX2                !
 ! A18   A(6,7,18)             120.2597         estimate D2E/DX2                !
 ! A19   A(8,7,18)             119.9467         estimate D2E/DX2                !
 ! A20   A(7,8,9)              119.9655         estimate D2E/DX2                !
 ! A21   A(7,8,19)             119.9194         estimate D2E/DX2                !
 ! A22   A(9,8,19)             120.115          estimate D2E/DX2                !
 ! A23   A(8,9,10)             121.2571         estimate D2E/DX2                !
 ! A24   A(8,9,20)             117.6598         estimate D2E/DX2                !
 ! A25   A(10,9,20)            121.0818         estimate D2E/DX2                !
 ! A26   A(5,10,9)             118.5329         estimate D2E/DX2                !
 ! A27   A(5,10,11)            122.4821         estimate D2E/DX2                !
 ! A28   A(9,10,11)            118.9831         estimate D2E/DX2                !
 ! A29   A(10,11,12)           123.0809         estimate D2E/DX2                !
 ! A30   A(10,11,13)           121.2592         estimate D2E/DX2                !
 ! A31   A(12,11,13)           115.6594         estimate D2E/DX2                !
 ! A32   A(11,13,21)           120.6742         estimate D2E/DX2                !
 ! D1    D(14,1,2,3)           -61.2209         estimate D2E/DX2                !
 ! D2    D(14,1,2,4)           115.6152         estimate D2E/DX2                !
 ! D3    D(15,1,2,3)            58.275          estimate D2E/DX2                !
 ! D4    D(15,1,2,4)          -124.8889         estimate D2E/DX2                !
 ! D5    D(16,1,2,3)           178.739          estimate D2E/DX2                !
 ! D6    D(16,1,2,4)            -4.4249         estimate D2E/DX2                !
 ! D7    D(1,2,4,5)            176.2076         estimate D2E/DX2                !
 ! D8    D(3,2,4,5)             -7.1167         estimate D2E/DX2                !
 ! D9    D(2,4,5,6)            -23.6174         estimate D2E/DX2                !
 ! D10   D(2,4,5,10)           158.4263         estimate D2E/DX2                !
 ! D11   D(4,5,6,7)           -178.4716         estimate D2E/DX2                !
 ! D12   D(4,5,6,17)             0.3961         estimate D2E/DX2                !
 ! D13   D(10,5,6,7)            -0.5357         estimate D2E/DX2                !
 ! D14   D(10,5,6,17)          178.3321         estimate D2E/DX2                !
 ! D15   D(4,5,10,9)           178.494          estimate D2E/DX2                !
 ! D16   D(4,5,10,11)           -2.0072         estimate D2E/DX2                !
 ! D17   D(6,5,10,9)             0.4845         estimate D2E/DX2                !
 ! D18   D(6,5,10,11)          179.9833         estimate D2E/DX2                !
 ! D19   D(5,6,7,8)              0.3443         estimate D2E/DX2                !
 ! D20   D(5,6,7,18)           179.9359         estimate D2E/DX2                !
 ! D21   D(17,6,7,8)          -178.5537         estimate D2E/DX2                !
 ! D22   D(17,6,7,18)            1.0379         estimate D2E/DX2                !
 ! D23   D(6,7,8,9)             -0.1078         estimate D2E/DX2                !
 ! D24   D(6,7,8,19)           179.9178         estimate D2E/DX2                !
 ! D25   D(18,7,8,9)          -179.7006         estimate D2E/DX2                !
 ! D26   D(18,7,8,19)            0.3249         estimate D2E/DX2                !
 ! D27   D(7,8,9,10)             0.0698         estimate D2E/DX2                !
 ! D28   D(7,8,9,20)          -179.5161         estimate D2E/DX2                !
 ! D29   D(19,8,9,10)         -179.9558         estimate D2E/DX2                !
 ! D30   D(19,8,9,20)            0.4583         estimate D2E/DX2                !
 ! D31   D(8,9,10,5)            -0.259          estimate D2E/DX2                !
 ! D32   D(8,9,10,11)         -179.7756         estimate D2E/DX2                !
 ! D33   D(20,9,10,5)          179.3128         estimate D2E/DX2                !
 ! D34   D(20,9,10,11)          -0.2038         estimate D2E/DX2                !
 ! D35   D(5,10,11,12)         -16.5536         estimate D2E/DX2                !
 ! D36   D(5,10,11,13)         163.7196         estimate D2E/DX2                !
 ! D37   D(9,10,11,12)         162.943          estimate D2E/DX2                !
 ! D38   D(9,10,11,13)         -16.7839         estimate D2E/DX2                !
 ! D39   D(10,11,13,21)        179.5882         estimate D2E/DX2                !
 ! D40   D(12,11,13,21)         -0.1579         estimate D2E/DX2                !
 --------------------------------------------------------------------------------
 Trust Radius=3.00D-01 FncErr=1.00D-07 GrdErr=1.00D-06 EigMax=2.50D+02 EigMin=1.00D-04
 Number of steps in this run=    103 maximum allowed number of steps=    126.
 GradGradGradGradGradGradGradGradGradGradGradGradGradGradGradGradGradGrad

 Leave Link  103 at Mon Feb 22 20:57:19 2021, MaxMem=   104857600 cpu:               0.4 elap:               0.0
 (Enter /sw/arch/RedHatEnterpriseServer7/EB_production/2019/software/Gaussian/g16.c01/l202.exe)
                          Input orientation:                          
 ---------------------------------------------------------------------
 Center     Atomic      Atomic             Coordinates (Angstroms)
 Number     Number       Type             X           Y           Z
 ---------------------------------------------------------------------
      1          6           0       -1.915180   -3.406220    1.031240
      2          6           0       -0.526040   -3.308360    0.559530
      3          8           0       -0.010850   -4.320770    0.030150
      4          8           0        0.125030   -2.107220    0.655110
      5          6           0        1.414410   -1.717610    0.372470
      6          6           0        2.490790   -2.638710    0.354850
      7          6           0        3.803640   -2.211470    0.094770
      8          6           0        4.059910   -0.854060   -0.144540
      9          6           0        3.004760    0.073110   -0.125880
     10          6           0        1.669770   -0.335080    0.133820
     11          6           0        0.635000    0.646560    0.136320
     12          8           0       -0.580710    0.358720    0.045210
     13          8           0        0.919550    1.968320    0.233960
     14          1           0       -2.568020   -3.628250    0.186100
     15          1           0       -1.999090   -4.209270    1.766290
     16          1           0       -2.246410   -2.472120    1.492310
     17          1           0        2.336320   -3.627650    0.547550
     18          1           0        4.573490   -2.886250    0.085640
     19          1           0        5.014410   -0.540940   -0.332700
     20          1           0        3.230710    1.054200   -0.312700
     21          1           0        0.202250    2.635760    0.228810
 ---------------------------------------------------------------------
                    Distance matrix (angstroms):
                    1          2          3          4          5
     1  C    0.000000
     2  C    1.470305   0.000000
     3  O    2.337746   1.253251   0.000000
     4  O    2.447720   1.369586   2.304092   0.000000
     5  C    3.790983   2.516113   2.987472   1.376293   0.000000
     6  C    4.523179   3.097029   3.031989   2.443247   1.416803
     7  C    5.916866   4.490579   4.359318   3.722502   2.455491
     8  C    6.602854   5.248832   5.349737   4.206320   2.830493
     9  C    6.135998   4.936666   5.331457   3.695488   2.446271
    10  C    4.805115   3.720646   4.326772   2.407996   1.426027
    11  C    4.871276   4.143490   5.010266   2.848248   2.500509
    12  O    4.114345   3.703375   4.714085   2.636457   2.898060
    13  O    6.128379   5.480792   6.360805   4.173566   3.721579
    14  H    1.090761   2.100348   2.653869   3.128262   4.420976
    15  H    1.091892   2.106605   2.641915   3.188294   4.450066
    16  H    1.093088   2.128156   3.248561   2.541217   3.901914
    17  H    4.284652   2.880138   2.501465   2.685718   2.128103
    18  H    6.577793   5.138867   4.803863   4.551920   3.380500
    19  H    7.621639   6.257098   6.298572   5.228292   3.852508
    20  H    6.941304   5.822876   6.286140   4.536131   3.383982
    21  H    6.452358   5.997695   6.962628   4.762725   4.521261
                    6          7          8          9         10
     6  C    0.000000
     7  C    1.404902   0.000000
     8  C    2.428272   1.401965   0.000000
     9  C    2.801648   2.430268   1.404754   0.000000
    10  C    2.455532   2.841789   2.461624   1.419951   0.000000
    11  C    3.779512   4.267358   3.749767   2.452215   1.426314
    12  O    4.302857   5.082407   4.800229   3.600894   2.356665
    13  O    4.869100   5.080157   4.239216   2.840670   2.424564
    14  H    5.157444   6.527914   7.192698   6.697259   5.367175
    15  H    4.961637   6.360571   7.184719   6.852562   5.579860
    16  H    4.874693   6.214834   6.713201   6.055702   4.663572
    17  H    1.019312   2.088924   3.338046   3.820464   3.384742
    18  H    2.114566   1.023758   2.108683   3.356109   3.865537
    19  H    3.352912   2.106980   1.022017   2.111522   3.383288
    20  H    3.825008   3.340491   2.087416   1.023959   2.136823
    21  H    5.750942   6.040167   5.215340   3.814059   3.314895
                   11         12         13         14         15
    11  C    0.000000
    12  O    1.252639   0.000000
    13  O    1.355563   2.208443   0.000000
    14  H    5.341893   4.457037   6.594470   0.000000
    15  H    5.759715   5.083350   7.002079   1.777151   0.000000
    16  H    4.457286   3.589194   5.596808   1.773768   1.775929
    17  H    4.618709   4.965134   5.781043   4.917641   4.540858
    18  H    5.291032   6.090751   6.077839   7.180656   6.911858
    19  H    4.561729   5.679575   4.835842   8.203285   8.188503
    20  H    2.665614   3.890850   2.544782   7.469900   7.705655
    21  H    2.037828   2.414880   0.979807   6.849383   7.352835
                   16         17         18         19         20
    16  H    0.000000
    17  H    4.819672   0.000000
    18  H    6.975762   2.401659   0.000000
    19  H    7.731728   4.180285   2.422787   0.000000
    20  H    6.759574   4.843520   4.181971   2.393002   0.000000
    21  H    5.803689   6.624663   7.044206   5.793410   3.459210
                   21
    21  H    0.000000
 Stoichiometry    C9H8O4
 Framework group  C1[X(C9H8O4)]
 Deg. of freedom    57
 Full point group                 C1      NOp   1
 Largest Abelian subgroup         C1      NOp   1
 Largest concise Abelian subgroup C1      NOp   1
                         Standard orientation:                         
 ---------------------------------------------------------------------
 Center     Atomic      Atomic             Coordinates (Angstroms)
 Number     Number       Type             X           Y           Z
 ---------------------------------------------------------------------
      1          6           0       -3.551175   -0.944251   -0.283283
      2          6           0       -2.520479    0.060653    0.016101
      3          8           0       -2.884138    1.139875    0.539235
      4          8           0       -1.206806   -0.242969   -0.224402
      5          6           0       -0.044145    0.485737   -0.117677
      6          6           0       -0.037064    1.901445   -0.172902
      7          6           0        1.166388    2.621963   -0.093469
      8          6           0        2.382032    1.935556    0.035223
      9          6           0        2.393149    0.531786    0.086580
     10          6           0        1.189720   -0.217882    0.009013
     11          6           0        1.256952   -1.641268    0.070854
     12          8           0        0.263574   -2.362483    0.320163
     13          8           0        2.423538   -2.300006   -0.135766
     14          1           0       -4.039463   -1.247025    0.643897
     15          1           0       -4.297949   -0.517207   -0.955733
     16          1           0       -3.118952   -1.830170   -0.755694
     17          1           0       -0.904039    2.424856   -0.288628
     18          1           0        1.159010    3.644831   -0.135485
     19          1           0        3.258761    2.457718    0.091907
     20          1           0        3.299839    0.067021    0.188563
     21          1           0        2.461173   -3.277790   -0.085320
 ---------------------------------------------------------------------
 Rotational constants (GHZ):           1.0795370           0.6694783           0.4209156
 Leave Link  202 at Mon Feb 22 20:57:19 2021, MaxMem=   104857600 cpu:               0.3 elap:               0.0
 (Enter /sw/arch/RedHatEnterpriseServer7/EB_production/2019/software/Gaussian/g16.c01/l301.exe)
 Standard basis: TZVP (5D, 7F)
 Ernie: Thresh=  0.10000D-02 Tol=  0.10000D-05 Strict=F.
 There are   308 symmetry adapted cartesian basis functions of A   symmetry.
 There are   295 symmetry adapted basis functions of A   symmetry.
   295 basis functions,   519 primitive gaussians,   308 cartesian basis functions
    47 alpha electrons       47 beta electrons
       nuclear repulsion energy       762.4629962383 Hartrees.
 IExCor=  404 DFT=T Ex=B Corr=P86 ExCW=0 ScaHFX=  0.000000
 ScaDFX=  1.000000  1.000000  1.000000  1.000000 ScalE2=  1.000000  1.000000
 IRadAn=      5 IRanWt=     -1 IRanGd=            0 ICorTp=0 IEmpDi=131
 NAtoms=   21 NActive=   21 NUniq=   21 SFac= 1.00D+00 NAtFMM=   60 NAOKFM=F Big=F
 Integral buffers will be    131072 words long.
 Raffenetti 2 integral format.
 Two-electron integral symmetry is turned on.
 R6Disp:  Grimme-D3 Dispersion energy=       -0.0188675133 Hartrees.
 Nuclear repulsion after empirical dispersion term =      762.4441287249 Hartrees.
 ------------------------------------------------------------------------------
 Polarizable Continuum Model (PCM)
 =================================
 Model                : PCM.
 Atomic radii         : UFF (Universal Force Field).
 Polarization charges : Total charges.
 Charge compensation  : None.
 Solution method      : On-the-fly selection.
 Cavity type          : Scaled VdW (van der Waals Surface) (Alpha=1.100).
 Cavity algorithm     : GePol (No added spheres)
                        Default sphere list used, NSphG=   21.
                        Lebedev-Laikov grids with approx.  5.0 points / Ang**2.
                        Smoothing algorithm: York/Karplus (Gamma=1.0000).
                        Polarization charges: spherical gaussians, with
                                              point-specific exponents (IZeta= 3).
                        Self-potential: point-specific (ISelfS= 7).
                        Self-field    : sphere-specific E.n sum rule (ISelfD= 2).
 1st derivatives      : Analytical E(r).r(x)/FMM algorithm (CHGder, D1EAlg=3).
                        Cavity 1st derivative terms included.
 Solvent              : Water, Eps=  78.355300 Eps(inf)=   1.777849
 ------------------------------------------------------------------------------
 GePol: Number of generator spheres                  =      21
 GePol: Total number of spheres                      =      21
 GePol: Number of exposed spheres                    =      21 (100.00%)
 GePol: Number of points                             =    1860
 GePol: Average weight of points                     =       0.13
 GePol: Minimum weight of points                     =   0.33D-10
 GePol: Maximum weight of points                     =    0.20577
 GePol: Number of points with low weight             =     109
 GePol: Fraction of low-weight points (<1% of avg)   =       5.86%
 GePol: Cavity surface area                          =    238.835 Ang**2
 GePol: Cavity volume                                =    241.348 Ang**3
 Leave Link  301 at Mon Feb 22 20:57:19 2021, MaxMem=   104857600 cpu:               1.9 elap:               0.1
 (Enter /sw/arch/RedHatEnterpriseServer7/EB_production/2019/software/Gaussian/g16.c01/l302.exe)
 NPDir=0 NMtPBC=     1 NCelOv=     1 NCel=       1 NClECP=     1 NCelD=      1
         NCelK=      1 NCelE2=     1 NClLst=     1 CellRange=     0.0.
 One-electron integrals computed using PRISM.
 One-electron integral symmetry used in STVInt
 PrsmSu:  requested number of processors reduced to:  28 ShMem   1 Linda.
 NBasis=   295 RedAO= T EigKep=  8.80D-06  NBF=   295
 NBsUse=   295 1.00D-06 EigRej= -1.00D+00 NBFU=   295
 Precomputing XC quadrature grid using
 IXCGrd= 4 IRadAn=           5 IRanWt=          -1 IRanGd=           0 AccXCQ= 0.00D+00.
 Generated NRdTot=       0 NPtTot=           0 NUsed=           0 NTot=          32
 NSgBfM=   302   302   302   302   302 MxSgAt=    21 MxSgA2=    21.
 Leave Link  302 at Mon Feb 22 20:57:20 2021, MaxMem=   104857600 cpu:               7.5 elap:               0.3
 (Enter /sw/arch/RedHatEnterpriseServer7/EB_production/2019/software/Gaussian/g16.c01/l303.exe)
 DipDrv:  MaxL=1.
 Leave Link  303 at Mon Feb 22 20:57:20 2021, MaxMem=   104857600 cpu:               1.7 elap:               0.1
 (Enter /sw/arch/RedHatEnterpriseServer7/EB_production/2019/software/Gaussian/g16.c01/l401.exe)
 ExpMin= 9.52D-02 ExpMax= 2.70D+04 ExpMxC= 9.22D+02 IAcc=3 IRadAn=         5 AccDes= 0.00D+00
 Harris functional with IExCor=  404 and IRadAn=       5 diagonalized for initial guess.
 HarFok:  IExCor=  404 AccDes= 0.00D+00 IRadAn=         5 IDoV= 1 UseB2=F ITyADJ=14
 ICtDFT=  3500011 ScaDFX=  1.000000  1.000000  1.000000  1.000000
 FoFCou: FMM=F IPFlag=           0 FMFlag=      100000 FMFlg1=           0
         NFxFlg=           0 DoJE=T BraDBF=F KetDBF=T FulRan=T
         wScrn=  0.000000 ICntrl=       500 IOpCl=  0 I1Cent=   200000004 NGrid=           0
         NMat0=    1 NMatS0=      1 NMatT0=    0 NMatD0=    1 NMtDS0=    0 NMtDT0=    0
 Petite list used in FoFCou.
 Harris En= -649.114845047179    
 JPrj=0 DoOrth=F DoCkMO=F.
 Leave Link  401 at Mon Feb 22 20:57:20 2021, MaxMem=   104857600 cpu:              15.5 elap:               0.6
 (Enter /sw/arch/RedHatEnterpriseServer7/EB_production/2019/software/Gaussian/g16.c01/l502.exe)
 Integral symmetry usage will be decided dynamically.
 Closed shell SCF:
 Using DIIS extrapolation, IDIIS=  1040.
 NGot=   104857600 LenX=   104654424 LenY=   104559119
 Requested convergence on RMS density matrix=1.00D-08 within 128 cycles.
 Requested convergence on MAX density matrix=1.00D-06.
 Requested convergence on             energy=1.00D-06.
 No special actions if energy rises.
 Fock matrices will be formed incrementally for  20 cycles.

 Cycle   1  Pass 1  IDiag  1:
 FoFJK:  IHMeth= 1 ICntrl=     500 DoSepK=F KAlg= 0 I1Cent=           0 FoldK=F
 IRaf= 870000000 NMat=       1 IRICut=       1 DoRegI=T DoRafI=F ISym2E= 0 IDoP0=0 IntGTp=1.
 FoFCou: FMM=F IPFlag=           0 FMFlag=      100000 FMFlg1=           0
         NFxFlg=           0 DoJE=T BraDBF=F KetDBF=F FulRan=T
         wScrn=  0.000000 ICntrl=       500 IOpCl=  0 I1Cent=           0 NGrid=           0
         NMat0=    1 NMatS0=      1 NMatT0=    0 NMatD0=    1 NMtDS0=    0 NMtDT0=    0
 Symmetry not used in FoFCou.
 Inv3:  Mode=1 IEnd=    10378800.
 Iteration    1 A*A^-1 deviation from unit magnitude is 3.22D-15 for    380.
 Iteration    1 A*A^-1 deviation from orthogonality  is 2.89D-15 for   1786    191.
 Iteration    1 A^-1*A deviation from unit magnitude is 2.66D-15 for    912.
 Iteration    1 A^-1*A deviation from orthogonality  is 2.14D-15 for   1436    951.
 E= -648.572459350995    
 DIIS: error= 3.09D-02 at cycle   1 NSaved=   1.
 NSaved= 1 IEnMin= 1 EnMin= -648.572459350995     IErMin= 1 ErrMin= 3.09D-02
 ErrMax= 3.09D-02  0.00D+00 EMaxC= 1.00D-01 BMatC= 4.18D-01 BMatP= 4.18D-01
 IDIUse=3 WtCom= 6.91D-01 WtEn= 3.09D-01
 Coeff-Com:  0.100D+01
 Coeff-En:   0.100D+01
 Coeff:      0.100D+01
 Gap=     0.141 Goal=   None    Shift=    0.000
 GapD=    0.141 DampG=1.000 DampE=0.500 DampFc=0.5000 IDamp=-1.
 Damping current iteration by 5.00D-01
 RMSDP=1.03D-02 MaxDP=8.51D-01              OVMax= 3.28D-01

 Cycle   2  Pass 1  IDiag  1:
 RMSU=  5.12D-03    CP:  1.04D+00
 E= -648.490108115799     Delta-E=        0.082351235196 Rises=F Damp=T
 DIIS: error= 2.44D-02 at cycle   2 NSaved=   2.
 NSaved= 2 IEnMin= 1 EnMin= -648.572459350995     IErMin= 2 ErrMin= 2.44D-02
 ErrMax= 2.44D-02  0.00D+00 EMaxC= 1.00D-01 BMatC= 2.06D-01 BMatP= 4.18D-01
 IDIUse=3 WtCom= 7.56D-01 WtEn= 2.44D-01
 Coeff-Com:  0.396D+00 0.604D+00
 Coeff-En:   0.570D+00 0.430D+00
 Coeff:      0.438D+00 0.562D+00
 Gap=     0.114 Goal=   None    Shift=    0.000
 RMSDP=3.66D-03 MaxDP=1.54D-01 DE= 8.24D-02 OVMax= 2.93D-01

 Cycle   3  Pass 1  IDiag  1:
 RMSU=  2.84D-03    CP:  1.01D+00  5.57D-01
 E= -648.807289104670     Delta-E=       -0.317180988871 Rises=F Damp=F
 DIIS: error= 2.41D-02 at cycle   3 NSaved=   3.
 NSaved= 3 IEnMin= 3 EnMin= -648.807289104670     IErMin= 3 ErrMin= 2.41D-02
 ErrMax= 2.41D-02  0.00D+00 EMaxC= 1.00D-01 BMatC= 1.35D-01 BMatP= 2.06D-01
 IDIUse=3 WtCom= 7.59D-01 WtEn= 2.41D-01
 EnCoef did     1 forward-backward iterations
 Coeff-Com:  0.225D+00 0.411D+00 0.364D+00
 Coeff-En:   0.905D-01 0.287D-01 0.881D+00
 Coeff:      0.193D+00 0.319D+00 0.488D+00
 Gap=     0.138 Goal=   None    Shift=    0.000
 RMSDP=2.29D-03 MaxDP=1.23D-01 DE=-3.17D-01 OVMax= 1.36D-01

 Cycle   4  Pass 1  IDiag  1:
 RMSU=  1.37D-03    CP:  1.01D+00  5.65D-01  3.52D-01
 E= -648.871601266276     Delta-E=       -0.064312161606 Rises=F Damp=F
 DIIS: error= 1.56D-02 at cycle   4 NSaved=   4.
 NSaved= 4 IEnMin= 4 EnMin= -648.871601266276     IErMin= 4 ErrMin= 1.56D-02
 ErrMax= 1.56D-02  0.00D+00 EMaxC= 1.00D-01 BMatC= 6.84D-02 BMatP= 1.35D-01
 IDIUse=3 WtCom= 8.44D-01 WtEn= 1.56D-01
 Coeff-Com:  0.102D+00 0.104D+00 0.368D+00 0.426D+00
 Coeff-En:   0.000D+00 0.000D+00 0.351D+00 0.649D+00
 Coeff:      0.859D-01 0.877D-01 0.366D+00 0.461D+00
 Gap=     0.123 Goal=   None    Shift=    0.000
 RMSDP=9.71D-04 MaxDP=3.04D-02 DE=-6.43D-02 OVMax= 6.84D-02

 Cycle   5  Pass 1  IDiag  1:
 RMSU=  3.68D-04    CP:  1.01D+00  4.87D-01  5.43D-01  5.65D-01
 E= -648.919590142683     Delta-E=       -0.047988876407 Rises=F Damp=F
 DIIS: error= 2.57D-03 at cycle   5 NSaved=   5.
 NSaved= 5 IEnMin= 5 EnMin= -648.919590142683     IErMin= 5 ErrMin= 2.57D-03
 ErrMax= 2.57D-03  0.00D+00 EMaxC= 1.00D-01 BMatC= 2.56D-03 BMatP= 6.84D-02
 IDIUse=3 WtCom= 9.74D-01 WtEn= 2.57D-02
 Coeff-Com:  0.275D-01 0.958D-02 0.176D+00 0.292D+00 0.494D+00
 Coeff-En:   0.000D+00 0.000D+00 0.000D+00 0.000D+00 0.100D+01
 Coeff:      0.268D-01 0.934D-02 0.171D+00 0.285D+00 0.507D+00
 Gap=     0.121 Goal=   None    Shift=    0.000
 RMSDP=2.52D-04 MaxDP=1.39D-02 DE=-4.80D-02 OVMax= 1.66D-02

 Cycle   6  Pass 1  IDiag  1:
 RMSU=  1.37D-04    CP:  1.01D+00  4.94D-01  5.40D-01  6.40D-01  5.22D-01
 E= -648.921495769784     Delta-E=       -0.001905627101 Rises=F Damp=F
 DIIS: error= 7.95D-04 at cycle   6 NSaved=   6.
 NSaved= 6 IEnMin= 6 EnMin= -648.921495769784     IErMin= 6 ErrMin= 7.95D-04
 ErrMax= 7.95D-04  0.00D+00 EMaxC= 1.00D-01 BMatC= 2.81D-04 BMatP= 2.56D-03
 IDIUse=3 WtCom= 9.92D-01 WtEn= 7.95D-03
 Coeff-Com:  0.586D-02-0.345D-02 0.623D-01 0.112D+00 0.313D+00 0.511D+00
 Coeff-En:   0.000D+00 0.000D+00 0.000D+00 0.000D+00 0.113D+00 0.887D+00
 Coeff:      0.581D-02-0.343D-02 0.618D-01 0.111D+00 0.312D+00 0.514D+00
 Gap=     0.122 Goal=   None    Shift=    0.000
 RMSDP=7.01D-05 MaxDP=3.04D-03 DE=-1.91D-03 OVMax= 8.36D-03

 Cycle   7  Pass 1  IDiag  1:
 RMSU=  4.47D-05    CP:  1.01D+00  4.96D-01  5.41D-01  6.30D-01  6.00D-01
                    CP:  6.90D-01
 E= -648.921720366859     Delta-E=       -0.000224597075 Rises=F Damp=F
 DIIS: error= 3.20D-04 at cycle   7 NSaved=   7.
 NSaved= 7 IEnMin= 7 EnMin= -648.921720366859     IErMin= 7 ErrMin= 3.20D-04
 ErrMax= 3.20D-04  0.00D+00 EMaxC= 1.00D-01 BMatC= 4.04D-05 BMatP= 2.81D-04
 IDIUse=3 WtCom= 9.97D-01 WtEn= 3.20D-03
 Coeff-Com:  0.112D-02-0.243D-02 0.207D-01 0.360D-01 0.149D+00 0.342D+00
 Coeff-Com:  0.454D+00
 Coeff-En:   0.000D+00 0.000D+00 0.000D+00 0.000D+00 0.000D+00 0.992D-01
 Coeff-En:   0.901D+00
 Coeff:      0.112D-02-0.242D-02 0.206D-01 0.359D-01 0.148D+00 0.341D+00
 Coeff:      0.455D+00
 Gap=     0.121 Goal=   None    Shift=    0.000
 RMSDP=3.04D-05 MaxDP=1.98D-03 DE=-2.25D-04 OVMax= 2.98D-03

 Cycle   8  Pass 1  IDiag  1:
 RMSU=  1.83D-05    CP:  1.01D+00  4.98D-01  5.46D-01  6.30D-01  5.92D-01
                    CP:  7.12D-01  6.04D-01
 E= -648.921754644570     Delta-E=       -0.000034277711 Rises=F Damp=F
 DIIS: error= 8.47D-05 at cycle   8 NSaved=   8.
 NSaved= 8 IEnMin= 8 EnMin= -648.921754644570     IErMin= 8 ErrMin= 8.47D-05
 ErrMax= 8.47D-05  0.00D+00 EMaxC= 1.00D-01 BMatC= 4.45D-06 BMatP= 4.04D-05
 IDIUse=1 WtCom= 1.00D+00 WtEn= 0.00D+00
 Coeff-Com:  0.220D-03-0.102D-02 0.649D-02 0.101D-01 0.618D-01 0.167D+00
 Coeff-Com:  0.302D+00 0.453D+00
 Coeff:      0.220D-03-0.102D-02 0.649D-02 0.101D-01 0.618D-01 0.167D+00
 Coeff:      0.302D+00 0.453D+00
 Gap=     0.121 Goal=   None    Shift=    0.000
 RMSDP=1.37D-05 MaxDP=6.44D-04 DE=-3.43D-05 OVMax= 7.82D-04

 Cycle   9  Pass 1  IDiag  1:
 RMSU=  6.06D-06    CP:  1.01D+00  4.97D-01  5.45D-01  6.27D-01  6.00D-01
                    CP:  6.97D-01  6.02D-01  5.19D-01
 E= -648.921758229728     Delta-E=       -0.000003585159 Rises=F Damp=F
 DIIS: error= 4.52D-05 at cycle   9 NSaved=   9.
 NSaved= 9 IEnMin= 9 EnMin= -648.921758229728     IErMin= 9 ErrMin= 4.52D-05
 ErrMax= 4.52D-05  0.00D+00 EMaxC= 1.00D-01 BMatC= 7.50D-07 BMatP= 4.45D-06
 IDIUse=1 WtCom= 1.00D+00 WtEn= 0.00D+00
 Coeff-Com:  0.558D-04-0.388D-03 0.192D-02 0.244D-02 0.237D-01 0.718D-01
 Coeff-Com:  0.151D+00 0.321D+00 0.428D+00
 Coeff:      0.558D-04-0.388D-03 0.192D-02 0.244D-02 0.237D-01 0.718D-01
 Coeff:      0.151D+00 0.321D+00 0.428D+00
 Gap=     0.121 Goal=   None    Shift=    0.000
 RMSDP=4.29D-06 MaxDP=1.06D-04 DE=-3.59D-06 OVMax= 3.71D-04

 Cycle  10  Pass 1  IDiag  1:
 RMSU=  2.71D-06    CP:  1.01D+00  4.97D-01  5.45D-01  6.28D-01  6.01D-01
                    CP:  7.05D-01  5.93D-01  5.58D-01  5.43D-01
 E= -648.921758710703     Delta-E=       -0.000000480975 Rises=F Damp=F
 DIIS: error= 2.27D-05 at cycle  10 NSaved=  10.
 NSaved=10 IEnMin=10 EnMin= -648.921758710703     IErMin=10 ErrMin= 2.27D-05
 ErrMax= 2.27D-05  0.00D+00 EMaxC= 1.00D-01 BMatC= 1.98D-07 BMatP= 7.50D-07
 IDIUse=1 WtCom= 1.00D+00 WtEn= 0.00D+00
 Coeff-Com:  0.249D-04-0.111D-03 0.301D-03 0.275D-04 0.648D-02 0.241D-01
 Coeff-Com:  0.590D-01 0.165D+00 0.340D+00 0.405D+00
 Coeff:      0.249D-04-0.111D-03 0.301D-03 0.275D-04 0.648D-02 0.241D-01
 Coeff:      0.590D-01 0.165D+00 0.340D+00 0.405D+00
 Gap=     0.121 Goal=   None    Shift=    0.000
 RMSDP=1.86D-06 MaxDP=4.41D-05 DE=-4.81D-07 OVMax= 1.32D-04

 Cycle  11  Pass 1  IDiag  1:
 RMSU=  7.17D-07    CP:  1.01D+00  4.97D-01  5.45D-01  6.28D-01  6.01D-01
                    CP:  7.06D-01  6.08D-01  5.72D-01  5.85D-01  4.51D-01
 E= -648.921758853004     Delta-E=       -0.000000142301 Rises=F Damp=F
 DIIS: error= 2.98D-06 at cycle  11 NSaved=  11.
 NSaved=11 IEnMin=11 EnMin= -648.921758853004     IErMin=11 ErrMin= 2.98D-06
 ErrMax= 2.98D-06  0.00D+00 EMaxC= 1.00D-01 BMatC= 5.81D-09 BMatP= 1.98D-07
 IDIUse=1 WtCom= 1.00D+00 WtEn= 0.00D+00
 Coeff-Com:  0.189D-04-0.481D-04 0.749D-04-0.826D-04 0.231D-02 0.975D-02
 Coeff-Com:  0.252D-01 0.757D-01 0.168D+00 0.236D+00 0.483D+00
 Coeff:      0.189D-04-0.481D-04 0.749D-04-0.826D-04 0.231D-02 0.975D-02
 Coeff:      0.252D-01 0.757D-01 0.168D+00 0.236D+00 0.483D+00
 Gap=     0.121 Goal=   None    Shift=    0.000
 RMSDP=4.38D-07 MaxDP=1.54D-05 DE=-1.42D-07 OVMax= 3.54D-05

 Cycle  12  Pass 1  IDiag  1:
 RMSU=  2.75D-07    CP:  1.01D+00  4.97D-01  5.45D-01  6.28D-01  6.00D-01
                    CP:  7.06D-01  6.07D-01  5.78D-01  5.88D-01  4.68D-01
                    CP:  6.30D-01
 E= -648.921758857377     Delta-E=       -0.000000004373 Rises=F Damp=F
 DIIS: error= 1.28D-06 at cycle  12 NSaved=  12.
 NSaved=12 IEnMin=12 EnMin= -648.921758857377     IErMin=12 ErrMin= 1.28D-06
 ErrMax= 1.28D-06  0.00D+00 EMaxC= 1.00D-01 BMatC= 7.83D-10 BMatP= 5.81D-09
 IDIUse=1 WtCom= 1.00D+00 WtEn= 0.00D+00
 Coeff-Com:  0.110D-04-0.162D-04 0.541D-05-0.412D-04 0.439D-03 0.242D-02
 Coeff-Com:  0.669D-02 0.210D-01 0.510D-01 0.859D-01 0.302D+00 0.530D+00
 Coeff:      0.110D-04-0.162D-04 0.541D-05-0.412D-04 0.439D-03 0.242D-02
 Coeff:      0.669D-02 0.210D-01 0.510D-01 0.859D-01 0.302D+00 0.530D+00
 Gap=     0.121 Goal=   None    Shift=    0.000
 RMSDP=1.35D-07 MaxDP=4.53D-06 DE=-4.37D-09 OVMax= 1.16D-05

 Cycle  13  Pass 1  IDiag  1:
 RMSU=  6.81D-08    CP:  1.01D+00  4.97D-01  5.45D-01  6.28D-01  6.00D-01
                    CP:  7.06D-01  6.07D-01  5.77D-01  5.89D-01  4.81D-01
                    CP:  6.68D-01  6.64D-01
 E= -648.921758858052     Delta-E=       -0.000000000676 Rises=F Damp=F
 DIIS: error= 5.08D-07 at cycle  13 NSaved=  13.
 NSaved=13 IEnMin=13 EnMin= -648.921758858052     IErMin=13 ErrMin= 5.08D-07
 ErrMax= 5.08D-07  0.00D+00 EMaxC= 1.00D-01 BMatC= 5.55D-11 BMatP= 7.83D-10
 IDIUse=1 WtCom= 1.00D+00 WtEn= 0.00D+00
 Coeff-Com:  0.586D-05-0.759D-05-0.164D-05-0.198D-04 0.939D-04 0.760D-03
 Coeff-Com:  0.228D-02 0.734D-02 0.195D-01 0.361D-01 0.146D+00 0.307D+00
 Coeff-Com:  0.482D+00
 Coeff:      0.586D-05-0.759D-05-0.164D-05-0.198D-04 0.939D-04 0.760D-03
 Coeff:      0.228D-02 0.734D-02 0.195D-01 0.361D-01 0.146D+00 0.307D+00
 Coeff:      0.482D+00
 Gap=     0.121 Goal=   None    Shift=    0.000
 RMSDP=3.17D-08 MaxDP=8.74D-07 DE=-6.76D-10 OVMax= 3.02D-06

 Cycle  14  Pass 1  IDiag  1:
 RMSU=  2.25D-08    CP:  1.01D+00  4.97D-01  5.45D-01  6.28D-01  6.00D-01
                    CP:  7.06D-01  6.07D-01  5.78D-01  5.89D-01  4.79D-01
                    CP:  6.74D-01  7.00D-01  7.54D-01
 E= -648.921758858105     Delta-E=       -0.000000000053 Rises=F Damp=F
 DIIS: error= 1.21D-07 at cycle  14 NSaved=  14.
 NSaved=14 IEnMin=14 EnMin= -648.921758858105     IErMin=14 ErrMin= 1.21D-07
 ErrMax= 1.21D-07  0.00D+00 EMaxC= 1.00D-01 BMatC= 5.85D-12 BMatP= 5.55D-11
 IDIUse=1 WtCom= 1.00D+00 WtEn= 0.00D+00
 Coeff-Com:  0.206D-05-0.246D-05-0.401D-06-0.430D-05-0.385D-05 0.925D-04
 Coeff-Com:  0.347D-03 0.100D-02 0.370D-02 0.805D-02 0.381D-01 0.945D-01
 Coeff-Com:  0.265D+00 0.589D+00
 Coeff:      0.206D-05-0.246D-05-0.401D-06-0.430D-05-0.385D-05 0.925D-04
 Coeff:      0.347D-03 0.100D-02 0.370D-02 0.805D-02 0.381D-01 0.945D-01
 Coeff:      0.265D+00 0.589D+00
 Gap=     0.121 Goal=   None    Shift=    0.000
 RMSDP=1.16D-08 MaxDP=6.04D-07 DE=-5.29D-11 OVMax= 1.14D-06

 Cycle  15  Pass 1  IDiag  1:
 RMSU=  6.84D-09    CP:  1.01D+00  4.97D-01  5.45D-01  6.28D-01  6.00D-01
                    CP:  7.06D-01  6.07D-01  5.77D-01  5.89D-01  4.80D-01
                    CP:  6.79D-01  6.97D-01  7.72D-01  8.04D-01
 E= -648.921758858104     Delta-E=        0.000000000001 Rises=F Damp=F
 DIIS: error= 5.80D-08 at cycle  15 NSaved=  15.
 NSaved=15 IEnMin=14 EnMin= -648.921758858105     IErMin=15 ErrMin= 5.80D-08
 ErrMax= 5.80D-08  0.00D+00 EMaxC= 1.00D-01 BMatC= 9.15D-13 BMatP= 5.85D-12
 IDIUse=1 WtCom= 1.00D+00 WtEn= 0.00D+00
 Coeff-Com:  0.942D-06-0.108D-05 0.698D-07-0.141D-05-0.836D-05 0.453D-05
 Coeff-Com:  0.566D-04 0.988D-04 0.967D-03 0.257D-02 0.139D-01 0.381D-01
 Coeff-Com:  0.134D+00 0.378D+00 0.433D+00
 Coeff:      0.942D-06-0.108D-05 0.698D-07-0.141D-05-0.836D-05 0.453D-05
 Coeff:      0.566D-04 0.988D-04 0.967D-03 0.257D-02 0.139D-01 0.381D-01
 Coeff:      0.134D+00 0.378D+00 0.433D+00
 Gap=     0.121 Goal=   None    Shift=    0.000
 RMSDP=4.25D-09 MaxDP=1.13D-07 DE= 9.09D-13 OVMax= 4.92D-07

 Error on total polarization charges =  0.01237
 SCF Done:  E(RB-P86) =  -648.921758858     A.U. after   15 cycles
            NFock= 15  Conv=0.43D-08     -V/T= 2.0039
 KE= 6.464153618020D+02 PE=-3.043816321303D+03 EE= 9.860350719175D+02
 Leave Link  502 at Mon Feb 22 20:57:40 2021, MaxMem=   104857600 cpu:             603.7 elap:              19.3
 (Enter /sw/arch/RedHatEnterpriseServer7/EB_production/2019/software/Gaussian/g16.c01/l601.exe)
 Copying SCF densities to generalized density rwf, IOpCl= 0 IROHF=0.

 **********************************************************************

            Population analysis using the SCF Density.

 **********************************************************************

 Orbital symmetries:
       Occupied  (A) (A) (A) (A) (A) (A) (A) (A) (A) (A) (A) (A)
                 (A) (A) (A) (A) (A) (A) (A) (A) (A) (A) (A) (A)
                 (A) (A) (A) (A) (A) (A) (A) (A) (A) (A) (A) (A)
                 (A) (A) (A) (A) (A) (A) (A) (A) (A) (A) (A)
       Virtual   (A) (A) (A) (A) (A) (A) (A) (A) (A) (A) (A) (A)
                 (A) (A) (A) (A) (A) (A) (A) (A) (A) (A) (A) (A)
                 (A) (A) (A) (A) (A) (A) (A) (A) (A) (A) (A) (A)
                 (A) (A) (A) (A) (A) (A) (A) (A) (A) (A) (A) (A)
                 (A) (A) (A) (A) (A) (A) (A) (A) (A) (A) (A) (A)
                 (A) (A) (A) (A) (A) (A) (A) (A) (A) (A) (A) (A)
                 (A) (A) (A) (A) (A) (A) (A) (A) (A) (A) (A) (A)
                 (A) (A) (A) (A) (A) (A) (A) (A) (A) (A) (A) (A)
                 (A) (A) (A) (A) (A) (A) (A) (A) (A) (A) (A) (A)
                 (A) (A) (A) (A) (A) (A) (A) (A) (A) (A) (A) (A)
                 (A) (A) (A) (A) (A) (A) (A) (A) (A) (A) (A) (A)
                 (A) (A) (A) (A) (A) (A) (A) (A) (A) (A) (A) (A)
                 (A) (A) (A) (A) (A) (A) (A) (A) (A) (A) (A) (A)
                 (A) (A) (A) (A) (A) (A) (A) (A) (A) (A) (A) (A)
                 (A) (A) (A) (A) (A) (A) (A) (A) (A) (A) (A) (A)
                 (A) (A) (A) (A) (A) (A) (A) (A) (A) (A) (A) (A)
                 (A) (A) (A) (A) (A) (A) (A) (A) (A) (A) (A) (A)
                 (A) (A) (A) (A) (A) (A) (A) (A) (A) (A) (A) (A)
                 (A) (A) (A) (A) (A) (A) (A) (A) (A) (A) (A) (A)
                 (A) (A) (A) (A) (A) (A) (A) (A) (A) (A) (A) (A)
                 (A) (A) (A) (A) (A) (A) (A) (A)
 The electronic state is 1-A.
 Alpha  occ. eigenvalues --  -18.84765 -18.81749 -18.76941 -18.75565 -10.04901
 Alpha  occ. eigenvalues --  -10.03781 -10.00509  -9.94544  -9.92539  -9.92122
 Alpha  occ. eigenvalues --   -9.91958  -9.91317  -9.91301  -1.03983  -1.01758
 Alpha  occ. eigenvalues --   -0.94566  -0.91949  -0.80857  -0.73253  -0.72406
 Alpha  occ. eigenvalues --   -0.68812  -0.63802  -0.61170  -0.57900  -0.53919
 Alpha  occ. eigenvalues --   -0.50287  -0.46279  -0.45706  -0.44682  -0.44221
 Alpha  occ. eigenvalues --   -0.42780  -0.41614  -0.41358  -0.40908  -0.38115
 Alpha  occ. eigenvalues --   -0.37583  -0.36519  -0.34678  -0.34131  -0.33861
 Alpha  occ. eigenvalues --   -0.32604  -0.30525  -0.28518  -0.25768  -0.24624
 Alpha  occ. eigenvalues --   -0.23868  -0.22906
 Alpha virt. eigenvalues --   -0.10779  -0.07978  -0.04463  -0.00909   0.01707
 Alpha virt. eigenvalues --    0.02607   0.04874   0.07148   0.07886   0.08515
 Alpha virt. eigenvalues --    0.08966   0.09996   0.10757   0.11379   0.11593
 Alpha virt. eigenvalues --    0.12896   0.13637   0.14810   0.15807   0.16208
 Alpha virt. eigenvalues --    0.17128   0.18738   0.19030   0.19409   0.20537
 Alpha virt. eigenvalues --    0.20701   0.21520   0.22326   0.23257   0.23462
 Alpha virt. eigenvalues --    0.24798   0.25481   0.26827   0.27131   0.28912
 Alpha virt. eigenvalues --    0.29063   0.29888   0.30809   0.32433   0.32845
 Alpha virt. eigenvalues --    0.33932   0.34734   0.35983   0.36832   0.37353
 Alpha virt. eigenvalues --    0.38088   0.38835   0.39213   0.40135   0.41459
 Alpha virt. eigenvalues --    0.42160   0.42655   0.43557   0.44398   0.45074
 Alpha virt. eigenvalues --    0.45682   0.46518   0.46640   0.47556   0.47911
 Alpha virt. eigenvalues --    0.48716   0.50594   0.50866   0.51416   0.53770
 Alpha virt. eigenvalues --    0.54611   0.56853   0.58049   0.58603   0.59937
 Alpha virt. eigenvalues --    0.61871   0.62993   0.64743   0.65247   0.65779
 Alpha virt. eigenvalues --    0.68173   0.70011   0.72679   0.73736   0.75524
 Alpha virt. eigenvalues --    0.75666   0.80985   0.84667   0.87197   0.89541
 Alpha virt. eigenvalues --    0.95343   1.08737   1.11246   1.12824   1.16509
 Alpha virt. eigenvalues --    1.16673   1.17962   1.18628   1.19849   1.20600
 Alpha virt. eigenvalues --    1.21962   1.23330   1.23686   1.24576   1.25672
 Alpha virt. eigenvalues --    1.27282   1.28663   1.29037   1.30206   1.32340
 Alpha virt. eigenvalues --    1.33124   1.34865   1.36283   1.36883   1.37004
 Alpha virt. eigenvalues --    1.37568   1.38391   1.39296   1.39698   1.41573
 Alpha virt. eigenvalues --    1.42835   1.43201   1.44787   1.45091   1.45281
 Alpha virt. eigenvalues --    1.45672   1.46820   1.48389   1.49821   1.51268
 Alpha virt. eigenvalues --    1.51846   1.53526   1.54418   1.56623   1.58882
 Alpha virt. eigenvalues --    1.61074   1.62693   1.70579   1.71465   1.72054
 Alpha virt. eigenvalues --    1.72999   1.74733   1.76817   1.80447   1.80807
 Alpha virt. eigenvalues --    1.82785   1.83653   1.84759   1.87249   1.88645
 Alpha virt. eigenvalues --    1.89647   1.91796   1.94015   1.97084   1.99647
 Alpha virt. eigenvalues --    2.01570   2.05945   2.07164   2.09028   2.10860
 Alpha virt. eigenvalues --    2.12437   2.13350   2.14932   2.17568   2.17860
 Alpha virt. eigenvalues --    2.18806   2.20415   2.20957   2.22113   2.23869
 Alpha virt. eigenvalues --    2.26321   2.27526   2.30132   2.31078   2.40610
 Alpha virt. eigenvalues --    2.42432   2.43517   2.44225   2.45547   2.46833
 Alpha virt. eigenvalues --    2.47798   2.48891   2.50422   2.51286   2.52896
 Alpha virt. eigenvalues --    2.53225   2.54748   2.55413   2.56479   2.57018
 Alpha virt. eigenvalues --    2.58765   2.59424   2.61475   2.62138   2.63048
 Alpha virt. eigenvalues --    2.64063   2.66871   2.68020   2.70506   2.71520
 Alpha virt. eigenvalues --    2.72245   2.75901   2.77394   2.79351   2.82945
 Alpha virt. eigenvalues --    2.85736   2.86974   2.87913   2.89782   2.93042
 Alpha virt. eigenvalues --    2.97074   2.97905   3.00365   3.01942   3.04426
 Alpha virt. eigenvalues --    3.05569   3.05735   3.06352   3.06993   3.07595
 Alpha virt. eigenvalues --    3.10268   3.13288   3.14319   3.19165   3.20310
 Alpha virt. eigenvalues --    3.21265   3.23180   3.23819   3.29912   3.30915
 Alpha virt. eigenvalues --    3.36841   3.42710   3.47706   3.62213   3.86645
 Alpha virt. eigenvalues --    3.89215   3.96871   4.01569   4.10509   4.20498
 Alpha virt. eigenvalues --   21.09499  21.55120  21.64130  21.66071  21.76050
 Alpha virt. eigenvalues --   21.78578  21.82259  21.89816  21.95924  43.05470
 Alpha virt. eigenvalues --   43.10454  43.16376  43.25332
          Condensed to atoms (all electrons):
               1          2          3          4          5          6
     1  C    5.228781   0.217281  -0.096999  -0.090677   0.008393   0.000288
     2  C    0.217281   4.886124   0.552913   0.227188  -0.056089  -0.030304
     3  O   -0.096999   0.552913   8.000180  -0.101439  -0.007490  -0.002519
     4  O   -0.090677   0.227188  -0.101439   7.867600   0.351705  -0.048328
     5  C    0.008393  -0.056089  -0.007490   0.351705   5.454592   0.376315
     6  C    0.000288  -0.030304  -0.002519  -0.048328   0.376315   5.444034
     7  C   -0.000680   0.002508  -0.001524   0.009814   0.067185   0.190928
     8  C    0.000110  -0.000118  -0.000093   0.000297  -0.143562   0.099339
     9  C   -0.000102   0.000598   0.000347   0.003900   0.061794  -0.212802
    10  C   -0.001123   0.011090  -0.003838  -0.117847  -0.220522   0.022079
    11  C    0.000226   0.000494  -0.000361   0.011189  -0.129283  -0.013536
    12  O   -0.000479   0.005699  -0.000093  -0.017217  -0.008789  -0.002265
    13  O   -0.000001   0.000142  -0.000000  -0.000164   0.003192  -0.001099
    14  H    0.387155  -0.015502  -0.002533  -0.001186  -0.001190   0.000260
    15  H    0.409060  -0.032617  -0.002535   0.000054   0.000024   0.000047
    16  H    0.371136  -0.047633   0.007886   0.016024   0.001418  -0.000106
    17  H    0.000586  -0.004601   0.012272  -0.004473  -0.050899   0.408361
    18  H   -0.000010  -0.000097  -0.000089  -0.000147   0.014924  -0.059564
    19  H    0.000001   0.000005   0.000002   0.000004  -0.002506   0.021202
    20  H   -0.000001   0.000004   0.000000  -0.000026   0.031735  -0.005972
    21  H    0.000003  -0.000010   0.000000   0.000046  -0.001115   0.000093
               7          8          9         10         11         12
     1  C   -0.000680   0.000110  -0.000102  -0.001123   0.000226  -0.000479
     2  C    0.002508  -0.000118   0.000598   0.011090   0.000494   0.005699
     3  O   -0.001524  -0.000093   0.000347  -0.003838  -0.000361  -0.000093
     4  O    0.009814   0.000297   0.003900  -0.117847   0.011189  -0.017217
     5  C    0.067185  -0.143562   0.061794  -0.220522  -0.129283  -0.008789
     6  C    0.190928   0.099339  -0.212802   0.022079  -0.013536  -0.002265
     7  C    5.219155   0.293827   0.108154  -0.190993   0.027134   0.001258
     8  C    0.293827   5.202111   0.219031   0.193744  -0.032625  -0.002482
     9  C    0.108154   0.219031   5.427445  -0.098804   0.092551   0.013487
    10  C   -0.190993   0.193744  -0.098804   7.259455  -0.263850  -0.176630
    11  C    0.027134  -0.032625   0.092551  -0.263850   5.143100   0.664284
    12  O    0.001258  -0.002482   0.013487  -0.176630   0.664284   8.000812
    13  O    0.000881  -0.004221   0.028276  -0.199005   0.404809  -0.134186
    14  H    0.000023  -0.000002   0.000003   0.000222  -0.000057  -0.000007
    15  H   -0.000033   0.000003  -0.000009  -0.000136   0.000061   0.000036
    16  H    0.000043  -0.000013   0.000043  -0.000517   0.000067   0.002055
    17  H   -0.044907   0.012766  -0.001708   0.023719  -0.002396  -0.000138
    18  H    0.445219  -0.065205   0.019591  -0.004048   0.000187   0.000002
    19  H   -0.069585   0.443792  -0.066231   0.021285  -0.002081  -0.000005
    20  H    0.016946  -0.061422   0.443039  -0.075186  -0.024510   0.000620
    21  H   -0.000035   0.000178  -0.001835   0.023553  -0.026009   0.002728
              13         14         15         16         17         18
     1  C   -0.000001   0.387155   0.409060   0.371136   0.000586  -0.000010
     2  C    0.000142  -0.015502  -0.032617  -0.047633  -0.004601  -0.000097
     3  O   -0.000000  -0.002533  -0.002535   0.007886   0.012272  -0.000089
     4  O   -0.000164  -0.001186   0.000054   0.016024  -0.004473  -0.000147
     5  C    0.003192  -0.001190   0.000024   0.001418  -0.050899   0.014924
     6  C   -0.001099   0.000260   0.000047  -0.000106   0.408361  -0.059564
     7  C    0.000881   0.000023  -0.000033   0.000043  -0.044907   0.445219
     8  C   -0.004221  -0.000002   0.000003  -0.000013   0.012766  -0.065205
     9  C    0.028276   0.000003  -0.000009   0.000043  -0.001708   0.019591
    10  C   -0.199005   0.000222  -0.000136  -0.000517   0.023719  -0.004048
    11  C    0.404809  -0.000057   0.000061   0.000067  -0.002396   0.000187
    12  O   -0.134186  -0.000007   0.000036   0.002055  -0.000138   0.000002
    13  O    7.890237  -0.000000   0.000000   0.000006  -0.000003   0.000002
    14  H   -0.000000   0.483742  -0.018261  -0.017982   0.000019   0.000000
    15  H    0.000000  -0.018261   0.481161  -0.021662   0.000015  -0.000000
    16  H    0.000006  -0.017982  -0.021662   0.529902  -0.000104   0.000001
    17  H   -0.000003   0.000019   0.000015  -0.000104   0.484675  -0.004934
    18  H    0.000002   0.000000  -0.000000   0.000001  -0.004934   0.504430
    19  H   -0.000179  -0.000000   0.000000  -0.000000  -0.000114  -0.007012
    20  H    0.015092   0.000000  -0.000000   0.000000  -0.000058  -0.000104
    21  H    0.295832  -0.000000   0.000000  -0.000000   0.000000  -0.000000
              19         20         21
     1  C    0.000001  -0.000001   0.000003
     2  C    0.000005   0.000004  -0.000010
     3  O    0.000002   0.000000   0.000000
     4  O    0.000004  -0.000026   0.000046
     5  C   -0.002506   0.031735  -0.001115
     6  C    0.021202  -0.005972   0.000093
     7  C   -0.069585   0.016946  -0.000035
     8  C    0.443792  -0.061422   0.000178
     9  C   -0.066231   0.443039  -0.001835
    10  C    0.021285  -0.075186   0.023553
    11  C   -0.002081  -0.024510  -0.026009
    12  O   -0.000005   0.000620   0.002728
    13  O   -0.000179   0.015092   0.295832
    14  H   -0.000000   0.000000  -0.000000
    15  H    0.000000  -0.000000   0.000000
    16  H   -0.000000   0.000000  -0.000000
    17  H   -0.000114  -0.000058   0.000000
    18  H   -0.007012  -0.000104  -0.000000
    19  H    0.511189  -0.006555   0.000002
    20  H   -0.006555   0.505924  -0.000481
    21  H    0.000002  -0.000481   0.368491
 Mulliken charges:
               1
     1  C   -0.432946
     2  C    0.282924
     3  O   -0.354088
     4  O   -0.106320
     5  C    0.250167
     6  C   -0.186452
     7  C   -0.075318
     8  C   -0.155457
     9  C   -0.036768
    10  C   -0.202649
    11  C    0.150607
    12  O   -0.348690
    13  O   -0.299610
    14  H    0.185295
    15  H    0.184793
    16  H    0.159435
    17  H    0.171922
    18  H    0.156855
    19  H    0.156786
    20  H    0.160955
    21  H    0.338560
 Sum of Mulliken charges =  -0.00000
 Mulliken charges with hydrogens summed into heavy atoms:
               1
     1  C    0.096578
     2  C    0.282924
     3  O   -0.354088
     4  O   -0.106320
     5  C    0.250167
     6  C   -0.014530
     7  C    0.081537
     8  C    0.001329
     9  C    0.124187
    10  C   -0.202649
    11  C    0.150607
    12  O   -0.348690
    13  O    0.038950
 Electronic spatial extent (au):  <R**2>=           2525.4199
 Charge=             -0.0000 electrons
 Dipole moment (field-independent basis, Debye):
    X=              2.7041    Y=              0.3653    Z=             -1.7747  Tot=              3.2550
 Quadrupole moment (field-independent basis, Debye-Ang):
   XX=            -63.1886   YY=            -66.3724   ZZ=            -76.5766
   XY=              5.6143   XZ=              5.5595   YZ=             -0.9185
 Traceless Quadrupole moment (field-independent basis, Debye-Ang):
   XX=              5.5239   YY=              2.3401   ZZ=             -7.8641
   XY=              5.6143   XZ=              5.5595   YZ=             -0.9185
 Octapole moment (field-independent basis, Debye-Ang**2):
  XXX=             -0.4677  YYY=            -12.7494  ZZZ=              0.6212  XYY=             42.8283
  XXY=            -40.6374  XXZ=            -10.2113  XZZ=             -7.6263  YZZ=            -10.5340
  YYZ=             -8.3708  XYZ=              5.6881
 Hexadecapole moment (field-independent basis, Debye-Ang**3):
 XXXX=          -1794.3925 YYYY=           -988.6009 ZZZZ=           -107.1025 XXXY=             84.3768
 XXXZ=             57.6262 YYYX=           -105.5707 YYYZ=              8.1193 ZZZX=             -0.9154
 ZZZY=              0.3897 XXYY=           -441.7702 XXZZ=           -347.7380 YYZZ=           -230.8808
 XXYZ=            -19.1123 YYXZ=              5.3330 ZZXY=            -11.0010
 N-N= 7.624441287249D+02 E-N=-3.043816321020D+03  KE= 6.464153618020D+02
 No NMR shielding tensors so no spin-rotation constants.
 Leave Link  601 at Mon Feb 22 20:57:40 2021, MaxMem=   104857600 cpu:               9.0 elap:               0.4
 (Enter /sw/arch/RedHatEnterpriseServer7/EB_production/2019/software/Gaussian/g16.c01/l701.exe)
 ... and contract with generalized density number  0.
 Compute integral first derivatives.
 R6Disp: Adding Grimme-D3 dispersion energy 1st derivatives to the gradient.
 PrsmSu:  requested number of processors reduced to:  28 ShMem   1 Linda.
 D1PCM: PCM CHGder 1st derivatives, ID1Alg=3 FixD1E=F DoIter=F DoCFld=F I1PDM=0.
 GePol: Maximum number of non-zero 1st derivatives   =     220
 CoulSu:  requested number of processors reduced to:  28 ShMem   1 Linda.
 CoulSu:  requested number of processors reduced to:  29 ShMem   1 Linda.
 Leave Link  701 at Mon Feb 22 20:57:41 2021, MaxMem=   104857600 cpu:              25.9 elap:               0.9
 (Enter /sw/arch/RedHatEnterpriseServer7/EB_production/2019/software/Gaussian/g16.c01/l702.exe)
 L702 exits ... SP integral derivatives will be done elsewhere.
 Leave Link  702 at Mon Feb 22 20:57:41 2021, MaxMem=   104857600 cpu:               0.6 elap:               0.0
 (Enter /sw/arch/RedHatEnterpriseServer7/EB_production/2019/software/Gaussian/g16.c01/l703.exe)
 Integral derivatives from FoFJK, PRISM(SPDF).
 Compute integral first derivatives, UseDBF=F ICtDFT=           0.
 Calling FoFJK, ICntrl=      2527 FMM=F ISym2X=0 I1Cent= 0 IOpClX= 0 NMat=1 NMatS=1 NMatT=0.
 FoFJK:  IHMeth= 1 ICntrl=    2527 DoSepK=F KAlg= 0 I1Cent=           0 FoldK=F
 IRaf=         0 NMat=       1 IRICut=       1 DoRegI=T DoRafI=F ISym2E= 0 IDoP0=0 IntGTp=1.
 FoFCou: FMM=F IPFlag=           0 FMFlag=      100000 FMFlg1=         800
         NFxFlg=           0 DoJE=F BraDBF=F KetDBF=F FulRan=T
         wScrn=  0.000000 ICntrl=      2527 IOpCl=  0 I1Cent=           0 NGrid=           0
         NMat0=    1 NMatS0=      1 NMatT0=    0 NMatD0=    1 NMtDS0=    0 NMtDT0=    0
 Symmetry not used in FoFCou.
 Leave Link  703 at Mon Feb 22 20:57:44 2021, MaxMem=   104857600 cpu:              82.4 elap:               2.6
 (Enter /sw/arch/RedHatEnterpriseServer7/EB_production/2019/software/Gaussian/g16.c01/l716.exe)
 Dipole        = 1.06386594D+00 1.43739147D-01-6.98220993D-01
 ***** Axes restored to original set *****
 -------------------------------------------------------------------
 Center     Atomic                   Forces (Hartrees/Bohr)
 Number     Number              X              Y              Z
 -------------------------------------------------------------------
      1        6          -0.010103177    0.025527465    0.014375782
      2        6           0.044567237   -0.053285155   -0.037950801
      3        8          -0.004263013    0.032423456    0.014138876
      4        8          -0.022174114    0.011319708    0.016433614
      5        6           0.015694892   -0.016160680   -0.007605118
      6        6           0.007897739    0.056279787   -0.009343756
      7        6          -0.048069613    0.042188428    0.001523852
      8        6          -0.056057143   -0.014422336    0.009173281
      9        6          -0.003869473   -0.061841338    0.011797152
     10        6           0.033811518   -0.006978262   -0.000094488
     11        6          -0.096125332    0.026635782   -0.003717621
     12        8           0.017745146   -0.005257164   -0.000486120
     13        8           0.052777025    0.006452996    0.004133794
     14        1          -0.001511698   -0.002314097   -0.004264807
     15        1           0.001032413   -0.003919383    0.001106670
     16        1          -0.003607118    0.002435508    0.002045215
     17        1          -0.013831589   -0.053356011    0.009907777
     18        1           0.038766937   -0.036643538    0.000074977
     19        1           0.050820125    0.017947216   -0.010582754
     20        1           0.005769946    0.051883684   -0.008125807
     21        1          -0.009270706   -0.018916064   -0.002539719
 -------------------------------------------------------------------
 Cartesian Forces:  Max     0.096125332 RMS     0.028569829
 Leave Link  716 at Mon Feb 22 20:57:44 2021, MaxMem=   104857600 cpu:               0.9 elap:               0.1
 (Enter /sw/arch/RedHatEnterpriseServer7/EB_production/2019/software/Gaussian/g16.c01/l103.exe)

 GradGradGradGradGradGradGradGradGradGradGradGradGradGradGradGradGradGrad
 Berny optimization.
 FormGI is forming the generalized inverse of G from B-inverse, IUseBI=4.
 Internal  Forces:  Max     0.055736985 RMS     0.015678320
 Search for a local minimum.
 Step number   1 out of a maximum of  103
 All quantities printed in internal units (Hartrees-Bohrs-Radians)
 RMS Force = .15678D-01 SwitMx=.10000D-02 MixMth= 1
 Mixed Optimization -- RFO/linear search
 Second derivative matrix not updated -- first step.
 ITU=  0
     Eigenvalues ---    0.01159   0.01420   0.01741   0.01772   0.01801
     Eigenvalues ---    0.01851   0.01903   0.01921   0.01935   0.01942
     Eigenvalues ---    0.02005   0.02031   0.02038   0.02048   0.02094
     Eigenvalues ---    0.02280   0.07521   0.07730   0.15997   0.16000
     Eigenvalues ---    0.16000   0.16000   0.16000   0.16000   0.16000
     Eigenvalues ---    0.16000   0.22000   0.22483   0.24468   0.24980
     Eigenvalues ---    0.24983   0.24999   0.25000   0.25000   0.25000
     Eigenvalues ---    0.25000   0.34458   0.34595   0.34725   0.35704
     Eigenvalues ---    0.39506   0.39778   0.41523   0.42385   0.43712
     Eigenvalues ---    0.43744   0.43980   0.44018   0.44095   0.44448
     Eigenvalues ---    0.45026   0.49786   0.51056   0.51422   0.53855
     Eigenvalues ---    0.82047   0.82269
 RFO step:  Lambda=-5.71354650D-02 EMin= 1.15875522D-02
 Linear search not attempted -- first point.
 Maximum step size (   0.300) exceeded in Quadratic search.
    -- Step size scaled by   0.756
 Iteration  1 RMS(Cart)=  0.07136503 RMS(Int)=  0.00250075
 Iteration  2 RMS(Cart)=  0.00380012 RMS(Int)=  0.00004514
 Iteration  3 RMS(Cart)=  0.00000321 RMS(Int)=  0.00004507
 Iteration  4 RMS(Cart)=  0.00000000 RMS(Int)=  0.00004507
 ITry= 1 IFail=0 DXMaxC= 2.42D-01 DCOld= 1.00D+10 DXMaxT= 3.00D-01 DXLimC= 3.00D+00 Rises=F
 Variable       Old X    -DE/DX   Delta X   Delta X   Delta X     New X
                                 (Linear)    (Quad)   (Total)
    R1        2.77847   0.01622   0.00000   0.02959   0.02959   2.80806
    R2        2.06124   0.00468   0.00000   0.00875   0.00875   2.06999
    R3        2.06338   0.00354   0.00000   0.00664   0.00664   2.07002
    R4        2.06564   0.00404   0.00000   0.00760   0.00760   2.07323
    R5        2.36830  -0.03392   0.00000  -0.02920  -0.02920   2.33910
    R6        2.58814  -0.01244   0.00000  -0.01656  -0.01656   2.57158
    R7        2.60082  -0.00593   0.00000  -0.00807  -0.00807   2.59275
    R8        2.67737  -0.01448   0.00000  -0.02261  -0.02260   2.65477
    R9        2.69480  -0.00372   0.00000  -0.00609  -0.00608   2.68872
   R10        2.65488  -0.00602   0.00000  -0.00898  -0.00899   2.64589
   R11        1.92622   0.05574   0.00000   0.08395   0.08395   2.01017
   R12        2.64933  -0.00135   0.00000  -0.00186  -0.00187   2.64746
   R13        1.93462   0.05331   0.00000   0.08143   0.08143   2.01605
   R14        2.65460  -0.00887   0.00000  -0.01312  -0.01313   2.64147
   R15        1.93133   0.05491   0.00000   0.08342   0.08342   2.01475
   R16        2.68332  -0.00673   0.00000  -0.01056  -0.01056   2.67276
   R17        1.93500   0.05247   0.00000   0.08020   0.08020   2.01520
   R18        2.69534   0.03142   0.00000   0.05026   0.05026   2.74560
   R19        2.36714  -0.01598   0.00000  -0.01372  -0.01372   2.35342
   R20        2.56164  -0.00290   0.00000  -0.00368  -0.00368   2.55797
   R21        1.85157  -0.00609   0.00000  -0.00805  -0.00805   1.84352
    A1        1.90757  -0.00277   0.00000  -0.01075  -0.01081   1.89676
    A2        1.91509  -0.00313   0.00000  -0.01191  -0.01197   1.90312
    A3        1.94415   0.00542   0.00000   0.02105   0.02107   1.96522
    A4        1.90275   0.00038   0.00000  -0.00307  -0.00323   1.89953
    A5        1.89590  -0.00009   0.00000   0.00173   0.00175   1.89765
    A6        1.89785   0.00016   0.00000   0.00275   0.00278   1.90063
    A7        2.06025   0.02749   0.00000   0.06784   0.06781   2.12806
    A8        2.07729  -0.02939   0.00000  -0.07209  -0.07212   2.00517
    A9        2.14424   0.00196   0.00000   0.00502   0.00498   2.14923
   A10        2.31760  -0.03395   0.00000  -0.08351  -0.08351   2.23409
   A11        2.12970  -0.00535   0.00000  -0.01306  -0.01307   2.11663
   A12        2.06756   0.00008   0.00000   0.00032   0.00030   2.06786
   A13        2.08538   0.00524   0.00000   0.01245   0.01245   2.09783
   A14        2.11127  -0.00336   0.00000  -0.00927  -0.00928   2.10199
   A15        2.10979  -0.00343   0.00000  -0.01313  -0.01313   2.09666
   A16        2.06196   0.00679   0.00000   0.02244   0.02244   2.08441
   A17        2.09077   0.00214   0.00000   0.00622   0.00620   2.09697
   A18        2.09893  -0.00308   0.00000  -0.01010  -0.01009   2.08883
   A19        2.09346   0.00094   0.00000   0.00388   0.00389   2.09735
   A20        2.09379  -0.00239   0.00000  -0.00591  -0.00593   2.08786
   A21        2.09299   0.00240   0.00000   0.00715   0.00716   2.10014
   A22        2.09640  -0.00001   0.00000  -0.00124  -0.00123   2.09518
   A23        2.11634   0.00158   0.00000   0.00462   0.00461   2.12095
   A24        2.05355   0.00515   0.00000   0.01835   0.01835   2.07190
   A25        2.11328  -0.00673   0.00000  -0.02300  -0.02300   2.09028
   A26        2.06879  -0.00321   0.00000  -0.00808  -0.00806   2.06073
   A27        2.13772   0.00666   0.00000   0.01648   0.01648   2.15419
   A28        2.07665  -0.00345   0.00000  -0.00840  -0.00841   2.06824
   A29        2.14817   0.01143   0.00000   0.02811   0.02809   2.17625
   A30        2.11637  -0.04482   0.00000  -0.11027  -0.11030   2.00607
   A31        2.01864   0.03338   0.00000   0.08210   0.08207   2.10071
   A32        2.10616  -0.03759   0.00000  -0.13081  -0.13081   1.97535
    D1       -1.06851   0.00089   0.00000   0.00097   0.00084  -1.06766
    D2        2.01787   0.00219   0.00000   0.01628   0.01627   2.03413
    D3        1.01709  -0.00223   0.00000  -0.01655  -0.01653   1.00056
    D4       -2.17972  -0.00093   0.00000  -0.00123  -0.00110  -2.18083
    D5        3.11958  -0.00061   0.00000  -0.00742  -0.00748   3.11211
    D6       -0.07723   0.00069   0.00000   0.00789   0.00794  -0.06928
    D7        3.07540  -0.00120   0.00000  -0.01024  -0.01007   3.06533
    D8       -0.12421   0.00094   0.00000   0.00777   0.00761  -0.11660
    D9       -0.41220  -0.00124   0.00000  -0.01275  -0.01271  -0.42491
   D10        2.76506  -0.00044   0.00000  -0.00374  -0.00378   2.76128
   D11       -3.11492   0.00111   0.00000   0.01149   0.01149  -3.10343
   D12        0.00691   0.00140   0.00000   0.01394   0.01392   0.02083
   D13       -0.00935   0.00019   0.00000   0.00215   0.00215  -0.00720
   D14        3.11248   0.00049   0.00000   0.00460   0.00458   3.11707
   D15        3.11531  -0.00165   0.00000  -0.01620  -0.01624   3.09907
   D16       -0.03503  -0.00157   0.00000  -0.01537  -0.01541  -0.05044
   D17        0.00846  -0.00065   0.00000  -0.00690  -0.00688   0.00158
   D18        3.14130  -0.00058   0.00000  -0.00607  -0.00605   3.13526
   D19        0.00601   0.00005   0.00000   0.00067   0.00067   0.00668
   D20        3.14047   0.00007   0.00000   0.00071   0.00072   3.14119
   D21       -3.11635  -0.00013   0.00000  -0.00134  -0.00136  -3.11771
   D22        0.01811  -0.00011   0.00000  -0.00129  -0.00130   0.01681
   D23       -0.00188   0.00016   0.00000   0.00138   0.00137  -0.00051
   D24        3.14016   0.00001   0.00000  -0.00006  -0.00006   3.14010
   D25       -3.13637   0.00016   0.00000   0.00139   0.00138  -3.13499
   D26        0.00567   0.00000   0.00000  -0.00005  -0.00006   0.00562
   D27        0.00122  -0.00065   0.00000  -0.00640  -0.00642  -0.00520
   D28       -3.13315  -0.00026   0.00000  -0.00258  -0.00255  -3.13570
   D29       -3.14082  -0.00050   0.00000  -0.00496  -0.00499   3.13738
   D30        0.00800  -0.00011   0.00000  -0.00114  -0.00112   0.00688
   D31       -0.00452   0.00091   0.00000   0.00917   0.00915   0.00462
   D32       -3.13768   0.00079   0.00000   0.00825   0.00823  -3.12945
   D33        3.12960   0.00056   0.00000   0.00539   0.00541   3.13501
   D34       -0.00356   0.00044   0.00000   0.00446   0.00449   0.00093
   D35       -0.28891  -0.00126   0.00000  -0.01267  -0.01261  -0.30153
   D36        2.85745   0.00018   0.00000   0.00165   0.00159   2.85904
   D37        2.84389  -0.00118   0.00000  -0.01183  -0.01177   2.83212
   D38       -0.29293   0.00025   0.00000   0.00249   0.00243  -0.29050
   D39        3.13441  -0.00132   0.00000  -0.01272  -0.01284   3.12156
   D40       -0.00276   0.00005   0.00000   0.00068   0.00080  -0.00195
         Item               Value     Threshold  Converged?
 Maximum Force            0.055737     0.000450     NO 
 RMS     Force            0.015678     0.000300     NO 
 Maximum Displacement     0.241936     0.001800     NO 
 RMS     Displacement     0.071031     0.001200     NO 
 Predicted change in Energy=-2.950711D-02
 Lowest energy point so far.  Saving SCF results.
 GradGradGradGradGradGradGradGradGradGradGradGradGradGradGradGradGradGrad

 Leave Link  103 at Mon Feb 22 20:57:44 2021, MaxMem=   104857600 cpu:               1.5 elap:               0.1
 (Enter /sw/arch/RedHatEnterpriseServer7/EB_production/2019/software/Gaussian/g16.c01/l202.exe)
                          Input orientation:                          
 ---------------------------------------------------------------------
 Center     Atomic      Atomic             Coordinates (Angstroms)
 Number     Number       Type             X           Y           Z
 ---------------------------------------------------------------------
      1          6           0       -1.865223   -3.435658    1.037712
      2          6           0       -0.471362   -3.321632    0.535485
      3          8           0        0.110872   -4.272864   -0.001457
      4          8           0        0.086239   -2.087473    0.668788
      5          6           0        1.370659   -1.704609    0.375312
      6          6           0        2.423779   -2.634308    0.361986
      7          6           0        3.735273   -2.216775    0.104964
      8          6           0        4.008909   -0.863654   -0.133612
      9          6           0        2.965444    0.066218   -0.114121
     10          6           0        1.629804   -0.326254    0.135799
     11          6           0        0.594281    0.692833    0.125636
     12          8           0       -0.624810    0.463499    0.015253
     13          8           0        1.044855    1.965399    0.224828
     14          1           0       -2.523285   -3.673993    0.195077
     15          1           0       -1.916429   -4.250576    1.767920
     16          1           0       -2.219711   -2.511587    1.511078
     17          1           0        2.232145   -3.661103    0.563239
     18          1           0        4.525939   -2.932993    0.098117
     19          1           0        5.006684   -0.542333   -0.328282
     20          1           0        3.189398    1.091583   -0.303011
     21          1           0        0.330277    2.628971    0.197598
 ---------------------------------------------------------------------
                    Distance matrix (angstroms):
                    1          2          3          4          5
     1  C    0.000000
     2  C    1.485962   0.000000
     3  O    2.384479   1.237799   0.000000
     4  O    2.400398   1.360822   2.285994   0.000000
     5  C    3.729107   2.456310   2.885299   1.372024   0.000000
     6  C    4.415236   2.980664   2.857708   2.420176   1.404841
     7  C    5.807001   4.370565   4.168346   3.694600   2.434502
     8  C    6.518637   5.153850   5.180238   4.186755   2.815417
     9  C    6.076611   4.869409   5.195085   3.679831   2.432840
    10  C    4.764143   3.680616   4.231042   2.401783   1.422809
    11  C    4.891368   4.173667   4.990790   2.878059   2.532357
    12  O    4.217520   3.823794   4.793187   2.727665   2.968541
    13  O    6.188760   5.508912   6.311850   4.188295   3.687513
    14  H    1.095392   2.109603   2.708515   3.090480   4.367352
    15  H    1.095408   2.114250   2.690938   3.146075   4.384776
    16  H    1.097108   2.159787   3.289601   2.491331   3.851225
    17  H    4.130905   2.724878   2.278801   2.663150   2.146006
    18  H    6.479388   5.031436   4.614974   4.555383   3.397287
    19  H    7.580262   6.203191   6.163818   5.252846   3.881573
    20  H    6.916837   5.794885   6.192378   4.547569   3.403912
    21  H    6.504286   6.013856   6.908190   4.746200   4.460257
                    6          7          8          9         10
     6  C    0.000000
     7  C    1.400147   0.000000
     8  C    2.427647   1.400975   0.000000
     9  C    2.795160   2.419234   1.397806   0.000000
    10  C    2.451258   2.829844   2.453879   1.414365   0.000000
    11  C    3.804312   4.281598   3.761588   2.464253   1.452911
    12  O    4.360107   5.118813   4.822328   3.614484   2.391972
    13  O    4.803910   4.974263   4.113105   2.722211   2.366805
    14  H    5.057890   6.426598   7.118680   6.649130   5.334700
    15  H    4.840081   6.232457   7.084963   6.783029   5.535331
    16  H    4.785131   6.125839   6.649541   6.014331   4.635282
    17  H    1.063737   2.134361   3.386475   3.858688   3.415661
    18  H    2.139607   1.066850   2.145503   3.387545   3.896679
    19  H    3.394735   2.146612   1.066161   2.140762   3.415461
    20  H    3.861431   3.377818   2.126792   1.066399   2.152939
    21  H    5.666734   5.923161   5.083351   3.689034   3.228923
                   11         12         13         14         15
    11  C    0.000000
    12  O    1.245376   0.000000
    13  O    1.353618   2.255528   0.000000
    14  H    5.365930   4.555808   6.673474   0.000000
    15  H    5.782565   5.192555   7.056110   1.781729   0.000000
    16  H    4.484005   3.692199   5.688166   1.781911   1.783825
    17  H    4.672350   5.047259   5.760357   4.769678   4.359978
    18  H    5.348393   6.170352   6.010678   7.088727   6.784422
    19  H    4.604452   5.730920   4.721306   8.172003   8.128630
    20  H    2.660333   3.878655   2.375127   7.456108   7.674430
    21  H    1.955379   2.373755   0.975546   6.918828   7.405523
                   16         17         18         19         20
    16  H    0.000000
    17  H    4.694551   0.000000
    18  H    6.904914   2.451117   0.000000
    19  H    7.712457   4.268443   2.475518   0.000000
    20  H    6.747755   4.924911   4.259631   2.443941   0.000000
    21  H    5.886680   6.581476   6.967706   5.674724   3.284622
                   21
    21  H    0.000000
 Stoichiometry    C9H8O4
 Framework group  C1[X(C9H8O4)]
 Deg. of freedom    57
 Full point group                 C1      NOp   1
 RotChk:  IX=0 Diff= 7.07D-02
 Largest Abelian subgroup         C1      NOp   1
 Largest concise Abelian subgroup C1      NOp   1
                         Standard orientation:                         
 ---------------------------------------------------------------------
 Center     Atomic      Atomic             Coordinates (Angstroms)
 Number     Number       Type             X           Y           Z
 ---------------------------------------------------------------------
      1          6           0       -3.503435   -1.054137   -0.294995
      2          6           0       -2.504672   -0.004404    0.034573
      3          8           0       -2.831433    1.069186    0.556856
      4          8           0       -1.213346   -0.337200   -0.236645
      5          6           0       -0.095419    0.449255   -0.117581
      6          6           0       -0.180531    1.850526   -0.170278
[...]
 Iteration    1 A*A^-1 deviation from orthogonality  is 2.36D-15 for   1474    584.
 Iteration    1 A^-1*A deviation from unit magnitude is 1.17D-14 for     47.
 Iteration    1 A^-1*A deviation from orthogonality  is 2.23D-15 for   1466      4.
 Error on nuclear    polarization charges =  0.02313
 Error on electronic polarization charges = -0.05190
 SCF Done:  E(RB-P86) =  -648.951190905     A.U. after   12 cycles
            NFock= 12  Conv=0.39D-08     -V/T= 2.0043
 --------------------------------------------------------------------
 Variational C-PCM results
 =========================
 <psi(f)|   H    |psi(f)>                     (a.u.) =    -648.928458
 <psi(f)|H+V(f)/2|psi(f)>                     (a.u.) =    -648.951191
 Total free energy in solution:
 - with all non electrostatic terms           (a.u.) =    -648.936892
 --------------------------------------------------------------------
 (Polarized solute)-Solvent               (kcal/mol) =     -14.27
 --------------------------------------------------------------------
 Cavitation energy                        (kcal/mol) =      26.22
 Dispersion energy                        (kcal/mol) =     -18.75
 Repulsion energy                         (kcal/mol) =       1.50
 Total non electrostatic                  (kcal/mol) =       8.97
 --------------------------------------------------------------------
 Partition over spheres:
 Sphere  on Atom  Surface  Charge   GEl     GCav    GDR
    1      C1      18.72  -0.033   -0.04    2.20   -1.38
    2      C2       6.58  -0.015   -0.05    0.77   -0.30
    3      O3      18.19   0.212   -4.20    2.26   -1.52
    4      O4       8.39   0.069   -0.64    1.04   -0.54
    5      C5       5.33   0.002   -0.07    0.63   -0.27
    6      C6      13.57   0.001   -0.16    1.59   -0.93
    7      C7      14.01   0.003   -0.18    1.65   -1.04
    8      C8      14.01   0.012   -0.15    1.65   -1.05
    9      C9      12.42   0.005   -0.12    1.46   -0.96
   10      C10      5.37   0.005   -0.07    0.63   -0.23
   11      C11      9.50  -0.031    0.01    1.12   -0.56
   12      O12     16.32   0.185   -2.68    2.03   -1.22
   13      O13     14.23   0.068   -0.63    1.77   -1.28
   14      H14      6.46  -0.045   -0.08    0.91   -0.55
   15      H15      6.47  -0.044   -0.20    0.91   -0.73
   16      H16      6.50  -0.046   -0.36    0.92   -0.75
   17      H17      6.42  -0.053   -0.52    0.91   -0.80
   18      H18      6.43  -0.051   -0.63    0.91   -0.81
   19      H19      6.43  -0.048   -0.56    0.91   -0.81
   20      H20      5.55  -0.043   -0.29    0.78   -0.58
   21      H21      8.39  -0.153   -2.63    1.18   -0.93
 --------------------------------------------------------------------
 - cavitation energy not included in the total energy.
 - dispersion energy not included in the total energy.
 - repulsion  energy not included in the total energy.
 After PCM corrections, the energy is  -648.951190905     a.u.
 --------------------------------------------------------------------
 Writing COSMO formatted file "BSYNRYMUTXBXSQ-UHFFFAOYSA-N.cosmo"
 Recomputed dielectric energy= -0.022880 old= -0.022733 diff=-1.47D-04

 **********************************************************************

            Population analysis using the SCF Density.

 **********************************************************************

 Orbital symmetries:
       Occupied  (A) (A) (A) (A) (A) (A) (A) (A) (A) (A) (A) (A)
                 (A) (A) (A) (A) (A) (A) (A) (A) (A) (A) (A) (A)
                 (A) (A) (A) (A) (A) (A) (A) (A) (A) (A) (A) (A)
                 (A) (A) (A) (A) (A) (A) (A) (A) (A) (A) (A)
       Virtual   (A) (A) (A) (A) (A) (A) (A) (A) (A) (A) (A) (A)
                 (A) (A) (A) (A) (A) (A) (A) (A) (A) (A) (A) (A)
                 (A) (A) (A) (A) (A) (A) (A) (A) (A) (A) (A) (A)
                 (A) (A) (A) (A) (A) (A) (A) (A) (A) (A) (A) (A)
                 (A) (A) (A) (A) (A) (A) (A) (A) (A) (A) (A) (A)
                 (A) (A) (A) (A) (A) (A) (A) (A) (A) (A) (A) (A)
                 (A) (A) (A) (A) (A) (A) (A) (A) (A) (A) (A) (A)
                 (A) (A) (A) (A) (A) (A) (A) (A) (A) (A) (A) (A)
                 (A) (A) (A) (A) (A) (A) (A) (A) (A) (A) (A) (A)
                 (A) (A) (A) (A) (A) (A) (A) (A) (A) (A) (A) (A)
                 (A) (A) (A) (A) (A) (A) (A) (A) (A) (A) (A) (A)
                 (A) (A) (A) (A) (A) (A) (A) (A) (A) (A) (A) (A)
                 (A) (A) (A) (A) (A) (A) (A) (A) (A) (A) (A) (A)
                 (A) (A) (A) (A) (A) (A) (A) (A) (A) (A) (A) (A)
                 (A) (A) (A) (A) (A) (A) (A) (A) (A) (A) (A) (A)
                 (A) (A) (A) (A) (A) (A) (A) (A) (A) (A) (A) (A)
                 (A) (A) (A) (A) (A) (A) (A) (A) (A) (A) (A) (A)
                 (A) (A) (A) (A) (A) (A) (A) (A) (A) (A) (A) (A)
                 (A) (A) (A) (A) (A) (A) (A) (A) (A) (A) (A) (A)
                 (A) (A) (A) (A) (A) (A) (A) (A) (A) (A) (A) (A)
                 (A) (A) (A) (A) (A) (A) (A) (A)
 The electronic state is 1-A.
 Alpha  occ. eigenvalues --  -18.83581 -18.82396 -18.77796 -18.77445 -10.04353
 Alpha  occ. eigenvalues --  -10.04175  -9.98647  -9.94020  -9.92467  -9.92301
 Alpha  occ. eigenvalues --   -9.91970  -9.91616  -9.90770  -1.03696  -1.02662
 Alpha  occ. eigenvalues --   -0.95874  -0.94388  -0.80512  -0.71979  -0.71624
 Alpha  occ. eigenvalues --   -0.67745  -0.61952  -0.58386  -0.57183  -0.51986
 Alpha  occ. eigenvalues --   -0.48431  -0.45778  -0.45270  -0.44757  -0.44462
 Alpha  occ. eigenvalues --   -0.42733  -0.41677  -0.41036  -0.40448  -0.37589
 Alpha  occ. eigenvalues --   -0.36840  -0.36510  -0.35087  -0.34403  -0.33738
 Alpha  occ. eigenvalues --   -0.32778  -0.30026  -0.29323  -0.26086  -0.25428
 Alpha  occ. eigenvalues --   -0.25221  -0.24207
 Alpha virt. eigenvalues --   -0.10139  -0.06400  -0.04786  -0.00891   0.02614
 Alpha virt. eigenvalues --    0.03735   0.04679   0.07533   0.08344   0.08845
 Alpha virt. eigenvalues --    0.09086   0.10146   0.10266   0.11278   0.12136
 Alpha virt. eigenvalues --    0.13043   0.13634   0.13734   0.16318   0.17278
 Alpha virt. eigenvalues --    0.17592   0.18263   0.18896   0.19717   0.19854
 Alpha virt. eigenvalues --    0.20776   0.22206   0.22460   0.23651   0.24285
 Alpha virt. eigenvalues --    0.25187   0.26227   0.26705   0.27649   0.28429
 Alpha virt. eigenvalues --    0.29492   0.30964   0.31348   0.31954   0.33114
 Alpha virt. eigenvalues --    0.34398   0.34831   0.35422   0.36290   0.37110
 Alpha virt. eigenvalues --    0.37681   0.38672   0.39417   0.39724   0.40817
 Alpha virt. eigenvalues --    0.41148   0.41915   0.42787   0.43099   0.43814
 Alpha virt. eigenvalues --    0.44895   0.45753   0.47027   0.47224   0.47736
 Alpha virt. eigenvalues --    0.48969   0.51434   0.51558   0.52371   0.53432
 Alpha virt. eigenvalues --    0.54368   0.55787   0.56531   0.60394   0.61892
 Alpha virt. eigenvalues --    0.63348   0.64128   0.64359   0.66247   0.66586
 Alpha virt. eigenvalues --    0.70672   0.71761   0.74017   0.74240   0.75881
 Alpha virt. eigenvalues --    0.79197   0.83034   0.84520   0.85347   0.90789
 Alpha virt. eigenvalues --    0.93615   1.10710   1.13783   1.14303   1.16343
 Alpha virt. eigenvalues --    1.17461   1.18640   1.19114   1.20658   1.21931
 Alpha virt. eigenvalues --    1.22230   1.23227   1.24141   1.25781   1.26263
 Alpha virt. eigenvalues --    1.27505   1.28676   1.30151   1.31262   1.33272
 Alpha virt. eigenvalues --    1.33350   1.34917   1.35585   1.36479   1.37536
 Alpha virt. eigenvalues --    1.37883   1.39220   1.40268   1.40924   1.41792
 Alpha virt. eigenvalues --    1.43262   1.44401   1.44849   1.45908   1.46732
 Alpha virt. eigenvalues --    1.46835   1.48466   1.48678   1.50770   1.52025
 Alpha virt. eigenvalues --    1.53377   1.55042   1.56641   1.57723   1.59849
 Alpha virt. eigenvalues --    1.64890   1.66398   1.69180   1.70769   1.71529
 Alpha virt. eigenvalues --    1.72296   1.73109   1.75362   1.78602   1.79551
 Alpha virt. eigenvalues --    1.81178   1.82394   1.83977   1.85137   1.86196
 Alpha virt. eigenvalues --    1.88644   1.89297   1.90955   1.94635   1.97281
 Alpha virt. eigenvalues --    1.97942   1.99166   2.05181   2.06752   2.09901
 Alpha virt. eigenvalues --    2.10596   2.13208   2.14932   2.16896   2.19041
 Alpha virt. eigenvalues --    2.19823   2.20821   2.22005   2.22760   2.23957
 Alpha virt. eigenvalues --    2.26011   2.26357   2.29433   2.29843   2.39899
 Alpha virt. eigenvalues --    2.40773   2.41478   2.42504   2.43568   2.46241
 Alpha virt. eigenvalues --    2.47618   2.49889   2.51170   2.51788   2.52959
 Alpha virt. eigenvalues --    2.53331   2.54460   2.54786   2.57007   2.58118
 Alpha virt. eigenvalues --    2.58692   2.59758   2.60290   2.61841   2.63346
 Alpha virt. eigenvalues --    2.65836   2.66553   2.68697   2.70161   2.71561
 Alpha virt. eigenvalues --    2.72843   2.76283   2.79755   2.82381   2.84349
 Alpha virt. eigenvalues --    2.85004   2.87217   2.89941   2.91526   2.92313
 Alpha virt. eigenvalues --    2.94301   2.96777   2.99772   3.00611   3.02335
 Alpha virt. eigenvalues --    3.03268   3.05130   3.07422   3.08039   3.09789
 Alpha virt. eigenvalues --    3.10974   3.12205   3.13521   3.18064   3.20604
 Alpha virt. eigenvalues --    3.20960   3.22026   3.25061   3.26590   3.29792
 Alpha virt. eigenvalues --    3.38627   3.41588   3.44646   3.55018   3.83040
 Alpha virt. eigenvalues --    3.83191   4.00096   4.10456   4.12585   4.19953
 Alpha virt. eigenvalues --   21.04595  21.54713  21.60182  21.66566  21.75369
 Alpha virt. eigenvalues --   21.80009  21.81804  21.85578  21.95144  43.07875
 Alpha virt. eigenvalues --   43.14942  43.18768  43.32721
          Condensed to atoms (all electrons):
               1          2          3          4          5          6
     1  C    5.313660   0.224323  -0.106365  -0.118224   0.001494   0.005133
     2  C    0.224323   4.918371   0.589562   0.185329  -0.041762   0.011543
     3  O   -0.106365   0.589562   7.942828  -0.114220   0.042704   0.002806
     4  O   -0.118224   0.185329  -0.114220   8.056766   0.143055  -0.040138
     5  C    0.001494  -0.041762   0.042704   0.143055   5.734357   0.196287
     6  C    0.005133   0.011543   0.002806  -0.040138   0.196287   5.367870
     7  C    0.000196   0.001473  -0.000402   0.008653   0.100950   0.252263
     8  C   -0.000052  -0.001256   0.000085   0.001075  -0.202209   0.101248
     9  C   -0.000161   0.004826  -0.003164   0.014167   0.125655  -0.224603
    10  C   -0.009403  -0.059910  -0.030217   0.039439  -0.178130   0.119420
    11  C   -0.003255  -0.030031   0.004991  -0.018719  -0.115714   0.033027
    12  O   -0.005012   0.015381  -0.008702  -0.006879  -0.000036   0.004227
    13  O   -0.000168  -0.001650  -0.000172   0.000209   0.005639  -0.000000
    14  H    0.374089  -0.013554  -0.000664  -0.000374  -0.002191  -0.000547
    15  H    0.396362  -0.041464   0.007259   0.006144   0.000093  -0.000020
    16  H    0.375755  -0.028139   0.003164   0.010304  -0.000317   0.001004
    17  H   -0.000783  -0.002022  -0.000592   0.002366  -0.069988   0.430368
    18  H   -0.000003  -0.000072  -0.000010  -0.000221   0.024423  -0.071173
    19  H    0.000000  -0.000006   0.000002   0.000012  -0.004529   0.018007
    20  H    0.000003   0.000087   0.000023  -0.000168   0.025995  -0.005321
    21  H   -0.000055  -0.000030  -0.000076   0.000092  -0.001980   0.000005
               7          8          9         10         11         12
     1  C    0.000196  -0.000052  -0.000161  -0.009403  -0.003255  -0.005012
     2  C    0.001473  -0.001256   0.004826  -0.059910  -0.030031   0.015381
     3  O   -0.000402   0.000085  -0.003164  -0.030217   0.004991  -0.008702
     4  O    0.008653   0.001075   0.014167   0.039439  -0.018719  -0.006879
     5  C    0.100950  -0.202209   0.125655  -0.178130  -0.115714  -0.000036
     6  C    0.252263   0.101248  -0.224603   0.119420   0.033027   0.004227
     7  C    5.243841   0.264171   0.109095  -0.244473   0.003864  -0.000273
     8  C    0.264171   5.264791   0.198631   0.195239   0.010887  -0.000487
     9  C    0.109095   0.198631   5.569215  -0.074509  -0.074723   0.005182
    10  C   -0.244473   0.195239  -0.074509   6.880163  -0.092293  -0.158634
    11  C    0.003864   0.010887  -0.074723  -0.092293   5.100506   0.636276
    12  O   -0.000273  -0.000487   0.005182  -0.158634   0.636276   7.955985
    13  O    0.000503  -0.002969   0.002011  -0.215783   0.395951  -0.100573
    14  H   -0.000016   0.000011  -0.000082   0.002457  -0.000972   0.005752
    15  H   -0.000019   0.000003  -0.000006   0.000553   0.000228   0.000073
    16  H    0.000081  -0.000012   0.000028  -0.001283   0.000415   0.000124
    17  H   -0.056117   0.014982  -0.004305   0.025515  -0.000537   0.000067
    18  H    0.448611  -0.074933   0.022285  -0.007179  -0.000095  -0.000001
    19  H   -0.067156   0.438931  -0.064231   0.022373  -0.000774   0.000002
    20  H    0.016350  -0.058568   0.434638  -0.066617  -0.024725   0.000533
    21  H    0.000018   0.000029   0.000795   0.021012  -0.021193   0.001721
              13         14         15         16         17         18
     1  C   -0.000168   0.374089   0.396362   0.375755  -0.000783  -0.000003
     2  C   -0.001650  -0.013554  -0.041464  -0.028139  -0.002022  -0.000072
     3  O   -0.000172  -0.000664   0.007259   0.003164  -0.000592  -0.000010
     4  O    0.000209  -0.000374   0.006144   0.010304   0.002366  -0.000221
     5  C    0.005639  -0.002191   0.000093  -0.000317  -0.069988   0.024423
     6  C   -0.000000  -0.000547  -0.000020   0.001004   0.430368  -0.071173
     7  C    0.000503  -0.000016  -0.000019   0.000081  -0.056117   0.448611
     8  C   -0.002969   0.000011   0.000003  -0.000012   0.014982  -0.074933
     9  C    0.002011  -0.000082  -0.000006   0.000028  -0.004305   0.022285
    10  C   -0.215783   0.002457   0.000553  -0.001283   0.025515  -0.007179
    11  C    0.395951  -0.000972   0.000228   0.000415  -0.000537  -0.000095
    12  O   -0.100573   0.005752   0.000073   0.000124   0.000067  -0.000001
    13  O    7.889080   0.000033   0.000003   0.000001   0.000008   0.000001
    14  H    0.000033   0.484108  -0.017239  -0.018803   0.000022   0.000000
    15  H    0.000003  -0.017239   0.494218  -0.019861   0.000035   0.000000
    16  H    0.000001  -0.018803  -0.019861   0.500694   0.000017   0.000000
    17  H    0.000008   0.000022   0.000035   0.000017   0.502930  -0.007295
    18  H    0.000001   0.000000   0.000000   0.000000  -0.007295   0.514731
    19  H   -0.000134   0.000000  -0.000000  -0.000000  -0.000068  -0.007158
    20  H    0.016393  -0.000001  -0.000000   0.000000  -0.000020  -0.000080
    21  H    0.290790   0.000010   0.000002   0.000000  -0.000001   0.000000
              19         20         21
     1  C    0.000000   0.000003  -0.000055
     2  C   -0.000006   0.000087  -0.000030
     3  O    0.000002   0.000023  -0.000076
     4  O    0.000012  -0.000168   0.000092
     5  C   -0.004529   0.025995  -0.001980
     6  C    0.018007  -0.005321   0.000005
     7  C   -0.067156   0.016350   0.000018
     8  C    0.438931  -0.058568   0.000029
     9  C   -0.064231   0.434638   0.000795
    10  C    0.022373  -0.066617   0.021012
    11  C   -0.000774  -0.024725  -0.021193
    12  O    0.000002   0.000533   0.001721
    13  O   -0.000134   0.016393   0.290790
    14  H    0.000000  -0.000001   0.000010
    15  H   -0.000000  -0.000000   0.000002
    16  H   -0.000000   0.000000   0.000000
    17  H   -0.000068  -0.000020  -0.000001
    18  H   -0.007158  -0.000080   0.000000
    19  H    0.512057  -0.006883  -0.000003
    20  H   -0.006883   0.500605  -0.000364
    21  H   -0.000003  -0.000364   0.370977
 Mulliken charges:
               1
     1  C   -0.447534
     2  C    0.269003
     3  O   -0.328841
     4  O   -0.168667
     5  C    0.216209
     6  C   -0.201405
     7  C   -0.081614
     8  C   -0.149595
     9  C   -0.040745
    10  C   -0.167741
    11  C    0.196885
    12  O   -0.344727
    13  O   -0.279172
    14  H    0.187960
    15  H    0.173637
    16  H    0.176830
    17  H    0.165418
    18  H    0.158170
    19  H    0.159556
    20  H    0.168120
    21  H    0.338253
 Sum of Mulliken charges =   0.00000
 Mulliken charges with hydrogens summed into heavy atoms:
               1
     1  C    0.090892
     2  C    0.269003
     3  O   -0.328841
     4  O   -0.168667
     5  C    0.216209
     6  C   -0.035987
     7  C    0.076557
     8  C    0.009961
     9  C    0.127375
    10  C   -0.167741
    11  C    0.196885
    12  O   -0.344727
    13  O    0.059081
 Electronic spatial extent (au):  <R**2>=           2249.9727
 Charge=             -0.0000 electrons
 Dipole moment (field-independent basis, Debye):
    X=              2.2705    Y=              0.9046    Z=             -1.5334  Tot=              2.8853
 Quadrupole moment (field-independent basis, Debye-Ang):
   XX=            -59.6529   YY=            -58.6076   ZZ=            -83.2928
   XY=             -0.6650   XZ=              3.3800   YZ=             -2.1167
 Traceless Quadrupole moment (field-independent basis, Debye-Ang):
   XX=              7.5315   YY=              8.5769   ZZ=            -16.1084
   XY=             -0.6650   XZ=              3.3800   YZ=             -2.1167
 Octapole moment (field-independent basis, Debye-Ang**2):
  XXX=            -11.2789  YYY=            -36.6649  ZZZ=             -7.2403  XYY=              2.3937
  XXY=             20.8147  XXZ=             -1.4643  XZZ=             -1.3180  YZZ=             -7.0040
  YYZ=              0.5064  XYZ=              4.8522
 Hexadecapole moment (field-independent basis, Debye-Ang**3):
 XXXX=          -1449.4219 YYYY=           -730.7746 ZZZZ=           -224.8116 XXXY=            -19.5030
 XXXZ=             35.1649 YYYX=             27.8059 YYYZ=            -12.1947 ZZZX=             12.3428
 ZZZY=             -2.4197 XXYY=           -426.5605 XXZZ=           -350.7397 YYZZ=           -211.4766
 XXYZ=             -5.6041 YYXZ=             -6.7464 ZZXY=             -6.8093
 N-N= 7.822908144415D+02 E-N=-3.083752765760D+03  KE= 6.461888549571D+02
 Unable to Open any file for archive entry.
 1\1\GINC-TCN1716\SP\RBP86\TZVP\C9H8O4\ELENAA\22-Feb-2021\0\\# BP86/TZV
 P SCRF=COSMORS geom=CHECKPOINT guess=CHECKPOINT\\COSMO-file for #BSYNR
 YMUTXBXSQ-UHFFFAOYSA-N\\0,1\C,0,-1.8430716424,-3.1934808055,0.98610972
 55\C,0,-0.6004915737,-2.7699208781,0.2619818176\O,0,-0.4510867877,-2.6
 758714758,-0.9389435285\O,0,0.4045680921,-2.4784919367,1.1732531374\C,
 0,1.5856395034,-1.9049449466,0.6948603287\C,0,2.7381069543,-2.68283983
 07,0.7986569347\C,0,3.9722679649,-2.1593322244,0.4047653283\C,0,4.0492
 401575,-0.8558926637,-0.100193788\C,0,2.8932150739,-0.0833110084,-0.20
 57698394\C,0,1.6365655048,-0.5851582586,0.1921912633\C,0,0.4232261654,
 0.27715429,0.1188750698\O,0,-0.6610839178,0.0397591431,0.6364209588\O,
 0,0.6449645504,1.4154001238,-0.6000582141\H,0,-2.3160456771,-2.2887309
 954,1.3980847092\H,0,-2.5330682073,-3.6792489963,0.2882468586\H,0,-1.6
 053334783,-3.8607298108,1.8246731099\H,0,2.6487619436,-3.697493001,1.1
 887239338\H,0,4.871181598,-2.7722292559,0.4912056351\H,0,5.0094502592,
 -0.4410849857,-0.4101244214\H,0,2.952399901,0.9332042724,-0.5935075759
 \H,0,-0.185666384,1.9359332443,-0.5711414435\\Version=ES64L-G16RevC.01
 \State=1-A\HF=-648.9511909\RMSD=3.855e-09\Dipole=0.9737006,0.1126844,0
 .5725096\Quadrupole=5.2879157,4.647193,-9.9351087,-0.4180766,-2.115947
 7,-6.1623483\PG=C01 [X(C9H8O4)]\\@
 The archive entry for this job was punched.


 ALL THINGS ARE POSSIBLE EXCEPT SKIING THROUGH A REVOLVING DOOR.
 Job cpu time:       0 days  0 hours  8 minutes 22.8 seconds.
 Elapsed time:       0 days  0 hours  0 minutes 16.3 seconds.
 File lengths (MBytes):  RWF=     69 Int=      0 D2E=      0 Chk=     10 Scr=      1
 Normal termination of Gaussian 16 at Mon Feb 22 21:08:30 2021.
