 Entering Gaussian System, Link 0=g16
 Input=BXWNKGSJHAJOGX-UHFFFAOYSA-N.gjf
 Output=BXWNKGSJHAJOGX-UHFFFAOYSA-N.log
 Initial command:
 /sw/arch/RedHatEnterpriseServer7/EB_production/2019/software/Gaussian/g16.c01/l1.exe "/scratch-local/elenaa.9715188/Gau-14607.inp" -scrdir="/scratch-local/elenaa.9715188/"
 Entering Link 1 = /sw/arch/RedHatEnterpriseServer7/EB_production/2019/software/Gaussian/g16.c01/l1.exe PID=     14608.
  
 Copyright (c) 1988-2019, Gaussian, Inc.  All Rights Reserved.
  
 This is part of the Gaussian(R) 16 program.  It is based on
 the Gaussian(R) 09 system (copyright 2009, Gaussian, Inc.),
 the Gaussian(R) 03 system (copyright 2003, Gaussian, Inc.),
 the Gaussian(R) 98 system (copyright 1998, Gaussian, Inc.),
 the Gaussian(R) 94 system (copyright 1995, Gaussian, Inc.),
 the Gaussian 92(TM) system (copyright 1992, Gaussian, Inc.),
 the Gaussian 90(TM) system (copyright 1990, Gaussian, Inc.),
 the Gaussian 88(TM) system (copyright 1988, Gaussian, Inc.),
 the Gaussian 86(TM) system (copyright 1986, Carnegie Mellon
 University), and the Gaussian 82(TM) system (copyright 1983,
 Carnegie Mellon University). Gaussian is a federally registered
 trademark of Gaussian, Inc.
  
 This software contains proprietary and confidential information,
 including trade secrets, belonging to Gaussian, Inc.
  
 This software is provided under written license and may be
 used, copied, transmitted, or stored only in accord with that
 written license.
  
 The following legend is applicable only to US Government
 contracts under FAR:
  
                    RESTRICTED RIGHTS LEGEND
  
 Use, reproduction and disclosure by the US Government is
 subject to restrictions as set forth in subparagraphs (a)
 and (c) of the Commercial Computer Software - Restricted
 Rights clause in FAR 52.227-19.
  
 Gaussian, Inc.
 340 Quinnipiac St., Bldg. 40, Wallingford CT 06492
  
  
 ---------------------------------------------------------------
 Warning -- This program may not be used in any manner that
 competes with the business of Gaussian, Inc. or will provide
 assistance to any competitor of Gaussian, Inc.  The licensee
 of this program is prohibited from giving any competitor of
 Gaussian, Inc. access to this program.  By using this program,
 the user acknowledges that Gaussian, Inc. is engaged in the
 business of creating and licensing software in the field of
 computational chemistry and represents and warrants to the
 licensee that it is not a competitor of Gaussian, Inc. and that
 it will not use this program in any manner prohibited above.
 ---------------------------------------------------------------
  

 Cite this work as:
 Gaussian 16, Revision C.01,
 M. J. Frisch, G. W. Trucks, H. B. Schlegel, G. E. Scuseria, 
 M. A. Robb, J. R. Cheeseman, G. Scalmani, V. Barone, 
 G. A. Petersson, H. Nakatsuji, X. Li, M. Caricato, A. V. Marenich, 
 J. Bloino, B. G. Janesko, R. Gomperts, B. Mennucci, H. P. Hratchian, 
 J. V. Ortiz, A. F. Izmaylov, J. L. Sonnenberg, D. Williams-Young, 
 F. Ding, F. Lipparini, F. Egidi, J. Goings, B. Peng, A. Petrone, 
 T. Henderson, D. Ranasinghe, V. G. Zakrzewski, J. Gao, N. Rega, 
 G. Zheng, W. Liang, M. Hada, M. Ehara, K. Toyota, R. Fukuda, 
 J. Hasegawa, M. Ishida, T. Nakajima, Y. Honda, O. Kitao, H. Nakai, 
 T. Vreven, K. Throssell, J. A. Montgomery, Jr., J. E. Peralta, 
 F. Ogliaro, M. J. Bearpark, J. J. Heyd, E. N. Brothers, K. N. Kudin, 
 V. N. Staroverov, T. A. Keith, R. Kobayashi, J. Normand, 
 K. Raghavachari, A. P. Rendell, J. C. Burant, S. S. Iyengar, 
 J. Tomasi, M. Cossi, J. M. Millam, M. Klene, C. Adamo, R. Cammi, 
 J. W. Ochterski, R. L. Martin, K. Morokuma, O. Farkas, 
 J. B. Foresman, and D. J. Fox, Gaussian, Inc., Wallingford CT, 2019.
 
 ******************************************
 Gaussian 16:  ES64L-G16RevC.01  3-Jul-2019
                22-Feb-2021 
 ******************************************
 %chk=BXWNKGSJHAJOGX-UHFFFAOYSA-N.chk
 %NProcShared=32
 Will use up to   32 processors via shared memory.
 -------------------------------------------------------------
 #P BP86/TZVP EmpiricalDispersion=GD3 SCRF=(Solvent=Water) Opt
 -------------------------------------------------------------
 1/18=20,19=15,26=3,38=1/1,3;
 2/9=110,12=2,17=6,18=5,40=1/2;
 3/5=19,7=101,11=2,25=1,30=1,70=2201,71=1,72=1,74=404,124=31/1,2,3;
 4//1;
 5/5=2,38=5,53=1/2;
 6/7=2,8=2,9=2,10=2,28=1/1;
 7//1,2,3,16;
 1/18=20,19=15,26=3/3(2);
 2/9=110/2;
 99//99;
 2/9=110/2;
 3/5=19,7=101,11=2,25=1,30=1,70=2205,71=1,72=1,74=404,124=31/1,2,3;
 4/5=5,16=3,69=1/1;
 5/5=2,38=5,53=1/2;
 7//1,2,3,16;
 1/18=20,19=15,26=3/3(-5);
 2/9=110/2;
 6/7=2,8=2,9=2,10=2,19=2,28=1/1;
 99/9=1/99;
 Leave Link    1 at Mon Feb 22 20:57:19 2021, MaxMem=           0 cpu:               2.2 elap:               0.2
 (Enter /sw/arch/RedHatEnterpriseServer7/EB_production/2019/software/Gaussian/g16.c01/l101.exe)
 -------------------------------------
 Particle #BXWNKGSJHAJOGX-UHFFFAOYSA-N
 -------------------------------------
 Symbolic Z-matrix:
 Charge =  0 Multiplicity = 1
 C                    -5.00846   10.90725   14.35673 
 C                    -4.64908   9.40419   14.42374 
 C                    -4.11672   8.84708   13.07615 
 C                    -3.75559   7.33553   13.1445 
 C                    -3.2233    6.78444   11.79193 
 C                    -2.85823   5.27496   11.84491 
 C                    -2.32824   4.73903   10.48713 
 C                    -1.96414   3.23086   10.54232 
 C                    -1.43364   2.69182   9.18547 
 C                    -1.07039   1.18296   9.24417 
 C                    -0.54006   0.64461   7.88731 
 C                    -0.17607  -0.86418   7.94341 
 C                     0.35519  -1.40748   6.58765 
 C                     0.71823  -2.91734   6.64795 
 C                     1.25026  -3.46889   5.29669 
 C                     1.60831  -4.97124   5.36766 
 O                     2.08873  -5.42215   4.10659 
 H                    -5.37599   11.24249   15.32988 
 H                    -4.12966   11.49994   14.09655 
 H                    -5.78894   11.0817   13.61397 
 H                    -5.54318   8.84805   14.71849 
 H                    -3.89082   9.26455   15.19906 
 H                    -3.22567   9.41118   12.78559 
 H                    -4.87834   8.9946    12.30492 
 H                    -2.99359   7.18707   13.91526 
 H                    -4.64628   6.77049   13.43459 
 H                    -3.98719   6.93673   11.02448 
 H                    -2.33458   7.3533    11.50512 
 H                    -3.74588   4.70438   12.1301 
 H                    -2.09356   5.12087   12.61065 
 H                    -3.09183   4.89132   9.71955 
 H                    -1.43967   5.30777   10.20006 
 H                    -2.85186   2.65931   10.8272 
 H                    -1.19884   3.07597   11.30796 
 H                    -0.54451   3.26073   8.89877 
 H                    -2.19791   2.84396   8.4179 
 H                    -1.95926   0.61368   9.53061 
 H                    -0.30602   1.03041   10.01143 
 H                    -1.30487   0.79773   7.12085 
 H                     0.34849   1.21448   7.60171 
 H                    -1.06521  -1.43341   8.23063 
 H                     0.58808  -1.01668   8.71147 
 H                    -0.40923  -1.25496   5.81948 
 H                     1.24458  -0.83809   6.30048 
 H                    -0.17247  -3.48314   6.93603 
 H                     1.48159  -3.06622   7.4171 
 H                     2.14367  -2.91139   5.00437 
 H                     0.49068  -3.32805   4.52361 
 H                     0.72855  -5.55817   5.63768 
 H                     2.38197  -5.1414    6.11856 
 H                     2.28835  -6.37225   4.24365 
 
 ITRead=  0  0  0  0  0  0  0  0  0  0  0  0  0  0  0  0  0  0  0  0
 ITRead=  0  0  0  0  0  0  0  0  0  0  0  0  0  0  0  0  0  0  0  0
 ITRead=  0  0  0  0  0  0  0  0  0  0  0
 MicOpt= -1 -1 -1 -1 -1 -1 -1 -1 -1 -1 -1 -1 -1 -1 -1 -1 -1 -1 -1 -1
 MicOpt= -1 -1 -1 -1 -1 -1 -1 -1 -1 -1 -1 -1 -1 -1 -1 -1 -1 -1 -1 -1
 MicOpt= -1 -1 -1 -1 -1 -1 -1 -1 -1 -1 -1
 NAtoms=     51 NQM=       51 NQMF=       0 NMMI=      0 NMMIF=      0
                NMic=       0 NMicF=      0.
                    Isotopes and Nuclear Properties:
 (Nuclear quadrupole moments (NQMom) in fm**2, nuclear magnetic moments (NMagM)
  in nuclear magnetons)

  Atom         1           2           3           4           5           6           7           8           9          10
 IAtWgt=          12          12          12          12          12          12          12          12          12          12
 AtmWgt=  12.0000000  12.0000000  12.0000000  12.0000000  12.0000000  12.0000000  12.0000000  12.0000000  12.0000000  12.0000000
 NucSpn=           0           0           0           0           0           0           0           0           0           0
 AtZEff=  -0.0000000  -0.0000000  -0.0000000  -0.0000000  -0.0000000  -0.0000000  -0.0000000  -0.0000000  -0.0000000  -0.0000000
 NQMom=    0.0000000   0.0000000   0.0000000   0.0000000   0.0000000   0.0000000   0.0000000   0.0000000   0.0000000   0.0000000
 NMagM=    0.0000000   0.0000000   0.0000000   0.0000000   0.0000000   0.0000000   0.0000000   0.0000000   0.0000000   0.0000000
 AtZNuc=   6.0000000   6.0000000   6.0000000   6.0000000   6.0000000   6.0000000   6.0000000   6.0000000   6.0000000   6.0000000

  Atom        11          12          13          14          15          16          17          18          19          20
 IAtWgt=          12          12          12          12          12          12          16           1           1           1
 AtmWgt=  12.0000000  12.0000000  12.0000000  12.0000000  12.0000000  12.0000000  15.9949146   1.0078250   1.0078250   1.0078250
 NucSpn=           0           0           0           0           0           0           0           1           1           1
 AtZEff=  -0.0000000  -0.0000000  -0.0000000  -0.0000000  -0.0000000  -0.0000000  -0.0000000  -0.0000000  -0.0000000  -0.0000000
 NQMom=    0.0000000   0.0000000   0.0000000   0.0000000   0.0000000   0.0000000   0.0000000   0.0000000   0.0000000   0.0000000
 NMagM=    0.0000000   0.0000000   0.0000000   0.0000000   0.0000000   0.0000000   0.0000000   2.7928460   2.7928460   2.7928460
 AtZNuc=   6.0000000   6.0000000   6.0000000   6.0000000   6.0000000   6.0000000   8.0000000   1.0000000   1.0000000   1.0000000

  Atom        21          22          23          24          25          26          27          28          29          30
 IAtWgt=           1           1           1           1           1           1           1           1           1           1
 AtmWgt=   1.0078250   1.0078250   1.0078250   1.0078250   1.0078250   1.0078250   1.0078250   1.0078250   1.0078250   1.0078250
 NucSpn=           1           1           1           1           1           1           1           1           1           1
 AtZEff=  -0.0000000  -0.0000000  -0.0000000  -0.0000000  -0.0000000  -0.0000000  -0.0000000  -0.0000000  -0.0000000  -0.0000000
 NQMom=    0.0000000   0.0000000   0.0000000   0.0000000   0.0000000   0.0000000   0.0000000   0.0000000   0.0000000   0.0000000
 NMagM=    2.7928460   2.7928460   2.7928460   2.7928460   2.7928460   2.7928460   2.7928460   2.7928460   2.7928460   2.7928460
 AtZNuc=   1.0000000   1.0000000   1.0000000   1.0000000   1.0000000   1.0000000   1.0000000   1.0000000   1.0000000   1.0000000

  Atom        31          32          33          34          35          36          37          38          39          40
 IAtWgt=           1           1           1           1           1           1           1           1           1           1
 AtmWgt=   1.0078250   1.0078250   1.0078250   1.0078250   1.0078250   1.0078250   1.0078250   1.0078250   1.0078250   1.0078250
 NucSpn=           1           1           1           1           1           1           1           1           1           1
 AtZEff=  -0.0000000  -0.0000000  -0.0000000  -0.0000000  -0.0000000  -0.0000000  -0.0000000  -0.0000000  -0.0000000  -0.0000000
 NQMom=    0.0000000   0.0000000   0.0000000   0.0000000   0.0000000   0.0000000   0.0000000   0.0000000   0.0000000   0.0000000
 NMagM=    2.7928460   2.7928460   2.7928460   2.7928460   2.7928460   2.7928460   2.7928460   2.7928460   2.7928460   2.7928460
 AtZNuc=   1.0000000   1.0000000   1.0000000   1.0000000   1.0000000   1.0000000   1.0000000   1.0000000   1.0000000   1.0000000

  Atom        41          42          43          44          45          46          47          48          49          50
 IAtWgt=           1           1           1           1           1           1           1           1           1           1
 AtmWgt=   1.0078250   1.0078250   1.0078250   1.0078250   1.0078250   1.0078250   1.0078250   1.0078250   1.0078250   1.0078250
 NucSpn=           1           1           1           1           1           1           1           1           1           1
 AtZEff=  -0.0000000  -0.0000000  -0.0000000  -0.0000000  -0.0000000  -0.0000000  -0.0000000  -0.0000000  -0.0000000  -0.0000000
 NQMom=    0.0000000   0.0000000   0.0000000   0.0000000   0.0000000   0.0000000   0.0000000   0.0000000   0.0000000   0.0000000
 NMagM=    2.7928460   2.7928460   2.7928460   2.7928460   2.7928460   2.7928460   2.7928460   2.7928460   2.7928460   2.7928460
 AtZNuc=   1.0000000   1.0000000   1.0000000   1.0000000   1.0000000   1.0000000   1.0000000   1.0000000   1.0000000   1.0000000

  Atom        51
 IAtWgt=           1
 AtmWgt=   1.0078250
 NucSpn=           1
 AtZEff=  -0.0000000
 NQMom=    0.0000000
 NMagM=    2.7928460
 AtZNuc=   1.0000000
 Leave Link  101 at Mon Feb 22 20:57:19 2021, MaxMem=   104857600 cpu:               3.4 elap:               0.1
 (Enter /sw/arch/RedHatEnterpriseServer7/EB_production/2019/software/Gaussian/g16.c01/l103.exe)

 GradGradGradGradGradGradGradGradGradGradGradGradGradGradGradGradGradGrad
 Berny optimization.
 Initialization pass.
                           ----------------------------
                           !    Initial Parameters    !
                           ! (Angstroms and Degrees)  !
 --------------------------                            --------------------------
 ! Name  Definition              Value          Derivative Info.                !
 --------------------------------------------------------------------------------
 ! R1    R(1,2)                  1.5469         estimate D2E/DX2                !
 ! R2    R(1,18)                 1.0929         estimate D2E/DX2                !
 ! R3    R(1,19)                 1.0915         estimate D2E/DX2                !
 ! R4    R(1,20)                 1.0915         estimate D2E/DX2                !
 ! R5    R(2,3)                  1.5523         estimate D2E/DX2                !
 ! R6    R(2,21)                 1.0934         estimate D2E/DX2                !
 ! R7    R(2,22)                 1.0934         estimate D2E/DX2                !
 ! R8    R(3,4)                  1.5556         estimate D2E/DX2                !
 ! R9    R(3,23)                 1.0939         estimate D2E/DX2                !
 ! R10   R(3,24)                 1.0939         estimate D2E/DX2                !
 ! R11   R(4,5)                  1.5545         estimate D2E/DX2                !
 ! R12   R(4,25)                 1.094          estimate D2E/DX2                !
 ! R13   R(4,26)                 1.094          estimate D2E/DX2                !
 ! R14   R(5,6)                  1.5539         estimate D2E/DX2                !
 ! R15   R(5,27)                 1.0935         estimate D2E/DX2                !
 ! R16   R(5,28)                 1.0935         estimate D2E/DX2                !
 ! R17   R(6,7)                  1.553          estimate D2E/DX2                !
 ! R18   R(6,29)                 1.0931         estimate D2E/DX2                !
 ! R19   R(6,30)                 1.0931         estimate D2E/DX2                !
 ! R20   R(7,8)                  1.5525         estimate D2E/DX2                !
 ! R21   R(7,31)                 1.0934         estimate D2E/DX2                !
 ! R22   R(7,32)                 1.0934         estimate D2E/DX2                !
 ! R23   R(8,9)                  1.5534         estimate D2E/DX2                !
 ! R24   R(8,33)                 1.0936         estimate D2E/DX2                !
 ! R25   R(8,34)                 1.0936         estimate D2E/DX2                !
 ! R26   R(9,10)                 1.5531         estimate D2E/DX2                !
 ! R27   R(9,35)                 1.0938         estimate D2E/DX2                !
 ! R28   R(9,36)                 1.0938         estimate D2E/DX2                !
 ! R29   R(10,11)                1.5531         estimate D2E/DX2                !
 ! R30   R(10,37)                1.0937         estimate D2E/DX2                !
 ! R31   R(10,38)                1.0937         estimate D2E/DX2                !
 ! R32   R(11,12)                1.5531         estimate D2E/DX2                !
 ! R33   R(11,39)                1.0935         estimate D2E/DX2                !
 ! R34   R(11,40)                1.0935         estimate D2E/DX2                !
 ! R35   R(12,13)                1.5542         estimate D2E/DX2                !
 ! R36   R(12,41)                1.0941         estimate D2E/DX2                !
 ! R37   R(12,42)                1.0941         estimate D2E/DX2                !
 ! R38   R(13,14)                1.5541         estimate D2E/DX2                !
 ! R39   R(13,43)                1.0944         estimate D2E/DX2                !
 ! R40   R(13,44)                1.0944         estimate D2E/DX2                !
 ! R41   R(14,15)                1.5534         estimate D2E/DX2                !
 ! R42   R(14,45)                1.0938         estimate D2E/DX2                !
 ! R43   R(14,46)                1.0938         estimate D2E/DX2                !
 ! R44   R(15,16)                1.5461         estimate D2E/DX2                !
 ! R45   R(15,47)                1.0929         estimate D2E/DX2                !
 ! R46   R(15,48)                1.0929         estimate D2E/DX2                !
 ! R47   R(16,17)                1.4228         estimate D2E/DX2                !
 ! R48   R(16,49)                1.0915         estimate D2E/DX2                !
 ! R49   R(16,50)                1.0915         estimate D2E/DX2                !
 ! R50   R(17,51)                0.9805         estimate D2E/DX2                !
 ! A1    A(2,1,18)             109.7309         estimate D2E/DX2                !
 ! A2    A(2,1,19)             110.5431         estimate D2E/DX2                !
 ! A3    A(2,1,20)             110.5434         estimate D2E/DX2                !
 ! A4    A(18,1,19)            108.4484         estimate D2E/DX2                !
 ! A5    A(18,1,20)            108.4483         estimate D2E/DX2                !
 ! A6    A(19,1,20)            109.0712         estimate D2E/DX2                !
 ! A7    A(1,2,3)              113.0033         estimate D2E/DX2                !
 ! A8    A(1,2,21)             108.4162         estimate D2E/DX2                !
 ! A9    A(1,2,22)             108.4163         estimate D2E/DX2                !
 ! A10   A(3,2,21)             109.3839         estimate D2E/DX2                !
 ! A11   A(3,2,22)             109.3839         estimate D2E/DX2                !
 ! A12   A(21,2,22)            108.117          estimate D2E/DX2                !
 ! A13   A(2,3,4)              112.9665         estimate D2E/DX2                !
 ! A14   A(2,3,23)             108.9572         estimate D2E/DX2                !
 ! A15   A(2,3,24)             108.9575         estimate D2E/DX2                !
 ! A16   A(4,3,23)             108.8838         estimate D2E/DX2                !
 ! A17   A(4,3,24)             108.8837         estimate D2E/DX2                !
 ! A18   A(23,3,24)            108.0787         estimate D2E/DX2                !
 ! A19   A(3,4,5)              112.6895         estimate D2E/DX2                !
 ! A20   A(3,4,25)             108.9369         estimate D2E/DX2                !
 ! A21   A(3,4,26)             108.9367         estimate D2E/DX2                !
 ! A22   A(5,4,25)             109.0512         estimate D2E/DX2                !
 ! A23   A(5,4,26)             109.0511         estimate D2E/DX2                !
 ! A24   A(25,4,26)            108.0711         estimate D2E/DX2                !
 ! A25   A(4,5,6)              113.2759         estimate D2E/DX2                !
 ! A26   A(4,5,27)             108.7893         estimate D2E/DX2                !
 ! A27   A(4,5,28)             108.7895         estimate D2E/DX2                !
 ! A28   A(6,5,27)             108.8652         estimate D2E/DX2                !
 ! A29   A(6,5,28)             108.8661         estimate D2E/DX2                !
 ! A30   A(27,5,28)            108.1336         estimate D2E/DX2                !
 ! A31   A(5,6,7)              112.6814         estimate D2E/DX2                !
 ! A32   A(5,6,29)             108.9766         estimate D2E/DX2                !
 ! A33   A(5,6,30)             108.9762         estimate D2E/DX2                !
 ! A34   A(7,6,29)             108.9724         estimate D2E/DX2                !
 ! A35   A(7,6,30)             108.9716         estimate D2E/DX2                !
 ! A36   A(29,6,30)            108.1633         estimate D2E/DX2                !
 ! A37   A(6,7,8)              112.5948         estimate D2E/DX2                !
 ! A38   A(6,7,31)             109.1105         estimate D2E/DX2                !
 ! A39   A(6,7,32)             109.1111         estimate D2E/DX2                !
 ! A40   A(8,7,31)             108.9086         estimate D2E/DX2                !
 ! A41   A(8,7,32)             108.9089         estimate D2E/DX2                !
 ! A42   A(31,7,32)            108.1074         estimate D2E/DX2                !
 ! A43   A(7,8,9)              112.7149         estimate D2E/DX2                !
 ! A44   A(7,8,33)             109.0633         estimate D2E/DX2                !
 ! A45   A(7,8,34)             109.0633         estimate D2E/DX2                !
 ! A46   A(9,8,33)             108.8693         estimate D2E/DX2                !
 ! A47   A(9,8,34)             108.8688         estimate D2E/DX2                !
 ! A48   A(33,8,34)            108.1604         estimate D2E/DX2                !
 ! A49   A(8,9,10)             112.581          estimate D2E/DX2                !
 ! A50   A(8,9,35)             109.0304         estimate D2E/DX2                !
 ! A51   A(8,9,36)             109.0301         estimate D2E/DX2                !
 ! A52   A(10,9,35)            108.9713         estimate D2E/DX2                !
 ! A53   A(10,9,36)            108.9704         estimate D2E/DX2                !
 ! A54   A(35,9,36)            108.1616         estimate D2E/DX2                !
 ! A55   A(9,10,11)            112.5571         estimate D2E/DX2                !
 ! A56   A(9,10,37)            108.9956         estimate D2E/DX2                !
 ! A57   A(9,10,38)            108.9947         estimate D2E/DX2                !
 ! A58   A(11,10,37)           109.0197         estimate D2E/DX2                !
 ! A59   A(11,10,38)           109.0193         estimate D2E/DX2                !
 ! A60   A(37,10,38)           108.159          estimate D2E/DX2                !
 ! A61   A(10,11,12)           112.6568         estimate D2E/DX2                !
 ! A62   A(10,11,39)           108.9644         estimate D2E/DX2                !
 ! A63   A(10,11,40)           108.9648         estimate D2E/DX2                !
 ! A64   A(12,11,39)           108.9811         estimate D2E/DX2                !
 ! A65   A(12,11,40)           108.9814         estimate D2E/DX2                !
 ! A66   A(39,11,40)           108.1954         estimate D2E/DX2                !
 ! A67   A(11,12,13)           112.8427         estimate D2E/DX2                !
 ! A68   A(11,12,41)           108.9322         estimate D2E/DX2                !
 ! A69   A(11,12,42)           108.9321         estimate D2E/DX2                !
 ! A70   A(13,12,41)           108.9604         estimate D2E/DX2                !
 ! A71   A(13,12,42)           108.9598         estimate D2E/DX2                !
 ! A72   A(41,12,42)           108.1059         estimate D2E/DX2                !
 ! A73   A(12,13,14)           112.6831         estimate D2E/DX2                !
 ! A74   A(12,13,43)           108.9548         estimate D2E/DX2                !
 ! A75   A(12,13,44)           108.9547         estimate D2E/DX2                !
 ! A76   A(14,13,43)           109.0146         estimate D2E/DX2                !
 ! A77   A(14,13,44)           109.015          estimate D2E/DX2                !
 ! A78   A(43,13,44)           108.1169         estimate D2E/DX2                !
 ! A79   A(13,14,15)           113.0297         estimate D2E/DX2                !
 ! A80   A(13,14,45)           108.817          estimate D2E/DX2                !
 ! A81   A(13,14,46)           108.8172         estimate D2E/DX2                !
 ! A82   A(15,14,45)           108.9244         estimate D2E/DX2                !
 ! A83   A(15,14,46)           108.924          estimate D2E/DX2                !
 ! A84   A(45,14,46)           108.2208         estimate D2E/DX2                !
 ! A85   A(14,15,16)           112.6065         estimate D2E/DX2                !
 ! A86   A(14,15,47)           109.3608         estimate D2E/DX2                !
 ! A87   A(14,15,48)           109.3607         estimate D2E/DX2                !
 ! A88   A(16,15,47)           108.5813         estimate D2E/DX2                !
 ! A89   A(16,15,48)           108.5813         estimate D2E/DX2                !
 ! A90   A(47,15,48)           108.2528         estimate D2E/DX2                !
 ! A91   A(15,16,17)           110.2102         estimate D2E/DX2                !
 ! A92   A(15,16,49)           110.3173         estimate D2E/DX2                !
 ! A93   A(15,16,50)           110.3175         estimate D2E/DX2                !
 ! A94   A(17,16,49)           108.7234         estimate D2E/DX2                !
 ! A95   A(17,16,50)           108.7241         estimate D2E/DX2                !
 ! A96   A(49,16,50)           108.499          estimate D2E/DX2                !
 ! A97   A(16,17,51)           104.5925         estimate D2E/DX2                !
 ! D1    D(18,1,2,3)          -179.9999         estimate D2E/DX2                !
 ! D2    D(18,1,2,21)           58.5746         estimate D2E/DX2                !
 ! D3    D(18,1,2,22)          -58.5742         estimate D2E/DX2                !
 ! D4    D(19,1,2,3)           -60.4339         estimate D2E/DX2                !
 ! D5    D(19,1,2,21)          178.1405         estimate D2E/DX2                !
 ! D6    D(19,1,2,22)           60.9917         estimate D2E/DX2                !
 ! D7    D(20,1,2,3)            60.4342         estimate D2E/DX2                !
 ! D8    D(20,1,2,21)          -60.9914         estimate D2E/DX2                !
 ! D9    D(20,1,2,22)         -178.1402         estimate D2E/DX2                !
 ! D10   D(1,2,3,4)           -180.0            estimate D2E/DX2                !
 ! D11   D(1,2,3,23)            58.8528         estimate D2E/DX2                !
 ! D12   D(1,2,3,24)           -58.8527         estimate D2E/DX2                !
 ! D13   D(21,2,3,4)           -59.1226         estimate D2E/DX2                !
 ! D14   D(21,2,3,23)          179.7302         estimate D2E/DX2                !
 ! D15   D(21,2,3,24)           62.0247         estimate D2E/DX2                !
 ! D16   D(22,2,3,4)            59.1224         estimate D2E/DX2                !
 ! D17   D(22,2,3,23)          -62.0248         estimate D2E/DX2                !
 ! D18   D(22,2,3,24)         -179.7303         estimate D2E/DX2                !
 ! D19   D(2,3,4,5)            180.0            estimate D2E/DX2                !
 ! D20   D(2,3,4,25)           -58.8364         estimate D2E/DX2                !
 ! D21   D(2,3,4,26)            58.8366         estimate D2E/DX2                !
 ! D22   D(23,3,4,5)           -58.8112         estimate D2E/DX2                !
 ! D23   D(23,3,4,25)           62.3524         estimate D2E/DX2                !
 ! D24   D(23,3,4,26)         -179.9745         estimate D2E/DX2                !
 ! D25   D(24,3,4,5)            58.8109         estimate D2E/DX2                !
 ! D26   D(24,3,4,25)          179.9745         estimate D2E/DX2                !
 ! D27   D(24,3,4,26)          -62.3525         estimate D2E/DX2                !
 ! D28   D(3,4,5,6)           -179.9997         estimate D2E/DX2                !
 ! D29   D(3,4,5,27)           -58.7911         estimate D2E/DX2                !
 ! D30   D(3,4,5,28)            58.7905         estimate D2E/DX2                !
 ! D31   D(25,4,5,6)            58.9018         estimate D2E/DX2                !
 ! D32   D(25,4,5,27)         -179.8895         estimate D2E/DX2                !
 ! D33   D(25,4,5,28)          -62.308          estimate D2E/DX2                !
 ! D34   D(26,4,5,6)           -58.9016         estimate D2E/DX2                !
 ! D35   D(26,4,5,27)           62.307          estimate D2E/DX2                !
 ! D36   D(26,4,5,28)          179.8886         estimate D2E/DX2                !
 ! D37   D(4,5,6,7)           -179.9998         estimate D2E/DX2                !
 ! D38   D(4,5,6,29)            58.914          estimate D2E/DX2                !
 ! D39   D(4,5,6,30)           -58.9149         estimate D2E/DX2                !
 ! D40   D(27,5,6,7)            58.8343         estimate D2E/DX2                !
 ! D41   D(27,5,6,29)          -62.2519         estimate D2E/DX2                !
 ! D42   D(27,5,6,30)          179.9192         estimate D2E/DX2                !
 ! D43   D(28,5,6,7)           -58.8331         estimate D2E/DX2                !
 ! D44   D(28,5,6,29)         -179.9193         estimate D2E/DX2                !
 ! D45   D(28,5,6,30)           62.2518         estimate D2E/DX2                !
 ! D46   D(5,6,7,8)            179.9999         estimate D2E/DX2                !
 ! D47   D(5,6,7,31)           -58.9583         estimate D2E/DX2                !
 ! D48   D(5,6,7,32)            58.9573         estimate D2E/DX2                !
 ! D49   D(29,6,7,8)           -58.9114         estimate D2E/DX2                !
 ! D50   D(29,6,7,31)           62.1304         estimate D2E/DX2                !
 ! D51   D(29,6,7,32)         -179.9541         estimate D2E/DX2                !
 ! D52   D(30,6,7,8)            58.9124         estimate D2E/DX2                !
 ! D53   D(30,6,7,31)          179.9542         estimate D2E/DX2                !
 ! D54   D(30,6,7,32)          -62.1303         estimate D2E/DX2                !
 ! D55   D(6,7,8,9)            179.9999         estimate D2E/DX2                !
 ! D56   D(6,7,8,33)            58.962          estimate D2E/DX2                !
 ! D57   D(6,7,8,34)           -58.9628         estimate D2E/DX2                !
 ! D58   D(31,7,8,9)            58.8427         estimate D2E/DX2                !
 ! D59   D(31,7,8,33)          -62.1952         estimate D2E/DX2                !
 ! D60   D(31,7,8,34)          179.8801         estimate D2E/DX2                !
 ! D61   D(32,7,8,9)           -58.842          estimate D2E/DX2                !
 ! D62   D(32,7,8,33)         -179.8799         estimate D2E/DX2                !
 ! D63   D(32,7,8,34)           62.1953         estimate D2E/DX2                !
 ! D64   D(7,8,9,10)          -179.9999         estimate D2E/DX2                !
 ! D65   D(7,8,9,35)            58.9436         estimate D2E/DX2                !
 ! D66   D(7,8,9,36)           -58.9447         estimate D2E/DX2                !
 ! D67   D(33,8,9,10)          -58.8515         estimate D2E/DX2                !
 ! D68   D(33,8,9,35)         -179.908          estimate D2E/DX2                !
 ! D69   D(33,8,9,36)           62.2038         estimate D2E/DX2                !
 ! D70   D(34,8,9,10)           58.8519         estimate D2E/DX2                !
 ! D71   D(34,8,9,35)          -62.2046         estimate D2E/DX2                !
 ! D72   D(34,8,9,36)          179.9072         estimate D2E/DX2                !
 ! D73   D(8,9,10,11)         -180.0            estimate D2E/DX2                !
 ! D74   D(8,9,10,37)           58.922          estimate D2E/DX2                !
 ! D75   D(8,9,10,38)          -58.923          estimate D2E/DX2                !
 ! D76   D(35,9,10,11)         -58.9096         estimate D2E/DX2                !
 ! D77   D(35,9,10,37)        -179.9877         estimate D2E/DX2                !
 ! D78   D(35,9,10,38)          62.1673         estimate D2E/DX2                !
 ! D79   D(36,9,10,11)          58.9107         estimate D2E/DX2                !
 ! D80   D(36,9,10,37)         -62.1674         estimate D2E/DX2                !
 ! D81   D(36,9,10,38)         179.9876         estimate D2E/DX2                !
 ! D82   D(9,10,11,12)         179.9999         estimate D2E/DX2                !
 ! D83   D(9,10,11,39)         -58.9273         estimate D2E/DX2                !
 ! D84   D(9,10,11,40)          58.9267         estimate D2E/DX2                !
 ! D85   D(37,10,11,12)        -58.9358         estimate D2E/DX2                !
 ! D86   D(37,10,11,39)         62.137          estimate D2E/DX2                !
 ! D87   D(37,10,11,40)        179.9909         estimate D2E/DX2                !
 ! D88   D(38,10,11,12)         58.9371         estimate D2E/DX2                !
 ! D89   D(38,10,11,39)       -179.9901         estimate D2E/DX2                !
 ! D90   D(38,10,11,40)        -62.1362         estimate D2E/DX2                !
 ! D91   D(10,11,12,13)       -179.9999         estimate D2E/DX2                !
 ! D92   D(10,11,12,41)         58.8545         estimate D2E/DX2                !
 ! D93   D(10,11,12,42)        -58.8551         estimate D2E/DX2                !
 ! D94   D(39,11,12,13)         58.9368         estimate D2E/DX2                !
 ! D95   D(39,11,12,41)        -62.2088         estimate D2E/DX2                !
 ! D96   D(39,11,12,42)       -179.9184         estimate D2E/DX2                !
 ! D97   D(40,11,12,13)        -58.9361         estimate D2E/DX2                !
 ! D98   D(40,11,12,41)        179.9183         estimate D2E/DX2                !
 ! D99   D(40,11,12,42)         62.2087         estimate D2E/DX2                !
 ! D100  D(11,12,13,14)        179.9999         estimate D2E/DX2                !
 ! D101  D(11,12,13,43)        -58.8745         estimate D2E/DX2                !
 ! D102  D(11,12,13,44)         58.8739         estimate D2E/DX2                !
 ! D103  D(41,12,13,14)        -58.8704         estimate D2E/DX2                !
 ! D104  D(41,12,13,43)         62.2552         estimate D2E/DX2                !
 ! D105  D(41,12,13,44)       -179.9965         estimate D2E/DX2                !
 ! D106  D(42,12,13,14)         58.8709         estimate D2E/DX2                !
 ! D107  D(42,12,13,43)        179.9965         estimate D2E/DX2                !
 ! D108  D(42,12,13,44)        -62.2552         estimate D2E/DX2                !
 ! D109  D(12,13,14,15)        180.0            estimate D2E/DX2                !
 ! D110  D(12,13,14,45)         58.8583         estimate D2E/DX2                !
 ! D111  D(12,13,14,46)        -58.8586         estimate D2E/DX2                !
 ! D112  D(43,13,14,15)         58.9085         estimate D2E/DX2                !
 ! D113  D(43,13,14,45)        -62.2331         estimate D2E/DX2                !
 ! D114  D(43,13,14,46)       -179.9501         estimate D2E/DX2                !
 ! D115  D(44,13,14,15)        -58.9084         estimate D2E/DX2                !
 ! D116  D(44,13,14,45)        179.95           estimate D2E/DX2                !
 ! D117  D(44,13,14,46)         62.233          estimate D2E/DX2                !
 ! D118  D(13,14,15,16)        179.9998         estimate D2E/DX2                !
 ! D119  D(13,14,15,47)         59.1909         estimate D2E/DX2                !
 ! D120  D(13,14,15,48)        -59.1914         estimate D2E/DX2                !
 ! D121  D(45,14,15,16)        -58.9194         estimate D2E/DX2                !
 ! D122  D(45,14,15,47)       -179.7282         estimate D2E/DX2                !
 ! D123  D(45,14,15,48)         61.8894         estimate D2E/DX2                !
 ! D124  D(46,14,15,16)         58.9189         estimate D2E/DX2                !
 ! D125  D(46,14,15,47)        -61.8899         estimate D2E/DX2                !
 ! D126  D(46,14,15,48)        179.7277         estimate D2E/DX2                !
 ! D127  D(14,15,16,17)        179.9996         estimate D2E/DX2                !
 ! D128  D(14,15,16,49)         59.9298         estimate D2E/DX2                !
 ! D129  D(14,15,16,50)        -59.9297         estimate D2E/DX2                !
 ! D130  D(47,15,16,17)        -58.7462         estimate D2E/DX2                !
 ! D131  D(47,15,16,49)       -178.816          estimate D2E/DX2                !
 ! D132  D(47,15,16,50)         61.3245         estimate D2E/DX2                !
 ! D133  D(48,15,16,17)         58.7454         estimate D2E/DX2                !
 ! D134  D(48,15,16,49)        -61.3244         estimate D2E/DX2                !
 ! D135  D(48,15,16,50)        178.8162         estimate D2E/DX2                !
 ! D136  D(15,16,17,51)       -179.9997         estimate D2E/DX2                !
 ! D137  D(49,16,17,51)        -58.9724         estimate D2E/DX2                !
 ! D138  D(50,16,17,51)         58.9724         estimate D2E/DX2                !
 --------------------------------------------------------------------------------
 Trust Radius=3.00D-01 FncErr=1.00D-07 GrdErr=1.00D-06 EigMax=2.50D+02 EigMin=1.00D-04
 Number of steps in this run=    295 maximum allowed number of steps=    306.
 GradGradGradGradGradGradGradGradGradGradGradGradGradGradGradGradGradGrad

 Leave Link  103 at Mon Feb 22 20:57:19 2021, MaxMem=   104857600 cpu:               0.7 elap:               0.1
 (Enter /sw/arch/RedHatEnterpriseServer7/EB_production/2019/software/Gaussian/g16.c01/l202.exe)
 Stoichiometry    C16H34O
 Framework group  C1[X(C16H34O)]
 Deg. of freedom   147
 Full point group                 C1      NOp   1
 Largest Abelian subgroup         C1      NOp   1
 Largest concise Abelian subgroup C1      NOp   1
                         Standard orientation:                         
 ---------------------------------------------------------------------
 Center     Atomic      Atomic             Coordinates (Angstroms)
 Number     Number       Type             X           Y           Z
 ---------------------------------------------------------------------
      1          6           0      -10.334656   -0.396000    0.000002
      2          6           0       -9.048980    0.464158   -0.000001
      3          6           0       -7.750224   -0.386141   -0.000001
      4          6           0       -6.457862    0.479694   -0.000004
      5          6           0       -5.161433   -0.378064   -0.000003
      6          6           0       -3.861692    0.473574    0.000002
      7          6           0       -2.575511   -0.396723   -0.000003
      8          6           0       -1.278249    0.456097   -0.000000
      9          6           0        0.010117   -0.411745   -0.000002
     10          6           0        1.305884    0.444434    0.000003
     11          6           0        2.593647   -0.423786    0.000001
     12          6           0        3.890910    0.430140    0.000005
     13          6           0        5.182382   -0.434498   -0.000000
     14          6           0        6.478073    0.423578    0.000002
     15          6           0        7.774125   -0.432819   -0.000002
     16          6           0        9.056802    0.430333   -0.000006
     17          8           0       10.210045   -0.403005    0.000001
     18          1           0      -11.213377    0.253872    0.000000
     19          1           0      -10.372564   -1.028122   -0.888957
     20          1           0      -10.372569   -1.028121    0.888968
     21          1           0       -9.062653    1.105810    0.885256
     22          1           0       -9.062652    1.105808   -0.885256
     23          1           0       -7.746022   -1.028494   -0.885421
     24          1           0       -7.746016   -1.028500    0.885426
     25          1           0       -6.460957    1.122154   -0.885437
     26          1           0       -6.460957    1.122151    0.885430
     27          1           0       -5.163686   -1.019753    0.885395
     28          1           0       -5.163690   -1.019761   -0.885386
     29          1           0       -3.856889    1.114794    0.885231
     30          1           0       -3.856885    1.114786   -0.885236
     31          1           0       -2.577596   -1.038549    0.885150
     32          1           0       -2.577596   -1.038553   -0.885147
     33          1           0       -1.272545    1.097612    0.885607
     34          1           0       -1.272539    1.097612   -0.885611
     35          1           0        0.007906   -1.053421   -0.885810
     36          1           0        0.007911   -1.053413    0.885818
     37          1           0        1.308608    1.086076    0.885726
     38          1           0        1.308605    1.086065   -0.885729
     39          1           0        2.589922   -1.065035    0.885793
     40          1           0        2.589924   -1.065036   -0.885790
     41          1           0        3.893113    1.072424    0.885756
     42          1           0        3.893117    1.072424   -0.885752
     43          1           0        5.180121   -1.076857    0.886033
     44          1           0        5.180114   -1.076855   -0.886036
     45          1           0        6.476581    1.064805    0.886169
     46          1           0        6.476585    1.064813   -0.886164
     47          1           0        7.785267   -1.073163   -0.885595
     48          1           0        7.785271   -1.073166    0.885595
     49          1           0        9.084893    1.067430    0.885824
     50          1           0        9.084890    1.067428   -0.885825
     51          1           0       10.965997    0.221384    0.000004
 ---------------------------------------------------------------------
 Rotational constants (GHZ):           5.0342296           0.0505221           0.0502719
 Leave Link  202 at Mon Feb 22 20:57:20 2021, MaxMem=   104857600 cpu:               0.6 elap:               0.1
 (Enter /sw/arch/RedHatEnterpriseServer7/EB_production/2019/software/Gaussian/g16.c01/l301.exe)
 Standard basis: TZVP (5D, 7F)
 Ernie: Thresh=  0.10000D-02 Tol=  0.10000D-05 Strict=F.
 There are   544 symmetry adapted cartesian basis functions of A   symmetry.
 There are   527 symmetry adapted basis functions of A   symmetry.
   527 basis functions,   867 primitive gaussians,   544 cartesian basis functions
    69 alpha electrons       69 beta electrons
       nuclear repulsion energy      1080.4673063429 Hartrees.
 IExCor=  404 DFT=T Ex=B Corr=P86 ExCW=0 ScaHFX=  0.000000
 ScaDFX=  1.000000  1.000000  1.000000  1.000000 ScalE2=  1.000000  1.000000
 IRadAn=      5 IRanWt=     -1 IRanGd=            0 ICorTp=0 IEmpDi=131
 NAtoms=   51 NActive=   51 NUniq=   51 SFac= 1.00D+00 NAtFMM=   60 NAOKFM=F Big=F
 Integral buffers will be    131072 words long.
 Raffenetti 2 integral format.
 Two-electron integral symmetry is turned on.
 R6Disp:  Grimme-D3 Dispersion energy=       -0.0475672145 Hartrees.
 Nuclear repulsion after empirical dispersion term =     1080.4197391284 Hartrees.
 ------------------------------------------------------------------------------
 Polarizable Continuum Model (PCM)
 =================================
 Model                : PCM.
 Atomic radii         : UFF (Universal Force Field).
 Polarization charges : Total charges.
 Charge compensation  : None.
 Solution method      : On-the-fly selection.
 Cavity type          : Scaled VdW (van der Waals Surface) (Alpha=1.100).
 Cavity algorithm     : GePol (No added spheres)
                        Default sphere list used, NSphG=   51.
                        Lebedev-Laikov grids with approx.  5.0 points / Ang**2.
                        Smoothing algorithm: York/Karplus (Gamma=1.0000).
                        Polarization charges: spherical gaussians, with
                                              point-specific exponents (IZeta= 3).
                        Self-potential: point-specific (ISelfS= 7).
                        Self-field    : sphere-specific E.n sum rule (ISelfD= 2).
 1st derivatives      : Analytical E(r).r(x)/FMM algorithm (CHGder, D1EAlg=3).
                        Cavity 1st derivative terms included.
 Solvent              : Water, Eps=  78.355300 Eps(inf)=   1.777849
 ------------------------------------------------------------------------------
 GePol: Number of generator spheres                  =      51
 GePol: Total number of spheres                      =      51
 GePol: Number of exposed spheres                    =      51 (100.00%)
 GePol: Number of points                             =    3458
 GePol: Average weight of points                     =       0.13
 GePol: Minimum weight of points                     =   0.63D-09
 GePol: Maximum weight of points                     =    0.20577
 GePol: Number of points with low weight             =     181
 GePol: Fraction of low-weight points (<1% of avg)   =       5.23%
 GePol: Cavity surface area                          =    451.366 Ang**2
 GePol: Cavity volume                                =    455.406 Ang**3
 Leave Link  301 at Mon Feb 22 20:57:20 2021, MaxMem=   104857600 cpu:               2.8 elap:               0.1
 (Enter /sw/arch/RedHatEnterpriseServer7/EB_production/2019/software/Gaussian/g16.c01/l302.exe)
 NPDir=0 NMtPBC=     1 NCelOv=     1 NCel=       1 NClECP=     1 NCelD=      1
         NCelK=      1 NCelE2=     1 NClLst=     1 CellRange=     0.0.
 One-electron integrals computed using PRISM.
 One-electron integral symmetry used in STVInt
 PrsmSu:  requested number of processors reduced to:  24 ShMem   1 Linda.
 NBasis=   527 RedAO= T EigKep=  4.82D-05  NBF=   527
 NBsUse=   527 1.00D-06 EigRej= -1.00D+00 NBFU=   527
 Precomputing XC quadrature grid using
 IXCGrd= 4 IRadAn=           5 IRanWt=          -1 IRanGd=           0 AccXCQ= 0.00D+00.
 Generated NRdTot=       0 NPtTot=           0 NUsed=           0 NTot=          32
 NSgBfM=   459   459   459   459   459 MxSgAt=    51 MxSgA2=    51.
 Leave Link  302 at Mon Feb 22 20:57:21 2021, MaxMem=   104857600 cpu:              17.6 elap:               0.6
 (Enter /sw/arch/RedHatEnterpriseServer7/EB_production/2019/software/Gaussian/g16.c01/l303.exe)
 DipDrv:  MaxL=1.
 Leave Link  303 at Mon Feb 22 20:57:21 2021, MaxMem=   104857600 cpu:               3.1 elap:               0.1
 (Enter /sw/arch/RedHatEnterpriseServer7/EB_production/2019/software/Gaussian/g16.c01/l401.exe)
 ExpMin= 9.52D-02 ExpMax= 2.70D+04 ExpMxC= 9.22D+02 IAcc=3 IRadAn=         5 AccDes= 0.00D+00
 Harris functional with IExCor=  404 and IRadAn=       5 diagonalized for initial guess.
 HarFok:  IExCor=  404 AccDes= 0.00D+00 IRadAn=         5 IDoV= 1 UseB2=F ITyADJ=14
 ICtDFT=  3500011 ScaDFX=  1.000000  1.000000  1.000000  1.000000
 FoFCou: FMM=F IPFlag=           0 FMFlag=      100000 FMFlg1=           0
         NFxFlg=           0 DoJE=T BraDBF=F KetDBF=T FulRan=T
         wScrn=  0.000000 ICntrl=       500 IOpCl=  0 I1Cent=   200000004 NGrid=           0
         NMat0=    1 NMatS0=      1 NMatT0=    0 NMatD0=    1 NMtDS0=    0 NMtDT0=    0
 Petite list used in FoFCou.
 Harris En= -706.218603887897    
 JPrj=0 DoOrth=F DoCkMO=F.
 Leave Link  401 at Mon Feb 22 20:57:22 2021, MaxMem=   104857600 cpu:              33.5 elap:               1.1
 (Enter /sw/arch/RedHatEnterpriseServer7/EB_production/2019/software/Gaussian/g16.c01/l502.exe)
 Integral symmetry usage will be decided dynamically.
 Closed shell SCF:
 Using DIIS extrapolation, IDIIS=  1040.
 NGot=   104857600 LenX=   104241320 LenY=   103944840
 Requested convergence on RMS density matrix=1.00D-08 within 128 cycles.
 Requested convergence on MAX density matrix=1.00D-06.
 Requested convergence on             energy=1.00D-06.
 No special actions if energy rises.
 Fock matrices will be formed incrementally for  20 cycles.

 Cycle   1  Pass 1  IDiag  1:
 FoFJK:  IHMeth= 1 ICntrl=     500 DoSepK=F KAlg= 0 I1Cent=           0 FoldK=F
 IRaf= 580000000 NMat=       1 IRICut=       1 DoRegI=T DoRafI=F ISym2E= 0 IDoP0=0 IntGTp=1.
 FoFCou: FMM=F IPFlag=           0 FMFlag=      100000 FMFlg1=           0
         NFxFlg=           0 DoJE=T BraDBF=F KetDBF=F FulRan=T
         wScrn=  0.000000 ICntrl=       500 IOpCl=  0 I1Cent=           0 NGrid=           0
         NMat0=    1 NMatS0=      1 NMatT0=    0 NMatD0=    1 NMtDS0=    0 NMtDT0=    0
 Symmetry not used in FoFCou.
 Inv3:  Mode=1 IEnd=    35873292.
 Iteration    1 A*A^-1 deviation from unit magnitude is 3.11D-15 for    472.
 Iteration    1 A*A^-1 deviation from orthogonality  is 2.11D-15 for   2799    185.
 Iteration    1 A^-1*A deviation from unit magnitude is 3.33D-15 for   1872.
 Iteration    1 A^-1*A deviation from orthogonality  is 2.33D-15 for   3396   1276.
 E= -705.059281294004    
 DIIS: error= 4.46D-02 at cycle   1 NSaved=   1.
 NSaved= 1 IEnMin= 1 EnMin= -705.059281294004     IErMin= 1 ErrMin= 4.46D-02
 ErrMax= 4.46D-02  0.00D+00 EMaxC= 1.00D-01 BMatC= 5.71D-01 BMatP= 5.71D-01
 IDIUse=3 WtCom= 5.54D-01 WtEn= 4.46D-01
 Coeff-Com:  0.100D+01
 Coeff-En:   0.100D+01
 Coeff:      0.100D+01
 Gap=     0.170 Goal=   None    Shift=    0.000
 GapD=    0.170 DampG=1.000 DampE=0.500 DampFc=0.5000 IDamp=-1.
 Damping current iteration by 5.00D-01
 RMSDP=5.75D-03 MaxDP=8.93D-01              OVMax= 2.45D-01

 Cycle   2  Pass 1  IDiag  1:
 RMSU=  2.87D-03    CP:  9.92D-01
 E= -705.254375221280     Delta-E=       -0.195093927276 Rises=F Damp=T
 DIIS: error= 1.23D-02 at cycle   2 NSaved=   2.
 NSaved= 2 IEnMin= 2 EnMin= -705.254375221280     IErMin= 2 ErrMin= 1.23D-02
 ErrMax= 1.23D-02  0.00D+00 EMaxC= 1.00D-01 BMatC= 5.36D-02 BMatP= 5.71D-01
 IDIUse=3 WtCom= 8.77D-01 WtEn= 1.23D-01
 Coeff-Com:  0.197D+00 0.803D+00
 Coeff-En:   0.319D+00 0.681D+00
 Coeff:      0.212D+00 0.788D+00
 Gap=     0.264 Goal=   None    Shift=    0.000
 RMSDP=1.76D-03 MaxDP=3.28D-01 DE=-1.95D-01 OVMax= 1.44D-01

 Cycle   3  Pass 1  IDiag  1:
 RMSU=  6.89D-04    CP:  9.82D-01  4.39D-01
 E= -705.671455440094     Delta-E=       -0.417080218814 Rises=F Damp=F
 DIIS: error= 6.05D-03 at cycle   3 NSaved=   3.
 NSaved= 3 IEnMin= 3 EnMin= -705.671455440094     IErMin= 3 ErrMin= 6.05D-03
 ErrMax= 6.05D-03  0.00D+00 EMaxC= 1.00D-01 BMatC= 9.18D-03 BMatP= 5.36D-02
 IDIUse=3 WtCom= 9.40D-01 WtEn= 6.05D-02
 Coeff-Com:  0.639D-01 0.305D+00 0.631D+00
 Coeff-En:   0.000D+00 0.000D+00 0.100D+01
 Coeff:      0.600D-01 0.287D+00 0.653D+00
 Gap=     0.241 Goal=   None    Shift=    0.000
 RMSDP=6.45D-04 MaxDP=1.01D-01 DE=-4.17D-01 OVMax= 3.25D-02

 Cycle   4  Pass 1  IDiag  1:
 RMSU=  3.81D-04    CP:  9.92D-01  5.94D-01  6.25D-01
 E= -705.673104473964     Delta-E=       -0.001649033871 Rises=F Damp=F
 DIIS: error= 5.59D-03 at cycle   4 NSaved=   4.
 NSaved= 4 IEnMin= 4 EnMin= -705.673104473964     IErMin= 4 ErrMin= 5.59D-03
 ErrMax= 5.59D-03  0.00D+00 EMaxC= 1.00D-01 BMatC= 7.14D-03 BMatP= 9.18D-03
 IDIUse=3 WtCom= 9.44D-01 WtEn= 5.59D-02
 Coeff-Com:  0.145D-01 0.814D-01 0.457D+00 0.447D+00
 Coeff-En:   0.000D+00 0.000D+00 0.443D+00 0.557D+00
 Coeff:      0.137D-01 0.768D-01 0.456D+00 0.453D+00
 Gap=     0.249 Goal=   None    Shift=    0.000
 RMSDP=3.47D-04 MaxDP=5.49D-02 DE=-1.65D-03 OVMax= 1.56D-02

 Cycle   5  Pass 1  IDiag  1:
 RMSU=  9.58D-05    CP:  9.86D-01  5.12D-01  8.12D-01  4.98D-01
 E= -705.678164157473     Delta-E=       -0.005059683508 Rises=F Damp=F
 DIIS: error= 3.60D-04 at cycle   5 NSaved=   5.
 NSaved= 5 IEnMin= 5 EnMin= -705.678164157473     IErMin= 5 ErrMin= 3.60D-04
 ErrMax= 3.60D-04  0.00D+00 EMaxC= 1.00D-01 BMatC= 5.23D-05 BMatP= 7.14D-03
 IDIUse=3 WtCom= 9.96D-01 WtEn= 3.60D-03
 Coeff-Com:  0.228D-02 0.104D-01 0.120D+00 0.155D+00 0.712D+00
 Coeff-En:   0.000D+00 0.000D+00 0.000D+00 0.000D+00 0.100D+01
 Coeff:      0.227D-02 0.104D-01 0.120D+00 0.155D+00 0.713D+00
 Gap=     0.248 Goal=   None    Shift=    0.000
 RMSDP=2.88D-05 MaxDP=2.88D-03 DE=-5.06D-03 OVMax= 1.01D-03

 Cycle   6  Pass 1  IDiag  1:
 RMSU=  1.61D-05    CP:  9.86D-01  5.16D-01  8.06D-01  5.20D-01  8.12D-01
 E= -705.678202745966     Delta-E=       -0.000038588494 Rises=F Damp=F
 DIIS: error= 1.13D-04 at cycle   6 NSaved=   6.
 NSaved= 6 IEnMin= 6 EnMin= -705.678202745966     IErMin= 6 ErrMin= 1.13D-04
 ErrMax= 1.13D-04  0.00D+00 EMaxC= 1.00D-01 BMatC= 8.30D-06 BMatP= 5.23D-05
 IDIUse=3 WtCom= 9.99D-01 WtEn= 1.13D-03
 Coeff-Com:  0.105D-02 0.380D-02 0.583D-01 0.790D-01 0.418D+00 0.440D+00
 Coeff-En:   0.000D+00 0.000D+00 0.000D+00 0.000D+00 0.117D-01 0.988D+00
 Coeff:      0.105D-02 0.379D-02 0.582D-01 0.789D-01 0.417D+00 0.441D+00
 Gap=     0.248 Goal=   None    Shift=    0.000
 RMSDP=6.10D-06 MaxDP=3.99D-04 DE=-3.86D-05 OVMax= 4.08D-04

 Cycle   7  Pass 1  IDiag  1:
 RMSU=  4.61D-06    CP:  9.86D-01  5.15D-01  8.07D-01  5.18D-01  8.21D-01
                    CP:  7.95D-01
 E= -705.678210684115     Delta-E=       -0.000007938148 Rises=F Damp=F
 DIIS: error= 1.69D-05 at cycle   7 NSaved=   7.
 NSaved= 7 IEnMin= 7 EnMin= -705.678210684115     IErMin= 7 ErrMin= 1.69D-05
 ErrMax= 1.69D-05  0.00D+00 EMaxC= 1.00D-01 BMatC= 1.64D-07 BMatP= 8.30D-06
 IDIUse=1 WtCom= 1.00D+00 WtEn= 0.00D+00
 Coeff-Com:  0.210D-03 0.921D-04 0.598D-02 0.886D-02 0.575D-01 0.144D+00
 Coeff-Com:  0.783D+00
 Coeff:      0.210D-03 0.921D-04 0.598D-02 0.886D-02 0.575D-01 0.144D+00
 Coeff:      0.783D+00
 Gap=     0.248 Goal=   None    Shift=    0.000
 RMSDP=1.32D-06 MaxDP=5.48D-05 DE=-7.94D-06 OVMax= 6.39D-05

 Cycle   8  Pass 1  IDiag  1:
 RMSU=  9.72D-07    CP:  9.86D-01  5.15D-01  8.07D-01  5.19D-01  8.25D-01
                    CP:  8.02D-01  8.66D-01
 E= -705.678210832288     Delta-E=       -0.000000148173 Rises=F Damp=F
 DIIS: error= 4.25D-06 at cycle   8 NSaved=   8.
 NSaved= 8 IEnMin= 8 EnMin= -705.678210832288     IErMin= 8 ErrMin= 4.25D-06
 ErrMax= 4.25D-06  0.00D+00 EMaxC= 1.00D-01 BMatC= 1.31D-08 BMatP= 1.64D-07
 IDIUse=1 WtCom= 1.00D+00 WtEn= 0.00D+00
 Coeff-Com:  0.584D-04-0.103D-03 0.331D-03 0.652D-03 0.783D-02 0.430D-01
 Coeff-Com:  0.333D+00 0.615D+00
 Coeff:      0.584D-04-0.103D-03 0.331D-03 0.652D-03 0.783D-02 0.430D-01
 Coeff:      0.333D+00 0.615D+00
 Gap=     0.248 Goal=   None    Shift=    0.000
 RMSDP=3.82D-07 MaxDP=2.16D-05 DE=-1.48D-07 OVMax= 1.94D-05

 Cycle   9  Pass 1  IDiag  1:
 RMSU=  2.41D-07    CP:  9.86D-01  5.15D-01  8.07D-01  5.19D-01  8.25D-01
                    CP:  8.09D-01  8.80D-01  7.67D-01
 E= -705.678210882677     Delta-E=       -0.000000050389 Rises=F Damp=F
 DIIS: error= 2.24D-06 at cycle   9 NSaved=   9.
 NSaved= 9 IEnMin= 9 EnMin= -705.678210882677     IErMin= 9 ErrMin= 2.24D-06
 ErrMax= 2.24D-06  0.00D+00 EMaxC= 1.00D-01 BMatC= 2.83D-09 BMatP= 1.31D-08
 IDIUse=1 WtCom= 1.00D+00 WtEn= 0.00D+00
 Coeff-Com:  0.200D-04-0.623D-04-0.182D-03-0.215D-03 0.677D-03 0.146D-01
 Coeff-Com:  0.138D+00 0.368D+00 0.480D+00
 Coeff:      0.200D-04-0.623D-04-0.182D-03-0.215D-03 0.677D-03 0.146D-01
 Coeff:      0.138D+00 0.368D+00 0.480D+00
 Gap=     0.248 Goal=   None    Shift=    0.000
 RMSDP=1.10D-07 MaxDP=3.91D-06 DE=-5.04D-08 OVMax= 8.06D-06

 Cycle  10  Pass 1  IDiag  1:
 RMSU=  8.57D-08    CP:  9.86D-01  5.15D-01  8.07D-01  5.19D-01  8.25D-01
                    CP:  8.10D-01  8.83D-01  7.55D-01  7.50D-01
 E= -705.678210847618     Delta-E=        0.000000035059 Rises=F Damp=F
 DIIS: error= 2.87D-07 at cycle  10 NSaved=  10.
 NSaved=10 IEnMin= 9 EnMin= -705.678210882677     IErMin=10 ErrMin= 2.87D-07
 ErrMax= 2.87D-07  0.00D+00 EMaxC= 1.00D-01 BMatC= 4.38D-11 BMatP= 2.83D-09
 IDIUse=1 WtCom= 1.00D+00 WtEn= 0.00D+00
 Coeff-Com:  0.223D-05-0.101D-04-0.413D-04-0.769D-04-0.984D-04 0.174D-02
 Coeff-Com:  0.200D-01 0.735D-01 0.161D+00 0.744D+00
 Coeff:      0.223D-05-0.101D-04-0.413D-04-0.769D-04-0.984D-04 0.174D-02
 Coeff:      0.200D-01 0.735D-01 0.161D+00 0.744D+00
 Gap=     0.248 Goal=   None    Shift=    0.000
 RMSDP=2.36D-08 MaxDP=1.03D-06 DE= 3.51D-08 OVMax= 1.08D-06

 Cycle  11  Pass 1  IDiag  1:
 RMSU=  8.54D-09    CP:  9.86D-01  5.15D-01  8.07D-01  5.19D-01  8.25D-01
                    CP:  8.10D-01  8.83D-01  7.69D-01  7.56D-01  8.06D-01
 E= -705.678210847668     Delta-E=       -0.000000000051 Rises=F Damp=F
 DIIS: error= 9.42D-08 at cycle  11 NSaved=  11.
 NSaved=11 IEnMin= 9 EnMin= -705.678210882677     IErMin=11 ErrMin= 9.42D-08
 ErrMax= 9.42D-08  0.00D+00 EMaxC= 1.00D-01 BMatC= 4.54D-12 BMatP= 4.38D-11
 IDIUse=1 WtCom= 1.00D+00 WtEn= 0.00D+00
 Coeff-Com:  0.719D-06-0.419D-05-0.180D-04-0.374D-04-0.641D-04 0.630D-03
 Coeff-Com:  0.787D-02 0.318D-01 0.766D-01 0.405D+00 0.478D+00
 Coeff:      0.719D-06-0.419D-05-0.180D-04-0.374D-04-0.641D-04 0.630D-03
 Coeff:      0.787D-02 0.318D-01 0.766D-01 0.405D+00 0.478D+00
 Gap=     0.248 Goal=   None    Shift=    0.000
 RMSDP=4.29D-09 MaxDP=1.74D-07 DE=-5.07D-11 OVMax= 3.25D-07

 Error on total polarization charges =  0.02335
 SCF Done:  E(RB-P86) =  -705.678210848     A.U. after   11 cycles
            NFock= 11  Conv=0.43D-08     -V/T= 2.0055
 KE= 7.018508843719D+02 PE=-3.797375844932D+03 EE= 1.309427010584D+03
 Leave Link  502 at Mon Feb 22 20:58:06 2021, MaxMem=   104857600 cpu:            1370.9 elap:              44.3
 (Enter /sw/arch/RedHatEnterpriseServer7/EB_production/2019/software/Gaussian/g16.c01/l601.exe)
 Copying SCF densities to generalized density rwf, IOpCl= 0 IROHF=0.

 **********************************************************************

            Population analysis using the SCF Density.

 **********************************************************************

 Orbital symmetries:
       Occupied  (A) (A) (A) (A) (A) (A) (A) (A) (A) (A) (A) (A)
                 (A) (A) (A) (A) (A) (A) (A) (A) (A) (A) (A) (A)
                 (A) (A) (A) (A) (A) (A) (A) (A) (A) (A) (A) (A)
                 (A) (A) (A) (A) (A) (A) (A) (A) (A) (A) (A) (A)
                 (A) (A) (A) (A) (A) (A) (A) (A) (A) (A) (A) (A)
                 (A) (A) (A) (A) (A) (A) (A) (A) (A)
       Virtual   (A) (A) (A) (A) (A) (A) (A) (A) (A) (A) (A) (A)
                 (A) (A) (A) (A) (A) (A) (A) (A) (A) (A) (A) (A)
                 (A) (A) (A) (A) (A) (A) (A) (A) (A) (A) (A) (A)
                 (A) (A) (A) (A) (A) (A) (A) (A) (A) (A) (A) (A)
                 (A) (A) (A) (A) (A) (A) (A) (A) (A) (A) (A) (A)
                 (A) (A) (A) (A) (A) (A) (A) (A) (A) (A) (A) (A)
                 (A) (A) (A) (A) (A) (A) (A) (A) (A) (A) (A) (A)
                 (A) (A) (A) (A) (A) (A) (A) (A) (A) (A) (A) (A)
                 (A) (A) (A) (A) (A) (A) (A) (A) (A) (A) (A) (A)
                 (A) (A) (A) (A) (A) (A) (A) (A) (A) (A) (A) (A)
                 (A) (A) (A) (A) (A) (A) (A) (A) (A) (A) (A) (A)
                 (A) (A) (A) (A) (A) (A) (A) (A) (A) (A) (A) (A)
                 (A) (A) (A) (A) (A) (A) (A) (A) (A) (A) (A) (A)
                 (A) (A) (A) (A) (A) (A) (A) (A) (A) (A) (A) (A)
                 (A) (A) (A) (A) (A) (A) (A) (A) (A) (A) (A) (A)
                 (A) (A) (A) (A) (A) (A) (A) (A) (A) (A) (A) (A)
                 (A) (A) (A) (A) (A) (A) (A) (A) (A) (A) (A) (A)
                 (A) (A) (A) (A) (A) (A) (A) (A) (A) (A) (A) (A)
                 (A) (A) (A) (A) (A) (A) (A) (A) (A) (A) (A) (A)
                 (A) (A) (A) (A) (A) (A) (A) (A) (A) (A) (A) (A)
                 (A) (A) (A) (A) (A) (A) (A) (A) (A) (A) (A) (A)
                 (A) (A) (A) (A) (A) (A) (A) (A) (A) (A) (A) (A)
                 (A) (A) (A) (A) (A) (A) (A) (A) (A) (A) (A) (A)
                 (A) (A) (A) (A) (A) (A) (A) (A) (A) (A) (A) (A)
                 (A) (A) (A) (A) (A) (A) (A) (A) (A) (A) (A) (A)
                 (A) (A) (A) (A) (A) (A) (A) (A) (A) (A) (A) (A)
                 (A) (A) (A) (A) (A) (A) (A) (A) (A) (A) (A) (A)
                 (A) (A) (A) (A) (A) (A) (A) (A) (A) (A) (A) (A)
                 (A) (A) (A) (A) (A) (A) (A) (A) (A) (A) (A) (A)
                 (A) (A) (A) (A) (A) (A) (A) (A) (A) (A) (A) (A)
                 (A) (A) (A) (A) (A) (A) (A) (A) (A) (A) (A) (A)
                 (A) (A) (A) (A) (A) (A) (A) (A) (A) (A) (A) (A)
                 (A) (A) (A) (A) (A) (A) (A) (A) (A) (A) (A) (A)
                 (A) (A) (A) (A) (A) (A) (A) (A) (A) (A) (A) (A)
                 (A) (A) (A) (A) (A) (A) (A) (A) (A) (A) (A) (A)
                 (A) (A) (A) (A) (A) (A) (A) (A) (A) (A) (A) (A)
                 (A) (A) (A) (A) (A) (A) (A) (A) (A) (A) (A) (A)
                 (A) (A) (A) (A) (A) (A) (A) (A) (A) (A) (A) (A)
                 (A) (A)
 The electronic state is 1-A.
 Alpha  occ. eigenvalues --  -18.77001  -9.93656  -9.89294  -9.89278  -9.89002
 Alpha  occ. eigenvalues --   -9.88906  -9.88842  -9.88771  -9.88761  -9.88750
 Alpha  occ. eigenvalues --   -9.88743  -9.88734  -9.88726  -9.88724  -9.88716
 Alpha  occ. eigenvalues --   -9.88708  -9.88107  -0.93882  -0.73692  -0.73100
 Alpha  occ. eigenvalues --   -0.72092  -0.70658  -0.68812  -0.66633  -0.64137
 Alpha  occ. eigenvalues --   -0.61401  -0.58551  -0.55794  -0.53462  -0.52265
 Alpha  occ. eigenvalues --   -0.51887  -0.51725  -0.51263  -0.51165  -0.45954
 Alpha  occ. eigenvalues --   -0.44045  -0.43590  -0.42778  -0.41637  -0.40194
 Alpha  occ. eigenvalues --   -0.38518  -0.38484  -0.38345  -0.37423  -0.36732
 Alpha  occ. eigenvalues --   -0.36673  -0.35820  -0.34759  -0.34099  -0.33920
 Alpha  occ. eigenvalues --   -0.32918  -0.32219  -0.31295  -0.31153  -0.30398
 Alpha  occ. eigenvalues --   -0.30000  -0.29605  -0.29114  -0.28942  -0.28627
 Alpha  occ. eigenvalues --   -0.28590  -0.28422  -0.28337  -0.28303  -0.28204
 Alpha  occ. eigenvalues --   -0.28019  -0.27201  -0.24954  -0.23027
 Alpha virt. eigenvalues --    0.01781   0.01911   0.02263   0.02840   0.03555
 Alpha virt. eigenvalues --    0.04457   0.04745   0.04989   0.05450   0.05620
 Alpha virt. eigenvalues --    0.05723   0.06630   0.06737   0.07425   0.08297
 Alpha virt. eigenvalues --    0.08434   0.09426   0.09934   0.10394   0.10429
 Alpha virt. eigenvalues --    0.10724   0.11078   0.11442   0.11447   0.11842
 Alpha virt. eigenvalues --    0.11848   0.11971   0.12118   0.12231   0.12563
 Alpha virt. eigenvalues --    0.12785   0.12846   0.12970   0.13576   0.13960
 Alpha virt. eigenvalues --    0.14243   0.14860   0.14933   0.14968   0.16151
 Alpha virt. eigenvalues --    0.16260   0.16538   0.16648   0.17537   0.17956
 Alpha virt. eigenvalues --    0.18684   0.19163   0.19587   0.20643   0.22214
 Alpha virt. eigenvalues --    0.22482   0.23486   0.24002   0.24729   0.24993
 Alpha virt. eigenvalues --    0.25242   0.25512   0.25666   0.26061   0.26887
 Alpha virt. eigenvalues --    0.27216   0.27806   0.27982   0.27997   0.28378
 Alpha virt. eigenvalues --    0.28601   0.29257   0.29479   0.30090   0.30233
 Alpha virt. eigenvalues --    0.30510   0.31152   0.31608   0.33102   0.34422
 Alpha virt. eigenvalues --    0.35123   0.35220   0.35482   0.35893   0.36678
 Alpha virt. eigenvalues --    0.37174   0.37464   0.37788   0.37990   0.38757
 Alpha virt. eigenvalues --    0.39027   0.39067   0.39631   0.39834   0.40464
 Alpha virt. eigenvalues --    0.40774   0.41056   0.41601   0.41762   0.42190
 Alpha virt. eigenvalues --    0.42271   0.42684   0.42790   0.42802   0.43465
 Alpha virt. eigenvalues --    0.43580   0.44277   0.44614   0.45006   0.45127
 Alpha virt. eigenvalues --    0.45452   0.46457   0.46510   0.46996   0.47053
 Alpha virt. eigenvalues --    0.47290   0.47334   0.47482   0.48047   0.48382
 Alpha virt. eigenvalues --    0.48537   0.48722   0.48859   0.48966   0.49360
 Alpha virt. eigenvalues --    0.49617   0.49895   0.50448   0.50763   0.50952
 Alpha virt. eigenvalues --    0.51630   0.52024   0.53440   0.54692   0.55430
 Alpha virt. eigenvalues --    0.56076   0.56881   0.57228   0.58276   0.59389
 Alpha virt. eigenvalues --    0.60238   0.61968   0.63062   0.63482   0.63805
 Alpha virt. eigenvalues --    0.64496   0.65252   0.66469   0.68674   0.69988
 Alpha virt. eigenvalues --    0.71645   0.72742   0.76848   0.77792   0.77869
 Alpha virt. eigenvalues --    0.79652   0.85883   1.05455   1.06130   1.08218
 Alpha virt. eigenvalues --    1.09736   1.10090   1.13353   1.14779   1.15867
 Alpha virt. eigenvalues --    1.17097   1.17266   1.17553   1.18722   1.18897
 Alpha virt. eigenvalues --    1.18964   1.19469   1.19688   1.20467   1.20604
 Alpha virt. eigenvalues --    1.21275   1.21413   1.22147   1.22359   1.22898
 Alpha virt. eigenvalues --    1.23623   1.24061   1.24116   1.24353   1.24785
 Alpha virt. eigenvalues --    1.24838   1.24998   1.25020   1.25207   1.25230
 Alpha virt. eigenvalues --    1.26873   1.28103   1.28911   1.29636   1.30949
 Alpha virt. eigenvalues --    1.31940   1.32489   1.32496   1.32939   1.33222
 Alpha virt. eigenvalues --    1.34012   1.34583   1.35408   1.35770   1.36012
 Alpha virt. eigenvalues --    1.36183   1.36205   1.36420   1.37382   1.37696
 Alpha virt. eigenvalues --    1.37797   1.38616   1.38689   1.40872   1.41365
 Alpha virt. eigenvalues --    1.43113   1.43208   1.43741   1.44438   1.44439
 Alpha virt. eigenvalues --    1.44919   1.45362   1.45738   1.45991   1.47606
 Alpha virt. eigenvalues --    1.48487   1.49195   1.49819   1.50198   1.51014
 Alpha virt. eigenvalues --    1.51761   1.52917   1.55590   1.56074   1.56829
 Alpha virt. eigenvalues --    1.58533   1.59150   1.59893   1.60387   1.60475
 Alpha virt. eigenvalues --    1.61384   1.62574   1.63139   1.64979   1.65578
 Alpha virt. eigenvalues --    1.65751   1.66018   1.66227   1.66289   1.66993
 Alpha virt. eigenvalues --    1.68033   1.68352   1.69370   1.69378   1.71009
 Alpha virt. eigenvalues --    1.72321   1.72694   1.72911   1.73615   1.74006
 Alpha virt. eigenvalues --    1.74251   1.74551   1.74575   1.75116   1.76267
 Alpha virt. eigenvalues --    1.76527   1.76657   1.76860   1.76921   1.77296
 Alpha virt. eigenvalues --    1.77762   1.78000   1.78440   1.79083   1.79309
 Alpha virt. eigenvalues --    1.79414   1.79659   1.79713   1.80258   1.80577
 Alpha virt. eigenvalues --    1.80716   1.81552   1.81684   1.81941   1.82050
 Alpha virt. eigenvalues --    1.82700   1.82893   1.82953   1.83154   1.83343
 Alpha virt. eigenvalues --    1.83840   1.85370   1.85754   1.87200   1.89783
 Alpha virt. eigenvalues --    1.92374   1.93105   1.96460   1.97705   1.99289
 Alpha virt. eigenvalues --    2.01437   2.02110   2.02937   2.06051   2.06492
 Alpha virt. eigenvalues --    2.08351   2.09563   2.10031   2.10503   2.11213
 Alpha virt. eigenvalues --    2.11998   2.12165   2.13089   2.13452   2.13874
 Alpha virt. eigenvalues --    2.14231   2.14912   2.16643   2.18027   2.18724
 Alpha virt. eigenvalues --    2.19219   2.22329   2.23296   2.24801   2.25253
 Alpha virt. eigenvalues --    2.25738   2.26609   2.26627   2.28093   2.31174
 Alpha virt. eigenvalues --    2.31694   2.32056   2.32880   2.33170   2.34141
 Alpha virt. eigenvalues --    2.35985   2.38282   2.39530   2.39785   2.42158
 Alpha virt. eigenvalues --    2.43433   2.43717   2.46258   2.46844   2.47460
 Alpha virt. eigenvalues --    2.47817   2.48140   2.48491   2.49472   2.49659
 Alpha virt. eigenvalues --    2.49719   2.49959   2.50568   2.50817   2.51544
 Alpha virt. eigenvalues --    2.51972   2.52229   2.52510   2.53286   2.53412
 Alpha virt. eigenvalues --    2.53725   2.54244   2.54382   2.55073   2.55102
 Alpha virt. eigenvalues --    2.55208   2.56479   2.56593   2.57236   2.57281
 Alpha virt. eigenvalues --    2.58775   2.58898   2.59279   2.59516   2.60598
 Alpha virt. eigenvalues --    2.60611   2.61298   2.62209   2.62664   2.63634
 Alpha virt. eigenvalues --    2.65161   2.65645   2.66324   2.67100   2.67464
 Alpha virt. eigenvalues --    2.68011   2.68457   2.68547   2.68944   2.70578
 Alpha virt. eigenvalues --    2.70635   2.71405   2.72794   2.73954   2.78696
 Alpha virt. eigenvalues --    2.84561   2.85530   2.85983   2.90632   2.91445
 Alpha virt. eigenvalues --    2.95646   2.95784   3.00365   3.00973   3.03250
 Alpha virt. eigenvalues --    3.04951   3.06864   3.08670   3.09873   3.12066
 Alpha virt. eigenvalues --    3.13857   3.17347   3.19319   3.21967   3.24057
 Alpha virt. eigenvalues --    3.25418   3.27506   3.27557   3.27689   3.28407
 Alpha virt. eigenvalues --    3.28424   3.28920   3.29672   3.31245   3.31473
 Alpha virt. eigenvalues --    3.31515   3.32786   3.33024   3.34241   3.34589
 Alpha virt. eigenvalues --    3.35064   3.35679   3.36055   3.36263   3.36634
 Alpha virt. eigenvalues --    3.37184   3.38283   3.40345   3.41604   3.41652
 Alpha virt. eigenvalues --    3.46253   3.46312   3.47317   3.53029   3.87616
 Alpha virt. eigenvalues --    4.16363  21.68472  21.75183  21.75276  21.75792
 Alpha virt. eigenvalues --   21.77045  21.78372  21.79511  21.81031  21.82366
 Alpha virt. eigenvalues --   21.83319  21.83481  21.83810  21.85367  21.87344
 Alpha virt. eigenvalues --   21.89219  21.89673  43.11439
          Condensed to atoms (all electrons):
 Mulliken charges:
               1
     1  C   -0.400038
     2  C   -0.231263
     3  C   -0.252381
     4  C   -0.239452
     5  C   -0.249992
     6  C   -0.245662
     7  C   -0.247521
     8  C   -0.247909
     9  C   -0.247814
    10  C   -0.247609
    11  C   -0.247874
    12  C   -0.247383
    13  C   -0.247741
    14  C   -0.271909
    15  C   -0.193334
    16  C   -0.181196
    17  O   -0.393820
    18  H    0.139005
    19  H    0.127770
    20  H    0.127769
    21  H    0.124660
    22  H    0.124661
    23  H    0.120176
    24  H    0.120174
    25  H    0.121499
    26  H    0.121500
    27  H    0.122766
    28  H    0.122769
    29  H    0.123483
    30  H    0.123480
    31  H    0.123737
    32  H    0.123739
    33  H    0.123718
    34  H    0.123716
    35  H    0.123804
    36  H    0.123801
    37  H    0.123951
    38  H    0.123949
    39  H    0.124228
    40  H    0.124229
    41  H    0.124354
    42  H    0.124352
    43  H    0.125397
    44  H    0.125397
    45  H    0.126225
    46  H    0.126224
    47  H    0.123699
    48  H    0.123698
    49  H    0.121724
    50  H    0.121727
    51  H    0.291515
 Sum of Mulliken charges =  -0.00000
 Mulliken charges with hydrogens summed into heavy atoms:
               1
     1  C   -0.005494
     2  C    0.018058
     3  C   -0.012030
     4  C    0.003547
     5  C   -0.004456
     6  C    0.001301
     7  C   -0.000045
     8  C   -0.000475
     9  C   -0.000209
    10  C    0.000291
    11  C    0.000583
    12  C    0.001322
    13  C    0.003053
    14  C   -0.019459
    15  C    0.054064
    16  C    0.062255
    17  O   -0.102305
 Electronic spatial extent (au):  <R**2>=          20846.0709
 Charge=              0.0000 electrons
 Dipole moment (field-independent basis, Debye):
    X=             -0.1605    Y=              2.1246    Z=             -0.0000  Tot=              2.1306
 Quadrupole moment (field-independent basis, Debye-Ang):
   XX=           -117.4392   YY=           -117.9169   ZZ=           -111.8123
   XY=             20.7590   XZ=              0.0000   YZ=              0.0001
 Traceless Quadrupole moment (field-independent basis, Debye-Ang):
   XX=             -1.7164   YY=             -2.1941   ZZ=              3.9105
   XY=             20.7590   XZ=              0.0000   YZ=              0.0001
 Octapole moment (field-independent basis, Debye-Ang**2):
  XXX=            131.2371  YYY=              0.1758  ZZZ=             -0.0001  XYY=             12.4210
  XXY=            235.6455  XXZ=             -0.0014  XZZ=             11.4305  YZZ=              0.1376
  YYZ=             -0.0001  XYZ=             -0.0002
 Hexadecapole moment (field-independent basis, Debye-Ang**3):
 XXXX=         -27002.5495 YYYY=           -426.4372 ZZZZ=           -238.0230 XXXY=           2199.4890
 XXXZ=              0.0034 YYYX=             -0.5034 YYYZ=              0.0004 ZZZX=              0.0002
 ZZZY=              0.0002 XXYY=          -4863.3478 XXZZ=          -4626.2208 YYZZ=            -98.8480
 XXYZ=              0.0003 YYXZ=              0.0001 ZZXY=              6.4652
 N-N= 1.080419739128D+03 E-N=-3.797375842237D+03  KE= 7.018508843719D+02
 No NMR shielding tensors so no spin-rotation constants.
 Leave Link  601 at Mon Feb 22 20:58:07 2021, MaxMem=   104857600 cpu:              11.0 elap:               0.5
 (Enter /sw/arch/RedHatEnterpriseServer7/EB_production/2019/software/Gaussian/g16.c01/l701.exe)
 ... and contract with generalized density number  0.
 Compute integral first derivatives.
 R6Disp: Adding Grimme-D3 dispersion energy 1st derivatives to the gradient.
 PrsmSu:  requested number of processors reduced to:  26 ShMem   1 Linda.
 D1PCM: PCM CHGder 1st derivatives, ID1Alg=3 FixD1E=F DoIter=F DoCFld=F I1PDM=0.
 GePol: Maximum number of non-zero 1st derivatives   =     233
 CoulSu:  requested number of processors reduced to:  25 ShMem   1 Linda.
 CoulSu:  requested number of processors reduced to:  26 ShMem   1 Linda.
 Leave Link  701 at Mon Feb 22 20:58:09 2021, MaxMem=   104857600 cpu:              59.9 elap:               2.0
 (Enter /sw/arch/RedHatEnterpriseServer7/EB_production/2019/software/Gaussian/g16.c01/l702.exe)
 L702 exits ... SP integral derivatives will be done elsewhere.
 Leave Link  702 at Mon Feb 22 20:58:09 2021, MaxMem=   104857600 cpu:               0.6 elap:               0.0
 (Enter /sw/arch/RedHatEnterpriseServer7/EB_production/2019/software/Gaussian/g16.c01/l703.exe)
 Integral derivatives from FoFJK, PRISM(SPDF).
 Compute integral first derivatives, UseDBF=F ICtDFT=           0.
 Calling FoFJK, ICntrl=      2527 FMM=F ISym2X=0 I1Cent= 0 IOpClX= 0 NMat=1 NMatS=1 NMatT=0.
 FoFJK:  IHMeth= 1 ICntrl=    2527 DoSepK=F KAlg= 0 I1Cent=           0 FoldK=F
 IRaf=         0 NMat=       1 IRICut=       1 DoRegI=T DoRafI=F ISym2E= 0 IDoP0=0 IntGTp=1.
 FoFCou: FMM=F IPFlag=           0 FMFlag=      100000 FMFlg1=         800
         NFxFlg=           0 DoJE=F BraDBF=F KetDBF=F FulRan=T
         wScrn=  0.000000 ICntrl=      2527 IOpCl=  0 I1Cent=           0 NGrid=           0
         NMat0=    1 NMatS0=      1 NMatT0=    0 NMatD0=    1 NMtDS0=    0 NMtDT0=    0
 Symmetry not used in FoFCou.
 Leave Link  703 at Mon Feb 22 20:58:17 2021, MaxMem=   104857600 cpu:             243.1 elap:               7.7
 (Enter /sw/arch/RedHatEnterpriseServer7/EB_production/2019/software/Gaussian/g16.c01/l716.exe)
 Dipole        =-6.31548391D-02 8.35869022D-01-9.15677986D-06
 ***** Axes restored to original set *****
 -------------------------------------------------------------------
 Center     Atomic                   Forces (Hartrees/Bohr)
 Number     Number              X              Y              Z
 -------------------------------------------------------------------
      1        6           0.002598188   -0.013279838    0.002568997
      2        6           0.001852987    0.008429715   -0.013684372
      3        6          -0.001611909   -0.011196465    0.015232338
      4        6           0.001782389    0.010315305   -0.015066533
      5        6          -0.001971577   -0.009938170    0.015374814
      6        6           0.001465004    0.011611735   -0.015087295
      7        6          -0.001811347   -0.010859771    0.015625765
      8        6           0.002035377    0.010295139   -0.015912395
      9        6          -0.001889175   -0.010668435    0.015723370
     10        6           0.001904080    0.010678054   -0.015788960
     11        6          -0.001660238   -0.011022219    0.015256449
     12        6           0.002009775    0.009536425   -0.015163939
     13        6          -0.001491388   -0.010081798    0.013863770
     14        6           0.001938243    0.008276451   -0.013827808
     15        6          -0.000868012   -0.010505005    0.012078787
     16        6          -0.004900836    0.016108802    0.002867796
     17        8           0.005788182   -0.009526397   -0.011642902
     18        1          -0.001989276    0.003654673    0.003672692
     19        1           0.003985390    0.004360088   -0.002111658
     20        1          -0.003799575    0.002396335   -0.004374640
     21        1          -0.003398189   -0.005090668    0.002574395
     22        1           0.003453392   -0.003363803    0.004567871
     23        1           0.004159113    0.003891828   -0.003101001
     24        1          -0.003220207    0.002030250   -0.005244154
     25        1           0.003146629   -0.001916020    0.005149108
     26        1          -0.004102903   -0.003744045    0.003041315
     27        1          -0.003220178    0.002021329   -0.005542114
     28        1           0.004313263    0.003920409   -0.003353134
     29        1          -0.004482956   -0.004073428    0.003269229
     30        1           0.003457363   -0.002071842    0.005579041
     31        1          -0.003451831    0.002131753   -0.005320403
     32        1           0.004322745    0.004092391   -0.003059821
     33        1          -0.004297913   -0.003775445    0.003284443
     34        1           0.003181183   -0.001889316    0.005459303
     35        1           0.004109264    0.003828064   -0.003116590
     36        1          -0.003148722    0.001998785   -0.005226204
     37        1          -0.004161132   -0.003828293    0.003128860
     38        1           0.003182525   -0.001978010    0.005264700
     39        1          -0.003201090    0.002026885   -0.005383290
     40        1           0.004212552    0.003895603   -0.003226705
     41        1          -0.003961858   -0.003723198    0.003062490
     42        1           0.003020702   -0.001962216    0.005092563
     43        1          -0.002821018    0.001831259   -0.004947844
     44        1           0.003795742    0.003498565   -0.003023315
     45        1          -0.003952894   -0.003585451    0.003365560
     46        1           0.002800180   -0.001882067    0.005328724
     47        1           0.004628333    0.003216331   -0.002714291
     48        1          -0.003468765    0.001174111   -0.005067692
     49        1          -0.009015214   -0.002066733    0.006325275
     50        1           0.004396523    0.001311693    0.010227703
     51        1           0.000359078    0.005496655   -0.005998294
 -------------------------------------------------------------------
 Cartesian Forces:  Max     0.016108802 RMS     0.006746099
 Leave Link  716 at Mon Feb 22 20:58:18 2021, MaxMem=   104857600 cpu:               7.0 elap:               0.3
 (Enter /sw/arch/RedHatEnterpriseServer7/EB_production/2019/software/Gaussian/g16.c01/l103.exe)

 GradGradGradGradGradGradGradGradGradGradGradGradGradGradGradGradGradGrad
 Berny optimization.
 FormGI is forming the generalized inverse of G from B-inverse, IUseBI=4.
 GSVD:  received Info=                   1 from GESDD.
 Internal  Forces:  Max     0.018988259 RMS     0.003278507
 Search for a local minimum.
 Step number   1 out of a maximum of  295
 All quantities printed in internal units (Hartrees-Bohrs-Radians)
 RMS Force = .32785D-02 SwitMx=.10000D-02 MixMth= 1
 Mixed Optimization -- RFO/linear search
 Second derivative matrix not updated -- first step.
 ITU=  0
     Eigenvalues ---    0.00230   0.00230   0.00230   0.00230   0.00230
     Eigenvalues ---    0.00230   0.00230   0.00230   0.00230   0.00230
     Eigenvalues ---    0.00230   0.00230   0.00230   0.00230   0.00230
[...]
   26      H26      6.60  -0.011   -0.04    0.93   -0.72
   27      H27      6.60  -0.011   -0.03    0.93   -0.72
   28      H28      6.60  -0.011   -0.03    0.93   -0.72
   29      H29      6.60  -0.011   -0.04    0.93   -0.73
   30      H30      6.60  -0.011   -0.04    0.93   -0.73
   31      H31      6.60  -0.011   -0.03    0.93   -0.73
   32      H32      6.60  -0.011   -0.03    0.93   -0.73
   33      H33      6.60  -0.011   -0.04    0.93   -0.73
   34      H34      6.60  -0.011   -0.04    0.93   -0.73
   35      H35      6.60  -0.011   -0.03    0.93   -0.73
   36      H36      6.60  -0.011   -0.03    0.93   -0.73
   37      H37      6.60  -0.011   -0.04    0.93   -0.73
   38      H38      6.60  -0.011   -0.04    0.93   -0.73
   39      H39      6.60  -0.011   -0.04    0.93   -0.73
   40      H40      6.60  -0.011   -0.04    0.93   -0.73
   41      H41      6.60  -0.011   -0.05    0.93   -0.73
   42      H42      6.60  -0.011   -0.05    0.93   -0.73
   43      H43      6.60  -0.012   -0.04    0.93   -0.72
   44      H44      6.60  -0.012   -0.04    0.93   -0.72
   45      H45      6.59  -0.014   -0.08    0.93   -0.71
   46      H46      6.59  -0.014   -0.08    0.93   -0.71
   47      H47      6.58  -0.017   -0.00    0.93   -0.77
   48      H48      6.58  -0.017   -0.00    0.93   -0.77
   49      H49      6.62  -0.024   -0.16    0.93   -0.79
   50      H50      6.62  -0.024   -0.16    0.93   -0.79
   51      H51      8.57  -0.121   -1.83    1.21   -0.95
 --------------------------------------------------------------------
 - cavitation energy not included in the total energy.
 - dispersion energy not included in the total energy.
 - repulsion  energy not included in the total energy.
 After PCM corrections, the energy is  -705.641631197     a.u.
 --------------------------------------------------------------------
 Writing COSMO formatted file "BXWNKGSJHAJOGX-UHFFFAOYSA-N.cosmo"
 Recomputed dielectric energy= -0.012189 old= -0.012148 diff=-4.12D-05

 **********************************************************************

            Population analysis using the SCF Density.

 **********************************************************************

 Orbital symmetries:
       Occupied  (A) (A) (A) (A) (A) (A) (A) (A) (A) (A) (A) (A)
                 (A) (A) (A) (A) (A) (A) (A) (A) (A) (A) (A) (A)
                 (A) (A) (A) (A) (A) (A) (A) (A) (A) (A) (A) (A)
                 (A) (A) (A) (A) (A) (A) (A) (A) (A) (A) (A) (A)
                 (A) (A) (A) (A) (A) (A) (A) (A) (A) (A) (A) (A)
                 (A) (A) (A) (A) (A) (A) (A) (A) (A)
       Virtual   (A) (A) (A) (A) (A) (A) (A) (A) (A) (A) (A) (A)
                 (A) (A) (A) (A) (A) (A) (A) (A) (A) (A) (A) (A)
                 (A) (A) (A) (A) (A) (A) (A) (A) (A) (A) (A) (A)
                 (A) (A) (A) (A) (A) (A) (A) (A) (A) (A) (A) (A)
                 (A) (A) (A) (A) (A) (A) (A) (A) (A) (A) (A) (A)
                 (A) (A) (A) (A) (A) (A) (A) (A) (A) (A) (A) (A)
                 (A) (A) (A) (A) (A) (A) (A) (A) (A) (A) (A) (A)
                 (A) (A) (A) (A) (A) (A) (A) (A) (A) (A) (A) (A)
                 (A) (A) (A) (A) (A) (A) (A) (A) (A) (A) (A) (A)
                 (A) (A) (A) (A) (A) (A) (A) (A) (A) (A) (A) (A)
                 (A) (A) (A) (A) (A) (A) (A) (A) (A) (A) (A) (A)
                 (A) (A) (A) (A) (A) (A) (A) (A) (A) (A) (A) (A)
                 (A) (A) (A) (A) (A) (A) (A) (A) (A) (A) (A) (A)
                 (A) (A) (A) (A) (A) (A) (A) (A) (A) (A) (A) (A)
                 (A) (A) (A) (A) (A) (A) (A) (A) (A) (A) (A) (A)
                 (A) (A) (A) (A) (A) (A) (A) (A) (A) (A) (A) (A)
                 (A) (A) (A) (A) (A) (A) (A) (A) (A) (A) (A) (A)
                 (A) (A) (A) (A) (A) (A) (A) (A) (A) (A) (A) (A)
                 (A) (A) (A) (A) (A) (A) (A) (A) (A) (A) (A) (A)
                 (A) (A) (A) (A) (A) (A) (A) (A) (A) (A) (A) (A)
                 (A) (A) (A) (A) (A) (A) (A) (A) (A) (A) (A) (A)
                 (A) (A) (A) (A) (A) (A) (A) (A) (A) (A) (A) (A)
                 (A) (A) (A) (A) (A) (A) (A) (A) (A) (A) (A) (A)
                 (A) (A) (A) (A) (A) (A) (A) (A) (A) (A) (A) (A)
                 (A) (A) (A) (A) (A) (A) (A) (A) (A) (A) (A) (A)
                 (A) (A) (A) (A) (A) (A) (A) (A) (A) (A) (A) (A)
                 (A) (A) (A) (A) (A) (A) (A) (A) (A) (A) (A) (A)
                 (A) (A) (A) (A) (A) (A) (A) (A) (A) (A) (A) (A)
                 (A) (A) (A) (A) (A) (A) (A) (A) (A) (A) (A) (A)
                 (A) (A) (A) (A) (A) (A) (A) (A) (A) (A) (A) (A)
                 (A) (A) (A) (A) (A) (A) (A) (A) (A) (A) (A) (A)
                 (A) (A) (A) (A) (A) (A) (A) (A) (A) (A) (A) (A)
                 (A) (A) (A) (A) (A) (A) (A) (A) (A) (A) (A) (A)
                 (A) (A) (A) (A) (A) (A) (A) (A) (A) (A) (A) (A)
                 (A) (A) (A) (A) (A) (A) (A) (A) (A) (A) (A) (A)
                 (A) (A) (A) (A) (A) (A) (A) (A) (A) (A) (A) (A)
                 (A) (A) (A) (A) (A) (A) (A) (A) (A) (A) (A) (A)
                 (A) (A) (A) (A) (A) (A) (A) (A) (A) (A) (A) (A)
                 (A) (A)
 The electronic state is 1-A.
 Alpha  occ. eigenvalues --  -18.76874  -9.93680  -9.88919  -9.88898  -9.88709
 Alpha  occ. eigenvalues --   -9.88627  -9.88514  -9.88484  -9.88472  -9.88470
 Alpha  occ. eigenvalues --   -9.88467  -9.88464  -9.88461  -9.88456  -9.88454
 Alpha  occ. eigenvalues --   -9.88451  -9.88052  -0.93022  -0.73829  -0.73253
 Alpha  occ. eigenvalues --   -0.72213  -0.70740  -0.68868  -0.66630  -0.64075
 Alpha  occ. eigenvalues --   -0.61272  -0.58330  -0.55437  -0.52983  -0.51848
 Alpha  occ. eigenvalues --   -0.51488  -0.51304  -0.50800  -0.50667  -0.45584
 Alpha  occ. eigenvalues --   -0.43587  -0.43131  -0.42277  -0.41070  -0.39557
 Alpha  occ. eigenvalues --   -0.38602  -0.38519  -0.37798  -0.37397  -0.36981
 Alpha  occ. eigenvalues --   -0.35875  -0.35719  -0.34199  -0.33900  -0.33876
 Alpha  occ. eigenvalues --   -0.32077  -0.32004  -0.31234  -0.30347  -0.30340
 Alpha  occ. eigenvalues --   -0.29600  -0.29029  -0.28964  -0.28566  -0.28170
 Alpha  occ. eigenvalues --   -0.28146  -0.27990  -0.27665  -0.27493  -0.27386
 Alpha  occ. eigenvalues --   -0.27365  -0.27330  -0.25180  -0.23172
 Alpha virt. eigenvalues --    0.02175   0.02505   0.02712   0.03187   0.03892
 Alpha virt. eigenvalues --    0.04738   0.04781   0.04924   0.05442   0.05570
 Alpha virt. eigenvalues --    0.05993   0.06640   0.06738   0.07637   0.08326
 Alpha virt. eigenvalues --    0.08519   0.09676   0.10154   0.10452   0.10759
 Alpha virt. eigenvalues --    0.11217   0.11516   0.11672   0.11865   0.12098
 Alpha virt. eigenvalues --    0.12226   0.12464   0.12529   0.12637   0.12906
 Alpha virt. eigenvalues --    0.13150   0.13173   0.13384   0.14173   0.14352
 Alpha virt. eigenvalues --    0.14450   0.14917   0.15348   0.15488   0.16234
 Alpha virt. eigenvalues --    0.16568   0.16964   0.17197   0.17904   0.18361
 Alpha virt. eigenvalues --    0.19343   0.19696   0.20332   0.21076   0.22644
 Alpha virt. eigenvalues --    0.23001   0.24900   0.25143   0.25392   0.25455
 Alpha virt. eigenvalues --    0.25699   0.26256   0.26368   0.26387   0.27103
 Alpha virt. eigenvalues --    0.27877   0.27898   0.28288   0.28537   0.28552
 Alpha virt. eigenvalues --    0.28728   0.29711   0.30000   0.30666   0.30727
 Alpha virt. eigenvalues --    0.31338   0.32014   0.32133   0.33847   0.34857
 Alpha virt. eigenvalues --    0.35509   0.35694   0.36146   0.36460   0.37081
 Alpha virt. eigenvalues --    0.37139   0.37681   0.37714   0.37993   0.38787
 Alpha virt. eigenvalues --    0.39120   0.39389   0.40036   0.40058   0.40539
 Alpha virt. eigenvalues --    0.40946   0.41575   0.42072   0.42096   0.42425
 Alpha virt. eigenvalues --    0.42598   0.42611   0.43253   0.43481   0.43487
 Alpha virt. eigenvalues --    0.43730   0.44760   0.44855   0.45396   0.45745
 Alpha virt. eigenvalues --    0.46107   0.46356   0.47075   0.47177   0.47441
 Alpha virt. eigenvalues --    0.47729   0.47857   0.48001   0.48222   0.48235
 Alpha virt. eigenvalues --    0.48523   0.49318   0.49634   0.49919   0.50173
 Alpha virt. eigenvalues --    0.50315   0.50504   0.50692   0.50709   0.50884
 Alpha virt. eigenvalues --    0.52301   0.52362   0.54056   0.55209   0.55963
 Alpha virt. eigenvalues --    0.56230   0.56895   0.57554   0.58773   0.59756
 Alpha virt. eigenvalues --    0.60802   0.62517   0.63258   0.63558   0.64188
 Alpha virt. eigenvalues --    0.64997   0.65703   0.66770   0.69409   0.70438
 Alpha virt. eigenvalues --    0.72228   0.72976   0.76729   0.77747   0.78685
 Alpha virt. eigenvalues --    0.81322   0.85992   1.05910   1.06358   1.08176
 Alpha virt. eigenvalues --    1.09398   1.10594   1.12985   1.15218   1.15569
 Alpha virt. eigenvalues --    1.16943   1.17055   1.17274   1.18551   1.19072
 Alpha virt. eigenvalues --    1.19168   1.19500   1.19772   1.20619   1.20686
 Alpha virt. eigenvalues --    1.21100   1.21486   1.22878   1.22998   1.23529
 Alpha virt. eigenvalues --    1.24198   1.24581   1.24711   1.24957   1.25371
 Alpha virt. eigenvalues --    1.25398   1.25593   1.25618   1.25968   1.26855
 Alpha virt. eigenvalues --    1.27676   1.28861   1.29031   1.30683   1.32105
 Alpha virt. eigenvalues --    1.32821   1.33147   1.33300   1.33758   1.34140
 Alpha virt. eigenvalues --    1.35034   1.35061   1.35660   1.36476   1.36748
 Alpha virt. eigenvalues --    1.37237   1.37391   1.37569   1.38303   1.38436
 Alpha virt. eigenvalues --    1.38691   1.38756   1.39909   1.41116   1.42083
 Alpha virt. eigenvalues --    1.43118   1.43238   1.43812   1.44157   1.44558
 Alpha virt. eigenvalues --    1.44980   1.45606   1.46023   1.46701   1.48325
 Alpha virt. eigenvalues --    1.50051   1.50208   1.50649   1.50707   1.51639
 Alpha virt. eigenvalues --    1.52569   1.53326   1.56346   1.56752   1.57547
 Alpha virt. eigenvalues --    1.58969   1.59403   1.60108   1.60395   1.60648
 Alpha virt. eigenvalues --    1.61877   1.62620   1.63151   1.65165   1.65797
 Alpha virt. eigenvalues --    1.65904   1.66079   1.66422   1.66478   1.67113
 Alpha virt. eigenvalues --    1.67993   1.68249   1.69163   1.69169   1.70642
 Alpha virt. eigenvalues --    1.71844   1.72173   1.72210   1.72924   1.73281
 Alpha virt. eigenvalues --    1.73624   1.73738   1.73802   1.74308   1.75383
 Alpha virt. eigenvalues --    1.75568   1.75809   1.76496   1.77131   1.77615
 Alpha virt. eigenvalues --    1.77765   1.77812   1.78226   1.78806   1.78849
 Alpha virt. eigenvalues --    1.79467   1.80233   1.80480   1.80979   1.81052
 Alpha virt. eigenvalues --    1.81305   1.81635   1.81713   1.81839   1.82148
 Alpha virt. eigenvalues --    1.82535   1.82558   1.82725   1.82812   1.82975
 Alpha virt. eigenvalues --    1.84686   1.84945   1.86560   1.89307   1.91232
 Alpha virt. eigenvalues --    1.94394   1.95146   1.98968   1.99443   2.02340
 Alpha virt. eigenvalues --    2.03267   2.04322   2.05286   2.06483   2.09376
 Alpha virt. eigenvalues --    2.09719   2.10088   2.10662   2.10966   2.11070
 Alpha virt. eigenvalues --    2.11337   2.12800   2.13674   2.14731   2.15349
 Alpha virt. eigenvalues --    2.15673   2.16521   2.18314   2.19046   2.19583
 Alpha virt. eigenvalues --    2.20614   2.22940   2.24847   2.24923   2.25409
 Alpha virt. eigenvalues --    2.26547   2.27321   2.28253   2.29029   2.31236
 Alpha virt. eigenvalues --    2.31507   2.32957   2.33830   2.33894   2.34772
 Alpha virt. eigenvalues --    2.36709   2.38835   2.39359   2.40333   2.42540
 Alpha virt. eigenvalues --    2.44221   2.44392   2.46193   2.47057   2.47480
 Alpha virt. eigenvalues --    2.47667   2.48182   2.48748   2.48805   2.49086
 Alpha virt. eigenvalues --    2.49623   2.50010   2.50036   2.50756   2.51177
 Alpha virt. eigenvalues --    2.51433   2.52121   2.52250   2.52557   2.53363
 Alpha virt. eigenvalues --    2.53512   2.53742   2.53889   2.54187   2.54638
 Alpha virt. eigenvalues --    2.54737   2.56155   2.56932   2.57051   2.58035
 Alpha virt. eigenvalues --    2.59039   2.59294   2.59350   2.59909   2.60356
 Alpha virt. eigenvalues --    2.60949   2.61340   2.62606   2.63621   2.63704
 Alpha virt. eigenvalues --    2.65418   2.65505   2.67189   2.67309   2.67596
 Alpha virt. eigenvalues --    2.68559   2.68606   2.69717   2.69878   2.70296
 Alpha virt. eigenvalues --    2.70737   2.71557   2.72956   2.73237   2.78177
 Alpha virt. eigenvalues --    2.84414   2.85170   2.86917   2.90526   2.90726
 Alpha virt. eigenvalues --    2.94232   2.95890   3.00377   3.00755   3.03298
 Alpha virt. eigenvalues --    3.04799   3.06820   3.07893   3.09666   3.12291
 Alpha virt. eigenvalues --    3.14399   3.16804   3.20706   3.22665   3.22955
 Alpha virt. eigenvalues --    3.24574   3.25410   3.25445   3.25522   3.26317
 Alpha virt. eigenvalues --    3.26647   3.27432   3.28382   3.28542   3.30639
 Alpha virt. eigenvalues --    3.31777   3.32420   3.33816   3.34047   3.34829
 Alpha virt. eigenvalues --    3.35312   3.35559   3.35822   3.35970   3.36165
 Alpha virt. eigenvalues --    3.37676   3.38453   3.42248   3.43136   3.43279
 Alpha virt. eigenvalues --    3.48070   3.48177   3.50274   3.56346   3.85616
 Alpha virt. eigenvalues --    4.17750  21.64706  21.71425  21.71668  21.72653
 Alpha virt. eigenvalues --   21.74471  21.76501  21.78193  21.80126  21.81868
 Alpha virt. eigenvalues --   21.82961  21.83319  21.83988  21.85694  21.87787
 Alpha virt. eigenvalues --   21.89577  21.89950  43.09572
          Condensed to atoms (all electrons):
 Mulliken charges:
               1
     1  C   -0.418568
     2  C   -0.227860
     3  C   -0.259863
     4  C   -0.243481
     5  C   -0.253038
     6  C   -0.251312
     7  C   -0.252316
     8  C   -0.251224
     9  C   -0.252065
    10  C   -0.251229
    11  C   -0.253172
    12  C   -0.249630
    13  C   -0.255630
    14  C   -0.274847
    15  C   -0.197519
    16  C   -0.173031
    17  O   -0.437232
    18  H    0.144449
    19  H    0.131676
    20  H    0.131685
    21  H    0.126653
    22  H    0.126654
    23  H    0.122689
    24  H    0.122692
    25  H    0.123653
    26  H    0.123652
    27  H    0.125213
    28  H    0.125212
    29  H    0.125569
    30  H    0.125569
    31  H    0.125676
    32  H    0.125676
    33  H    0.125649
    34  H    0.125649
    35  H    0.125679
    36  H    0.125678
    37  H    0.125787
    38  H    0.125788
    39  H    0.126013
    40  H    0.126014
    41  H    0.126394
    42  H    0.126394
    43  H    0.127614
    44  H    0.127614
    45  H    0.129401
    46  H    0.129408
    47  H    0.127030
    48  H    0.127023
    49  H    0.128477
    50  H    0.128475
    51  H    0.311213
 Sum of Mulliken charges =  -0.00000
 Mulliken charges with hydrogens summed into heavy atoms:
               1
     1  C   -0.010758
     2  C    0.025446
     3  C   -0.014482
     4  C    0.003824
     5  C   -0.002613
     6  C   -0.000175
     7  C   -0.000963
     8  C    0.000075
     9  C   -0.000707
    10  C    0.000346
    11  C   -0.001145
    12  C    0.003158
    13  C   -0.000402
    14  C   -0.016039
    15  C    0.056534
    16  C    0.083922
    17  O   -0.126020
 Electronic spatial extent (au):  <R**2>=          20504.9779
 Charge=             -0.0000 electrons
 Dipole moment (field-independent basis, Debye):
    X=             -0.0332    Y=              2.2354    Z=             -0.0000  Tot=              2.2357
 Quadrupole moment (field-independent basis, Debye-Ang):
   XX=           -115.0921   YY=           -117.9589   ZZ=           -112.5673
   XY=             21.5228   XZ=              0.0012   YZ=              0.0000
 Traceless Quadrupole moment (field-independent basis, Debye-Ang):
   XX=              0.1140   YY=             -2.7528   ZZ=              2.6388
   XY=             21.5228   XZ=              0.0012   YZ=              0.0000
 Octapole moment (field-independent basis, Debye-Ang**2):
  XXX=            169.2439  YYY=              0.4345  ZZZ=             -0.0001  XYY=              8.7442
  XXY=            233.0717  XXZ=              0.0010  XZZ=             12.2399  YZZ=              0.2056
  YYZ=             -0.0001  XYZ=              0.0005
 Hexadecapole moment (field-independent basis, Debye-Ang**3):
 XXXX=         -25965.8406 YYYY=           -429.8886 ZZZZ=           -240.9545 XXXY=           2165.2115
 XXXZ=              0.1571 YYYX=              0.8238 YYYZ=              0.0001 ZZZX=              0.0014
 ZZZY=              0.0000 XXYY=          -4812.4379 XXZZ=          -4576.4665 YYZZ=            -99.7797
 XXYZ=              0.0044 YYXZ=             -0.0007 ZZXY=              7.0505
 N-N= 1.086876975841D+03 E-N=-3.810113680805D+03  KE= 7.017242684741D+02
 Unable to Open any file for archive entry.
 1\1\GINC-TCN1683\SP\RBP86\TZVP\C16H34O1\ELENAA\22-Feb-2021\0\\# BP86/T
 ZVP SCRF=COSMORS geom=CHECKPOINT guess=CHECKPOINT\\COSMO-file for #BXW
 NKGSJHAJOGX-UHFFFAOYSA-N\\0,1\C,0,-4.979572544,10.8385950207,14.316911
 5942\C,0,-4.6230039265,9.3482254728,14.3825814092\C,0,-4.0966374598,8.
 7971346157,13.050378949\C,0,-3.735924296,7.3068053797,13.1017637424\C,
 0,-3.2099102332,6.7575253316,11.7692034488\C,0,-2.849089148,5.26712399
 54,11.8202802422\C,0,-2.3231419414,4.7183540048,10.4875072584\C,0,-1.9
 621071292,3.2279813054,10.5378244789\C,0,-1.4362659471,2.6800932259,9.
 204651525\C,0,-1.0749420547,1.1897611642,9.2539401156\C,0,-0.54926978,
 0.6432555921,7.9201493611\C,0,-0.18766116,-0.8470164839,7.9684069238\C
 ,0,0.3376405468,-1.3908724627,6.6335932855\C,0,0.6991730356,-2.8812647
 971,6.6822172799\C,0,1.2236270424,-3.4168194451,5.3431227871\C,0,1.579
 2615749,-4.8958036473,5.4021398018\O,0,2.0602554407,-5.3013327324,4.09
 97844733\H,0,-5.3542901258,11.2104190527,15.2830619842\H,0,-4.09980425
 91,11.4432103348,14.0426760969\H,0,-5.758879196,11.0250178724,13.56015
 22763\H,0,-5.511189989,8.7670722366,14.6883837876\H,0,-3.8637462298,9.
 1823329073,15.1675247615\H,0,-3.2071746874,9.3776027519,12.7428872005\
 H,0,-4.8556857407,8.9620730071,12.2634358514\H,0,-2.9769315346,7.14240
 89174,13.888672917\H,0,-4.625566582,6.7268478613,13.4091855451\H,0,-3.
 9688440886,6.9219224021,10.9822635368\H,0,-2.3202963892,7.3374615092,1
 1.4617254748\H,0,-3.7386709694,4.6870717919,12.1276496506\H,0,-2.09007
 29708,5.1026236214,12.6071260839\H,0,-3.0821925181,4.883005437,9.70071
 99591\H,0,-1.433630611,5.2985481962,10.1801858371\H,0,-2.8515680007,2.
 6476457622,10.8449984404\H,0,-1.202957152,3.0632009003,11.3244784835\H
 ,0,-0.5469110849,3.2606333212,8.897557342\H,0,-2.1954675745,2.84509178
 86,8.4180931728\H,0,-1.9642182424,0.6089989619,9.5607852825\H,0,-0.315
 5750153,1.0245623623,10.0402745717\H,0,-1.3086902671,0.8086658374,7.13
 39333339\H,0,0.3398931938,1.2242142033,7.6134052115\H,0,-1.0767351165,
 -1.4282779746,8.2746748659\H,0,0.5720676896,-1.012674334,8.7542103335\
 H,0,-0.4220640451,-1.2256183224,5.8479597971\H,0,1.2267875595,-0.81000
 22698,6.3275093267\H,0,-0.1904036812,-3.4611621927,6.9880630835\H,0,1.
 4588902084,-3.0454346065,7.4677409562\H,0,2.118964738,-2.8473711145,5.
 0389860993\H,0,0.4633573369,-3.2646904667,4.5574722017\H,0,0.686999137
 7,-5.4859366559,5.6880962685\H,0,2.3555428882,-5.0653565373,6.17337228
 57\H,0,2.2840312898,-6.2474521041,4.1503513022\\Version=ES64L-G16RevC.
 01\State=1-A\HF=-705.6416312\RMSD=2.948e-09\Dipole=-0.0909723,-0.48168
 08,0.7303249\Quadrupole=0.6113776,13.7521331,-14.3635107,-1.5467773,5.
 982964,-4.8974686\PG=C01 [X(C16H34O1)]\\@
 The archive entry for this job was punched.


      LET US REMEMBER, PLEASE, THAT THE SEARCH FOR THE CONSTITUTION
      OF THE WORLD IS ONE OF THE GREATEST AND NOBLEST PROBLEMS PRESENTED 
      BY NATURE.

                                                  -- GALILEO
 Job cpu time:       0 days  0 hours 19 minutes 11.0 seconds.
 Elapsed time:       0 days  0 hours  0 minutes 37.6 seconds.
 File lengths (MBytes):  RWF=    233 Int=      0 D2E=      0 Chk=     29 Scr=      1
 Normal termination of Gaussian 16 at Mon Feb 22 21:01:52 2021.
