 Entering Gaussian System, Link 0=g16
 Input=BYHDDXPKOZIZRV-UHFFFAOYSA-N.gjf
 Output=BYHDDXPKOZIZRV-UHFFFAOYSA-N.log
 Initial command:
 /sw/arch/RedHatEnterpriseServer7/EB_production/2019/software/Gaussian/g16.c01/l1.exe "/scratch-local/elenaa.9715189/Gau-15273.inp" -scrdir="/scratch-local/elenaa.9715189/"
 Entering Link 1 = /sw/arch/RedHatEnterpriseServer7/EB_production/2019/software/Gaussian/g16.c01/l1.exe PID=     15275.
  
 Copyright (c) 1988-2019, Gaussian, Inc.  All Rights Reserved.
  
 This is part of the Gaussian(R) 16 program.  It is based on
 the Gaussian(R) 09 system (copyright 2009, Gaussian, Inc.),
 the Gaussian(R) 03 system (copyright 2003, Gaussian, Inc.),
 the Gaussian(R) 98 system (copyright 1998, Gaussian, Inc.),
 the Gaussian(R) 94 system (copyright 1995, Gaussian, Inc.),
 the Gaussian 92(TM) system (copyright 1992, Gaussian, Inc.),
 the Gaussian 90(TM) system (copyright 1990, Gaussian, Inc.),
 the Gaussian 88(TM) system (copyright 1988, Gaussian, Inc.),
 the Gaussian 86(TM) system (copyright 1986, Carnegie Mellon
 University), and the Gaussian 82(TM) system (copyright 1983,
 Carnegie Mellon University). Gaussian is a federally registered
 trademark of Gaussian, Inc.
  
 This software contains proprietary and confidential information,
 including trade secrets, belonging to Gaussian, Inc.
  
 This software is provided under written license and may be
 used, copied, transmitted, or stored only in accord with that
 written license.
  
 The following legend is applicable only to US Government
 contracts under FAR:
  
                    RESTRICTED RIGHTS LEGEND
  
 Use, reproduction and disclosure by the US Government is
 subject to restrictions as set forth in subparagraphs (a)
 and (c) of the Commercial Computer Software - Restricted
 Rights clause in FAR 52.227-19.
  
 Gaussian, Inc.
 340 Quinnipiac St., Bldg. 40, Wallingford CT 06492
  
  
 ---------------------------------------------------------------
 Warning -- This program may not be used in any manner that
 competes with the business of Gaussian, Inc. or will provide
 assistance to any competitor of Gaussian, Inc.  The licensee
 of this program is prohibited from giving any competitor of
 Gaussian, Inc. access to this program.  By using this program,
 the user acknowledges that Gaussian, Inc. is engaged in the
 business of creating and licensing software in the field of
 computational chemistry and represents and warrants to the
 licensee that it is not a competitor of Gaussian, Inc. and that
 it will not use this program in any manner prohibited above.
 ---------------------------------------------------------------
  

 Cite this work as:
 Gaussian 16, Revision C.01,
 M. J. Frisch, G. W. Trucks, H. B. Schlegel, G. E. Scuseria, 
 M. A. Robb, J. R. Cheeseman, G. Scalmani, V. Barone, 
 G. A. Petersson, H. Nakatsuji, X. Li, M. Caricato, A. V. Marenich, 
 J. Bloino, B. G. Janesko, R. Gomperts, B. Mennucci, H. P. Hratchian, 
 J. V. Ortiz, A. F. Izmaylov, J. L. Sonnenberg, D. Williams-Young, 
 F. Ding, F. Lipparini, F. Egidi, J. Goings, B. Peng, A. Petrone, 
 T. Henderson, D. Ranasinghe, V. G. Zakrzewski, J. Gao, N. Rega, 
 G. Zheng, W. Liang, M. Hada, M. Ehara, K. Toyota, R. Fukuda, 
 J. Hasegawa, M. Ishida, T. Nakajima, Y. Honda, O. Kitao, H. Nakai, 
 T. Vreven, K. Throssell, J. A. Montgomery, Jr., J. E. Peralta, 
 F. Ogliaro, M. J. Bearpark, J. J. Heyd, E. N. Brothers, K. N. Kudin, 
 V. N. Staroverov, T. A. Keith, R. Kobayashi, J. Normand, 
 K. Raghavachari, A. P. Rendell, J. C. Burant, S. S. Iyengar, 
 J. Tomasi, M. Cossi, J. M. Millam, M. Klene, C. Adamo, R. Cammi, 
 J. W. Ochterski, R. L. Martin, K. Morokuma, O. Farkas, 
 J. B. Foresman, and D. J. Fox, Gaussian, Inc., Wallingford CT, 2019.
 
 ******************************************
 Gaussian 16:  ES64L-G16RevC.01  3-Jul-2019
                22-Feb-2021 
 ******************************************
 %chk=BYHDDXPKOZIZRV-UHFFFAOYSA-N.chk
 %NProcShared=32
 Will use up to   32 processors via shared memory.
 -------------------------------------------------------------
 #P BP86/TZVP EmpiricalDispersion=GD3 SCRF=(Solvent=Water) Opt
 -------------------------------------------------------------
 1/18=20,19=15,26=3,38=1/1,3;
 2/9=110,12=2,17=6,18=5,40=1/2;
 3/5=19,7=101,11=2,25=1,30=1,70=2201,71=1,72=1,74=404,124=31/1,2,3;
 4//1;
 5/5=2,38=5,53=1/2;
 6/7=2,8=2,9=2,10=2,28=1/1;
 7//1,2,3,16;
 1/18=20,19=15,26=3/3(2);
 2/9=110/2;
 99//99;
 2/9=110/2;
 3/5=19,7=101,11=2,25=1,30=1,70=2205,71=1,72=1,74=404,124=31/1,2,3;
 4/5=5,16=3,69=1/1;
 5/5=2,38=5,53=1/2;
 7//1,2,3,16;
 1/18=20,19=15,26=3/3(-5);
 2/9=110/2;
 6/7=2,8=2,9=2,10=2,19=2,28=1/1;
 99/9=1/99;
 Leave Link    1 at Mon Feb 22 20:57:19 2021, MaxMem=           0 cpu:               2.0 elap:               0.1
 (Enter /sw/arch/RedHatEnterpriseServer7/EB_production/2019/software/Gaussian/g16.c01/l101.exe)
 -------------------------------------
 Particle #BYHDDXPKOZIZRV-UHFFFAOYSA-N
 -------------------------------------
 Symbolic Z-matrix:
 Charge =  0 Multiplicity = 1
 O                     3.97581  -5.63033   3.63026 
 C                     4.21013  -4.40215   3.64612 
 O                     5.47733  -3.97882   3.86554 
 C                     3.13854  -3.41341   3.43686 
 C                     3.32774  -2.63494   2.10982 
 C                     2.27416  -1.51063   1.92917 
 C                     2.45039  -0.74643   0.58973 
 C                     1.44551   0.33974   0.43294 
 C                     1.71946   1.64889   0.89536 
 C                     0.76884   2.67718   0.74933 
 C                    -0.47086   2.41015   0.14076 
 C                    -0.75928   1.11221  -0.31834 
 C                     0.19165   0.08405  -0.17175 
 H                     6.20189  -4.62676   4.00177 
 H                     3.15357  -2.71725   4.27907 
 H                     2.16611  -3.91328   3.42871 
 H                     3.25458  -3.33753   1.27316 
 H                     4.32502  -2.1846    2.0933 
 H                     2.36581  -0.80349   2.76007 
 H                     1.27275  -1.95261   1.96177 
 H                     2.36408  -1.4538   -0.24094 
 H                     3.46062  -0.3266    0.54425 
 H                     2.61348   1.86287   1.3442 
 H                     0.97787   3.61993   1.08557 
 H                    -1.16178   3.15677   0.03562 
 H                    -1.66145   0.91755  -0.75869 
 H                    -0.03901  -0.85391  -0.50874 
 
 ITRead=  0  0  0  0  0  0  0  0  0  0  0  0  0  0  0  0  0  0  0  0
 ITRead=  0  0  0  0  0  0  0
 MicOpt= -1 -1 -1 -1 -1 -1 -1 -1 -1 -1 -1 -1 -1 -1 -1 -1 -1 -1 -1 -1
 MicOpt= -1 -1 -1 -1 -1 -1 -1
 NAtoms=     27 NQM=       27 NQMF=       0 NMMI=      0 NMMIF=      0
                NMic=       0 NMicF=      0.
                    Isotopes and Nuclear Properties:
 (Nuclear quadrupole moments (NQMom) in fm**2, nuclear magnetic moments (NMagM)
  in nuclear magnetons)

  Atom         1           2           3           4           5           6           7           8           9          10
 IAtWgt=          16          12          16          12          12          12          12          12          12          12
 AtmWgt=  15.9949146  12.0000000  15.9949146  12.0000000  12.0000000  12.0000000  12.0000000  12.0000000  12.0000000  12.0000000
 NucSpn=           0           0           0           0           0           0           0           0           0           0
 AtZEff=  -0.0000000  -0.0000000  -0.0000000  -0.0000000  -0.0000000  -0.0000000  -0.0000000  -0.0000000  -0.0000000  -0.0000000
 NQMom=    0.0000000   0.0000000   0.0000000   0.0000000   0.0000000   0.0000000   0.0000000   0.0000000   0.0000000   0.0000000
 NMagM=    0.0000000   0.0000000   0.0000000   0.0000000   0.0000000   0.0000000   0.0000000   0.0000000   0.0000000   0.0000000
 AtZNuc=   8.0000000   6.0000000   8.0000000   6.0000000   6.0000000   6.0000000   6.0000000   6.0000000   6.0000000   6.0000000

  Atom        11          12          13          14          15          16          17          18          19          20
 IAtWgt=          12          12          12           1           1           1           1           1           1           1
 AtmWgt=  12.0000000  12.0000000  12.0000000   1.0078250   1.0078250   1.0078250   1.0078250   1.0078250   1.0078250   1.0078250
 NucSpn=           0           0           0           1           1           1           1           1           1           1
 AtZEff=  -0.0000000  -0.0000000  -0.0000000  -0.0000000  -0.0000000  -0.0000000  -0.0000000  -0.0000000  -0.0000000  -0.0000000
 NQMom=    0.0000000   0.0000000   0.0000000   0.0000000   0.0000000   0.0000000   0.0000000   0.0000000   0.0000000   0.0000000
 NMagM=    0.0000000   0.0000000   0.0000000   2.7928460   2.7928460   2.7928460   2.7928460   2.7928460   2.7928460   2.7928460
 AtZNuc=   6.0000000   6.0000000   6.0000000   1.0000000   1.0000000   1.0000000   1.0000000   1.0000000   1.0000000   1.0000000

  Atom        21          22          23          24          25          26          27
 IAtWgt=           1           1           1           1           1           1           1
 AtmWgt=   1.0078250   1.0078250   1.0078250   1.0078250   1.0078250   1.0078250   1.0078250
 NucSpn=           1           1           1           1           1           1           1
 AtZEff=  -0.0000000  -0.0000000  -0.0000000  -0.0000000  -0.0000000  -0.0000000  -0.0000000
 NQMom=    0.0000000   0.0000000   0.0000000   0.0000000   0.0000000   0.0000000   0.0000000
 NMagM=    2.7928460   2.7928460   2.7928460   2.7928460   2.7928460   2.7928460   2.7928460
 AtZNuc=   1.0000000   1.0000000   1.0000000   1.0000000   1.0000000   1.0000000   1.0000000
 Leave Link  101 at Mon Feb 22 20:57:19 2021, MaxMem=   104857600 cpu:               3.1 elap:               0.1
 (Enter /sw/arch/RedHatEnterpriseServer7/EB_production/2019/software/Gaussian/g16.c01/l103.exe)

 GradGradGradGradGradGradGradGradGradGradGradGradGradGradGradGradGradGrad
 Berny optimization.
 Initialization pass.
                           ----------------------------
                           !    Initial Parameters    !
                           ! (Angstroms and Degrees)  !
 --------------------------                            --------------------------
 ! Name  Definition              Value          Derivative Info.                !
 --------------------------------------------------------------------------------
 ! R1    R(1,2)                  1.2504         estimate D2E/DX2                !
 ! R2    R(2,3)                  1.3539         estimate D2E/DX2                !
 ! R3    R(2,4)                  1.473          estimate D2E/DX2                !
 ! R4    R(3,14)                 0.9815         estimate D2E/DX2                !
 ! R5    R(4,5)                  1.5501         estimate D2E/DX2                !
 ! R6    R(4,15)                 1.0928         estimate D2E/DX2                !
 ! R7    R(4,16)                 1.0934         estimate D2E/DX2                !
 ! R8    R(5,6)                  1.5514         estimate D2E/DX2                !
 ! R9    R(5,17)                 1.095          estimate D2E/DX2                !
 ! R10   R(5,18)                 1.0944         estimate D2E/DX2                !
 ! R11   R(6,7)                  1.5521         estimate D2E/DX2                !
 ! R12   R(6,19)                 1.0949         estimate D2E/DX2                !
 ! R13   R(6,20)                 1.0951         estimate D2E/DX2                !
 ! R14   R(7,8)                  1.488          estimate D2E/DX2                !
 ! R15   R(7,21)                 1.0945         estimate D2E/DX2                !
 ! R16   R(7,22)                 1.0949         estimate D2E/DX2                !
 ! R17   R(8,9)                  1.4152         estimate D2E/DX2                !
 ! R18   R(8,13)                 1.4153         estimate D2E/DX2                !
 ! R19   R(9,10)                 1.408          estimate D2E/DX2                !
 ! R20   R(9,23)                 1.023          estimate D2E/DX2                !
 ! R21   R(10,11)                1.4066         estimate D2E/DX2                !
 ! R22   R(10,24)                1.0225         estimate D2E/DX2                !
 ! R23   R(11,12)                1.4066         estimate D2E/DX2                !
 ! R24   R(11,25)                1.0227         estimate D2E/DX2                !
 ! R25   R(12,13)                1.4081         estimate D2E/DX2                !
 ! R26   R(12,26)                1.0226         estimate D2E/DX2                !
 ! R27   R(13,27)                1.023          estimate D2E/DX2                !
 ! A1    A(1,2,3)              118.9825         estimate D2E/DX2                !
 ! A2    A(1,2,4)              121.411          estimate D2E/DX2                !
 ! A3    A(3,2,4)              119.6061         estimate D2E/DX2                !
 ! A4    A(2,3,14)             120.4644         estimate D2E/DX2                !
 ! A5    A(2,4,5)              111.7112         estimate D2E/DX2                !
 ! A6    A(2,4,15)             107.9461         estimate D2E/DX2                !
 ! A7    A(2,4,16)             109.9491         estimate D2E/DX2                !
 ! A8    A(5,4,15)             109.7662         estimate D2E/DX2                !
 ! A9    A(5,4,16)             109.3755         estimate D2E/DX2                !
 ! A10   A(15,4,16)            108.0118         estimate D2E/DX2                !
 ! A11   A(4,5,6)              112.3804         estimate D2E/DX2                !
 ! A12   A(4,5,17)             108.8891         estimate D2E/DX2                !
 ! A13   A(4,5,18)             109.3179         estimate D2E/DX2                !
 ! A14   A(6,5,17)             109.3091         estimate D2E/DX2                !
 ! A15   A(6,5,18)             108.596          estimate D2E/DX2                !
 ! A16   A(17,5,18)            108.2638         estimate D2E/DX2                !
 ! A17   A(5,6,7)              112.3459         estimate D2E/DX2                !
 ! A18   A(5,6,19)             108.8348         estimate D2E/DX2                !
 ! A19   A(5,6,20)             108.9696         estimate D2E/DX2                !
 ! A20   A(7,6,19)             109.1106         estimate D2E/DX2                !
 ! A21   A(7,6,20)             109.1613         estimate D2E/DX2                !
 ! A22   A(19,6,20)            108.3375         estimate D2E/DX2                !
 ! A23   A(6,7,8)              111.9408         estimate D2E/DX2                !
 ! A24   A(6,7,21)             109.1352         estimate D2E/DX2                !
 ! A25   A(6,7,22)             109.2312         estimate D2E/DX2                !
 ! A26   A(8,7,21)             109.7888         estimate D2E/DX2                !
 ! A27   A(8,7,22)             109.8048         estimate D2E/DX2                !
 ! A28   A(21,7,22)            106.8012         estimate D2E/DX2                !
 ! A29   A(7,8,9)              120.6706         estimate D2E/DX2                !
 ! A30   A(7,8,13)             120.7586         estimate D2E/DX2                !
 ! A31   A(9,8,13)             118.5689         estimate D2E/DX2                !
 ! A32   A(8,9,10)             120.732          estimate D2E/DX2                !
 ! A33   A(8,9,23)             120.4001         estimate D2E/DX2                !
 ! A34   A(10,9,23)            118.8677         estimate D2E/DX2                !
 ! A35   A(9,10,11)            120.085          estimate D2E/DX2                !
 ! A36   A(9,10,24)            120.0817         estimate D2E/DX2                !
 ! A37   A(11,10,24)           119.8332         estimate D2E/DX2                !
 ! A38   A(10,11,12)           119.8081         estimate D2E/DX2                !
 ! A39   A(10,11,25)           120.0875         estimate D2E/DX2                !
 ! A40   A(12,11,25)           120.104          estimate D2E/DX2                !
 ! A41   A(11,12,13)           120.0854         estimate D2E/DX2                !
 ! A42   A(11,12,26)           119.8077         estimate D2E/DX2                !
 ! A43   A(13,12,26)           120.1069         estimate D2E/DX2                !
 ! A44   A(8,13,12)            120.7191         estimate D2E/DX2                !
 ! A45   A(8,13,27)            120.406          estimate D2E/DX2                !
 ! A46   A(12,13,27)           118.8749         estimate D2E/DX2                !
 ! D1    D(1,2,3,14)             0.5569         estimate D2E/DX2                !
 ! D2    D(4,2,3,14)          -179.6734         estimate D2E/DX2                !
 ! D3    D(1,2,4,5)           -113.2097         estimate D2E/DX2                !
 ! D4    D(1,2,4,15)           126.021          estimate D2E/DX2                !
 ! D5    D(1,2,4,16)             8.4187         estimate D2E/DX2                !
 ! D6    D(3,2,4,5)             67.0264         estimate D2E/DX2                !
 ! D7    D(3,2,4,15)           -53.7429         estimate D2E/DX2                !
 ! D8    D(3,2,4,16)          -171.3452         estimate D2E/DX2                !
 ! D9    D(2,4,5,6)           -175.3241         estimate D2E/DX2                !
 ! D10   D(2,4,5,17)            63.4209         estimate D2E/DX2                !
 ! D11   D(2,4,5,18)           -54.6742         estimate D2E/DX2                !
 ! D12   D(15,4,5,6)           -55.6213         estimate D2E/DX2                !
 ! D13   D(15,4,5,17)         -176.8763         estimate D2E/DX2                !
 ! D14   D(15,4,5,18)           65.0286         estimate D2E/DX2                !
 ! D15   D(16,4,5,6)            62.7169         estimate D2E/DX2                !
 ! D16   D(16,4,5,17)          -58.5381         estimate D2E/DX2                !
 ! D17   D(16,4,5,18)         -176.6332         estimate D2E/DX2                !
 ! D18   D(4,5,6,7)           -179.0886         estimate D2E/DX2                !
 ! D19   D(4,5,6,19)            59.9662         estimate D2E/DX2                !
 ! D20   D(4,5,6,20)           -57.9871         estimate D2E/DX2                !
 ! D21   D(17,5,6,7)           -58.0744         estimate D2E/DX2                !
 ! D22   D(17,5,6,19)         -179.0195         estimate D2E/DX2                !
 ! D23   D(17,5,6,20)           63.0271         estimate D2E/DX2                !
 ! D24   D(18,5,6,7)            59.8465         estimate D2E/DX2                !
 ! D25   D(18,5,6,19)          -61.0986         estimate D2E/DX2                !
 ! D26   D(18,5,6,20)         -179.052          estimate D2E/DX2                !
 ! D27   D(5,6,7,8)           -179.338          estimate D2E/DX2                !
 ! D28   D(5,6,7,21)            58.9194         estimate D2E/DX2                !
 ! D29   D(5,6,7,22)           -57.509          estimate D2E/DX2                !
 ! D30   D(19,6,7,8)           -58.5515         estimate D2E/DX2                !
 ! D31   D(19,6,7,21)          179.7059         estimate D2E/DX2                !
 ! D32   D(19,6,7,22)           63.2775         estimate D2E/DX2                !
 ! D33   D(20,6,7,8)            59.6706         estimate D2E/DX2                !
 ! D34   D(20,6,7,21)          -62.0721         estimate D2E/DX2                !
 ! D35   D(20,6,7,22)         -178.5004         estimate D2E/DX2                !
 ! D36   D(6,7,8,9)             90.3493         estimate D2E/DX2                !
 ! D37   D(6,7,8,13)           -89.1423         estimate D2E/DX2                !
 ! D38   D(21,7,8,9)          -148.2842         estimate D2E/DX2                !
 ! D39   D(21,7,8,13)           32.2242         estimate D2E/DX2                !
 ! D40   D(22,7,8,9)           -31.1501         estimate D2E/DX2                !
 ! D41   D(22,7,8,13)          149.3584         estimate D2E/DX2                !
 ! D42   D(7,8,9,10)          -179.9118         estimate D2E/DX2                !
 ! D43   D(7,8,9,23)            -0.0443         estimate D2E/DX2                !
 ! D44   D(13,8,9,10)           -0.4093         estimate D2E/DX2                !
 ! D45   D(13,8,9,23)          179.4581         estimate D2E/DX2                !
 ! D46   D(7,8,13,12)          179.9278         estimate D2E/DX2                !
 ! D47   D(7,8,13,27)            0.0271         estimate D2E/DX2                !
 ! D48   D(9,8,13,12)            0.4258         estimate D2E/DX2                !
 ! D49   D(9,8,13,27)         -179.4749         estimate D2E/DX2                !
 ! D50   D(8,9,10,11)            0.1203         estimate D2E/DX2                !
 ! D51   D(8,9,10,24)         -179.8908         estimate D2E/DX2                !
 ! D52   D(23,9,10,11)        -179.7491         estimate D2E/DX2                !
 ! D53   D(23,9,10,24)           0.2398         estimate D2E/DX2                !
 ! D54   D(9,10,11,12)           0.1606         estimate D2E/DX2                !
 ! D55   D(9,10,11,25)         179.9312         estimate D2E/DX2                !
 ! D56   D(24,10,11,12)       -179.8284         estimate D2E/DX2                !
 ! D57   D(24,10,11,25)         -0.0578         estimate D2E/DX2                !
 ! D58   D(10,11,12,13)         -0.1441         estimate D2E/DX2                !
 ! D59   D(10,11,12,26)        179.8495         estimate D2E/DX2                !
 ! D60   D(25,11,12,13)       -179.9147         estimate D2E/DX2                !
 ! D61   D(25,11,12,26)          0.0789         estimate D2E/DX2                !
 ! D62   D(11,12,13,8)          -0.1535         estimate D2E/DX2                !
 ! D63   D(11,12,13,27)        179.7487         estimate D2E/DX2                !
 ! D64   D(26,12,13,8)         179.853          estimate D2E/DX2                !
 ! D65   D(26,12,13,27)         -0.2449         estimate D2E/DX2                !
 --------------------------------------------------------------------------------
 Trust Radius=3.00D-01 FncErr=1.00D-07 GrdErr=1.00D-06 EigMax=2.50D+02 EigMin=1.00D-04
 Number of steps in this run=    148 maximum allowed number of steps=    162.
 GradGradGradGradGradGradGradGradGradGradGradGradGradGradGradGradGradGrad

 Leave Link  103 at Mon Feb 22 20:57:19 2021, MaxMem=   104857600 cpu:               1.0 elap:               0.1
 (Enter /sw/arch/RedHatEnterpriseServer7/EB_production/2019/software/Gaussian/g16.c01/l202.exe)
                          Input orientation:                          
 ---------------------------------------------------------------------
 Center     Atomic      Atomic             Coordinates (Angstroms)
 Number     Number       Type             X           Y           Z
 ---------------------------------------------------------------------
      1          8           0        3.975810   -5.630330    3.630260
      2          6           0        4.210130   -4.402150    3.646120
      3          8           0        5.477330   -3.978820    3.865540
      4          6           0        3.138540   -3.413410    3.436860
      5          6           0        3.327740   -2.634940    2.109820
      6          6           0        2.274160   -1.510630    1.929170
      7          6           0        2.450390   -0.746430    0.589730
      8          6           0        1.445510    0.339740    0.432940
      9          6           0        1.719460    1.648890    0.895360
     10          6           0        0.768840    2.677180    0.749330
     11          6           0       -0.470860    2.410150    0.140760
     12          6           0       -0.759280    1.112210   -0.318340
     13          6           0        0.191650    0.084050   -0.171750
     14          1           0        6.201890   -4.626760    4.001770
     15          1           0        3.153570   -2.717250    4.279070
     16          1           0        2.166110   -3.913280    3.428710
     17          1           0        3.254580   -3.337530    1.273160
     18          1           0        4.325020   -2.184600    2.093300
     19          1           0        2.365810   -0.803490    2.760070
     20          1           0        1.272750   -1.952610    1.961770
     21          1           0        2.364080   -1.453800   -0.240940
     22          1           0        3.460620   -0.326600    0.544250
     23          1           0        2.613480    1.862870    1.344200
     24          1           0        0.977870    3.619930    1.085570
     25          1           0       -1.161780    3.156770    0.035620
     26          1           0       -1.661450    0.917550   -0.758690
     27          1           0       -0.039010   -0.853910   -0.508740
 ---------------------------------------------------------------------
                    Distance matrix (angstroms):
                    1          2          3          4          5
     1  O    0.000000
     2  C    1.250433   0.000000
     3  O    2.244416   1.353938   0.000000
     4  C    2.377637   1.472991   2.444053   0.000000
     5  C    3.421125   2.502371   3.083716   1.550112   0.000000
     6  C    4.770875   3.880307   4.483502   2.576985   1.551367
     7  C    5.951824   5.079615   5.508325   3.961374   2.578156
     8  C    7.229593   6.360281   6.832882   5.096668   3.899159
     9  C    8.096779   7.098253   7.390174   5.839511   4.734203
    10  C    9.359441   8.387537   8.728286   7.066370   6.051241
    11  C    9.828469   8.978120   9.490726   7.603019   6.615096
    12  C    9.136431   8.415471   9.072968   7.055194   6.053167
    13  C    7.837684   7.130940   7.793910   5.825672   4.736405
    14  H    2.469940   2.035693   0.981515   3.342971   3.975872
    15  H    3.095653   2.087063   2.676271   1.092786   2.177787
    16  H    2.502778   2.112884   3.340553   1.093415   2.173248
    17  H    3.366456   2.770818   3.474522   2.168138   1.094982
    18  H    3.789096   2.709608   2.772702   2.173215   1.094370
    19  H    5.162142   4.139681   4.581085   2.804789   2.168489
    20  H    4.859631   4.179172   5.040671   2.791236   2.170363
    21  H    5.918384   5.216311   5.738574   4.238640   2.801750
    22  H    6.157794   5.176241   5.332616   4.242561   2.792329
    23  H    7.951733   6.862842   6.977402   5.700355   4.618077
    24  H   10.051388   9.019850   9.258206   7.724308   6.759762
    25  H   10.794878   9.951402  10.471997   8.557362   7.615904
    26  H    9.691043   9.065154   9.814282   7.707124   6.763176
    27  H    7.487609   6.921565   7.702558   5.675881   4.622113
                    6          7          8          9         10
     6  C    0.000000
     7  C    1.552146   0.000000
     8  C    2.519769   1.487996   0.000000
     9  C    3.370315   2.522940   1.415187   0.000000
    10  C    4.603886   3.817615   2.453897   1.407971   0.000000
    11  C    5.109409   4.324266   2.836272   2.438532   1.406598
    12  C    4.596993   3.818523   2.454023   2.811627   2.433968
    13  C    3.360613   2.524174   1.415342   2.433444   2.811736
    14  H    5.425219   6.385353   7.747633   8.314189   9.666640
    15  H    2.784120   4.241441   5.201478   5.706956   6.873564
    16  H    2.834259   4.262577   5.251865   6.128221   7.250214
    17  H    2.174658   2.797784   4.183422   5.231033   6.529168
    18  H    2.164994   2.800588   4.173807   4.787447   6.171675
    19  H    1.094916   2.172737   2.751265   3.147869   4.325327
    20  H    1.095094   2.173522   2.760803   3.782536   4.812369
    21  H    2.172716   1.094456   2.124775   3.366511   4.537667
    22  H    2.174309   1.094938   2.125339   2.656591   4.038618
    23  H    3.440615   2.721079   2.124729   1.022994   2.102301
    24  H    5.358608   4.634574   3.377019   2.114506   1.022511
    25  H    6.097199   5.346941   3.858948   3.363688   2.113453
    26  H    5.348801   4.636194   3.377432   3.834226   3.358085
    27  H    3.424243   2.723105   2.124938   3.365668   3.834574
                   11         12         13         14         15
    11  C    0.000000
    12  C    1.406630   0.000000
    13  C    2.438713   1.408144   0.000000
    14  H   10.437964  10.002850   8.702470   0.000000
    15  H    7.520129   7.149219   6.035731   3.607683   0.000000
    16  H    7.599342   6.917647   5.730659   4.138233   1.768807
    17  H    6.942410   6.200333   4.814199   4.218301   3.070903
    18  H    6.922760   6.521892   5.230867   3.623402   2.536455
    19  H    5.023441   4.786721   3.756364   5.556503   2.567178
    20  H    5.038842   4.326797   3.141444   5.967336   3.080915
    21  H    4.807566   4.042991   2.662559   6.541945   4.759211
    22  H    4.807197   4.541122   3.371566   6.161200   4.445039
    23  H    3.355732   3.834454   3.365645   7.877478   5.466503
    24  H    2.110699   3.358171   3.834246  10.188351   7.422396
    25  H    1.022676   2.113651   3.363983  11.425293   8.434051
    26  H    2.110538   1.022600   2.114994  10.734685   7.859721
    27  H    3.355955   2.102539   1.023003   8.574843   6.048779
                   16         17         18         19         20
    16  H    0.000000
    17  H    2.482469   0.000000
    18  H    3.071245   1.774181   0.000000
    19  H    3.187123   3.069556   2.488082   0.000000
    20  H    2.606575   2.513929   3.063898   1.775539   0.000000
    21  H    4.422054   2.575641   3.134969   3.070662   2.508335
    22  H    4.781228   3.104748   2.568834   2.517120   3.072466
    23  H    6.157047   5.240250   4.457862   3.029109   4.091068
    24  H    7.978187   7.322899   6.775803   4.929196   5.648706
    25  H    8.519009   7.950577   7.929013   5.962397   5.978524
    26  H    7.451272   6.811863   7.320861   5.618049   4.924251
    27  H    5.452138   4.493470   5.252248   4.058426   3.005208
                   21         22         23         24         25
    21  H    0.000000
    22  H    1.757698   0.000000
    23  H    3.684450   2.480191   0.000000
    24  H    5.424384   4.693844   2.414409   0.000000
    25  H    5.810811   5.810263   4.199898   2.427965   0.000000
    26  H    4.700666   5.429656   4.857036   4.203589   2.427901
    27  H    2.491270   3.692459   4.224924   4.857068   4.200297
                   26         27
    26  H    0.000000
    27  H    2.415131   0.000000
 Stoichiometry    C11H14O2
 Framework group  C1[X(C11H14O2)]
 Deg. of freedom    75
 Full point group                 C1      NOp   1
 Largest Abelian subgroup         C1      NOp   1
 Largest concise Abelian subgroup C1      NOp   1
                         Standard orientation:                         
 ---------------------------------------------------------------------
 Center     Atomic      Atomic             Coordinates (Angstroms)
 Number     Number       Type             X           Y           Z
 ---------------------------------------------------------------------
      1          8           0       -5.023861   -1.034119   -0.200178
      2          6           0       -4.226410   -0.072185   -0.248542
      3          8           0       -4.645086    1.148320    0.161612
      4          6           0       -2.849942   -0.240339   -0.745291
      5          6           0       -1.804666   -0.032146    0.380276
      6          6           0       -0.347434   -0.090918   -0.148648
      7          6           0        0.698913    0.095089    0.982598
      8          6           0        2.092681    0.052967    0.463208
      9          6           0        2.743633    1.238190    0.045761
     10          6           0        4.061760    1.199577   -0.447629
     11          6           0        4.747084   -0.025807   -0.532977
     12          6           0        4.110533   -1.212712   -0.127186
     13          6           0        2.792111   -1.173620    0.365871
     14          1           0       -5.558098    1.273660    0.499358
     15          1           0       -2.687274    0.491213   -1.540624
     16          1           0       -2.727403   -1.238715   -1.173994
     17          1           0       -1.944908   -0.806261    1.141894
     18          1           0       -1.966748    0.943428    0.848926
     19          1           0       -0.210767    0.697074   -0.896466
     20          1           0       -0.183706   -1.058769   -0.634125
     21          1           0        0.559258   -0.689286    1.732989
     22          1           0        0.519442    1.050564    1.486333
     23          1           0        2.261325    2.138943    0.096146
     24          1           0        4.523186    2.062250   -0.744967
     25          1           0        5.704129   -0.054037   -0.892329
     26          1           0        4.607955   -2.103868   -0.191400
     27          1           0        2.345609   -2.048388    0.652147
 ---------------------------------------------------------------------
 Rotational constants (GHZ):           2.7852861           0.2296228           0.2207763
 Leave Link  202 at Mon Feb 22 20:57:20 2021, MaxMem=   104857600 cpu:               1.5 elap:               0.1
 (Enter /sw/arch/RedHatEnterpriseServer7/EB_production/2019/software/Gaussian/g16.c01/l301.exe)
 Standard basis: TZVP (5D, 7F)
 Ernie: Thresh=  0.10000D-02 Tol=  0.10000D-05 Strict=F.
 There are   344 symmetry adapted cartesian basis functions of A   symmetry.
 There are   331 symmetry adapted basis functions of A   symmetry.
   331 basis functions,   567 primitive gaussians,   344 cartesian basis functions
    48 alpha electrons       48 beta electrons
       nuclear repulsion energy       711.3476932030 Hartrees.
 IExCor=  404 DFT=T Ex=B Corr=P86 ExCW=0 ScaHFX=  0.000000
 ScaDFX=  1.000000  1.000000  1.000000  1.000000 ScalE2=  1.000000  1.000000
 IRadAn=      5 IRanWt=     -1 IRanGd=            0 ICorTp=0 IEmpDi=131
 NAtoms=   27 NActive=   27 NUniq=   27 SFac= 1.00D+00 NAtFMM=   60 NAOKFM=F Big=F
 Integral buffers will be    131072 words long.
 Raffenetti 2 integral format.
 Two-electron integral symmetry is turned on.
 R6Disp:  Grimme-D3 Dispersion energy=       -0.0241477028 Hartrees.
 Nuclear repulsion after empirical dispersion term =      711.3235455002 Hartrees.
 ------------------------------------------------------------------------------
 Polarizable Continuum Model (PCM)
 =================================
 Model                : PCM.
 Atomic radii         : UFF (Universal Force Field).
 Polarization charges : Total charges.
 Charge compensation  : None.
 Solution method      : On-the-fly selection.
 Cavity type          : Scaled VdW (van der Waals Surface) (Alpha=1.100).
 Cavity algorithm     : GePol (No added spheres)
                        Default sphere list used, NSphG=   27.
                        Lebedev-Laikov grids with approx.  5.0 points / Ang**2.
                        Smoothing algorithm: York/Karplus (Gamma=1.0000).
                        Polarization charges: spherical gaussians, with
                                              point-specific exponents (IZeta= 3).
                        Self-potential: point-specific (ISelfS= 7).
                        Self-field    : sphere-specific E.n sum rule (ISelfD= 2).
 1st derivatives      : Analytical E(r).r(x)/FMM algorithm (CHGder, D1EAlg=3).
                        Cavity 1st derivative terms included.
 Solvent              : Water, Eps=  78.355300 Eps(inf)=   1.777849
 ------------------------------------------------------------------------------
 GePol: Number of generator spheres                  =      27
 GePol: Total number of spheres                      =      27
 GePol: Number of exposed spheres                    =      27 (100.00%)
 GePol: Number of points                             =    2141
 GePol: Average weight of points                     =       0.13
 GePol: Minimum weight of points                     =   0.18D-09
 GePol: Maximum weight of points                     =    0.20577
 GePol: Number of points with low weight             =     166
 GePol: Fraction of low-weight points (<1% of avg)   =       7.75%
 GePol: Cavity surface area                          =    275.614 Ang**2
 GePol: Cavity volume                                =    277.815 Ang**3
 Leave Link  301 at Mon Feb 22 20:57:20 2021, MaxMem=   104857600 cpu:               1.8 elap:               0.1
 (Enter /sw/arch/RedHatEnterpriseServer7/EB_production/2019/software/Gaussian/g16.c01/l302.exe)
 NPDir=0 NMtPBC=     1 NCelOv=     1 NCel=       1 NClECP=     1 NCelD=      1
         NCelK=      1 NCelE2=     1 NClLst=     1 CellRange=     0.0.
 One-electron integrals computed using PRISM.
 One-electron integral symmetry used in STVInt
 PrsmSu:  requested number of processors reduced to:  27 ShMem   1 Linda.
 NBasis=   331 RedAO= T EigKep=  9.52D-06  NBF=   331
 NBsUse=   331 1.00D-06 EigRej= -1.00D+00 NBFU=   331
 Precomputing XC quadrature grid using
 IXCGrd= 4 IRadAn=           5 IRanWt=          -1 IRanGd=           0 AccXCQ= 0.00D+00.
 Generated NRdTot=       0 NPtTot=           0 NUsed=           0 NTot=          32
 NSgBfM=   335   335   335   335   335 MxSgAt=    27 MxSgA2=    27.
 Leave Link  302 at Mon Feb 22 20:57:20 2021, MaxMem=   104857600 cpu:              11.7 elap:               0.5
 (Enter /sw/arch/RedHatEnterpriseServer7/EB_production/2019/software/Gaussian/g16.c01/l303.exe)
 DipDrv:  MaxL=1.
 Leave Link  303 at Mon Feb 22 20:57:20 2021, MaxMem=   104857600 cpu:               2.2 elap:               0.1
 (Enter /sw/arch/RedHatEnterpriseServer7/EB_production/2019/software/Gaussian/g16.c01/l401.exe)
 ExpMin= 9.52D-02 ExpMax= 2.70D+04 ExpMxC= 9.22D+02 IAcc=3 IRadAn=         5 AccDes= 0.00D+00
 Harris functional with IExCor=  404 and IRadAn=       5 diagonalized for initial guess.
 HarFok:  IExCor=  404 AccDes= 0.00D+00 IRadAn=         5 IDoV= 1 UseB2=F ITyADJ=14
 ICtDFT=  3500011 ScaDFX=  1.000000  1.000000  1.000000  1.000000
 FoFCou: FMM=F IPFlag=           0 FMFlag=      100000 FMFlg1=           0
         NFxFlg=           0 DoJE=T BraDBF=F KetDBF=T FulRan=T
         wScrn=  0.000000 ICntrl=       500 IOpCl=  0 I1Cent=   200000004 NGrid=           0
         NMat0=    1 NMatS0=      1 NMatT0=    0 NMatD0=    1 NMtDS0=    0 NMtDT0=    0
 Petite list used in FoFCou.
 Harris En= -578.547440813812    
 JPrj=0 DoOrth=F DoCkMO=F.
 Leave Link  401 at Mon Feb 22 20:57:21 2021, MaxMem=   104857600 cpu:              19.8 elap:               0.7
 (Enter /sw/arch/RedHatEnterpriseServer7/EB_production/2019/software/Gaussian/g16.c01/l502.exe)
 Integral symmetry usage will be decided dynamically.
 Closed shell SCF:
 Using DIIS extrapolation, IDIIS=  1040.
 NGot=   104857600 LenX=   104605728 LenY=   104486951
 Requested convergence on RMS density matrix=1.00D-08 within 128 cycles.
 Requested convergence on MAX density matrix=1.00D-06.
 Requested convergence on             energy=1.00D-06.
 No special actions if energy rises.
 Fock matrices will be formed incrementally for  20 cycles.

 Cycle   1  Pass 1  IDiag  1:
 FoFJK:  IHMeth= 1 ICntrl=     500 DoSepK=F KAlg= 0 I1Cent=           0 FoldK=F
 IRaf= 820000000 NMat=       1 IRICut=       1 DoRegI=T DoRafI=F ISym2E= 0 IDoP0=0 IntGTp=1.
 FoFCou: FMM=F IPFlag=           0 FMFlag=      100000 FMFlg1=           0
         NFxFlg=           0 DoJE=T BraDBF=F KetDBF=F FulRan=T
         wScrn=  0.000000 ICntrl=       500 IOpCl=  0 I1Cent=           0 NGrid=           0
         NMat0=    1 NMatS0=      1 NMatT0=    0 NMatD0=    1 NMtDS0=    0 NMtDT0=    0
 Symmetry not used in FoFCou.
 Inv3:  Mode=1 IEnd=    13751643.
 Iteration    1 A*A^-1 deviation from unit magnitude is 3.00D-15 for   1666.
 Iteration    1 A*A^-1 deviation from orthogonality  is 1.75D-15 for   1890    228.
 Iteration    1 A^-1*A deviation from unit magnitude is 2.89D-15 for    913.
 Iteration    1 A^-1*A deviation from orthogonality  is 1.89D-15 for   1831    344.
 E= -577.921078191165    
 DIIS: error= 3.19D-02 at cycle   1 NSaved=   1.
 NSaved= 1 IEnMin= 1 EnMin= -577.921078191165     IErMin= 1 ErrMin= 3.19D-02
 ErrMax= 3.19D-02  0.00D+00 EMaxC= 1.00D-01 BMatC= 3.69D-01 BMatP= 3.69D-01
 IDIUse=3 WtCom= 6.81D-01 WtEn= 3.19D-01
 Coeff-Com:  0.100D+01
 Coeff-En:   0.100D+01
 Coeff:      0.100D+01
 Gap=     0.173 Goal=   None    Shift=    0.000
 GapD=    0.173 DampG=1.000 DampE=0.500 DampFc=0.5000 IDamp=-1.
 Damping current iteration by 5.00D-01
 RMSDP=6.23D-03 MaxDP=5.77D-01              OVMax= 2.65D-01

 Cycle   2  Pass 1  IDiag  1:
 RMSU=  3.11D-03    CP:  9.82D-01
 E= -577.989914485918     Delta-E=       -0.068836294753 Rises=F Damp=T
 DIIS: error= 2.29D-02 at cycle   2 NSaved=   2.
 NSaved= 2 IEnMin= 2 EnMin= -577.989914485918     IErMin= 2 ErrMin= 2.29D-02
 ErrMax= 2.29D-02  0.00D+00 EMaxC= 1.00D-01 BMatC= 8.02D-02 BMatP= 3.69D-01
 IDIUse=3 WtCom= 7.71D-01 WtEn= 2.29D-01
 Coeff-Com:  0.275D+00 0.725D+00
 Coeff-En:   0.405D+00 0.595D+00
 Coeff:      0.305D+00 0.695D+00
 Gap=     0.172 Goal=   None    Shift=    0.000
 RMSDP=2.13D-03 MaxDP=2.12D-01 DE=-6.88D-02 OVMax= 2.06D-01

 Cycle   3  Pass 1  IDiag  1:
 RMSU=  1.43D-03    CP:  9.65D-01  4.95D-01
 E= -578.197808404902     Delta-E=       -0.207893918984 Rises=F Damp=F
 DIIS: error= 2.78D-02 at cycle   3 NSaved=   3.
 NSaved= 3 IEnMin= 3 EnMin= -578.197808404902     IErMin= 2 ErrMin= 2.29D-02
 ErrMax= 2.78D-02  0.00D+00 EMaxC= 1.00D-01 BMatC= 9.27D-02 BMatP= 8.02D-02
 IDIUse=2 WtCom= 0.00D+00 WtEn= 1.00D+00
 Coeff-En:   0.000D+00 0.000D+00 0.100D+01
 Coeff:      0.000D+00 0.000D+00 0.100D+01
 Gap=     0.169 Goal=   None    Shift=    0.000
 RMSDP=3.86D-03 MaxDP=3.15D-01 DE=-2.08D-01 OVMax= 4.79D-01

 Cycle   4  Pass 1  IDiag  1:
 RMSU=  2.03D-03    CP:  9.94D-01  1.22D+00 -6.58D-01
 E= -577.537191261184     Delta-E=        0.660617143718 Rises=F Damp=F
 DIIS: error= 9.28D-02 at cycle   4 NSaved=   4.
 NSaved= 4 IEnMin= 3 EnMin= -578.197808404902     IErMin= 2 ErrMin= 2.29D-02
 ErrMax= 9.28D-02  0.00D+00 EMaxC= 1.00D-01 BMatC= 9.06D-01 BMatP= 8.02D-02
 IDIUse=2 WtCom= 0.00D+00 WtEn= 1.00D+00
 Coeff-En:   0.000D+00 0.000D+00 0.848D+00 0.152D+00
 Coeff:      0.000D+00 0.000D+00 0.848D+00 0.152D+00
 Gap=     0.137 Goal=   None    Shift=    0.000
 RMSDP=2.48D-03 MaxDP=2.25D-01 DE= 6.61D-01 OVMax= 2.66D-01

 Cycle   5  Pass 1  IDiag  1:
 RMSU=  5.04D-04    CP:  9.82D-01  6.76D-01  2.31D-01  4.14D-01
 E= -578.198468693984     Delta-E=       -0.661277432800 Rises=F Damp=F
 DIIS: error= 2.95D-02 at cycle   5 NSaved=   5.
 NSaved= 5 IEnMin= 5 EnMin= -578.198468693984     IErMin= 2 ErrMin= 2.29D-02
 ErrMax= 2.95D-02  0.00D+00 EMaxC= 1.00D-01 BMatC= 9.57D-02 BMatP= 8.02D-02
 IDIUse=2 WtCom= 0.00D+00 WtEn= 1.00D+00
 Coeff-En:   0.000D+00 0.000D+00 0.498D+00 0.000D+00 0.502D+00
 Coeff:      0.000D+00 0.000D+00 0.498D+00 0.000D+00 0.502D+00
 Gap=     0.186 Goal=   None    Shift=    0.000
 RMSDP=9.08D-04 MaxDP=6.69D-02 DE=-6.61D-01 OVMax= 1.23D-01

 Cycle   6  Pass 1  IDiag  1:
 RMSU=  1.25D-04    CP:  9.73D-01  5.28D-01  6.20D-01  1.64D-01  6.92D-01
 E= -578.271973669330     Delta-E=       -0.073504975345 Rises=F Damp=F
 DIIS: error= 2.82D-03 at cycle   6 NSaved=   6.
 NSaved= 6 IEnMin= 6 EnMin= -578.271973669330     IErMin= 6 ErrMin= 2.82D-03
 ErrMax= 2.82D-03  0.00D+00 EMaxC= 1.00D-01 BMatC= 7.70D-04 BMatP= 8.02D-02
 IDIUse=3 WtCom= 9.72D-01 WtEn= 2.82D-02
 Coeff-Com: -0.477D-02 0.197D-01 0.217D+00-0.381D-01 0.341D+00 0.466D+00
 Coeff-En:   0.000D+00 0.000D+00 0.000D+00 0.000D+00 0.000D+00 0.100D+01
 Coeff:     -0.464D-02 0.191D-01 0.211D+00-0.371D-01 0.331D+00 0.481D+00
 Gap=     0.168 Goal=   None    Shift=    0.000
 RMSDP=1.32D-04 MaxDP=9.82D-03 DE=-7.35D-02 OVMax= 1.53D-02

 Cycle   7  Pass 1  IDiag  1:
 RMSU=  6.21D-05    CP:  9.73D-01  5.59D-01  6.03D-01  1.90D-01  7.20D-01
                    CP:  7.51D-01
 E= -578.272440616349     Delta-E=       -0.000466947020 Rises=F Damp=F
 DIIS: error= 1.50D-03 at cycle   7 NSaved=   7.
 NSaved= 7 IEnMin= 7 EnMin= -578.272440616349     IErMin= 7 ErrMin= 1.50D-03
 ErrMax= 1.50D-03  0.00D+00 EMaxC= 1.00D-01 BMatC= 2.30D-04 BMatP= 7.70D-04
 IDIUse=3 WtCom= 9.85D-01 WtEn= 1.50D-02
 Coeff-Com: -0.438D-02 0.609D-02 0.610D-01-0.135D-01 0.101D+00 0.354D+00
 Coeff-Com:  0.496D+00
 Coeff-En:   0.000D+00 0.000D+00 0.000D+00 0.000D+00 0.000D+00 0.261D+00
 Coeff-En:   0.739D+00
 Coeff:     -0.431D-02 0.600D-02 0.601D-01-0.133D-01 0.990D-01 0.353D+00
 Coeff:      0.500D+00
 Gap=     0.169 Goal=   None    Shift=    0.000
 RMSDP=3.68D-05 MaxDP=1.50D-03 DE=-4.67D-04 OVMax= 4.10D-03

 Cycle   8  Pass 1  IDiag  1:
 RMSU=  1.80D-05    CP:  9.73D-01  5.54D-01  6.08D-01  1.88D-01  7.13D-01
                    CP:  7.09D-01  5.71D-01
 E= -578.272602910104     Delta-E=       -0.000162293754 Rises=F Damp=F
 DIIS: error= 2.55D-04 at cycle   8 NSaved=   8.
 NSaved= 8 IEnMin= 8 EnMin= -578.272602910104     IErMin= 8 ErrMin= 2.55D-04
 ErrMax= 2.55D-04  0.00D+00 EMaxC= 1.00D-01 BMatC= 1.27D-05 BMatP= 2.30D-04
 IDIUse=3 WtCom= 9.97D-01 WtEn= 2.55D-03
 Coeff-Com: -0.107D-02-0.247D-03 0.835D-02-0.748D-03 0.603D-02 0.145D+00
 Coeff-Com:  0.243D+00 0.600D+00
 Coeff-En:   0.000D+00 0.000D+00 0.000D+00 0.000D+00 0.000D+00 0.000D+00
 Coeff-En:   0.000D+00 0.100D+01
 Coeff:     -0.107D-02-0.246D-03 0.833D-02-0.746D-03 0.602D-02 0.144D+00
 Coeff:      0.242D+00 0.601D+00
 Gap=     0.169 Goal=   None    Shift=    0.000
 RMSDP=1.33D-05 MaxDP=1.07D-03 DE=-1.62D-04 OVMax= 9.66D-04

 Cycle   9  Pass 1  IDiag  1:
 RMSU=  4.89D-06    CP:  9.73D-01  5.52D-01  6.11D-01  1.85D-01  7.11D-01
                    CP:  7.43D-01  5.65D-01  6.97D-01
 E= -578.272612811794     Delta-E=       -0.000009901690 Rises=F Damp=F
 DIIS: error= 4.87D-05 at cycle   9 NSaved=   9.
 NSaved= 9 IEnMin= 9 EnMin= -578.272612811794     IErMin= 9 ErrMin= 4.87D-05
 ErrMax= 4.87D-05  0.00D+00 EMaxC= 1.00D-01 BMatC= 5.67D-07 BMatP= 1.27D-05
 IDIUse=1 WtCom= 1.00D+00 WtEn= 0.00D+00
 Coeff-Com: -0.234D-03-0.346D-03 0.191D-02 0.126D-03-0.152D-02 0.592D-01
 Coeff-Com:  0.105D+00 0.329D+00 0.507D+00
 Coeff:     -0.234D-03-0.346D-03 0.191D-02 0.126D-03-0.152D-02 0.592D-01
 Coeff:      0.105D+00 0.329D+00 0.507D+00
 Gap=     0.169 Goal=   None    Shift=    0.000
 RMSDP=3.02D-06 MaxDP=9.10D-05 DE=-9.90D-06 OVMax= 1.91D-04

 Cycle  10  Pass 1  IDiag  1:
 RMSU=  1.26D-06    CP:  9.73D-01  5.52D-01  6.11D-01  1.85D-01  7.11D-01
                    CP:  7.52D-01  5.80D-01  6.91D-01  5.62D-01
 E= -578.272613316764     Delta-E=       -0.000000504970 Rises=F Damp=F
 DIIS: error= 1.22D-05 at cycle  10 NSaved=  10.
 NSaved=10 IEnMin=10 EnMin= -578.272613316764     IErMin=10 ErrMin= 1.22D-05
 ErrMax= 1.22D-05  0.00D+00 EMaxC= 1.00D-01 BMatC= 4.37D-08 BMatP= 5.67D-07
 IDIUse=1 WtCom= 1.00D+00 WtEn= 0.00D+00
 Coeff-Com: -0.951D-06-0.107D-03 0.633D-03 0.214D-04-0.906D-03 0.200D-01
 Coeff-Com:  0.381D-01 0.130D+00 0.283D+00 0.530D+00
 Coeff:     -0.951D-06-0.107D-03 0.633D-03 0.214D-04-0.906D-03 0.200D-01
 Coeff:      0.381D-01 0.130D+00 0.283D+00 0.530D+00
 Gap=     0.169 Goal=   None    Shift=    0.000
 RMSDP=6.35D-07 MaxDP=2.00D-05 DE=-5.05D-07 OVMax= 6.32D-05

 Cycle  11  Pass 1  IDiag  1:
 RMSU=  4.07D-07    CP:  9.73D-01  5.52D-01  6.11D-01  1.85D-01  7.11D-01
                    CP:  7.51D-01  5.80D-01  6.94D-01  5.88D-01  6.35D-01
 E= -578.272613377948     Delta-E=       -0.000000061184 Rises=F Damp=F
 DIIS: error= 3.37D-06 at cycle  11 NSaved=  11.
 NSaved=11 IEnMin=11 EnMin= -578.272613377948     IErMin=11 ErrMin= 3.37D-06
 ErrMax= 3.37D-06  0.00D+00 EMaxC= 1.00D-01 BMatC= 3.23D-09 BMatP= 4.37D-08
 IDIUse=1 WtCom= 1.00D+00 WtEn= 0.00D+00
 Coeff-Com:  0.244D-04-0.534D-04 0.155D-03 0.190D-04-0.427D-03 0.567D-02
 Coeff-Com:  0.114D-01 0.405D-01 0.108D+00 0.284D+00 0.551D+00
 Coeff:      0.244D-04-0.534D-04 0.155D-03 0.190D-04-0.427D-03 0.567D-02
 Coeff:      0.114D-01 0.405D-01 0.108D+00 0.284D+00 0.551D+00
 Gap=     0.169 Goal=   None    Shift=    0.000
 RMSDP=2.34D-07 MaxDP=7.71D-06 DE=-6.12D-08 OVMax= 2.86D-05

 Cycle  12  Pass 1  IDiag  1:
 RMSU=  1.39D-07    CP:  9.73D-01  5.52D-01  6.11D-01  1.85D-01  7.11D-01
                    CP:  7.51D-01  5.80D-01  6.97D-01  6.00D-01  6.41D-01
                    CP:  6.98D-01
 E= -578.272613367759     Delta-E=        0.000000010189 Rises=F Damp=F
 DIIS: error= 1.42D-06 at cycle  12 NSaved=  12.
 NSaved=12 IEnMin=11 EnMin= -578.272613377948     IErMin=12 ErrMin= 1.42D-06
 ErrMax= 1.42D-06  0.00D+00 EMaxC= 1.00D-01 BMatC= 4.47D-10 BMatP= 3.23D-09
 IDIUse=1 WtCom= 1.00D+00 WtEn= 0.00D+00
 Coeff-Com:  0.135D-04-0.303D-04 0.214D-04 0.170D-04-0.190D-03 0.151D-02
 Coeff-Com:  0.313D-02 0.112D-01 0.369D-01 0.120D+00 0.337D+00 0.491D+00
 Coeff:      0.135D-04-0.303D-04 0.214D-04 0.170D-04-0.190D-03 0.151D-02
 Coeff:      0.313D-02 0.112D-01 0.369D-01 0.120D+00 0.337D+00 0.491D+00
 Gap=     0.169 Goal=   None    Shift=    0.000
 RMSDP=7.32D-08 MaxDP=2.56D-06 DE= 1.02D-08 OVMax= 1.27D-05

 Cycle  13  Pass 1  IDiag  1:
 RMSU=  4.27D-08    CP:  9.73D-01  5.52D-01  6.11D-01  1.85D-01  7.11D-01
                    CP:  7.51D-01  5.80D-01  6.97D-01  6.01D-01  6.54D-01
                    CP:  7.06D-01  6.42D-01
 E= -578.272613368192     Delta-E=       -0.000000000434 Rises=F Damp=F
 DIIS: error= 4.35D-07 at cycle  13 NSaved=  13.
 NSaved=13 IEnMin=11 EnMin= -578.272613377948     IErMin=13 ErrMin= 4.35D-07
 ErrMax= 4.35D-07  0.00D+00 EMaxC= 1.00D-01 BMatC= 3.15D-11 BMatP= 4.47D-10
 IDIUse=1 WtCom= 1.00D+00 WtEn= 0.00D+00
 Coeff-Com:  0.565D-05-0.110D-04-0.347D-06 0.648D-05-0.611D-04 0.309D-03
 Coeff-Com:  0.709D-03 0.264D-02 0.114D-01 0.419D-01 0.139D+00 0.272D+00
 Coeff-Com:  0.532D+00
 Coeff:      0.565D-05-0.110D-04-0.347D-06 0.648D-05-0.611D-04 0.309D-03
 Coeff:      0.709D-03 0.264D-02 0.114D-01 0.419D-01 0.139D+00 0.272D+00
 Coeff:      0.532D+00
 Gap=     0.169 Goal=   None    Shift=    0.000
 RMSDP=2.51D-08 MaxDP=6.89D-07 DE=-4.34D-10 OVMax= 3.53D-06

 Cycle  14  Pass 1  IDiag  1:
 RMSU=  1.55D-08    CP:  9.73D-01  5.52D-01  6.11D-01  1.85D-01  7.11D-01
                    CP:  7.51D-01  5.80D-01  6.97D-01  6.00D-01  6.58D-01
                    CP:  7.10D-01  6.58D-01  6.74D-01
 E= -578.272613368223     Delta-E=       -0.000000000030 Rises=F Damp=F
 DIIS: error= 2.96D-07 at cycle  14 NSaved=  14.
 NSaved=14 IEnMin=11 EnMin= -578.272613377948     IErMin=14 ErrMin= 2.96D-07
 ErrMax= 2.96D-07  0.00D+00 EMaxC= 1.00D-01 BMatC= 8.27D-12 BMatP= 3.15D-11
 IDIUse=1 WtCom= 1.00D+00 WtEn= 0.00D+00
 Coeff-Com:  0.192D-05-0.257D-05-0.161D-05 0.111D-05-0.117D-04 0.116D-04
 Coeff-Com:  0.778D-04 0.326D-03 0.295D-02 0.127D-01 0.498D-01 0.121D+00
 Coeff-Com:  0.371D+00 0.442D+00
 Coeff:      0.192D-05-0.257D-05-0.161D-05 0.111D-05-0.117D-04 0.116D-04
 Coeff:      0.778D-04 0.326D-03 0.295D-02 0.127D-01 0.498D-01 0.121D+00
 Coeff:      0.371D+00 0.442D+00
 Gap=     0.169 Goal=   None    Shift=    0.000
 RMSDP=1.07D-08 MaxDP=5.14D-07 DE=-3.02D-11 OVMax= 1.54D-06

 Cycle  15  Pass 1  IDiag  1:
 RMSU=  5.60D-09    CP:  9.73D-01  5.52D-01  6.11D-01  1.85D-01  7.11D-01
                    CP:  7.51D-01  5.80D-01  6.97D-01  6.01D-01  6.57D-01
                    CP:  7.17D-01  6.55D-01  7.11D-01  5.72D-01
 E= -578.272613368224     Delta-E=       -0.000000000001 Rises=F Damp=F
 DIIS: error= 6.41D-08 at cycle  15 NSaved=  15.
 NSaved=15 IEnMin=11 EnMin= -578.272613377948     IErMin=15 ErrMin= 6.41D-08
 ErrMax= 6.41D-08  0.00D+00 EMaxC= 1.00D-01 BMatC= 4.39D-13 BMatP= 8.27D-12
 IDIUse=1 WtCom= 1.00D+00 WtEn= 0.00D+00
 Coeff-Com:  0.566D-06-0.519D-06-0.816D-06 0.319D-07-0.144D-05-0.136D-04
 Coeff-Com: -0.543D-05-0.255D-05 0.894D-03 0.417D-02 0.180D-01 0.497D-01
 Coeff-Com:  0.180D+00 0.261D+00 0.486D+00
 Coeff:      0.566D-06-0.519D-06-0.816D-06 0.319D-07-0.144D-05-0.136D-04
 Coeff:     -0.543D-05-0.255D-05 0.894D-03 0.417D-02 0.180D-01 0.497D-01
 Coeff:      0.180D+00 0.261D+00 0.486D+00
 Gap=     0.169 Goal=   None    Shift=    0.000
 RMSDP=2.67D-09 MaxDP=1.82D-07 DE=-1.02D-12 OVMax= 3.42D-07

 Error on total polarization charges =  0.01570
 SCF Done:  E(RB-P86) =  -578.272613368     A.U. after   15 cycles
            NFock= 15  Conv=0.27D-08     -V/T= 2.0040
 KE= 5.759684175966D+02 PE=-2.770103357698D+03 EE= 9.045387812330D+02
 Leave Link  502 at Mon Feb 22 20:57:46 2021, MaxMem=   104857600 cpu:             786.4 elap:              25.2
 (Enter /sw/arch/RedHatEnterpriseServer7/EB_production/2019/software/Gaussian/g16.c01/l601.exe)
 Copying SCF densities to generalized density rwf, IOpCl= 0 IROHF=0.

 **********************************************************************

            Population analysis using the SCF Density.

 **********************************************************************

 Orbital symmetries:
       Occupied  (A) (A) (A) (A) (A) (A) (A) (A) (A) (A) (A) (A)
                 (A) (A) (A) (A) (A) (A) (A) (A) (A) (A) (A) (A)
                 (A) (A) (A) (A) (A) (A) (A) (A) (A) (A) (A) (A)
                 (A) (A) (A) (A) (A) (A) (A) (A) (A) (A) (A) (A)
       Virtual   (A) (A) (A) (A) (A) (A) (A) (A) (A) (A) (A) (A)
                 (A) (A) (A) (A) (A) (A) (A) (A) (A) (A) (A) (A)
                 (A) (A) (A) (A) (A) (A) (A) (A) (A) (A) (A) (A)
                 (A) (A) (A) (A) (A) (A) (A) (A) (A) (A) (A) (A)
                 (A) (A) (A) (A) (A) (A) (A) (A) (A) (A) (A) (A)
                 (A) (A) (A) (A) (A) (A) (A) (A) (A) (A) (A) (A)
                 (A) (A) (A) (A) (A) (A) (A) (A) (A) (A) (A) (A)
                 (A) (A) (A) (A) (A) (A) (A) (A) (A) (A) (A) (A)
                 (A) (A) (A) (A) (A) (A) (A) (A) (A) (A) (A) (A)
                 (A) (A) (A) (A) (A) (A) (A) (A) (A) (A) (A) (A)
                 (A) (A) (A) (A) (A) (A) (A) (A) (A) (A) (A) (A)
                 (A) (A) (A) (A) (A) (A) (A) (A) (A) (A) (A) (A)
                 (A) (A) (A) (A) (A) (A) (A) (A) (A) (A) (A) (A)
                 (A) (A) (A) (A) (A) (A) (A) (A) (A) (A) (A) (A)
                 (A) (A) (A) (A) (A) (A) (A) (A) (A) (A) (A) (A)
                 (A) (A) (A) (A) (A) (A) (A) (A) (A) (A) (A) (A)
                 (A) (A) (A) (A) (A) (A) (A) (A) (A) (A) (A) (A)
                 (A) (A) (A) (A) (A) (A) (A) (A) (A) (A) (A) (A)
                 (A) (A) (A) (A) (A) (A) (A) (A) (A) (A) (A) (A)
                 (A) (A) (A) (A) (A) (A) (A) (A) (A) (A) (A) (A)
                 (A) (A) (A) (A) (A) (A) (A) (A) (A) (A) (A) (A)
                 (A) (A) (A) (A) (A) (A) (A) (A) (A) (A) (A) (A)
                 (A) (A) (A) (A) (A) (A) (A) (A) (A) (A) (A) (A)
                 (A) (A) (A) (A) (A) (A) (A)
 The electronic state is 1-A.
 Alpha  occ. eigenvalues --  -18.82138 -18.75863 -10.03510  -9.91699  -9.91256
 Alpha  occ. eigenvalues --   -9.90788  -9.90141  -9.89929  -9.89789  -9.89784
 Alpha  occ. eigenvalues --   -9.89652  -9.89646  -9.89572  -1.01629  -0.92325
 Alpha  occ. eigenvalues --   -0.78425  -0.74601  -0.71552  -0.68279  -0.66809
 Alpha  occ. eigenvalues --   -0.61427  -0.57585  -0.55830  -0.54418  -0.52698
 Alpha  occ. eigenvalues --   -0.47260  -0.45449  -0.43955  -0.42855  -0.42548
 Alpha  occ. eigenvalues --   -0.41494  -0.40582  -0.38413  -0.37986  -0.37035
 Alpha  occ. eigenvalues --   -0.36456  -0.34589  -0.33459  -0.32655  -0.32132
 Alpha  occ. eigenvalues --   -0.30828  -0.30751  -0.29624  -0.29498  -0.28383
 Alpha  occ. eigenvalues --   -0.23452  -0.23400  -0.22325
 Alpha virt. eigenvalues --   -0.05470  -0.04946  -0.04620   0.01143   0.03021
 Alpha virt. eigenvalues --    0.05124   0.05340   0.05821   0.06803   0.08166
 Alpha virt. eigenvalues --    0.08522   0.08823   0.09630   0.10073   0.10400
 Alpha virt. eigenvalues --    0.10956   0.11490   0.12426   0.13249   0.13442
 Alpha virt. eigenvalues --    0.14756   0.15416   0.17226   0.17748   0.18369
 Alpha virt. eigenvalues --    0.18753   0.19710   0.19858   0.20937   0.20979
 Alpha virt. eigenvalues --    0.21851   0.22934   0.23142   0.24050   0.24988
 Alpha virt. eigenvalues --    0.25311   0.25609   0.27553   0.27765   0.28184
 Alpha virt. eigenvalues --    0.28490   0.28799   0.30841   0.31574   0.32622
 Alpha virt. eigenvalues --    0.33011   0.34084   0.34295   0.35012   0.35737
 Alpha virt. eigenvalues --    0.36183   0.36854   0.37296   0.38317   0.39976
 Alpha virt. eigenvalues --    0.40469   0.40928   0.42057   0.42233   0.42359
 Alpha virt. eigenvalues --    0.42528   0.42954   0.43437   0.43733   0.44599
 Alpha virt. eigenvalues --    0.44848   0.45040   0.45575   0.47285   0.47366
 Alpha virt. eigenvalues --    0.47822   0.48148   0.49031   0.49355   0.51031
 Alpha virt. eigenvalues --    0.51261   0.51854   0.53999   0.55396   0.55648
 Alpha virt. eigenvalues --    0.57282   0.58245   0.60193   0.61744   0.62764
 Alpha virt. eigenvalues --    0.63592   0.64799   0.65615   0.68962   0.69556
 Alpha virt. eigenvalues --    0.72172   0.74651   0.75326   0.78420   0.79683
 Alpha virt. eigenvalues --    0.87099   0.88856   1.03806   1.09759   1.11669
 Alpha virt. eigenvalues --    1.14046   1.15842   1.15980   1.17487   1.17840
 Alpha virt. eigenvalues --    1.18408   1.19086   1.20329   1.22085   1.22499
 Alpha virt. eigenvalues --    1.22653   1.23399   1.23802   1.24388   1.24752
 Alpha virt. eigenvalues --    1.25726   1.26044   1.28914   1.29843   1.31331
 Alpha virt. eigenvalues --    1.32746   1.33904   1.34737   1.35509   1.36870
 Alpha virt. eigenvalues --    1.37816   1.38488   1.38654   1.39775   1.40373
 Alpha virt. eigenvalues --    1.41960   1.42533   1.42637   1.43891   1.44837
 Alpha virt. eigenvalues --    1.45238   1.45498   1.46110   1.47397   1.47717
 Alpha virt. eigenvalues --    1.48942   1.49595   1.50449   1.50924   1.53486
 Alpha virt. eigenvalues --    1.55065   1.56890   1.58320   1.59250   1.60172
 Alpha virt. eigenvalues --    1.62265   1.62852   1.65301   1.67743   1.70979
 Alpha virt. eigenvalues --    1.73332   1.73567   1.74351   1.74716   1.75811
 Alpha virt. eigenvalues --    1.76639   1.77505   1.77849   1.78964   1.79491
 Alpha virt. eigenvalues --    1.79726   1.80818   1.81438   1.81787   1.82728
 Alpha virt. eigenvalues --    1.84297   1.85783   1.86360   1.88336   1.90099
 Alpha virt. eigenvalues --    1.92757   1.95398   1.95986   1.96454   1.98195
 Alpha virt. eigenvalues --    1.99456   2.02732   2.05939   2.07231   2.08130
 Alpha virt. eigenvalues --    2.08771   2.12321   2.13991   2.15157   2.16305
 Alpha virt. eigenvalues --    2.18632   2.20141   2.21705   2.22143   2.22748
 Alpha virt. eigenvalues --    2.24685   2.25543   2.28078   2.31403   2.32403
 Alpha virt. eigenvalues --    2.33502   2.35891   2.39796   2.42858   2.43185
 Alpha virt. eigenvalues --    2.44346   2.45735   2.46491   2.48420   2.48533
 Alpha virt. eigenvalues --    2.49611   2.50242   2.51200   2.51595   2.52215
 Alpha virt. eigenvalues --    2.52923   2.54924   2.56106   2.56693   2.57204
 Alpha virt. eigenvalues --    2.58097   2.58512   2.59911   2.61385   2.62947
 Alpha virt. eigenvalues --    2.63407   2.65190   2.66551   2.67068   2.70677
 Alpha virt. eigenvalues --    2.71480   2.72002   2.74345   2.75811   2.76615
 Alpha virt. eigenvalues --    2.77958   2.81429   2.87604   2.89062   2.90414
 Alpha virt. eigenvalues --    2.93442   2.99255   3.01399   3.02681   3.04403
 Alpha virt. eigenvalues --    3.05091   3.05420   3.07255   3.07730   3.08644
 Alpha virt. eigenvalues --    3.10109   3.14864   3.16963   3.20272   3.26513
 Alpha virt. eigenvalues --    3.27417   3.30235   3.31562   3.33245   3.33726
 Alpha virt. eigenvalues --    3.36275   3.38272   3.38345   3.41533   3.42284
 Alpha virt. eigenvalues --    3.46925   3.77411   3.81937   4.00751   4.18012
 Alpha virt. eigenvalues --   21.13547  21.63092  21.64931  21.65962  21.76628
 Alpha virt. eigenvalues --   21.80487  21.83495  21.85597  21.87298  21.89914
 Alpha virt. eigenvalues --   22.00447  43.04746  43.11898
          Condensed to atoms (all electrons):
               1          2          3          4          5          6
     1  O    7.987141   0.635624  -0.128415  -0.135205  -0.011112  -0.001804
     2  C    0.635624   4.866097   0.344123   0.069758  -0.036085  -0.017766
     3  O   -0.128415   0.344123   7.893323  -0.135975   0.010739  -0.003202
     4  C   -0.135205   0.069758  -0.135975   5.615439   0.124937   0.006359
     5  C   -0.011112  -0.036085   0.010739   0.124937   5.385157   0.149885
     6  C   -0.001804  -0.017766  -0.003202   0.006359   0.149885   5.380320
     7  C    0.000014   0.000714   0.000151   0.009481  -0.007882   0.178182
     8  C   -0.000004  -0.000461  -0.000008  -0.001124   0.003014  -0.037622
     9  C   -0.000000  -0.000014  -0.000000  -0.000079  -0.001232  -0.009161
    10  C   -0.000000   0.000000  -0.000000   0.000007   0.000134  -0.000449
    11  C    0.000000  -0.000000   0.000000   0.000001  -0.000034  -0.000116
    12  C   -0.000000  -0.000000   0.000000  -0.000000   0.000073  -0.000158
    13  C    0.000000   0.000019  -0.000000  -0.000034   0.000087  -0.011709
    14  H    0.001959  -0.019716   0.289426   0.014278   0.000282   0.000177
    15  H    0.005170   0.015666   0.006260   0.340511  -0.034477  -0.019552
    16  H    0.006352  -0.057335   0.004550   0.427500  -0.027497  -0.002186
    17  H    0.004196   0.018142  -0.000258  -0.048992   0.408515  -0.055570
    18  H    0.000328  -0.011995   0.005386  -0.035591   0.412548  -0.034003
    19  H    0.000044   0.000929   0.000203  -0.008088  -0.039521   0.417845
    20  H   -0.000097  -0.001411  -0.000052  -0.001724  -0.040688   0.418273
    21  H   -0.000005  -0.000210   0.000006  -0.000371  -0.008646  -0.037073
    22  H   -0.000000  -0.000050  -0.000039   0.000076  -0.002537  -0.043557
    23  H   -0.000000  -0.000003  -0.000000  -0.000020  -0.000338  -0.002287
    24  H   -0.000000  -0.000000  -0.000000   0.000000  -0.000003   0.000012
    25  H    0.000000  -0.000000  -0.000000   0.000000  -0.000000   0.000010
    26  H   -0.000000  -0.000000  -0.000000   0.000000  -0.000004   0.000016
    27  H   -0.000000  -0.000003  -0.000000  -0.000010  -0.000359  -0.002341
               7          8          9         10         11         12
     1  O    0.000014  -0.000004  -0.000000  -0.000000   0.000000  -0.000000
     2  C    0.000714  -0.000461  -0.000014   0.000000  -0.000000  -0.000000
     3  O    0.000151  -0.000008  -0.000000  -0.000000   0.000000   0.000000
     4  C    0.009481  -0.001124  -0.000079   0.000007   0.000001  -0.000000
     5  C   -0.007882   0.003014  -0.001232   0.000134  -0.000034   0.000073
     6  C    0.178182  -0.037622  -0.009161  -0.000449  -0.000116  -0.000158
     7  C    5.387212   0.139410  -0.078816   0.017406   0.003124   0.014959
     8  C    0.139410   5.339194   0.376768   0.014304  -0.088763   0.014144
     9  C   -0.078816   0.376768   5.211357   0.364519  -0.002038  -0.117690
    10  C    0.017406   0.014304   0.364519   5.109169   0.398376   0.003588
    11  C    0.003124  -0.088763  -0.002038   0.398376   5.122328   0.397629
    12  C    0.014959   0.014144  -0.117690   0.003588   0.397629   5.108731
    13  C   -0.062314   0.367338   0.012413  -0.118704  -0.001283   0.365912
    14  H   -0.000006   0.000001   0.000000   0.000000  -0.000000   0.000000
    15  H    0.000956  -0.000555  -0.000050  -0.000000   0.000001  -0.000003
    16  H    0.000033  -0.000050   0.000030  -0.000001   0.000000   0.000000
    17  H    0.000347  -0.002379  -0.000235   0.000003   0.000001  -0.000016
    18  H   -0.003963  -0.000227   0.000696  -0.000007   0.000000   0.000004
    19  H   -0.043570   0.002092   0.002458  -0.000798   0.000090  -0.000319
    20  H   -0.048350   0.002325   0.002802  -0.000198   0.000042  -0.000647
    21  H    0.422937  -0.051368   0.009670  -0.001190   0.000237   0.000165
    22  H    0.433009  -0.062063  -0.001798   0.000248   0.000231  -0.001139
    23  H   -0.007612  -0.060103   0.441712  -0.055928   0.012628  -0.002902
    24  H   -0.000911   0.014400  -0.055806   0.437062  -0.060071   0.013052
    25  H   -0.000070  -0.003183   0.015019  -0.057476   0.437211  -0.057418
    26  H   -0.000958   0.014379  -0.001218   0.012976  -0.060056   0.437240
    27  H   -0.007345  -0.059276   0.014832  -0.002967   0.012601  -0.055807
              13         14         15         16         17         18
     1  O    0.000000   0.001959   0.005170   0.006352   0.004196   0.000328
     2  C    0.000019  -0.019716   0.015666  -0.057335   0.018142  -0.011995
     3  O   -0.000000   0.289426   0.006260   0.004550  -0.000258   0.005386
     4  C   -0.000034   0.014278   0.340511   0.427500  -0.048992  -0.035591
     5  C    0.000087   0.000282  -0.034477  -0.027497   0.408515   0.412548
     6  C   -0.011709   0.000177  -0.019552  -0.002186  -0.055570  -0.034003
     7  C   -0.062314  -0.000006   0.000956   0.000033   0.000347  -0.003963
     8  C    0.367338   0.000001  -0.000555  -0.000050  -0.002379  -0.000227
     9  C    0.012413   0.000000  -0.000050   0.000030  -0.000235   0.000696
    10  C   -0.118704   0.000000  -0.000000  -0.000001   0.000003  -0.000007
    11  C   -0.001283  -0.000000   0.000001   0.000000   0.000001   0.000000
    12  C    0.365912   0.000000  -0.000003   0.000000  -0.000016   0.000004
    13  C    5.207211  -0.000000   0.000046  -0.000042   0.000764  -0.000233
    14  H   -0.000000   0.379660  -0.000618  -0.000364  -0.000202  -0.000176
    15  H    0.000046  -0.000618   0.532922  -0.019573   0.007964  -0.003072
    16  H   -0.000042  -0.000364  -0.019573   0.496526  -0.004328   0.005437
    17  H    0.000764  -0.000202   0.007964  -0.004328   0.545924  -0.022500
    18  H   -0.000233  -0.000176  -0.003072   0.005437  -0.022500   0.527854
    19  H    0.003057  -0.000008   0.002874   0.000666   0.005700  -0.002683
    20  H    0.002682   0.000003   0.000343   0.001848  -0.002510   0.006013
    21  H   -0.002185  -0.000000  -0.000101   0.000195   0.000938   0.001175
    22  H    0.009346   0.000001   0.000163  -0.000078   0.001302   0.001602
    23  H    0.014653  -0.000000  -0.000003   0.000001   0.000003   0.000046
    24  H   -0.001350   0.000000  -0.000000  -0.000000   0.000000  -0.000000
    25  H    0.014972  -0.000000  -0.000000   0.000000  -0.000000  -0.000000
    26  H   -0.056084   0.000000  -0.000000   0.000000  -0.000000   0.000000
    27  H    0.440795   0.000000   0.000000  -0.000000   0.000037   0.000006
              19         20         21         22         23         24
     1  O    0.000044  -0.000097  -0.000005  -0.000000  -0.000000  -0.000000
     2  C    0.000929  -0.001411  -0.000210  -0.000050  -0.000003  -0.000000
     3  O    0.000203  -0.000052   0.000006  -0.000039  -0.000000  -0.000000
     4  C   -0.008088  -0.001724  -0.000371   0.000076  -0.000020   0.000000
     5  C   -0.039521  -0.040688  -0.008646  -0.002537  -0.000338  -0.000003
     6  C    0.417845   0.418273  -0.037073  -0.043557  -0.002287   0.000012
     7  C   -0.043570  -0.048350   0.422937   0.433009  -0.007612  -0.000911
     8  C    0.002092   0.002325  -0.051368  -0.062063  -0.060103   0.014400
     9  C    0.002458   0.002802   0.009670  -0.001798   0.441712  -0.055806
    10  C   -0.000798  -0.000198  -0.001190   0.000248  -0.055928   0.437062
    11  C    0.000090   0.000042   0.000237   0.000231   0.012628  -0.060071
    12  C   -0.000319  -0.000647   0.000165  -0.001139  -0.002902   0.013052
    13  C    0.003057   0.002682  -0.002185   0.009346   0.014653  -0.001350
    14  H   -0.000008   0.000003  -0.000000   0.000001  -0.000000   0.000000
    15  H    0.002874   0.000343  -0.000101   0.000163  -0.000003  -0.000000
    16  H    0.000666   0.001848   0.000195  -0.000078   0.000001  -0.000000
    17  H    0.005700  -0.002510   0.000938   0.001302   0.000003   0.000000
    18  H   -0.002683   0.006013   0.001175   0.001602   0.000046  -0.000000
    19  H    0.531057  -0.021652   0.005642  -0.002501   0.000948   0.000009
    20  H   -0.021652   0.536168  -0.003029   0.005791   0.000116  -0.000004
    21  H    0.005642  -0.003029   0.526142  -0.026362   0.000380   0.000017
    22  H   -0.002501   0.005791  -0.026362   0.525331   0.001188  -0.000044
    23  H    0.000948   0.000116   0.000380   0.001188   0.516887  -0.005066
    24  H    0.000009  -0.000004   0.000017  -0.000044  -0.005066   0.521616
    25  H   -0.000000  -0.000000   0.000001   0.000001  -0.000198  -0.005853
    26  H   -0.000005   0.000008  -0.000036   0.000016   0.000027  -0.000215
    27  H    0.000153   0.000869   0.001449   0.000308  -0.000092   0.000025
              25         26         27
     1  O    0.000000  -0.000000  -0.000000
     2  C   -0.000000  -0.000000  -0.000003
     3  O   -0.000000  -0.000000  -0.000000
     4  C    0.000000   0.000000  -0.000010
     5  C   -0.000000  -0.000004  -0.000359
     6  C    0.000010   0.000016  -0.002341
     7  C   -0.000070  -0.000958  -0.007345
     8  C   -0.003183   0.014379  -0.059276
     9  C    0.015019  -0.001218   0.014832
    10  C   -0.057476   0.012976  -0.002967
    11  C    0.437211  -0.060056   0.012601
    12  C   -0.057418   0.437240  -0.055807
    13  C    0.014972  -0.056084   0.440795
    14  H   -0.000000   0.000000   0.000000
    15  H   -0.000000  -0.000000   0.000000
    16  H    0.000000   0.000000  -0.000000
    17  H   -0.000000  -0.000000   0.000037
    18  H   -0.000000   0.000000   0.000006
    19  H   -0.000000  -0.000005   0.000153
    20  H   -0.000000   0.000008   0.000869
    21  H    0.000001  -0.000036   0.001449
    22  H    0.000001   0.000016   0.000308
    23  H   -0.000198   0.000027  -0.000092
    24  H   -0.005853  -0.000215   0.000025
    25  H    0.515767  -0.005853  -0.000197
    26  H   -0.005853   0.521614  -0.005048
    27  H   -0.000197  -0.005048   0.516359
 Mulliken charges:
               1
     1  O   -0.364186
     2  C    0.193976
     3  O   -0.286219
     4  C   -0.241134
     5  C   -0.284956
     6  C   -0.272522
     7  C   -0.346139
     8  C    0.079817
     9  C   -0.184142
    10  C   -0.120072
    11  C   -0.172138
    12  C   -0.119399
    13  C   -0.185356
    14  H    0.335305
    15  H    0.165125
    16  H    0.168316
    17  H    0.143153
    18  H    0.153355
    19  H    0.145379
    20  H    0.143082
    21  H    0.161622
    22  H    0.161556
    23  H    0.145961
    24  H    0.143132
    25  H    0.147268
    26  H    0.143203
    27  H    0.146010
 Sum of Mulliken charges =  -0.00000
 Mulliken charges with hydrogens summed into heavy atoms:
               1
     1  O   -0.364186
     2  C    0.193976
     3  O    0.049086
     4  C    0.092308
     5  C    0.011553
     6  C    0.015939
     7  C   -0.022962
     8  C    0.079817
     9  C   -0.038180
    10  C    0.023060
    11  C   -0.024870
    12  C    0.023804
    13  C   -0.039346
 Electronic spatial extent (au):  <R**2>=           4667.3287
 Charge=              0.0000 electrons
 Dipole moment (field-independent basis, Debye):
    X=              1.2684    Y=              2.1837    Z=              0.2595  Tot=              2.5387
 Quadrupole moment (field-independent basis, Debye-Ang):
   XX=            -86.6245   YY=            -75.9022   ZZ=            -79.2773
   XY=            -14.8364   XZ=             -5.5471   YZ=             -0.7447
 Traceless Quadrupole moment (field-independent basis, Debye-Ang):
   XX=             -6.0232   YY=              4.6991   ZZ=              1.3241
   XY=            -14.8364   XZ=             -5.5471   YZ=             -0.7447
 Octapole moment (field-independent basis, Debye-Ang**2):
  XXX=             17.0799  YYY=              4.9211  ZZZ=              0.2149  XYY=             11.5044
  XXY=             87.2813  XXZ=              4.8459  XZZ=            -30.2927  YZZ=              1.4646
  YYZ=              1.6446  XYZ=             -6.4079
 Hexadecapole moment (field-independent basis, Debye-Ang**3):
 XXXX=          -5340.3748 YYYY=           -428.4037 ZZZZ=           -238.5920 XXXY=           -559.9851
 XXXZ=           -274.0751 YYYX=            -33.4097 YYYZ=             -1.8877 ZZZX=              3.9521
 ZZZY=             -0.0749 XXYY=           -978.2611 XXZZ=           -967.2769 YYZZ=           -113.8100
 XXYZ=              6.9352 YYXZ=            -17.4060 ZZXY=             -6.0855
 N-N= 7.113235455002D+02 E-N=-2.770103355470D+03  KE= 5.759684175966D+02
 No NMR shielding tensors so no spin-rotation constants.
 Leave Link  601 at Mon Feb 22 20:57:47 2021, MaxMem=   104857600 cpu:               9.3 elap:               0.4
 (Enter /sw/arch/RedHatEnterpriseServer7/EB_production/2019/software/Gaussian/g16.c01/l701.exe)
 ... and contract with generalized density number  0.
 Compute integral first derivatives.
 R6Disp: Adding Grimme-D3 dispersion energy 1st derivatives to the gradient.
 PrsmSu:  requested number of processors reduced to:  28 ShMem   1 Linda.
 D1PCM: PCM CHGder 1st derivatives, ID1Alg=3 FixD1E=F DoIter=F DoCFld=F I1PDM=0.
 GePol: Maximum number of non-zero 1st derivatives   =     213
 CoulSu:  requested number of processors reduced to:  28 ShMem   1 Linda.
 CoulSu:  requested number of processors reduced to:  29 ShMem   1 Linda.
 Leave Link  701 at Mon Feb 22 20:57:48 2021, MaxMem=   104857600 cpu:              33.6 elap:               1.2
 (Enter /sw/arch/RedHatEnterpriseServer7/EB_production/2019/software/Gaussian/g16.c01/l702.exe)
 L702 exits ... SP integral derivatives will be done elsewhere.
 Leave Link  702 at Mon Feb 22 20:57:48 2021, MaxMem=   104857600 cpu:               0.8 elap:               0.1
 (Enter /sw/arch/RedHatEnterpriseServer7/EB_production/2019/software/Gaussian/g16.c01/l703.exe)
 Integral derivatives from FoFJK, PRISM(SPDF).
 Compute integral first derivatives, UseDBF=F ICtDFT=           0.
 Calling FoFJK, ICntrl=      2527 FMM=F ISym2X=0 I1Cent= 0 IOpClX= 0 NMat=1 NMatS=1 NMatT=0.
 FoFJK:  IHMeth= 1 ICntrl=    2527 DoSepK=F KAlg= 0 I1Cent=           0 FoldK=F
 IRaf=         0 NMat=       1 IRICut=       1 DoRegI=T DoRafI=F ISym2E= 0 IDoP0=0 IntGTp=1.
 FoFCou: FMM=F IPFlag=           0 FMFlag=      100000 FMFlg1=         800
         NFxFlg=           0 DoJE=F BraDBF=F KetDBF=F FulRan=T
         wScrn=  0.000000 ICntrl=      2527 IOpCl=  0 I1Cent=           0 NGrid=           0
         NMat0=    1 NMatS0=      1 NMatT0=    0 NMatD0=    1 NMtDS0=    0 NMtDT0=    0
 Symmetry not used in FoFCou.
 Leave Link  703 at Mon Feb 22 20:57:52 2021, MaxMem=   104857600 cpu:              99.9 elap:               3.2
 (Enter /sw/arch/RedHatEnterpriseServer7/EB_production/2019/software/Gaussian/g16.c01/l716.exe)
 Dipole        = 4.99033981D-01 8.59138438D-01 1.02105172D-01
 ***** Axes restored to original set *****
 -------------------------------------------------------------------
 Center     Atomic                   Forces (Hartrees/Bohr)
 Number     Number              X              Y              Z
 -------------------------------------------------------------------
      1        8           0.001676859    0.021619825   -0.001194075
      2        6           0.012908291   -0.076469585    0.006430737
      3        8          -0.001526176    0.039487305   -0.001420991
      4        6           0.001913429    0.022904287   -0.007709927
      5        6          -0.007891808    0.009396575    0.003692522
      6        6           0.010959682   -0.007857925   -0.005571711
      7        6           0.002985535   -0.009153739    0.008580101
      8        6          -0.011605898    0.014292564   -0.004202409
      9        6          -0.055130870   -0.011394928   -0.026330250
     10        6          -0.012713362   -0.056676771   -0.019578124
     11        6           0.039205638   -0.042449899    0.006183188
     12        6           0.053874445    0.011354785    0.026937026
     13        6           0.012073522    0.057422547    0.020554899
     14        1          -0.016352032   -0.010153043   -0.003023722
     15        1          -0.000654516    0.006702625    0.003732937
     16        1           0.000897005   -0.004959108    0.001760273
     17        1           0.001148244   -0.002705804   -0.003531692
     18        1           0.004662858    0.000525735   -0.001098509
     19        1          -0.001558927    0.003136375    0.003702001
     20        1          -0.005134611   -0.000022883    0.001058874
     21        1          -0.000073608   -0.004159874   -0.003297049
     22        1           0.004838136    0.001107166    0.000617682
     23        1           0.049260714    0.009493063    0.023404050
     24        1           0.011890277    0.050789218    0.018246986
     25        1          -0.037069415    0.040207894   -0.005913582
     26        1          -0.048445828   -0.011112295   -0.023941424
     27        1          -0.010137584   -0.051324110   -0.018087811
 -------------------------------------------------------------------
 Cartesian Forces:  Max     0.076469585 RMS     0.023325019
 Leave Link  716 at Mon Feb 22 20:57:52 2021, MaxMem=   104857600 cpu:               6.0 elap:               0.3
 (Enter /sw/arch/RedHatEnterpriseServer7/EB_production/2019/software/Gaussian/g16.c01/l103.exe)

 GradGradGradGradGradGradGradGradGradGradGradGradGradGradGradGradGradGrad
 Berny optimization.
 FormGI is forming the generalized inverse of G from B-inverse, IUseBI=4.
 Internal  Forces:  Max     0.055304220 RMS     0.011914999
 Search for a local minimum.
 Step number   1 out of a maximum of  148
 All quantities printed in internal units (Hartrees-Bohrs-Radians)
 RMS Force = .11915D-01 SwitMx=.10000D-02 MixMth= 1
 Mixed Optimization -- RFO/linear search
 Second derivative matrix not updated -- first step.
 ITU=  0
     Eigenvalues ---    0.00230   0.00230   0.00230   0.00925   0.01123
     Eigenvalues ---    0.01407   0.01499   0.01899   0.01930   0.01938
     Eigenvalues ---    0.01967   0.01990   0.01992   0.01996   0.02001
     Eigenvalues ---    0.02301   0.03516   0.03522   0.04186   0.04307
     Eigenvalues ---    0.04791   0.04794   0.05446   0.05456   0.08152
     Eigenvalues ---    0.08160   0.09323   0.09376   0.12085   0.12091
     Eigenvalues ---    0.12779   0.12799   0.16000   0.16000   0.16000
     Eigenvalues ---    0.16000   0.16000   0.16000   0.21934   0.21969
     Eigenvalues ---    0.21972   0.21976   0.22000   0.22000   0.23471
     Eigenvalues ---    0.24999   0.25000   0.25000   0.27469   0.27535
     Eigenvalues ---    0.27642   0.33670   0.34231   0.34243   0.34248
     Eigenvalues ---    0.34251   0.34303   0.34312   0.34421   0.34493
     Eigenvalues ---    0.35385   0.40183   0.40192   0.43433   0.43862
     Eigenvalues ---    0.43864   0.43914   0.43926   0.43940   0.43962
     Eigenvalues ---    0.44311   0.44499   0.51092   0.54192   0.83077
 RFO step:  Lambda=-4.62692794D-02 EMin= 2.30000000D-03
 Linear search not attempted -- first point.
 Maximum step size (   0.300) exceeded in Quadratic search.
    -- Step size scaled by   0.864
 Iteration  1 RMS(Cart)=  0.02878137 RMS(Int)=  0.00075028
 Iteration  2 RMS(Cart)=  0.00102841 RMS(Int)=  0.00001990
 Iteration  3 RMS(Cart)=  0.00000063 RMS(Int)=  0.00001989
 ITry= 1 IFail=0 DXMaxC= 1.78D-01 DCOld= 1.00D+10 DXMaxT= 3.00D-01 DXLimC= 3.00D+00 Rises=F
 Variable       Old X    -DE/DX   Delta X   Delta X   Delta X     New X
                                 (Linear)    (Quad)   (Total)
    R1        2.36298  -0.02153   0.00000  -0.02122  -0.02122   2.34176
    R2        2.55857  -0.00828   0.00000  -0.01217  -0.01217   2.54641
    R3        2.78355   0.01484   0.00000   0.03207   0.03207   2.81561
    R4        1.85479  -0.00579   0.00000  -0.00898  -0.00898   1.84582
    R5        2.92929  -0.00065   0.00000  -0.00173  -0.00173   2.92755
    R6        2.06507   0.00714   0.00000   0.01577   0.01577   2.08084
    R7        2.06626   0.00146   0.00000   0.00322   0.00322   2.06948
    R8        2.93166  -0.00706   0.00000  -0.01897  -0.01897   2.91269
    R9        2.06922   0.00436   0.00000   0.00969   0.00969   2.07891
   R10        2.06806   0.00448   0.00000   0.00995   0.00995   2.07801
   R11        2.93313  -0.00365   0.00000  -0.00983  -0.00983   2.92330
   R12        2.06909   0.00470   0.00000   0.01046   0.01046   2.07955
   R13        2.06943   0.00474   0.00000   0.01053   0.01053   2.07996
   R14        2.81190   0.01397   0.00000   0.03152   0.03152   2.84343
[...]
                 (A) (A) (A) (A) (A) (A) (A)
 The electronic state is 1-A.
 Alpha  occ. eigenvalues --  -18.81989 -18.76943 -10.03223  -9.91047  -9.91046
 Alpha  occ. eigenvalues --   -9.90291  -9.90251  -9.90248  -9.90098  -9.90027
 Alpha  occ. eigenvalues --   -9.90026  -9.89720  -9.89616  -1.02110  -0.93879
 Alpha  occ. eigenvalues --   -0.78436  -0.74026  -0.70771  -0.67691  -0.66229
 Alpha  occ. eigenvalues --   -0.60504  -0.55397  -0.54732  -0.53252  -0.51892
 Alpha  occ. eigenvalues --   -0.46091  -0.45221  -0.43401  -0.42875  -0.41607
 Alpha  occ. eigenvalues --   -0.40625  -0.40261  -0.37490  -0.37381  -0.36807
 Alpha  occ. eigenvalues --   -0.36295  -0.34842  -0.33380  -0.32142  -0.31719
 Alpha  occ. eigenvalues --   -0.30421  -0.29985  -0.29227  -0.29121  -0.28489
 Alpha  occ. eigenvalues --   -0.24628  -0.23402  -0.22438
 Alpha virt. eigenvalues --   -0.05032  -0.04631  -0.04278   0.02209   0.03402
 Alpha virt. eigenvalues --    0.04952   0.05494   0.05819   0.07190   0.08104
 Alpha virt. eigenvalues --    0.08539   0.09229   0.09528   0.10193   0.10331
 Alpha virt. eigenvalues --    0.11188   0.11434   0.12594   0.13320   0.13399
 Alpha virt. eigenvalues --    0.14539   0.15663   0.17630   0.17847   0.18469
 Alpha virt. eigenvalues --    0.19263   0.19680   0.20066   0.20839   0.20969
 Alpha virt. eigenvalues --    0.21900   0.22987   0.23448   0.24275   0.25242
 Alpha virt. eigenvalues --    0.25576   0.25935   0.27588   0.27899   0.28332
 Alpha virt. eigenvalues --    0.28554   0.28800   0.30812   0.32093   0.32816
 Alpha virt. eigenvalues --    0.32910   0.33452   0.33965   0.34668   0.35920
 Alpha virt. eigenvalues --    0.36506   0.37130   0.37493   0.38552   0.39555
 Alpha virt. eigenvalues --    0.40115   0.40620   0.40808   0.41057   0.41841
 Alpha virt. eigenvalues --    0.42238   0.42897   0.43411   0.43954   0.44331
 Alpha virt. eigenvalues --    0.44802   0.45305   0.46362   0.46841   0.47139
 Alpha virt. eigenvalues --    0.47861   0.48265   0.48724   0.49539   0.50928
 Alpha virt. eigenvalues --    0.51269   0.52339   0.54511   0.55600   0.56158
 Alpha virt. eigenvalues --    0.57267   0.58749   0.60683   0.62033   0.62743
 Alpha virt. eigenvalues --    0.63463   0.65010   0.65813   0.68241   0.68457
 Alpha virt. eigenvalues --    0.71289   0.72839   0.75739   0.77331   0.81956
 Alpha virt. eigenvalues --    0.85555   0.86854   1.03372   1.10503   1.10944
 Alpha virt. eigenvalues --    1.14565   1.15987   1.16383   1.17597   1.18017
 Alpha virt. eigenvalues --    1.18661   1.19616   1.21382   1.22353   1.22983
 Alpha virt. eigenvalues --    1.23408   1.24182   1.24494   1.24788   1.25559
 Alpha virt. eigenvalues --    1.25971   1.26739   1.28817   1.29785   1.32368
 Alpha virt. eigenvalues --    1.32716   1.33950   1.34179   1.36005   1.37040
 Alpha virt. eigenvalues --    1.37799   1.37966   1.38054   1.39277   1.40006
 Alpha virt. eigenvalues --    1.41715   1.42212   1.42515   1.43960   1.44353
 Alpha virt. eigenvalues --    1.45402   1.45705   1.46586   1.47509   1.47709
 Alpha virt. eigenvalues --    1.49378   1.50075   1.50386   1.52128   1.53578
 Alpha virt. eigenvalues --    1.54519   1.57438   1.58706   1.59983   1.62391
 Alpha virt. eigenvalues --    1.62804   1.64612   1.66233   1.67939   1.69779
 Alpha virt. eigenvalues --    1.70192   1.71680   1.72821   1.73225   1.75045
 Alpha virt. eigenvalues --    1.76442   1.76968   1.78066   1.78839   1.79097
 Alpha virt. eigenvalues --    1.79879   1.80256   1.81017   1.81249   1.81941
 Alpha virt. eigenvalues --    1.82840   1.84239   1.85077   1.85492   1.89568
 Alpha virt. eigenvalues --    1.90219   1.91386   1.93793   1.95495   1.95805
 Alpha virt. eigenvalues --    1.98885   2.02986   2.03584   2.06413   2.08017
 Alpha virt. eigenvalues --    2.09126   2.10757   2.13581   2.14303   2.16502
 Alpha virt. eigenvalues --    2.18206   2.20312   2.22432   2.22732   2.23539
 Alpha virt. eigenvalues --    2.24421   2.26462   2.27111   2.28085   2.31878
 Alpha virt. eigenvalues --    2.32458   2.36419   2.38329   2.40656   2.41041
 Alpha virt. eigenvalues --    2.42649   2.45059   2.45391   2.46450   2.46658
 Alpha virt. eigenvalues --    2.47659   2.49232   2.50692   2.51116   2.52221
 Alpha virt. eigenvalues --    2.53029   2.55146   2.55569   2.56277   2.57100
 Alpha virt. eigenvalues --    2.58080   2.58749   2.59644   2.60382   2.61990
 Alpha virt. eigenvalues --    2.62532   2.63160   2.63841   2.66206   2.66701
 Alpha virt. eigenvalues --    2.69574   2.71233   2.73160   2.74776   2.77253
 Alpha virt. eigenvalues --    2.80049   2.82435   2.85464   2.86463   2.89574
 Alpha virt. eigenvalues --    2.93622   2.96104   2.98357   2.98686   3.01564
 Alpha virt. eigenvalues --    3.01851   3.04940   3.06896   3.08095   3.09112
 Alpha virt. eigenvalues --    3.10652   3.11055   3.13995   3.19870   3.20376
 Alpha virt. eigenvalues --    3.22378   3.28829   3.31084   3.31565   3.32786
 Alpha virt. eigenvalues --    3.35115   3.35630   3.38039   3.41035   3.43901
 Alpha virt. eigenvalues --    3.44926   3.68687   3.79259   4.08231   4.17802
 Alpha virt. eigenvalues --   21.07224  21.57575  21.58524  21.69556  21.74310
 Alpha virt. eigenvalues --   21.78798  21.80835  21.82911  21.84975  21.88852
 Alpha virt. eigenvalues --   21.98129  43.06126  43.11607
          Condensed to atoms (all electrons):
               1          2          3          4          5          6
     1  O    7.972603   0.610295  -0.111229  -0.109497  -0.012783  -0.001937
     2  C    0.610295   4.828625   0.324097   0.146235  -0.048730  -0.010909
     3  O   -0.111229   0.324097   7.907743  -0.134455  -0.002895  -0.003245
     4  C   -0.109497   0.146235  -0.134455   5.467213   0.206251  -0.007831
     5  C   -0.012783  -0.048730  -0.002895   0.206251   5.310952   0.158282
     6  C   -0.001937  -0.010909  -0.003245  -0.007831   0.158282   5.371049
     7  C    0.000004  -0.000287   0.000092   0.014103  -0.011105   0.196103
     8  C   -0.000004  -0.000345  -0.000008  -0.001096   0.000632  -0.042580
     9  C    0.000000  -0.000009   0.000000  -0.000096  -0.001436  -0.009843
    10  C    0.000000   0.000000  -0.000000   0.000005   0.000113  -0.000049
    11  C    0.000000  -0.000000   0.000000   0.000001  -0.000040  -0.000274
    12  C   -0.000000   0.000000   0.000000   0.000002   0.000065  -0.000025
    13  C    0.000000   0.000012  -0.000000  -0.000068  -0.000287  -0.011598
    14  H    0.002157  -0.016771   0.283731   0.014211   0.000307   0.000153
    15  H    0.004556   0.002394   0.005009   0.358695  -0.029206  -0.017368
    16  H    0.005503  -0.048939   0.005197   0.412824  -0.028506  -0.005467
    17  H    0.004937   0.010931   0.000200  -0.048890   0.417872  -0.054421
    18  H    0.000436  -0.006690   0.006694  -0.043450   0.417586  -0.038654
    19  H    0.000014   0.000443   0.000149  -0.006575  -0.035880   0.415268
    20  H    0.000002  -0.001017  -0.000040  -0.004540  -0.041533   0.421697
    21  H   -0.000012  -0.000166   0.000008  -0.000260  -0.008213  -0.037103
    22  H    0.000002  -0.000061  -0.000037  -0.000043  -0.005889  -0.040269
    23  H   -0.000000  -0.000002  -0.000000  -0.000011  -0.000396  -0.002277
    24  H   -0.000000  -0.000000  -0.000000   0.000000  -0.000004   0.000013
    25  H   -0.000000  -0.000000  -0.000000   0.000000  -0.000000   0.000007
    26  H   -0.000000  -0.000000  -0.000000   0.000000  -0.000004   0.000013
    27  H   -0.000000  -0.000003  -0.000000  -0.000002  -0.000437  -0.002264
               7          8          9         10         11         12
     1  O    0.000004  -0.000004   0.000000   0.000000   0.000000  -0.000000
     2  C   -0.000287  -0.000345  -0.000009   0.000000  -0.000000   0.000000
     3  O    0.000092  -0.000008   0.000000  -0.000000   0.000000   0.000000
     4  C    0.014103  -0.001096  -0.000096   0.000005   0.000001   0.000002
     5  C   -0.011105   0.000632  -0.001436   0.000113  -0.000040   0.000065
     6  C    0.196103  -0.042580  -0.009843  -0.000049  -0.000274  -0.000025
     7  C    5.364860   0.151166  -0.077650   0.017762   0.002301   0.016820
     8  C    0.151166   5.398982   0.334086   0.037785  -0.106336   0.037472
     9  C   -0.077650   0.334086   5.279982   0.322484   0.014203  -0.131747
    10  C    0.017762   0.037785   0.322484   5.187889   0.352896   0.020625
    11  C    0.002301  -0.106336   0.014203   0.352896   5.196616   0.352923
    12  C    0.016820   0.037472  -0.131747   0.020625   0.352923   5.186585
    13  C   -0.069239   0.328489   0.020801  -0.131965   0.014117   0.324664
    14  H   -0.000007   0.000000  -0.000000   0.000000  -0.000000   0.000000
    15  H    0.000399  -0.000355  -0.000056   0.000001   0.000000  -0.000002
    16  H    0.000422  -0.000152   0.000037  -0.000002   0.000000   0.000001
    17  H   -0.001002  -0.001752  -0.000241   0.000005   0.000001  -0.000012
    18  H   -0.001806  -0.000411   0.000681  -0.000009   0.000000   0.000004
    19  H   -0.043379  -0.000925   0.003810  -0.000816   0.000066  -0.000196
    20  H   -0.047146   0.001001   0.002239  -0.000158   0.000058  -0.000795
    21  H    0.417926  -0.048885   0.010024  -0.001249   0.000245   0.000263
    22  H    0.420916  -0.051952  -0.001621   0.000303   0.000244  -0.001226
    23  H   -0.009136  -0.063420   0.438079  -0.057242   0.013826  -0.003687
    24  H   -0.000855   0.015429  -0.056905   0.432152  -0.061586   0.014315
    25  H   -0.000048  -0.004261   0.016415  -0.060327   0.435118  -0.060219
    26  H   -0.000876   0.015428  -0.002191   0.014271  -0.061502   0.432115
    27  H   -0.009143  -0.063110   0.016330  -0.003705   0.013817  -0.057126
              13         14         15         16         17         18
     1  O    0.000000   0.002157   0.004556   0.005503   0.004937   0.000436
     2  C    0.000012  -0.016771   0.002394  -0.048939   0.010931  -0.006690
     3  O   -0.000000   0.283731   0.005009   0.005197   0.000200   0.006694
     4  C   -0.000068   0.014211   0.358695   0.412824  -0.048890  -0.043450
     5  C   -0.000287   0.000307  -0.029206  -0.028506   0.417872   0.417586
     6  C   -0.011598   0.000153  -0.017368  -0.005467  -0.054421  -0.038654
     7  C   -0.069239  -0.000007   0.000399   0.000422  -0.001002  -0.001806
     8  C    0.328489   0.000000  -0.000355  -0.000152  -0.001752  -0.000411
     9  C    0.020801  -0.000000  -0.000056   0.000037  -0.000241   0.000681
    10  C   -0.131965   0.000000   0.000001  -0.000002   0.000005  -0.000009
    11  C    0.014117  -0.000000   0.000000   0.000000   0.000001   0.000000
    12  C    0.324664   0.000000  -0.000002   0.000001  -0.000012   0.000004
    13  C    5.275864  -0.000000   0.000042  -0.000054   0.000745  -0.000229
    14  H   -0.000000   0.387990  -0.000401  -0.000658  -0.000145  -0.000390
    15  H    0.000042  -0.000401   0.519434  -0.018367   0.007036  -0.003262
    16  H   -0.000054  -0.000658  -0.018367   0.506610  -0.002994   0.005886
    17  H    0.000745  -0.000145   0.007036  -0.002994   0.537730  -0.022777
    18  H   -0.000229  -0.000390  -0.003262   0.005886  -0.022777   0.526322
    19  H    0.002280  -0.000003   0.002400   0.000981   0.005494  -0.002400
    20  H    0.004237   0.000001   0.000949   0.001459  -0.001931   0.005498
    21  H   -0.001763  -0.000000  -0.000112   0.000217   0.001091   0.001303
    22  H    0.009986   0.000001   0.000217  -0.000104   0.001472   0.001469
    23  H    0.016240  -0.000000  -0.000003   0.000001   0.000004   0.000042
    24  H   -0.002244   0.000000  -0.000000  -0.000000   0.000000  -0.000000
    25  H    0.016389   0.000000  -0.000000   0.000000  -0.000000  -0.000000
    26  H   -0.056951  -0.000000  -0.000000   0.000000  -0.000000   0.000000
    27  H    0.437645  -0.000000   0.000000  -0.000002   0.000039   0.000005
              19         20         21         22         23         24
     1  O    0.000014   0.000002  -0.000012   0.000002  -0.000000  -0.000000
     2  C    0.000443  -0.001017  -0.000166  -0.000061  -0.000002  -0.000000
     3  O    0.000149  -0.000040   0.000008  -0.000037  -0.000000  -0.000000
     4  C   -0.006575  -0.004540  -0.000260  -0.000043  -0.000011   0.000000
     5  C   -0.035880  -0.041533  -0.008213  -0.005889  -0.000396  -0.000004
     6  C    0.415268   0.421697  -0.037103  -0.040269  -0.002277   0.000013
     7  C   -0.043379  -0.047146   0.417926   0.420916  -0.009136  -0.000855
     8  C   -0.000925   0.001001  -0.048885  -0.051952  -0.063420   0.015429
     9  C    0.003810   0.002239   0.010024  -0.001621   0.438079  -0.056905
    10  C   -0.000816  -0.000158  -0.001249   0.000303  -0.057242   0.432152
    11  C    0.000066   0.000058   0.000245   0.000244   0.013826  -0.061586
    12  C   -0.000196  -0.000795   0.000263  -0.001226  -0.003687   0.014315
    13  C    0.002280   0.004237  -0.001763   0.009986   0.016240  -0.002244
    14  H   -0.000003   0.000001  -0.000000   0.000001  -0.000000   0.000000
    15  H    0.002400   0.000949  -0.000112   0.000217  -0.000003  -0.000000
    16  H    0.000981   0.001459   0.000217  -0.000104   0.000001  -0.000000
    17  H    0.005494  -0.001931   0.001091   0.001472   0.000004   0.000000
    18  H   -0.002400   0.005498   0.001303   0.001469   0.000042  -0.000000
    19  H    0.534986  -0.024993   0.006069  -0.003643   0.001005   0.000009
    20  H   -0.024993   0.535170  -0.003813   0.006123   0.000093  -0.000002
    21  H    0.006069  -0.003813   0.527240  -0.027539   0.000413   0.000015
    22  H   -0.003643   0.006123  -0.027539   0.526643   0.001853  -0.000028
    23  H    0.001005   0.000093   0.000413   0.001853   0.526935  -0.006053
    24  H    0.000009  -0.000002   0.000015  -0.000028  -0.006053   0.527796
    25  H   -0.000001  -0.000001   0.000000  -0.000000  -0.000169  -0.006740
    26  H   -0.000002   0.000008  -0.000026   0.000015   0.000031  -0.000185
    27  H    0.000095   0.001018   0.001908   0.000399  -0.000113   0.000031
              25         26         27
     1  O   -0.000000  -0.000000  -0.000000
     2  C   -0.000000  -0.000000  -0.000003
     3  O   -0.000000  -0.000000  -0.000000
     4  C    0.000000   0.000000  -0.000002
     5  C   -0.000000  -0.000004  -0.000437
     6  C    0.000007   0.000013  -0.002264
     7  C   -0.000048  -0.000876  -0.009143
     8  C   -0.004261   0.015428  -0.063110
     9  C    0.016415  -0.002191   0.016330
    10  C   -0.060327   0.014271  -0.003705
    11  C    0.435118  -0.061502   0.013817
    12  C   -0.060219   0.432115  -0.057126
    13  C    0.016389  -0.056951   0.437645
    14  H    0.000000  -0.000000  -0.000000
    15  H   -0.000000  -0.000000   0.000000
    16  H    0.000000   0.000000  -0.000002
    17  H   -0.000000  -0.000000   0.000039
    18  H   -0.000000   0.000000   0.000005
    19  H   -0.000001  -0.000002   0.000095
    20  H   -0.000001   0.000008   0.001018
    21  H    0.000000  -0.000026   0.001908
    22  H   -0.000000   0.000015   0.000399
    23  H   -0.000169   0.000031  -0.000113
    24  H   -0.006740  -0.000185   0.000031
    25  H    0.522604  -0.006731  -0.000169
    26  H   -0.006731   0.527678  -0.006043
    27  H   -0.000169  -0.006043   0.526861
 Mulliken charges:
               1
     1  O   -0.365047
     2  C    0.210896
     3  O   -0.281010
     4  C   -0.262727
     5  C   -0.284718
     6  C   -0.276472
     7  C   -0.331197
     8  C    0.065123
     9  C   -0.177376
    10  C   -0.130769
    11  C   -0.166694
    12  C   -0.130820
    13  C   -0.177112
    14  H    0.329824
    15  H    0.167998
    16  H    0.166108
    17  H    0.146610
    18  H    0.154150
    19  H    0.145745
    20  H    0.146416
    21  H    0.162417
    22  H    0.162770
    23  H    0.143988
    24  H    0.144842
    25  H    0.148132
    26  H    0.144953
    27  H    0.143970
 Sum of Mulliken charges =  -0.00000
 Mulliken charges with hydrogens summed into heavy atoms:
               1
     1  O   -0.365047
     2  C    0.210896
     3  O    0.048814
     4  C    0.071378
     5  C    0.016041
     6  C    0.015689
     7  C   -0.006009
     8  C    0.065123
     9  C   -0.033388
    10  C    0.014073
    11  C   -0.018561
    12  C    0.014133
    13  C   -0.033142
 Electronic spatial extent (au):  <R**2>=           4632.5534
 Charge=             -0.0000 electrons
 Dipole moment (field-independent basis, Debye):
    X=              0.8618    Y=              1.9727    Z=              0.1269  Tot=              2.1564
 Quadrupole moment (field-independent basis, Debye-Ang):
   XX=            -84.1972   YY=            -77.1977   ZZ=            -79.6184
   XY=            -12.5167   XZ=             -4.8893   YZ=             -0.0231
 Traceless Quadrupole moment (field-independent basis, Debye-Ang):
   XX=             -3.8594   YY=              3.1401   ZZ=              0.7193
   XY=            -12.5167   XZ=             -4.8893   YZ=             -0.0231
 Octapole moment (field-independent basis, Debye-Ang**2):
  XXX=             -6.6299  YYY=              3.9371  ZZZ=              0.2551  XYY=             19.0783
  XXY=             73.1209  XXZ=             -3.7196  XZZ=            -31.5171  YZZ=              0.9318
  YYZ=              1.1141  XYZ=             -5.5656
 Hexadecapole moment (field-independent basis, Debye-Ang**3):
 XXXX=          -5158.4726 YYYY=           -438.6606 ZZZZ=           -245.8652 XXXY=           -454.3341
 XXXZ=           -246.6053 YYYX=            -24.1292 YYYZ=             -1.1572 ZZZX=              5.0946
 ZZZY=              0.3409 XXYY=          -1010.1672 XXZZ=           -962.2102 YYZZ=           -116.7381
 XXYZ=             16.5681 YYXZ=            -13.6796 ZZXY=             -3.9857
 N-N= 7.113143279250D+02 E-N=-2.769730756428D+03  KE= 5.755254459533D+02
 Unable to Open any file for archive entry.
 1\1\GINC-TCN1659\SP\RBP86\TZVP\C11H14O2\ELENAA\22-Feb-2021\0\\# BP86/T
 ZVP SCRF=COSMORS geom=CHECKPOINT guess=CHECKPOINT\\COSMO-file for #BYH
 DDXPKOZIZRV-UHFFFAOYSA-N\\0,1\O,0,3.9618315251,-5.638992761,3.38655742
 84\C,0,4.1703031318,-4.4559571603,3.6129785144\O,0,5.3926884943,-3.987
 6169498,3.9989410808\C,0,3.1645737432,-3.3408451681,3.4608973033\C,0,3
 .3497641744,-2.6060391193,2.1139840125\C,0,2.3155421111,-1.4910122368,
 1.9232949877\C,0,2.4861646737,-0.7507210276,0.5807299832\C,0,1.4604395
 913,0.3462816044,0.4041487261\C,0,1.7110155108,1.6481304086,0.87210882
 23\C,0,0.7429308836,2.6530573504,0.7576392488\C,0,-0.4980544725,2.3702
 97399,0.1723933262\C,0,-0.7614407056,1.0766881842,-0.2964414973\C,0,0.
 2103099879,0.0756222365,-0.1794250194\H,0,6.0060715804,-4.7533376738,4
 .0303359959\H,0,3.2798409995,-2.6267034598,4.2904795756\H,0,2.16099678
 08,-3.7847053894,3.5151105659\H,0,3.2666004464,-3.333331298,1.28870754
 44\H,0,4.3664293905,-2.1823931804,2.0668089718\H,0,2.3962164252,-0.763
 6028844,2.7495823667\H,0,1.2972755385,-1.913697709,1.9754862665\H,0,2.
 4024336102,-1.4777215081,-0.24436246\H,0,3.5021837868,-0.3246170115,0.
 5309257787\H,0,2.6787055186,1.8752141561,1.3284907174\H,0,0.9589663618
 ,3.6598374855,1.1229101879\H,0,-1.2535532409,3.1535084643,0.0793302487
 \H,0,-1.7249539188,0.847492288,-0.7577449924\H,0,-0.0003219282,-0.9320
 350396,-0.5489476838\\Version=ES64L-G16RevC.01\State=1-A\HF=-578.28261
 75\RMSD=9.359e-10\Dipole=0.3651108,0.7578605,0.1101904\Quadrupole=8.70
 4848,-9.3325712,0.6277232,-1.1118903,3.3690282,3.546593\PG=C01 [X(C11H
 14O2)]\\@
 The archive entry for this job was punched.


       THE DEATH-KNELL OF THE ATOM

 SO THE ATOMS IN TURN, WE NOW CLEARLY DISCERN,
 FLY TO BITS WITH THE UTMOST FACILITY;
 THEY WEND ON THEIR WAY, AND, IN SPLITTING, DISPLAY
 AN ABSOLUTE LACK OF STABILITY.

          SIR WM. RAMSAY, 1905
 Job cpu time:       0 days  0 hours 10 minutes 21.8 seconds.
 Elapsed time:       0 days  0 hours  0 minutes 20.1 seconds.
 File lengths (MBytes):  RWF=     90 Int=      0 D2E=      0 Chk=     12 Scr=      1
 Normal termination of Gaussian 16 at Mon Feb 22 21:05:24 2021.
