 Entering Gaussian System, Link 0=g16
 Input=CBXCPBUEXACCNR-UHFFFAOYSA-N.gjf
 Output=CBXCPBUEXACCNR-UHFFFAOYSA-N.log
 Initial command:
 /sw/arch/RedHatEnterpriseServer7/EB_production/2019/software/Gaussian/g16.c01/l1.exe "/scratch-local/elenaa.9715934/Gau-11114.inp" -scrdir="/scratch-local/elenaa.9715934/"
 Entering Link 1 = /sw/arch/RedHatEnterpriseServer7/EB_production/2019/software/Gaussian/g16.c01/l1.exe PID=     11117.
  
 Copyright (c) 1988-2019, Gaussian, Inc.  All Rights Reserved.
  
 This is part of the Gaussian(R) 16 program.  It is based on
 the Gaussian(R) 09 system (copyright 2009, Gaussian, Inc.),
 the Gaussian(R) 03 system (copyright 2003, Gaussian, Inc.),
 the Gaussian(R) 98 system (copyright 1998, Gaussian, Inc.),
 the Gaussian(R) 94 system (copyright 1995, Gaussian, Inc.),
 the Gaussian 92(TM) system (copyright 1992, Gaussian, Inc.),
 the Gaussian 90(TM) system (copyright 1990, Gaussian, Inc.),
 the Gaussian 88(TM) system (copyright 1988, Gaussian, Inc.),
 the Gaussian 86(TM) system (copyright 1986, Carnegie Mellon
 University), and the Gaussian 82(TM) system (copyright 1983,
 Carnegie Mellon University). Gaussian is a federally registered
 trademark of Gaussian, Inc.
  
 This software contains proprietary and confidential information,
 including trade secrets, belonging to Gaussian, Inc.
  
 This software is provided under written license and may be
 used, copied, transmitted, or stored only in accord with that
 written license.
  
 The following legend is applicable only to US Government
 contracts under FAR:
  
                    RESTRICTED RIGHTS LEGEND
  
 Use, reproduction and disclosure by the US Government is
 subject to restrictions as set forth in subparagraphs (a)
 and (c) of the Commercial Computer Software - Restricted
 Rights clause in FAR 52.227-19.
  
 Gaussian, Inc.
 340 Quinnipiac St., Bldg. 40, Wallingford CT 06492
  
  
 ---------------------------------------------------------------
 Warning -- This program may not be used in any manner that
 competes with the business of Gaussian, Inc. or will provide
 assistance to any competitor of Gaussian, Inc.  The licensee
 of this program is prohibited from giving any competitor of
 Gaussian, Inc. access to this program.  By using this program,
 the user acknowledges that Gaussian, Inc. is engaged in the
 business of creating and licensing software in the field of
 computational chemistry and represents and warrants to the
 licensee that it is not a competitor of Gaussian, Inc. and that
 it will not use this program in any manner prohibited above.
 ---------------------------------------------------------------
  

 Cite this work as:
 Gaussian 16, Revision C.01,
 M. J. Frisch, G. W. Trucks, H. B. Schlegel, G. E. Scuseria, 
 M. A. Robb, J. R. Cheeseman, G. Scalmani, V. Barone, 
 G. A. Petersson, H. Nakatsuji, X. Li, M. Caricato, A. V. Marenich, 
 J. Bloino, B. G. Janesko, R. Gomperts, B. Mennucci, H. P. Hratchian, 
 J. V. Ortiz, A. F. Izmaylov, J. L. Sonnenberg, D. Williams-Young, 
 F. Ding, F. Lipparini, F. Egidi, J. Goings, B. Peng, A. Petrone, 
 T. Henderson, D. Ranasinghe, V. G. Zakrzewski, J. Gao, N. Rega, 
 G. Zheng, W. Liang, M. Hada, M. Ehara, K. Toyota, R. Fukuda, 
 J. Hasegawa, M. Ishida, T. Nakajima, Y. Honda, O. Kitao, H. Nakai, 
 T. Vreven, K. Throssell, J. A. Montgomery, Jr., J. E. Peralta, 
 F. Ogliaro, M. J. Bearpark, J. J. Heyd, E. N. Brothers, K. N. Kudin, 
 V. N. Staroverov, T. A. Keith, R. Kobayashi, J. Normand, 
 K. Raghavachari, A. P. Rendell, J. C. Burant, S. S. Iyengar, 
 J. Tomasi, M. Cossi, J. M. Millam, M. Klene, C. Adamo, R. Cammi, 
 J. W. Ochterski, R. L. Martin, K. Morokuma, O. Farkas, 
 J. B. Foresman, and D. J. Fox, Gaussian, Inc., Wallingford CT, 2019.
 
 ******************************************
 Gaussian 16:  ES64L-G16RevC.01  3-Jul-2019
                23-Feb-2021 
 ******************************************
 %chk=CBXCPBUEXACCNR-UHFFFAOYSA-N.chk
 %NProcShared=32
 Will use up to   32 processors via shared memory.
 -------------------------------------------------------------
 #P BP86/TZVP EmpiricalDispersion=GD3 SCRF=(Solvent=Water) Opt
 -------------------------------------------------------------
 1/18=20,19=15,26=3,38=1/1,3;
 2/9=110,12=2,17=6,18=5,40=1/2;
 3/5=19,7=101,11=2,25=1,30=1,70=2201,71=1,72=1,74=404,124=31/1,2,3;
 4//1;
 5/5=2,38=5,53=1/2;
 6/7=2,8=2,9=2,10=2,28=1/1;
 7//1,2,3,16;
 1/18=20,19=15,26=3/3(2);
 2/9=110/2;
 99//99;
 2/9=110/2;
 3/5=19,7=101,11=2,25=1,30=1,70=2205,71=1,72=1,74=404,124=31/1,2,3;
 4/5=5,16=3,69=1/1;
 5/5=2,38=5,53=1/2;
 7//1,2,3,16;
 1/18=20,19=15,26=3/3(-5);
 2/9=110/2;
 6/7=2,8=2,9=2,10=2,19=2,28=1/1;
 99/9=1/99;
 Leave Link    1 at Tue Feb 23 00:11:03 2021, MaxMem=           0 cpu:               1.7 elap:               0.1
 (Enter /sw/arch/RedHatEnterpriseServer7/EB_production/2019/software/Gaussian/g16.c01/l101.exe)
 -------------------------------------
 Particle #CBXCPBUEXACCNR-UHFFFAOYSA-N
 -------------------------------------
 Symbolic Z-matrix:
 Charge =  1 Multiplicity = 1
 C                     0.97417  -2.98479  -2.11165 
 C                     2.26007  -2.25251  -1.63482 
 N                     2.21093  -0.74883  -1.34311 
 C                     3.61705  -0.27729  -0.95705 
 C                     4.30626  -0.86931   0.30457 
 C                     1.75102   0.0363   -2.57625 
 C                     2.55073  -0.08191  -3.90427 
 C                     1.21557  -0.50181  -0.20434 
 C                     1.01256   0.94071   0.3389 
 H                     0.21391  -2.99995  -1.33102 
 H                     0.55664  -2.52632  -3.00561 
 H                     1.22004  -4.02037  -2.3514 
 H                     2.57181  -2.79295  -0.73771 
 H                     3.03002  -2.46016  -2.38299 
 H                     3.62257   0.80898  -0.8318 
 H                     4.31243  -0.48012  -1.7752 
 H                     3.69754  -0.73692   1.19655 
 H                     4.52455  -1.9293    0.17657 
 H                     5.25475  -0.35568   0.46854 
 H                     1.74158   1.10557  -2.35116 
 H                     0.71531  -0.22094  -2.81464 
 H                     2.02957   0.47211  -4.68646 
 H                     2.63933  -1.11576  -4.23134 
 H                     3.54766   0.34725  -3.80636 
 H                     0.21789  -0.8278   -0.50838 
 H                     1.47581  -1.12318   0.65698 
 H                     0.33935   0.90864   1.19687 
 H                     0.5576    1.5867   -0.41165 
 H                     1.95019   1.3837    0.66795 
 
 ITRead=  0  0  0  0  0  0  0  0  0  0  0  0  0  0  0  0  0  0  0  0
 ITRead=  0  0  0  0  0  0  0  0  0
 MicOpt= -1 -1 -1 -1 -1 -1 -1 -1 -1 -1 -1 -1 -1 -1 -1 -1 -1 -1 -1 -1
 MicOpt= -1 -1 -1 -1 -1 -1 -1 -1 -1
 NAtoms=     29 NQM=       29 NQMF=       0 NMMI=      0 NMMIF=      0
                NMic=       0 NMicF=      0.
                    Isotopes and Nuclear Properties:
 (Nuclear quadrupole moments (NQMom) in fm**2, nuclear magnetic moments (NMagM)
  in nuclear magnetons)

  Atom         1           2           3           4           5           6           7           8           9          10
 IAtWgt=          12          12          14          12          12          12          12          12          12           1
 AtmWgt=  12.0000000  12.0000000  14.0030740  12.0000000  12.0000000  12.0000000  12.0000000  12.0000000  12.0000000   1.0078250
 NucSpn=           0           0           2           0           0           0           0           0           0           1
 AtZEff=  -0.0000000  -0.0000000  -0.0000000  -0.0000000  -0.0000000  -0.0000000  -0.0000000  -0.0000000  -0.0000000  -0.0000000
 NQMom=    0.0000000   0.0000000   2.0440000   0.0000000   0.0000000   0.0000000   0.0000000   0.0000000   0.0000000   0.0000000
 NMagM=    0.0000000   0.0000000   0.4037610   0.0000000   0.0000000   0.0000000   0.0000000   0.0000000   0.0000000   2.7928460
 AtZNuc=   6.0000000   6.0000000   7.0000000   6.0000000   6.0000000   6.0000000   6.0000000   6.0000000   6.0000000   1.0000000

  Atom        11          12          13          14          15          16          17          18          19          20
 IAtWgt=           1           1           1           1           1           1           1           1           1           1
 AtmWgt=   1.0078250   1.0078250   1.0078250   1.0078250   1.0078250   1.0078250   1.0078250   1.0078250   1.0078250   1.0078250
 NucSpn=           1           1           1           1           1           1           1           1           1           1
 AtZEff=  -0.0000000  -0.0000000  -0.0000000  -0.0000000  -0.0000000  -0.0000000  -0.0000000  -0.0000000  -0.0000000  -0.0000000
 NQMom=    0.0000000   0.0000000   0.0000000   0.0000000   0.0000000   0.0000000   0.0000000   0.0000000   0.0000000   0.0000000
 NMagM=    2.7928460   2.7928460   2.7928460   2.7928460   2.7928460   2.7928460   2.7928460   2.7928460   2.7928460   2.7928460
 AtZNuc=   1.0000000   1.0000000   1.0000000   1.0000000   1.0000000   1.0000000   1.0000000   1.0000000   1.0000000   1.0000000

  Atom        21          22          23          24          25          26          27          28          29
 IAtWgt=           1           1           1           1           1           1           1           1           1
 AtmWgt=   1.0078250   1.0078250   1.0078250   1.0078250   1.0078250   1.0078250   1.0078250   1.0078250   1.0078250
 NucSpn=           1           1           1           1           1           1           1           1           1
 AtZEff=  -0.0000000  -0.0000000  -0.0000000  -0.0000000  -0.0000000  -0.0000000  -0.0000000  -0.0000000  -0.0000000
 NQMom=    0.0000000   0.0000000   0.0000000   0.0000000   0.0000000   0.0000000   0.0000000   0.0000000   0.0000000
 NMagM=    2.7928460   2.7928460   2.7928460   2.7928460   2.7928460   2.7928460   2.7928460   2.7928460   2.7928460
 AtZNuc=   1.0000000   1.0000000   1.0000000   1.0000000   1.0000000   1.0000000   1.0000000   1.0000000   1.0000000
 Leave Link  101 at Tue Feb 23 00:11:04 2021, MaxMem=   104857600 cpu:               2.8 elap:               0.1
 (Enter /sw/arch/RedHatEnterpriseServer7/EB_production/2019/software/Gaussian/g16.c01/l103.exe)

 GradGradGradGradGradGradGradGradGradGradGradGradGradGradGradGradGradGrad
 Berny optimization.
 Initialization pass.
                           ----------------------------
                           !    Initial Parameters    !
                           ! (Angstroms and Degrees)  !
 --------------------------                            --------------------------
 ! Name  Definition              Value          Derivative Info.                !
 --------------------------------------------------------------------------------
 ! R1    R(1,2)                  1.5547         estimate D2E/DX2                !
 ! R2    R(1,10)                 1.0898         estimate D2E/DX2                !
 ! R3    R(1,11)                 1.088          estimate D2E/DX2                !
 ! R4    R(1,12)                 1.091          estimate D2E/DX2                !
 ! R5    R(2,3)                  1.5325         estimate D2E/DX2                !
 ! R6    R(2,13)                 1.0927         estimate D2E/DX2                !
 ! R7    R(2,14)                 1.0935         estimate D2E/DX2                !
 ! R8    R(3,4)                  1.5325         estimate D2E/DX2                !
 ! R9    R(3,6)                  1.5325         estimate D2E/DX2                !
 ! R10   R(3,8)                  1.5325         estimate D2E/DX2                !
 ! R11   R(4,5)                  1.5547         estimate D2E/DX2                !
 ! R12   R(4,15)                 1.0935         estimate D2E/DX2                !
 ! R13   R(4,16)                 1.0927         estimate D2E/DX2                !
 ! R14   R(5,17)                 1.088          estimate D2E/DX2                !
 ! R15   R(5,18)                 1.0898         estimate D2E/DX2                !
 ! R16   R(5,19)                 1.091          estimate D2E/DX2                !
 ! R17   R(6,7)                  1.5547         estimate D2E/DX2                !
 ! R18   R(6,20)                 1.0927         estimate D2E/DX2                !
 ! R19   R(6,21)                 1.0935         estimate D2E/DX2                !
 ! R20   R(7,22)                 1.091          estimate D2E/DX2                !
 ! R21   R(7,23)                 1.088          estimate D2E/DX2                !
 ! R22   R(7,24)                 1.0898         estimate D2E/DX2                !
 ! R23   R(8,9)                  1.5547         estimate D2E/DX2                !
 ! R24   R(8,25)                 1.0927         estimate D2E/DX2                !
 ! R25   R(8,26)                 1.0935         estimate D2E/DX2                !
 ! R26   R(9,27)                 1.091          estimate D2E/DX2                !
 ! R27   R(9,28)                 1.0898         estimate D2E/DX2                !
 ! R28   R(9,29)                 1.088          estimate D2E/DX2                !
 ! A1    A(2,1,10)             111.3377         estimate D2E/DX2                !
 ! A2    A(2,1,11)             111.7735         estimate D2E/DX2                !
 ! A3    A(2,1,12)             109.1517         estimate D2E/DX2                !
 ! A4    A(10,1,11)            109.0696         estimate D2E/DX2                !
 ! A5    A(10,1,12)            107.5428         estimate D2E/DX2                !
 ! A6    A(11,1,12)            107.8125         estimate D2E/DX2                !
 ! A7    A(1,2,3)              119.6042         estimate D2E/DX2                !
 ! A8    A(1,2,13)             104.7619         estimate D2E/DX2                !
 ! A9    A(1,2,14)             106.4448         estimate D2E/DX2                !
 ! A10   A(3,2,13)             109.7642         estimate D2E/DX2                !
 ! A11   A(3,2,14)             109.8247         estimate D2E/DX2                !
 ! A12   A(13,2,14)            105.4814         estimate D2E/DX2                !
 ! A13   A(2,3,4)              108.6893         estimate D2E/DX2                !
 ! A14   A(2,3,6)              111.0474         estimate D2E/DX2                !
 ! A15   A(2,3,8)              108.6887         estimate D2E/DX2                !
 ! A16   A(4,3,6)              108.6884         estimate D2E/DX2                !
 ! A17   A(4,3,8)              111.0479         estimate D2E/DX2                !
 ! A18   A(6,3,8)              108.6887         estimate D2E/DX2                !
 ! A19   A(3,4,5)              119.6037         estimate D2E/DX2                !
 ! A20   A(3,4,15)             109.8251         estimate D2E/DX2                !
 ! A21   A(3,4,16)             109.7649         estimate D2E/DX2                !
 ! A22   A(5,4,15)             106.4447         estimate D2E/DX2                !
 ! A23   A(5,4,16)             104.7608         estimate D2E/DX2                !
 ! A24   A(15,4,16)            105.4823         estimate D2E/DX2                !
 ! A25   A(4,5,17)             111.7728         estimate D2E/DX2                !
 ! A26   A(4,5,18)             111.3376         estimate D2E/DX2                !
 ! A27   A(4,5,19)             109.152          estimate D2E/DX2                !
 ! A28   A(17,5,18)            109.0701         estimate D2E/DX2                !
 ! A29   A(17,5,19)            107.8124         estimate D2E/DX2                !
 ! A30   A(18,5,19)            107.5431         estimate D2E/DX2                !
 ! A31   A(3,6,7)              119.6043         estimate D2E/DX2                !
 ! A32   A(3,6,20)             109.7646         estimate D2E/DX2                !
 ! A33   A(3,6,21)             109.8251         estimate D2E/DX2                !
 ! A34   A(7,6,20)             104.7614         estimate D2E/DX2                !
 ! A35   A(7,6,21)             106.4449         estimate D2E/DX2                !
 ! A36   A(20,6,21)            105.4811         estimate D2E/DX2                !
 ! A37   A(6,7,22)             109.1519         estimate D2E/DX2                !
 ! A38   A(6,7,23)             111.773          estimate D2E/DX2                !
 ! A39   A(6,7,24)             111.3377         estimate D2E/DX2                !
 ! A40   A(22,7,23)            107.8128         estimate D2E/DX2                !
 ! A41   A(22,7,24)            107.5425         estimate D2E/DX2                !
 ! A42   A(23,7,24)            109.0702         estimate D2E/DX2                !
 ! A43   A(3,8,9)              119.6041         estimate D2E/DX2                !
 ! A44   A(3,8,25)             109.7649         estimate D2E/DX2                !
 ! A45   A(3,8,26)             109.8247         estimate D2E/DX2                !
 ! A46   A(9,8,25)             104.7615         estimate D2E/DX2                !
 ! A47   A(9,8,26)             106.4445         estimate D2E/DX2                !
 ! A48   A(25,8,26)            105.4817         estimate D2E/DX2                !
 ! A49   A(8,9,27)             109.1516         estimate D2E/DX2                !
 ! A50   A(8,9,28)             111.3372         estimate D2E/DX2                !
 ! A51   A(8,9,29)             111.7731         estimate D2E/DX2                !
 ! A52   A(27,9,28)            107.5429         estimate D2E/DX2                !
 ! A53   A(27,9,29)            107.8128         estimate D2E/DX2                !
 ! A54   A(28,9,29)            109.0705         estimate D2E/DX2                !
 ! D1    D(10,1,2,3)           -66.3539         estimate D2E/DX2                !
 ! D2    D(10,1,2,13)           57.1443         estimate D2E/DX2                !
 ! D3    D(10,1,2,14)          168.588          estimate D2E/DX2                !
 ! D4    D(11,1,2,3)            55.9049         estimate D2E/DX2                !
 ! D5    D(11,1,2,13)          179.4031         estimate D2E/DX2                !
 ! D6    D(11,1,2,14)          -69.1532         estimate D2E/DX2                !
 ! D7    D(12,1,2,3)           175.0763         estimate D2E/DX2                !
 ! D8    D(12,1,2,13)          -61.4254         estimate D2E/DX2                !
 ! D9    D(12,1,2,14)           50.0183         estimate D2E/DX2                !
 ! D10   D(1,2,3,4)           -177.4199         estimate D2E/DX2                !
 ! D11   D(1,2,3,6)            -57.9075         estimate D2E/DX2                !
 ! D12   D(1,2,3,8)             61.6048         estimate D2E/DX2                !
 ! D13   D(13,2,3,4)            61.5453         estimate D2E/DX2                !
 ! D14   D(13,2,3,6)          -178.9424         estimate D2E/DX2                !
 ! D15   D(13,2,3,8)           -59.4301         estimate D2E/DX2                !
 ! D16   D(14,2,3,4)           -53.9883         estimate D2E/DX2                !
 ! D17   D(14,2,3,6)            65.5241         estimate D2E/DX2                !
 ! D18   D(14,2,3,8)          -174.9636         estimate D2E/DX2                !
 ! D19   D(2,3,4,5)            -61.6048         estimate D2E/DX2                !
 ! D20   D(2,3,4,15)           174.9639         estimate D2E/DX2                !
 ! D21   D(2,3,4,16)            59.4286         estimate D2E/DX2                !
 ! D22   D(6,3,4,5)            177.4207         estimate D2E/DX2                !
 ! D23   D(6,3,4,15)            53.9894         estimate D2E/DX2                !
 ! D24   D(6,3,4,16)           -61.5459         estimate D2E/DX2                !
 ! D25   D(8,3,4,5)             57.9082         estimate D2E/DX2                !
 ! D26   D(8,3,4,15)           -65.5231         estimate D2E/DX2                !
 ! D27   D(8,3,4,16)           178.9416         estimate D2E/DX2                !
 ! D28   D(2,3,6,7)            -57.908          estimate D2E/DX2                !
 ! D29   D(2,3,6,20)          -178.9424         estimate D2E/DX2                !
 ! D30   D(2,3,6,21)            65.524          estimate D2E/DX2                !
 ! D31   D(4,3,6,7)             61.6049         estimate D2E/DX2                !
 ! D32   D(4,3,6,20)           -59.4296         estimate D2E/DX2                !
 ! D33   D(4,3,6,21)          -174.9631         estimate D2E/DX2                !
 ! D34   D(8,3,6,7)           -177.4203         estimate D2E/DX2                !
 ! D35   D(8,3,6,20)            61.5452         estimate D2E/DX2                !
 ! D36   D(8,3,6,21)           -53.9883         estimate D2E/DX2                !
 ! D37   D(2,3,8,9)            177.4203         estimate D2E/DX2                !
 ! D38   D(2,3,8,25)           -61.545          estimate D2E/DX2                !
 ! D39   D(2,3,8,26)            53.9893         estimate D2E/DX2                !
 ! D40   D(4,3,8,9)             57.9069         estimate D2E/DX2                !
 ! D41   D(4,3,8,25)           178.9416         estimate D2E/DX2                !
 ! D42   D(4,3,8,26)           -65.5241         estimate D2E/DX2                !
 ! D43   D(6,3,8,9)            -61.6054         estimate D2E/DX2                !
 ! D44   D(6,3,8,25)            59.4293         estimate D2E/DX2                !
 ! D45   D(6,3,8,26)           174.9636         estimate D2E/DX2                !
 ! D46   D(3,4,5,17)           -55.9053         estimate D2E/DX2                !
 ! D47   D(3,4,5,18)            66.3535         estimate D2E/DX2                !
 ! D48   D(3,4,5,19)          -175.0763         estimate D2E/DX2                !
 ! D49   D(15,4,5,17)           69.1528         estimate D2E/DX2                !
 ! D50   D(15,4,5,18)         -168.5884         estimate D2E/DX2                !
 ! D51   D(15,4,5,19)          -50.0182         estimate D2E/DX2                !
 ! D52   D(16,4,5,17)         -179.4031         estimate D2E/DX2                !
 ! D53   D(16,4,5,18)          -57.1442         estimate D2E/DX2                !
 ! D54   D(16,4,5,19)           61.426          estimate D2E/DX2                !
 ! D55   D(3,6,7,22)           175.0768         estimate D2E/DX2                !
 ! D56   D(3,6,7,23)            55.9053         estimate D2E/DX2                !
 ! D57   D(3,6,7,24)           -66.3538         estimate D2E/DX2                !
 ! D58   D(20,6,7,22)          -61.4249         estimate D2E/DX2                !
 ! D59   D(20,6,7,23)          179.4035         estimate D2E/DX2                !
 ! D60   D(20,6,7,24)           57.1445         estimate D2E/DX2                !
 ! D61   D(21,6,7,22)           50.0182         estimate D2E/DX2                !
 ! D62   D(21,6,7,23)          -69.1534         estimate D2E/DX2                !
 ! D63   D(21,6,7,24)          168.5876         estimate D2E/DX2                !
 ! D64   D(3,8,9,27)          -175.0762         estimate D2E/DX2                !
 ! D65   D(3,8,9,28)            66.3544         estimate D2E/DX2                !
 ! D66   D(3,8,9,29)           -55.9048         estimate D2E/DX2                !
 ! D67   D(25,8,9,27)           61.4252         estimate D2E/DX2                !
 ! D68   D(25,8,9,28)          -57.1442         estimate D2E/DX2                !
 ! D69   D(25,8,9,29)         -179.4034         estimate D2E/DX2                !
 ! D70   D(26,8,9,27)          -50.0186         estimate D2E/DX2                !
 ! D71   D(26,8,9,28)         -168.5879         estimate D2E/DX2                !
 ! D72   D(26,8,9,29)           69.1528         estimate D2E/DX2                !
 --------------------------------------------------------------------------------
 Trust Radius=3.00D-01 FncErr=1.00D-07 GrdErr=1.00D-06 EigMax=2.50D+02 EigMin=1.00D-04
 Number of steps in this run=    164 maximum allowed number of steps=    174.
 GradGradGradGradGradGradGradGradGradGradGradGradGradGradGradGradGradGrad

 Leave Link  103 at Tue Feb 23 00:11:04 2021, MaxMem=   104857600 cpu:               0.4 elap:               0.0
 (Enter /sw/arch/RedHatEnterpriseServer7/EB_production/2019/software/Gaussian/g16.c01/l202.exe)
                          Input orientation:                          
 ---------------------------------------------------------------------
 Center     Atomic      Atomic             Coordinates (Angstroms)
 Number     Number       Type             X           Y           Z
 ---------------------------------------------------------------------
      1          6           0        0.974170   -2.984790   -2.111650
      2          6           0        2.260070   -2.252510   -1.634820
      3          7           0        2.210930   -0.748830   -1.343110
      4          6           0        3.617050   -0.277290   -0.957050
      5          6           0        4.306260   -0.869310    0.304570
      6          6           0        1.751020    0.036300   -2.576250
      7          6           0        2.550730   -0.081910   -3.904270
      8          6           0        1.215570   -0.501810   -0.204340
      9          6           0        1.012560    0.940710    0.338900
     10          1           0        0.213910   -2.999950   -1.331020
     11          1           0        0.556640   -2.526320   -3.005610
     12          1           0        1.220040   -4.020370   -2.351400
     13          1           0        2.571810   -2.792950   -0.737710
     14          1           0        3.030020   -2.460160   -2.382990
     15          1           0        3.622570    0.808980   -0.831800
     16          1           0        4.312430   -0.480120   -1.775200
     17          1           0        3.697540   -0.736920    1.196550
     18          1           0        4.524550   -1.929300    0.176570
     19          1           0        5.254750   -0.355680    0.468540
     20          1           0        1.741580    1.105570   -2.351160
     21          1           0        0.715310   -0.220940   -2.814640
     22          1           0        2.029570    0.472110   -4.686460
     23          1           0        2.639330   -1.115760   -4.231340
     24          1           0        3.547660    0.347250   -3.806360
     25          1           0        0.217890   -0.827800   -0.508380
     26          1           0        1.475810   -1.123180    0.656980
     27          1           0        0.339350    0.908640    1.196870
     28          1           0        0.557600    1.586700   -0.411650
     29          1           0        1.950190    1.383700    0.667950
 ---------------------------------------------------------------------
                    Distance matrix (angstroms):
                    1          2          3          4          5
     1  C    0.000000
     2  C    1.554715   0.000000
     3  N    2.668285   1.532502   0.000000
     4  C    3.955815   2.490434   1.532503   0.000000
     5  C    4.627764   3.140282   2.668290   1.554729   0.000000
     6  C    3.153781   2.526672   1.532508   2.490425   3.955819
     7  C    3.758423   3.153790   2.668293   3.140273   4.627766
     8  C    3.140270   2.490422   1.532500   2.526675   3.153793
     9  C    4.627766   3.955819   2.668294   3.153788   3.758432
    10  H    1.089774   2.199484   3.009282   4.374253   4.895111
    11  H    1.087975   2.203568   2.942797   4.315188   5.269025
    12  H    1.091035   2.172666   3.563914   4.658381   5.148603
    13  H    2.115885   1.092732   2.162214   2.732980   2.791963
    14  H    2.139014   1.093481   2.163541   2.672607   3.373807
    15  H    4.800493   3.445863   2.163547   1.093481   2.139025
    16  H    4.186950   2.715374   2.162223   1.092732   2.115880
    17  H    4.838786   3.518521   2.942792   2.203572   1.087978
    18  H    4.353758   2.917785   3.009281   2.199497   1.089777
    19  H    5.647386   4.121917   3.563914   2.172674   1.091025
    20  H    4.168612   3.472560   2.162233   2.715370   4.186960
    21  H    2.863576   2.811678   2.163550   3.445854   4.800498
    22  H    4.437755   4.097462   3.563927   4.121916   5.647398
    23  H    3.280109   2.859712   2.942794   3.518514   4.838788
    24  H    4.538434   3.623841   3.009292   2.917779   4.353761
    25  H    2.791960   2.732977   2.162225   3.472557   4.168618
    26  H    3.373803   2.672601   2.163539   2.811678   2.863580
    27  H    5.148602   4.658380   3.563919   4.097453   4.437756
    28  H    4.895105   4.374252   3.009289   3.623831   4.538437
    29  H    5.269013   4.315182   2.942793   2.859709   3.280117
                    6          7          8          9         10
     6  C    0.000000
     7  C    1.554718   0.000000
     8  C    2.490427   3.955812   0.000000
     9  C    3.140283   4.627765   1.554730   0.000000
    10  H    3.623827   4.538425   2.917779   4.353766   0.000000
    11  H    2.859705   3.280111   3.518514   4.838792   1.773708
    12  H    4.097447   4.437748   4.121911   5.647396   1.759184
    13  H    3.472547   4.168607   2.715362   4.186952   2.440196
    14  H    2.811673   2.863579   3.445850   4.800494   3.054258
    15  H    2.672609   3.373811   2.811677   2.863572   5.135770
    16  H    2.732982   2.791970   3.472551   4.168611   4.831636
    17  H    4.315186   5.269020   2.859711   3.280110   4.862673
    18  H    4.374251   4.895107   3.623833   4.538434   4.690494
    19  H    4.658382   5.148606   4.097450   4.437748   5.969979
    20  H    1.092746   2.115888   2.732982   2.791966   4.497750
    21  H    1.093479   2.139016   2.672604   3.373811   3.189894
    22  H    2.172673   1.091039   4.658381   5.148605   5.158566
    23  H    2.203556   1.087966   4.315177   5.269017   4.224298
    24  H    2.199494   1.089786   4.374254   4.895111   5.333380
    25  H    2.715372   4.186952   1.092737   2.115895   2.322711
    26  H    3.445854   4.800489   1.093480   2.139023   3.011113
    27  H    4.121920   5.647391   2.172676   1.091033   4.656505
    28  H    2.917788   4.353759   2.199494   1.089778   4.690493
    29  H    3.518521   4.838787   2.203566   1.087963   5.121224
                   11         12         13         14         15
    11  H    0.000000
    12  H    1.760760   0.000000
    13  H    3.045550   2.436768   0.000000
    14  H    2.551400   2.389829   1.740015   0.000000
    15  H    5.024898   5.603923   3.753245   3.666685   0.000000
    16  H    4.450483   4.735848   3.074951   2.436092   1.740026
    17  H    5.543046   5.432035   3.039061   4.028430   2.551398
    18  H    5.121232   4.656500   2.322712   3.011109   3.054268
    19  H    6.233268   6.136848   3.820143   4.184433   2.389839
    20  H    3.875953   5.152404   4.300112   3.791506   2.436092
    21  H    2.318711   3.860701   3.791499   3.249355   3.666681
    22  H    3.739701   5.127399   5.152404   3.860710   4.184440
    23  H    2.798159   3.739695   3.875948   2.318717   4.028431
    24  H    4.224311   5.158568   4.497750   3.189903   3.011115
    25  H    3.039059   3.820148   3.074955   3.753244   3.791503
    26  H    4.028429   4.184433   2.436085   3.666674   3.249352
    27  H    5.432035   6.136854   4.735847   5.603920   3.860695
    28  H    4.862670   5.969982   4.831634   5.135768   3.189893
    29  H    5.543039   6.233263   4.450472   5.024891   2.318708
                   16         17         18         19         20
    16  H    0.000000
    17  H    3.045543   0.000000
    18  H    2.440189   1.773718   0.000000
    19  H    2.436765   1.760751   1.759181   0.000000
    20  H    3.074965   4.450483   4.831643   4.735855   0.000000
    21  H    3.753250   5.024896   5.135771   5.603922   1.740021
    22  H    3.820161   6.233272   5.969988   6.136860   2.436768
    23  H    3.039067   5.543042   4.862671   5.432036   3.045544
    24  H    2.322719   5.121230   4.690493   4.656505   2.440201
    25  H    4.300113   3.875953   4.497753   5.152400   3.074962
    26  H    3.791496   2.318710   3.189896   3.860693   3.753247
    27  H    5.152399   3.739694   5.158567   5.127390   3.820150
    28  H    4.497751   4.224304   5.333381   5.158565   2.322713
    29  H    3.875950   2.798156   4.224305   3.739696   3.039062
                   21         22         23         24         25
    21  H    0.000000
    22  H    2.389834   0.000000
    23  H    2.551391   1.760759   0.000000
    24  H    3.054268   1.759194   1.773716   0.000000
    25  H    2.436091   4.735853   4.450475   4.831644   0.000000
    26  H    3.666680   5.603923   5.024889   5.135770   1.740022
    27  H    4.184437   6.136854   6.233263   5.969985   2.436771
    28  H    3.011112   4.656502   5.121223   4.690496   2.440199
    29  H    4.028428   5.432035   5.543037   4.862673   3.045546
                   26         27         28         29
    26  H    0.000000
    27  H    2.389836   0.000000
    28  H    3.054264   1.759186   0.000000
    29  H    2.551393   1.760751   1.773711   0.000000
 This structure is nearly, but not quite of a higher symmetry.
 Consider Symm=Loose if the higher symmetry is desired.
 Stoichiometry    C8H20N(1+)
 Framework group  C1[X(C8H20N)]
 Deg. of freedom    81
 Full point group                 C1      NOp   1
 Largest Abelian subgroup         C1      NOp   1
 Largest concise Abelian subgroup C1      NOp   1
                         Standard orientation:                         
 ---------------------------------------------------------------------
 Center     Atomic      Atomic             Coordinates (Angstroms)
 Number     Number       Type             X           Y           Z
 ---------------------------------------------------------------------
      1          6           0       -2.389991    1.005849   -0.629257
      2          6           0       -0.979844    1.178335    0.002308
      3          7           0        0.000001    0.000005   -0.000002
      4          6           0        1.276542    0.421404    0.735818
      5          6           0        2.126460    1.601131    0.185304
      6          6           0       -0.599812   -1.215986    0.714261
      7          6           0       -1.059381   -1.088076    2.193985
      8          6           0        0.303104   -0.383752   -1.452385
      9          6           0        1.322920   -1.518905   -1.750028
     10          1           0       -2.326210    0.855385   -1.706708
     11          1           0       -2.931827    0.173253   -0.185536
     12          1           0       -2.972341    1.912379   -0.457705
     13          1           0       -0.539244    2.026328   -0.527638
     14          1           0       -1.139853    1.525582    1.026767
     15          1           0        1.953208   -0.433063    0.823632
     16          1           0        1.034009    0.708088    1.762001
     17          1           0        2.424677    1.435990   -0.847891
     18          1           0        1.585868    2.544923    0.253355
     19          1           0        3.033921    1.698075    0.783176
     20          1           0        0.122132   -2.036280    0.716853
     21          1           0       -1.461819   -1.587601    0.153419
     22          1           0       -1.535697   -2.019848    2.502677
     23          1           0       -1.782464   -0.285641    2.324060
     24          1           0       -0.213037   -0.915918    2.858588
     25          1           0       -0.616895   -0.698141   -1.951220
     26          1           0        0.648467    0.495076   -2.003822
     27          1           0        1.474120   -1.590611   -2.828152
     28          1           0        0.953380   -2.484393   -1.405225
     29          1           0        2.289611   -1.323613   -1.290644
 ---------------------------------------------------------------------
 Rotational constants (GHZ):           1.4932196           1.1341677           1.1341674
 Leave Link  202 at Tue Feb 23 00:11:04 2021, MaxMem=   104857600 cpu:               1.1 elap:               0.1
 (Enter /sw/arch/RedHatEnterpriseServer7/EB_production/2019/software/Gaussian/g16.c01/l301.exe)
 Standard basis: TZVP (5D, 7F)
 Ernie: Thresh=  0.10000D-02 Tol=  0.10000D-05 Strict=F.
 There are   300 symmetry adapted cartesian basis functions of A   symmetry.
 There are   291 symmetry adapted basis functions of A   symmetry.
   291 basis functions,   475 primitive gaussians,   300 cartesian basis functions
    37 alpha electrons       37 beta electrons
       nuclear repulsion energy       527.8534711408 Hartrees.
 IExCor=  404 DFT=T Ex=B Corr=P86 ExCW=0 ScaHFX=  0.000000
 ScaDFX=  1.000000  1.000000  1.000000  1.000000 ScalE2=  1.000000  1.000000
 IRadAn=      5 IRanWt=     -1 IRanGd=            0 ICorTp=0 IEmpDi=131
 NAtoms=   29 NActive=   29 NUniq=   29 SFac= 1.00D+00 NAtFMM=   60 NAOKFM=F Big=F
 Integral buffers will be    131072 words long.
 Raffenetti 2 integral format.
 Two-electron integral symmetry is turned on.
 R6Disp:  Grimme-D3 Dispersion energy=       -0.0333604276 Hartrees.
 Nuclear repulsion after empirical dispersion term =      527.8201107132 Hartrees.
 ------------------------------------------------------------------------------
 Polarizable Continuum Model (PCM)
 =================================
 Model                : PCM.
 Atomic radii         : UFF (Universal Force Field).
 Polarization charges : Total charges.
 Charge compensation  : None.
 Solution method      : On-the-fly selection.
 Cavity type          : Scaled VdW (van der Waals Surface) (Alpha=1.100).
 Cavity algorithm     : GePol (No added spheres)
                        Default sphere list used, NSphG=   29.
                        Lebedev-Laikov grids with approx.  5.0 points / Ang**2.
                        Smoothing algorithm: York/Karplus (Gamma=1.0000).
                        Polarization charges: spherical gaussians, with
                                              point-specific exponents (IZeta= 3).
                        Self-potential: point-specific (ISelfS= 7).
                        Self-field    : sphere-specific E.n sum rule (ISelfD= 2).
 1st derivatives      : Analytical E(r).r(x)/FMM algorithm (CHGder, D1EAlg=3).
                        Cavity 1st derivative terms included.
 Solvent              : Water, Eps=  78.355300 Eps(inf)=   1.777849
 ------------------------------------------------------------------------------
 GePol: Number of generator spheres                  =      29
 GePol: Total number of spheres                      =      29
 GePol: Number of exposed spheres                    =      28 ( 96.55%)
 GePol: Number of points                             =    1770
 GePol: Average weight of points                     =       0.13
 GePol: Minimum weight of points                     =   0.14D-10
 GePol: Maximum weight of points                     =    0.20577
 GePol: Number of points with low weight             =     118
 GePol: Fraction of low-weight points (<1% of avg)   =       6.67%
 GePol: Cavity surface area                          =    234.446 Ang**2
 GePol: Cavity volume                                =    248.958 Ang**3
 Leave Link  301 at Tue Feb 23 00:11:04 2021, MaxMem=   104857600 cpu:               1.9 elap:               0.1
 (Enter /sw/arch/RedHatEnterpriseServer7/EB_production/2019/software/Gaussian/g16.c01/l302.exe)
 NPDir=0 NMtPBC=     1 NCelOv=     1 NCel=       1 NClECP=     1 NCelD=      1
         NCelK=      1 NCelE2=     1 NClLst=     1 CellRange=     0.0.
 One-electron integrals computed using PRISM.
 One-electron integral symmetry used in STVInt
 PrsmSu:  requested number of processors reduced to:  28 ShMem   1 Linda.
 NBasis=   291 RedAO= T EigKep=  2.89D-04  NBF=   291
 NBsUse=   291 1.00D-06 EigRej= -1.00D+00 NBFU=   291
 Precomputing XC quadrature grid using
 IXCGrd= 4 IRadAn=           5 IRanWt=          -1 IRanGd=           0 AccXCQ= 0.00D+00.
 Generated NRdTot=       0 NPtTot=           0 NUsed=           0 NTot=          32
 NSgBfM=   298   298   298   298   298 MxSgAt=    29 MxSgA2=    29.
 Leave Link  302 at Tue Feb 23 00:11:05 2021, MaxMem=   104857600 cpu:               9.8 elap:               0.4
 (Enter /sw/arch/RedHatEnterpriseServer7/EB_production/2019/software/Gaussian/g16.c01/l303.exe)
 DipDrv:  MaxL=1.
 Leave Link  303 at Tue Feb 23 00:11:05 2021, MaxMem=   104857600 cpu:               2.4 elap:               0.1
 (Enter /sw/arch/RedHatEnterpriseServer7/EB_production/2019/software/Gaussian/g16.c01/l401.exe)
 ExpMin= 9.52D-02 ExpMax= 1.97D+04 ExpMxC= 6.73D+02 IAcc=3 IRadAn=         5 AccDes= 0.00D+00
 Harris functional with IExCor=  404 and IRadAn=       5 diagonalized for initial guess.
 HarFok:  IExCor=  404 AccDes= 0.00D+00 IRadAn=         5 IDoV= 1 UseB2=F ITyADJ=14
 ICtDFT=  3500011 ScaDFX=  1.000000  1.000000  1.000000  1.000000
 FoFCou: FMM=F IPFlag=           0 FMFlag=      100000 FMFlg1=           0
         NFxFlg=           0 DoJE=T BraDBF=F KetDBF=T FulRan=T
         wScrn=  0.000000 ICntrl=       500 IOpCl=  0 I1Cent=   200000004 NGrid=           0
         NMat0=    1 NMatS0=      1 NMatT0=    0 NMatD0=    1 NMtDS0=    0 NMtDT0=    0
 Petite list used in FoFCou.
 Harris En= -371.829766676788    
 JPrj=0 DoOrth=F DoCkMO=F.
 Leave Link  401 at Tue Feb 23 00:11:06 2021, MaxMem=   104857600 cpu:              17.9 elap:               0.6
 (Enter /sw/arch/RedHatEnterpriseServer7/EB_production/2019/software/Gaussian/g16.c01/l502.exe)
 Integral symmetry usage will be decided dynamically.
 Closed shell SCF:
 Using DIIS extrapolation, IDIIS=  1040.
 NGot=   104857600 LenX=   104664016 LenY=   104573575
 Requested convergence on RMS density matrix=1.00D-08 within 128 cycles.
 Requested convergence on MAX density matrix=1.00D-06.
 Requested convergence on             energy=1.00D-06.
 No special actions if energy rises.
 Fock matrices will be formed incrementally for  20 cycles.

 Cycle   1  Pass 1  IDiag  1:
 FoFJK:  IHMeth= 1 ICntrl=     500 DoSepK=F KAlg= 0 I1Cent=           0 FoldK=F
 IRaf= 940000000 NMat=       1 IRICut=       1 DoRegI=T DoRafI=F ISym2E= 0 IDoP0=0 IntGTp=1.
 FoFCou: FMM=F IPFlag=           0 FMFlag=      100000 FMFlg1=           0
         NFxFlg=           0 DoJE=T BraDBF=F KetDBF=F FulRan=T
         wScrn=  0.000000 ICntrl=       500 IOpCl=  0 I1Cent=           0 NGrid=           0
         NMat0=    1 NMatS0=      1 NMatT0=    0 NMatD0=    1 NMtDS0=    0 NMtDT0=    0
 Symmetry not used in FoFCou.
 Inv3:  Mode=1 IEnd=     9398700.
 Iteration    1 A*A^-1 deviation from unit magnitude is 2.66D-15 for     36.
 Iteration    1 A*A^-1 deviation from orthogonality  is 2.58D-15 for   1690    742.
 Iteration    1 A^-1*A deviation from unit magnitude is 2.89D-15 for    730.
 Iteration    1 A^-1*A deviation from orthogonality  is 2.60D-15 for   1354    349.
 E= -371.301433476634    
 DIIS: error= 3.50D-02 at cycle   1 NSaved=   1.
 NSaved= 1 IEnMin= 1 EnMin= -371.301433476634     IErMin= 1 ErrMin= 3.50D-02
 ErrMax= 3.50D-02  0.00D+00 EMaxC= 1.00D-01 BMatC= 3.27D-01 BMatP= 3.27D-01
 IDIUse=3 WtCom= 6.50D-01 WtEn= 3.50D-01
 Coeff-Com:  0.100D+01
 Coeff-En:   0.100D+01
 Coeff:      0.100D+01
 Gap=     0.339 Goal=   None    Shift=    0.000
 GapD=    0.339 DampG=1.000 DampE=0.500 DampFc=0.5000 IDamp=-1.
 Damping current iteration by 5.00D-01
 RMSDP=3.39D-03 MaxDP=9.42D-02              OVMax= 1.91D-01

 Cycle   2  Pass 1  IDiag  1:
 RMSU=  1.68D-03    CP:  9.80D-01
 E= -371.384945706093     Delta-E=       -0.083512229458 Rises=F Damp=T
 DIIS: error= 1.98D-02 at cycle   2 NSaved=   2.
 NSaved= 2 IEnMin= 2 EnMin= -371.384945706093     IErMin= 2 ErrMin= 1.98D-02
 ErrMax= 1.98D-02  0.00D+00 EMaxC= 1.00D-01 BMatC= 4.88D-02 BMatP= 3.27D-01
 IDIUse=3 WtCom= 8.02D-01 WtEn= 1.98D-01
 Coeff-Com:  0.236D+00 0.764D+00
 Coeff-En:   0.362D+00 0.638D+00
 Coeff:      0.261D+00 0.739D+00
 Gap=     0.342 Goal=   None    Shift=    0.000
 RMSDP=7.09D-04 MaxDP=3.61D-02 DE=-8.35D-02 OVMax= 1.28D-01

 Cycle   3  Pass 1  IDiag  1:
 RMSU=  6.18D-04    CP:  9.82D-01  7.94D-01
 E= -371.596245309084     Delta-E=       -0.211299602991 Rises=F Damp=F
 DIIS: error= 1.20D-02 at cycle   3 NSaved=   3.
 NSaved= 3 IEnMin= 3 EnMin= -371.596245309084     IErMin= 3 ErrMin= 1.20D-02
 ErrMax= 1.20D-02  0.00D+00 EMaxC= 1.00D-01 BMatC= 1.98D-02 BMatP= 4.88D-02
 IDIUse=3 WtCom= 8.80D-01 WtEn= 1.20D-01
 Coeff-Com:  0.108D+00 0.393D+00 0.499D+00
 Coeff-En:   0.000D+00 0.000D+00 0.100D+01
 Coeff:      0.952D-01 0.346D+00 0.559D+00
 Gap=     0.329 Goal=   None    Shift=    0.000
 RMSDP=4.77D-04 MaxDP=1.93D-02 DE=-2.11D-01 OVMax= 3.02D-02

 Cycle   4  Pass 1  IDiag  1:
 RMSU=  3.88D-04    CP:  9.92D-01  8.20D-01  5.82D-01
 E= -371.607074394560     Delta-E=       -0.010829085477 Rises=F Damp=F
 DIIS: error= 7.18D-03 at cycle   4 NSaved=   4.
 NSaved= 4 IEnMin= 4 EnMin= -371.607074394560     IErMin= 4 ErrMin= 7.18D-03
 ErrMax= 7.18D-03  0.00D+00 EMaxC= 1.00D-01 BMatC= 6.89D-03 BMatP= 1.98D-02
 IDIUse=3 WtCom= 9.28D-01 WtEn= 7.18D-02
 Coeff-Com:  0.268D-01 0.748D-01 0.369D+00 0.530D+00
 Coeff-En:   0.000D+00 0.000D+00 0.304D+00 0.696D+00
 Coeff:      0.248D-01 0.695D-01 0.364D+00 0.542D+00
 Gap=     0.329 Goal=   None    Shift=    0.000
 RMSDP=2.63D-04 MaxDP=8.45D-03 DE=-1.08D-02 OVMax= 1.29D-02

 Cycle   5  Pass 1  IDiag  1:
 RMSU=  9.03D-05    CP:  9.87D-01  7.76D-01  6.60D-01  4.20D-01
 E= -371.613164244464     Delta-E=       -0.006089849903 Rises=F Damp=F
 DIIS: error= 5.00D-04 at cycle   5 NSaved=   5.
 NSaved= 5 IEnMin= 5 EnMin= -371.613164244464     IErMin= 5 ErrMin= 5.00D-04
 ErrMax= 5.00D-04  0.00D+00 EMaxC= 1.00D-01 BMatC= 6.45D-05 BMatP= 6.89D-03
 IDIUse=3 WtCom= 9.95D-01 WtEn= 5.00D-03
 Coeff-Com:  0.335D-02 0.677D-02 0.907D-01 0.191D+00 0.708D+00
 Coeff-En:   0.000D+00 0.000D+00 0.000D+00 0.000D+00 0.100D+01
 Coeff:      0.333D-02 0.673D-02 0.902D-01 0.190D+00 0.710D+00
 Gap=     0.326 Goal=   None    Shift=    0.000
 RMSDP=4.62D-05 MaxDP=1.78D-03 DE=-6.09D-03 OVMax= 1.37D-03

 Cycle   6  Pass 1  IDiag  1:
 RMSU=  1.74D-05    CP:  9.88D-01  7.85D-01  6.74D-01  4.97D-01  7.39D-01
 E= -371.613227815922     Delta-E=       -0.000063571459 Rises=F Damp=F
 DIIS: error= 5.12D-05 at cycle   6 NSaved=   6.
 NSaved= 6 IEnMin= 6 EnMin= -371.613227815922     IErMin= 6 ErrMin= 5.12D-05
 ErrMax= 5.12D-05  0.00D+00 EMaxC= 1.00D-01 BMatC= 7.99D-07 BMatP= 6.45D-05
 IDIUse=1 WtCom= 1.00D+00 WtEn= 0.00D+00
 Coeff-Com:  0.106D-02 0.182D-02 0.289D-01 0.635D-01 0.258D+00 0.647D+00
 Coeff:      0.106D-02 0.182D-02 0.289D-01 0.635D-01 0.258D+00 0.647D+00
 Gap=     0.326 Goal=   None    Shift=    0.000
 RMSDP=5.32D-06 MaxDP=1.53D-04 DE=-6.36D-05 OVMax= 2.24D-04

 Cycle   7  Pass 1  IDiag  1:
 RMSU=  2.88D-06    CP:  9.87D-01  7.84D-01  6.73D-01  4.92D-01  7.65D-01
                    CP:  8.48D-01
 E= -371.613228424072     Delta-E=       -0.000000608150 Rises=F Damp=F
 DIIS: error= 2.67D-05 at cycle   7 NSaved=   7.
 NSaved= 7 IEnMin= 7 EnMin= -371.613228424072     IErMin= 7 ErrMin= 2.67D-05
 ErrMax= 2.67D-05  0.00D+00 EMaxC= 1.00D-01 BMatC= 2.15D-07 BMatP= 7.99D-07
 IDIUse=1 WtCom= 1.00D+00 WtEn= 0.00D+00
 Coeff-Com:  0.286D-03 0.347D-03 0.798D-02 0.187D-01 0.817D-01 0.370D+00
 Coeff-Com:  0.521D+00
 Coeff:      0.286D-03 0.347D-03 0.798D-02 0.187D-01 0.817D-01 0.370D+00
 Coeff:      0.521D+00
 Gap=     0.326 Goal=   None    Shift=    0.000
 RMSDP=1.41D-06 MaxDP=3.42D-05 DE=-6.08D-07 OVMax= 8.49D-05

 Cycle   8  Pass 1  IDiag  1:
 RMSU=  1.00D-06    CP:  9.88D-01  7.85D-01  6.73D-01  4.93D-01  7.64D-01
                    CP:  8.60D-01  7.83D-01
 E= -371.613228618001     Delta-E=       -0.000000193929 Rises=F Damp=F
 DIIS: error= 6.40D-06 at cycle   8 NSaved=   8.
 NSaved= 8 IEnMin= 8 EnMin= -371.613228618001     IErMin= 8 ErrMin= 6.40D-06
 ErrMax= 6.40D-06  0.00D+00 EMaxC= 1.00D-01 BMatC= 8.99D-09 BMatP= 2.15D-07
 IDIUse=1 WtCom= 1.00D+00 WtEn= 0.00D+00
 Coeff-Com:  0.223D-04-0.415D-04 0.206D-03 0.783D-03 0.456D-02 0.817D-01
 Coeff-Com:  0.219D+00 0.694D+00
 Coeff:      0.223D-04-0.415D-04 0.206D-03 0.783D-03 0.456D-02 0.817D-01
 Coeff:      0.219D+00 0.694D+00
 Gap=     0.326 Goal=   None    Shift=    0.000
 RMSDP=3.78D-07 MaxDP=6.00D-06 DE=-1.94D-07 OVMax= 1.61D-05

 Cycle   9  Pass 1  IDiag  1:
 RMSU=  1.41D-07    CP:  9.88D-01  7.85D-01  6.73D-01  4.93D-01  7.64D-01
                    CP:  8.70D-01  7.70D-01  7.11D-01
 E= -371.613228615588     Delta-E=        0.000000002413 Rises=F Damp=F
 DIIS: error= 5.14D-07 at cycle   9 NSaved=   9.
 NSaved= 9 IEnMin= 8 EnMin= -371.613228618001     IErMin= 9 ErrMin= 5.14D-07
 ErrMax= 5.14D-07  0.00D+00 EMaxC= 1.00D-01 BMatC= 7.61D-11 BMatP= 8.99D-09
 IDIUse=1 WtCom= 1.00D+00 WtEn= 0.00D+00
 Coeff-Com:  0.402D-05-0.165D-04-0.336D-04-0.571D-04-0.138D-04 0.129D-01
 Coeff-Com:  0.396D-01 0.162D+00 0.785D+00
 Coeff:      0.402D-05-0.165D-04-0.336D-04-0.571D-04-0.138D-04 0.129D-01
 Coeff:      0.396D-01 0.162D+00 0.785D+00
 Gap=     0.326 Goal=   None    Shift=    0.000
 RMSDP=4.83D-08 MaxDP=9.88D-07 DE= 2.41D-09 OVMax= 1.68D-06

 Cycle  10  Pass 1  IDiag  1:
 RMSU=  3.09D-08    CP:  9.88D-01  7.85D-01  6.73D-01  4.93D-01  7.64D-01
                    CP:  8.71D-01  7.75D-01  7.37D-01  8.68D-01
 E= -371.613228615665     Delta-E=       -0.000000000076 Rises=F Damp=F
 DIIS: error= 1.04D-07 at cycle  10 NSaved=  10.
 NSaved=10 IEnMin= 8 EnMin= -371.613228618001     IErMin=10 ErrMin= 1.04D-07
 ErrMax= 1.04D-07  0.00D+00 EMaxC= 1.00D-01 BMatC= 2.22D-12 BMatP= 7.61D-11
 IDIUse=1 WtCom= 1.00D+00 WtEn= 0.00D+00
 Coeff-Com:  0.761D-06-0.369D-05-0.884D-05-0.256D-04-0.679D-04 0.171D-02
 Coeff-Com:  0.569D-02 0.289D-01 0.228D+00 0.736D+00
 Coeff:      0.761D-06-0.369D-05-0.884D-05-0.256D-04-0.679D-04 0.171D-02
 Coeff:      0.569D-02 0.289D-01 0.228D+00 0.736D+00
 Gap=     0.326 Goal=   None    Shift=    0.000
 RMSDP=8.64D-09 MaxDP=1.63D-07 DE=-7.64D-11 OVMax= 3.63D-07

 Error on total polarization charges =  0.01180
 SCF Done:  E(RB-P86) =  -371.613228616     A.U. after   10 cycles
            NFock= 10  Conv=0.86D-08     -V/T= 2.0062
 KE= 3.693280659255D+02 PE=-1.902001255410D+03 EE= 6.332398501553D+02
 Leave Link  502 at Tue Feb 23 00:11:22 2021, MaxMem=   104857600 cpu:             528.5 elap:              16.9
 (Enter /sw/arch/RedHatEnterpriseServer7/EB_production/2019/software/Gaussian/g16.c01/l601.exe)
 Copying SCF densities to generalized density rwf, IOpCl= 0 IROHF=0.

 **********************************************************************

            Population analysis using the SCF Density.

 **********************************************************************

 Orbital symmetries:
       Occupied  (A) (A) (A) (A) (A) (A) (A) (A) (A) (A) (A) (A)
                 (A) (A) (A) (A) (A) (A) (A) (A) (A) (A) (A) (A)
                 (A) (A) (A) (A) (A) (A) (A) (A) (A) (A) (A) (A)
                 (A)
       Virtual   (A) (A) (A) (A) (A) (A) (A) (A) (A) (A) (A) (A)
                 (A) (A) (A) (A) (A) (A) (A) (A) (A) (A) (A) (A)
                 (A) (A) (A) (A) (A) (A) (A) (A) (A) (A) (A) (A)
                 (A) (A) (A) (A) (A) (A) (A) (A) (A) (A) (A) (A)
                 (A) (A) (A) (A) (A) (A) (A) (A) (A) (A) (A) (A)
                 (A) (A) (A) (A) (A) (A) (A) (A) (A) (A) (A) (A)
                 (A) (A) (A) (A) (A) (A) (A) (A) (A) (A) (A) (A)
                 (A) (A) (A) (A) (A) (A) (A) (A) (A) (A) (A) (A)
                 (A) (A) (A) (A) (A) (A) (A) (A) (A) (A) (A) (A)
                 (A) (A) (A) (A) (A) (A) (A) (A) (A) (A) (A) (A)
                 (A) (A) (A) (A) (A) (A) (A) (A) (A) (A) (A) (A)
                 (A) (A) (A) (A) (A) (A) (A) (A) (A) (A) (A) (A)
                 (A) (A) (A) (A) (A) (A) (A) (A) (A) (A) (A) (A)
                 (A) (A) (A) (A) (A) (A) (A) (A) (A) (A) (A) (A)
                 (A) (A) (A) (A) (A) (A) (A) (A) (A) (A) (A) (A)
                 (A) (A) (A) (A) (A) (A) (A) (A) (A) (A) (A) (A)
                 (A) (A) (A) (A) (A) (A) (A) (A) (A) (A) (A) (A)
                 (A) (A) (A) (A) (A) (A) (A) (A) (A) (A) (A) (A)
                 (A) (A) (A) (A) (A) (A) (A) (A) (A) (A) (A) (A)
                 (A) (A) (A) (A) (A) (A) (A) (A) (A) (A) (A) (A)
                 (A) (A) (A) (A) (A) (A) (A) (A) (A) (A) (A) (A)
                 (A) (A)
 The electronic state is 1-A.
 Alpha  occ. eigenvalues --  -14.15569  -9.96837  -9.96835  -9.96834  -9.96833
 Alpha  occ. eigenvalues --   -9.91182  -9.91181  -9.91181  -9.91179  -0.94374
 Alpha  occ. eigenvalues --   -0.73121  -0.72821  -0.72821  -0.68457  -0.61572
 Alpha  occ. eigenvalues --   -0.61571  -0.59494  -0.53918  -0.50371  -0.47706
 Alpha  occ. eigenvalues --   -0.47705  -0.44182  -0.42911  -0.40737  -0.40736
 Alpha  occ. eigenvalues --   -0.37990  -0.37467  -0.37466  -0.36575  -0.35545
 Alpha  occ. eigenvalues --   -0.35235  -0.34150  -0.34149  -0.33765  -0.32936
 Alpha  occ. eigenvalues --   -0.32935  -0.32345
 Alpha virt. eigenvalues --    0.00294   0.01430   0.01643   0.02685   0.02687
 Alpha virt. eigenvalues --    0.04099   0.04803   0.04804   0.05302   0.06627
 Alpha virt. eigenvalues --    0.07300   0.07301   0.07921   0.09068   0.09186
 Alpha virt. eigenvalues --    0.09186   0.10263   0.10302   0.10638   0.10640
 Alpha virt. eigenvalues --    0.12909   0.13027   0.13895   0.13896   0.14654
 Alpha virt. eigenvalues --    0.15032   0.16808   0.16809   0.19122   0.20256
 Alpha virt. eigenvalues --    0.20701   0.20702   0.20898   0.23407   0.25373
 Alpha virt. eigenvalues --    0.25373   0.25950   0.26686   0.26687   0.27340
 Alpha virt. eigenvalues --    0.28732   0.30052   0.34953   0.34954   0.35104
 Alpha virt. eigenvalues --    0.35281   0.36823   0.36825   0.37659   0.38723
 Alpha virt. eigenvalues --    0.38957   0.38958   0.39965   0.40791   0.41419
 Alpha virt. eigenvalues --    0.41516   0.41518   0.41937   0.42497   0.43673
 Alpha virt. eigenvalues --    0.43674   0.44055   0.44561   0.44562   0.45864
 Alpha virt. eigenvalues --    0.47003   0.47004   0.47263   0.48519   0.49742
 Alpha virt. eigenvalues --    0.49861   0.49864   0.52759   0.53398   0.53399
 Alpha virt. eigenvalues --    0.55914   0.58923   0.59091   0.63682   0.63685
 Alpha virt. eigenvalues --    0.72287   0.74096   0.74525   0.74526   1.00291
 Alpha virt. eigenvalues --    1.00748   1.07420   1.07420   1.11678   1.13368
 Alpha virt. eigenvalues --    1.13369   1.15401   1.19048   1.19855   1.19856
 Alpha virt. eigenvalues --    1.19892   1.22229   1.22365   1.23566   1.23566
 Alpha virt. eigenvalues --    1.23874   1.25784   1.27920   1.27920   1.28246
 Alpha virt. eigenvalues --    1.28487   1.28831   1.28831   1.29976   1.31732
 Alpha virt. eigenvalues --    1.31733   1.32911   1.37048   1.37784   1.41626
 Alpha virt. eigenvalues --    1.41741   1.41742   1.46442   1.46442   1.46817
 Alpha virt. eigenvalues --    1.48296   1.49465   1.50399   1.51429   1.51738
 Alpha virt. eigenvalues --    1.51738   1.53255   1.56861   1.56862   1.57894
 Alpha virt. eigenvalues --    1.57895   1.58357   1.60141   1.65873   1.67406
 Alpha virt. eigenvalues --    1.67407   1.67507   1.67664   1.69048   1.69049
 Alpha virt. eigenvalues --    1.70793   1.71632   1.71990   1.72412   1.72413
 Alpha virt. eigenvalues --    1.72518   1.73310   1.73377   1.73378   1.75318
 Alpha virt. eigenvalues --    1.77397   1.77721   1.77723   1.78791   1.79311
 Alpha virt. eigenvalues --    1.79311   1.79363   1.86859   1.86859   1.87746
 Alpha virt. eigenvalues --    1.88577   1.91627   1.91628   1.91668   1.97084
 Alpha virt. eigenvalues --    2.02932   2.02933   2.03739   2.10827   2.11914
 Alpha virt. eigenvalues --    2.12137   2.12137   2.15536   2.16054   2.18452
 Alpha virt. eigenvalues --    2.18452   2.22702   2.24493   2.24493   2.26778
 Alpha virt. eigenvalues --    2.28188   2.31741   2.31741   2.31785   2.34168
 Alpha virt. eigenvalues --    2.38558   2.38559   2.41345   2.42214   2.42898
 Alpha virt. eigenvalues --    2.42898   2.44288   2.46507   2.48418   2.48418
 Alpha virt. eigenvalues --    2.48696   2.50878   2.52629   2.52629   2.53202
 Alpha virt. eigenvalues --    2.53917   2.55742   2.57979   2.57979   2.59411
 Alpha virt. eigenvalues --    2.61946   2.64360   2.65632   2.65633   2.66258
 Alpha virt. eigenvalues --    2.67462   2.67463   2.71558   2.76162   2.84445
 Alpha virt. eigenvalues --    2.84715   2.84716   2.89812   2.90343   2.92244
 Alpha virt. eigenvalues --    2.92246   2.98285   3.11325   3.11326   3.14366
 Alpha virt. eigenvalues --    3.14550   3.22214   3.23051   3.23243   3.23244
 Alpha virt. eigenvalues --    3.25993   3.25993   3.26064   3.27468   3.29104
 Alpha virt. eigenvalues --    3.29173   3.29174   3.31486   3.35647   3.37015
 Alpha virt. eigenvalues --    3.39875   3.39877   3.56607   3.56607   3.56645
 Alpha virt. eigenvalues --   21.76215  21.76663  21.76665  21.76809  21.86336
 Alpha virt. eigenvalues --   21.86336  21.87118  21.87681  31.69687
          Condensed to atoms (all electrons):
               1          2          3          4          5          6
     1  C    5.078620   0.202373  -0.026168   0.017532  -0.000317   0.014249
     2  C    0.202373   5.424329   0.191229  -0.125804   0.004433  -0.058690
     3  N   -0.026168   0.191229   6.653869   0.190964  -0.026166   0.190915
     4  C    0.017532  -0.125804   0.190964   5.424761   0.202608  -0.125804
     5  C   -0.000317   0.004433  -0.026166   0.202608   5.078252   0.017514
     6  C    0.014249  -0.058690   0.190915  -0.125804   0.017514   5.425345
     7  C   -0.013420   0.014200  -0.026200   0.004436  -0.000314   0.202615
     8  C    0.004473  -0.125904   0.191169  -0.058603   0.014148  -0.125951
     9  C   -0.000318   0.017517  -0.026216   0.014176  -0.013395   0.004463
    10  H    0.411600  -0.040888  -0.005246  -0.000192  -0.000091  -0.006377
    11  H    0.411210  -0.044550  -0.008199  -0.000950   0.000041   0.020589
    12  H    0.394725  -0.021957   0.005159  -0.000258   0.000060  -0.000833
    13  H   -0.030084   0.408677  -0.019776  -0.010617   0.003232   0.010641
    14  H   -0.033729   0.397558  -0.019179   0.003102  -0.004044  -0.021255
    15  H   -0.000529   0.012594  -0.019202   0.397550  -0.033698   0.003100
    16  H    0.000021  -0.015315  -0.019779   0.408713  -0.030072  -0.010631
    17  H    0.000082  -0.005604  -0.008189  -0.044457   0.411183  -0.000948
    18  H   -0.000090   0.010441  -0.005247  -0.040867   0.411585  -0.000191
    19  H   -0.000002   0.000225   0.005159  -0.022022   0.394791  -0.000258
    20  H   -0.000046   0.010634  -0.019799  -0.015297   0.000020   0.408723
    21  H    0.001411  -0.021295  -0.019185   0.012606  -0.000529   0.397475
    22  H    0.000396  -0.000831   0.005162   0.000224  -0.000002  -0.021969
    23  H   -0.003696   0.020553  -0.008192  -0.005601   0.000081  -0.044516
    24  H    0.000614  -0.006375  -0.005259   0.010458  -0.000089  -0.040850
    25  H    0.003246  -0.010648  -0.019771   0.010639  -0.000048  -0.015321
    26  H   -0.004047   0.003107  -0.019152  -0.021237   0.001396   0.012597
    27  H    0.000060  -0.000258   0.005164  -0.000833   0.000397   0.000222
    28  H   -0.000091  -0.000190  -0.005261  -0.006374   0.000614   0.010494
    29  H    0.000041  -0.000949  -0.008196   0.020576  -0.003702  -0.005607
               7          8          9         10         11         12
     1  C   -0.013420   0.004473  -0.000318   0.411600   0.411210   0.394725
     2  C    0.014200  -0.125904   0.017517  -0.040888  -0.044550  -0.021957
     3  N   -0.026200   0.191169  -0.026216  -0.005246  -0.008199   0.005159
     4  C    0.004436  -0.058603   0.014176  -0.000192  -0.000950  -0.000258
     5  C   -0.000314   0.014148  -0.013395  -0.000091   0.000041   0.000060
     6  C    0.202615  -0.125951   0.004463  -0.006377   0.020589  -0.000833
     7  C    5.077991   0.017517  -0.000312   0.000614  -0.003703   0.000397
     8  C    0.017517   5.424840   0.202632   0.010457  -0.005610   0.000224
     9  C   -0.000312   0.202632   5.077994  -0.000089   0.000082  -0.000002
    10  H    0.000614   0.010457  -0.000089   0.505174  -0.024835  -0.019249
    11  H   -0.003703  -0.005610   0.000082  -0.024835   0.507331  -0.019798
    12  H    0.000397   0.000224  -0.000002  -0.019249  -0.019798   0.486317
    13  H   -0.000047  -0.015317   0.000021  -0.004097   0.004843  -0.001725
    14  H    0.001394   0.012598  -0.000529   0.004721  -0.003027  -0.002605
    15  H   -0.004048  -0.021252   0.001380   0.000016  -0.000014   0.000013
    16  H    0.003225   0.010636  -0.000045  -0.000020   0.000059  -0.000018
    17  H    0.000041   0.020533  -0.003689   0.000007   0.000001  -0.000007
    18  H   -0.000091  -0.006371   0.000613   0.000028  -0.000023   0.000050
    19  H    0.000060  -0.000829   0.000395  -0.000002   0.000001  -0.000000
    20  H   -0.030056  -0.010622   0.003209  -0.000054   0.000290   0.000003
    21  H   -0.033683   0.003134  -0.004063   0.000875  -0.004236   0.000174
    22  H    0.394752  -0.000258   0.000060  -0.000008   0.000058  -0.000012
    23  H    0.411249  -0.000948   0.000041  -0.000019   0.001717   0.000057
    24  H    0.411574  -0.000190  -0.000092   0.000004  -0.000020  -0.000008
    25  H    0.000021   0.408742  -0.030159  -0.002991   0.000293   0.000159
    26  H   -0.000528   0.397486  -0.033690  -0.000885   0.000266   0.000016
    27  H   -0.000002  -0.021990   0.394791   0.000049  -0.000007  -0.000000
    28  H   -0.000088  -0.040846   0.411520   0.000028   0.000008  -0.000002
    29  H    0.000081  -0.044539   0.411246  -0.000024   0.000001   0.000001
              13         14         15         16         17         18
     1  C   -0.030084  -0.033729  -0.000529   0.000021   0.000082  -0.000090
     2  C    0.408677   0.397558   0.012594  -0.015315  -0.005604   0.010441
     3  N   -0.019776  -0.019179  -0.019202  -0.019779  -0.008189  -0.005247
     4  C   -0.010617   0.003102   0.397550   0.408713  -0.044457  -0.040867
     5  C    0.003232  -0.004044  -0.033698  -0.030072   0.411183   0.411585
     6  C    0.010641  -0.021255   0.003100  -0.010631  -0.000948  -0.000191
     7  C   -0.000047   0.001394  -0.004048   0.003225   0.000041  -0.000091
     8  C   -0.015317   0.012598  -0.021252   0.010636   0.020533  -0.006371
     9  C    0.000021  -0.000529   0.001380  -0.000045  -0.003689   0.000613
    10  H   -0.004097   0.004721   0.000016  -0.000020   0.000007   0.000028
    11  H    0.004843  -0.003027  -0.000014   0.000059   0.000001  -0.000023
    12  H   -0.001725  -0.002605   0.000013  -0.000018  -0.000007   0.000050
    13  H    0.456535  -0.015328  -0.000268   0.000492   0.000295  -0.002984
    14  H   -0.015328   0.463934   0.000136   0.002268   0.000265  -0.000884
    15  H   -0.000268   0.000136   0.463795  -0.015349  -0.003034   0.004722
    16  H    0.000492   0.002268  -0.015349   0.456574   0.004842  -0.004108
    17  H    0.000295   0.000265  -0.003034   0.004842   0.507243  -0.024827
    18  H   -0.002984  -0.000884   0.004722  -0.004108  -0.024827   0.505261
    19  H    0.000159   0.000016  -0.002606  -0.001717  -0.019803  -0.019276
    20  H   -0.000093  -0.000174   0.002268   0.000491   0.000059  -0.000020
    21  H   -0.000173   0.001333   0.000135  -0.000268  -0.000014   0.000016
    22  H    0.000003   0.000174   0.000016   0.000159   0.000001  -0.000002
    23  H    0.000289  -0.004226   0.000266   0.000296   0.000001   0.000007
    24  H   -0.000054   0.000877  -0.000887  -0.002982  -0.000023   0.000028
    25  H    0.000493  -0.000269  -0.000174  -0.000093   0.000288  -0.000054
    26  H    0.002278   0.000136   0.001331  -0.000174  -0.004228   0.000877
    27  H   -0.000018   0.000013   0.000174   0.000003   0.000058  -0.000008
    28  H   -0.000020   0.000016   0.000877  -0.000054  -0.000019   0.000004
    29  H    0.000059  -0.000014  -0.004227   0.000289   0.001712  -0.000019
              19         20         21         22         23         24
     1  C   -0.000002  -0.000046   0.001411   0.000396  -0.003696   0.000614
     2  C    0.000225   0.010634  -0.021295  -0.000831   0.020553  -0.006375
     3  N    0.005159  -0.019799  -0.019185   0.005162  -0.008192  -0.005259
     4  C   -0.022022  -0.015297   0.012606   0.000224  -0.005601   0.010458
     5  C    0.394791   0.000020  -0.000529  -0.000002   0.000081  -0.000089
     6  C   -0.000258   0.408723   0.397475  -0.021969  -0.044516  -0.040850
     7  C    0.000060  -0.030056  -0.033683   0.394752   0.411249   0.411574
     8  C   -0.000829  -0.010622   0.003134  -0.000258  -0.000948  -0.000190
     9  C    0.000395   0.003209  -0.004063   0.000060   0.000041  -0.000092
    10  H   -0.000002  -0.000054   0.000875  -0.000008  -0.000019   0.000004
    11  H    0.000001   0.000290  -0.004236   0.000058   0.001717  -0.000020
    12  H   -0.000000   0.000003   0.000174  -0.000012   0.000057  -0.000008
    13  H    0.000159  -0.000093  -0.000173   0.000003   0.000289  -0.000054
    14  H    0.000016  -0.000174   0.001333   0.000174  -0.004226   0.000877
    15  H   -0.002606   0.002268   0.000135   0.000016   0.000266  -0.000887
    16  H   -0.001717   0.000491  -0.000268   0.000159   0.000296  -0.002982
    17  H   -0.019803   0.000059  -0.000014   0.000001   0.000001  -0.000023
    18  H   -0.019276  -0.000020   0.000016  -0.000002   0.000007   0.000028
    19  H    0.486327  -0.000018   0.000013  -0.000000  -0.000007   0.000049
    20  H   -0.000018   0.456371  -0.015376  -0.001722   0.004841  -0.004105
    21  H    0.000013  -0.015376   0.463950  -0.002611  -0.003033   0.004723
    22  H   -0.000000  -0.001722  -0.002611   0.486340  -0.019811  -0.019267
    23  H   -0.000007   0.004841  -0.003033  -0.019811   0.507227  -0.024818
    24  H    0.000049  -0.004105   0.004723  -0.019267  -0.024818   0.505259
    25  H    0.000003   0.000494   0.002277  -0.000018   0.000059  -0.000020
    26  H    0.000174  -0.000270   0.000136   0.000013  -0.000014   0.000016
    27  H   -0.000012   0.000159   0.000016  -0.000000   0.000001  -0.000002
    28  H   -0.000008  -0.002986  -0.000890   0.000049  -0.000023   0.000028
    29  H    0.000058   0.000298   0.000266  -0.000007   0.000001   0.000007
              25         26         27         28         29
     1  C    0.003246  -0.004047   0.000060  -0.000091   0.000041
     2  C   -0.010648   0.003107  -0.000258  -0.000190  -0.000949
     3  N   -0.019771  -0.019152   0.005164  -0.005261  -0.008196
     4  C    0.010639  -0.021237  -0.000833  -0.006374   0.020576
     5  C   -0.000048   0.001396   0.000397   0.000614  -0.003702
     6  C   -0.015321   0.012597   0.000222   0.010494  -0.005607
     7  C    0.000021  -0.000528  -0.000002  -0.000088   0.000081
     8  C    0.408742   0.397486  -0.021990  -0.040846  -0.044539
     9  C   -0.030159  -0.033690   0.394791   0.411520   0.411246
    10  H   -0.002991  -0.000885   0.000049   0.000028  -0.000024
    11  H    0.000293   0.000266  -0.000007   0.000008   0.000001
    12  H    0.000159   0.000016  -0.000000  -0.000002   0.000001
    13  H    0.000493   0.002278  -0.000018  -0.000020   0.000059
    14  H   -0.000269   0.000136   0.000013   0.000016  -0.000014
    15  H   -0.000174   0.001331   0.000174   0.000877  -0.004227
    16  H   -0.000093  -0.000174   0.000003  -0.000054   0.000289
    17  H    0.000288  -0.004228   0.000058  -0.000019   0.001712
    18  H   -0.000054   0.000877  -0.000008   0.000004  -0.000019
    19  H    0.000003   0.000174  -0.000012  -0.000008   0.000058
    20  H    0.000494  -0.000270   0.000159  -0.002986   0.000298
    21  H    0.002277   0.000136   0.000016  -0.000890   0.000266
    22  H   -0.000018   0.000013  -0.000000   0.000049  -0.000007
    23  H    0.000059  -0.000014   0.000001  -0.000023   0.000001
    24  H   -0.000020   0.000016  -0.000002   0.000028   0.000007
    25  H    0.456514  -0.015320  -0.001720  -0.004102   0.004843
    26  H   -0.015320   0.463733  -0.002611   0.004721  -0.003025
    27  H   -0.001720  -0.002611   0.486324  -0.019264  -0.019820
    28  H   -0.004102   0.004721  -0.019264   0.505395  -0.024819
    29  H    0.004843  -0.003025  -0.019820  -0.024819   0.507294
 Mulliken charges:
               1
     1  C   -0.428116
     2  C   -0.238614
     3  N   -0.124411
     4  C   -0.239430
     5  C   -0.427888
     6  C   -0.239742
     7  C   -0.427675
     8  C   -0.239361
     9  C   -0.427542
    10  H    0.171492
    11  H    0.168181
    12  H    0.179119
    13  H    0.212583
    14  H    0.216721
    15  H    0.216916
    16  H    0.212555
    17  H    0.168231
    18  H    0.171430
    19  H    0.179130
    20  H    0.212774
    21  H    0.216814
    22  H    0.179108
    23  H    0.168219
    24  H    0.171401
    25  H    0.212634
    26  H    0.216898
    27  H    0.179114
    28  H    0.171284
    29  H    0.168174
 Sum of Mulliken charges =   1.00000
 Mulliken charges with hydrogens summed into heavy atoms:
               1
     1  C    0.090677
     2  C    0.190690
     3  N   -0.124411
     4  C    0.190040
     5  C    0.090903
     6  C    0.189846
     7  C    0.091054
     8  C    0.190171
     9  C    0.091030
 Electronic spatial extent (au):  <R**2>=           1488.2757
 Charge=              1.0000 electrons
 Dipole moment (field-independent basis, Debye):
    X=              0.0015    Y=              0.0024    Z=              0.0003  Tot=              0.0028
 Quadrupole moment (field-independent basis, Debye-Ang):
   XX=            -47.8055   YY=            -49.3247   ZZ=            -49.0097
   XY=              0.0342   XZ=             -0.6914   YZ=             -0.0194
 Traceless Quadrupole moment (field-independent basis, Debye-Ang):
   XX=              0.9078   YY=             -0.6114   ZZ=             -0.2964
   XY=              0.0342   XZ=             -0.6914   YZ=             -0.0194
 Octapole moment (field-independent basis, Debye-Ang**2):
  XXX=              1.8273  YYY=             -0.2984  ZZZ=             -5.0176  XYY=             -4.1407
  XXY=              6.4822  XXZ=              2.7420  XZZ=              2.3183  YZZ=             -6.1717
  YYZ=              2.2785  XYZ=              5.4722
 Hexadecapole moment (field-independent basis, Debye-Ang**3):
 XXXX=           -764.8258 YYYY=           -526.5572 ZZZZ=           -565.8675 XXXY=             -3.1411
 XXXZ=             67.1138 YYYX=             -4.5208 YYYZ=             -4.2298 ZZZX=             46.3010
 ZZZY=              5.4103 XXYY=           -205.5053 XXZZ=           -223.7111 YYZZ=           -181.6495
 XXYZ=              1.8289 YYXZ=             13.8063 ZZXY=              0.9545
 N-N= 5.278201107132D+02 E-N=-1.902001249761D+03  KE= 3.693280659255D+02
 No NMR shielding tensors so no spin-rotation constants.
 Leave Link  601 at Tue Feb 23 00:11:23 2021, MaxMem=   104857600 cpu:               7.0 elap:               0.3
 (Enter /sw/arch/RedHatEnterpriseServer7/EB_production/2019/software/Gaussian/g16.c01/l701.exe)
 ... and contract with generalized density number  0.
 Compute integral first derivatives.
 R6Disp: Adding Grimme-D3 dispersion energy 1st derivatives to the gradient.
 PrsmSu:  requested number of processors reduced to:  28 ShMem   1 Linda.
 D1PCM: PCM CHGder 1st derivatives, ID1Alg=3 FixD1E=F DoIter=F DoCFld=F I1PDM=0.
 GePol: Maximum number of non-zero 1st derivatives   =     208
 CoulSu:  requested number of processors reduced to:  29 ShMem   1 Linda.
 CoulSu:  requested number of processors reduced to:  29 ShMem   1 Linda.
 Leave Link  701 at Tue Feb 23 00:11:24 2021, MaxMem=   104857600 cpu:              24.5 elap:               0.8
 (Enter /sw/arch/RedHatEnterpriseServer7/EB_production/2019/software/Gaussian/g16.c01/l702.exe)
 L702 exits ... SP integral derivatives will be done elsewhere.
 Leave Link  702 at Tue Feb 23 00:11:24 2021, MaxMem=   104857600 cpu:               0.7 elap:               0.1
 (Enter /sw/arch/RedHatEnterpriseServer7/EB_production/2019/software/Gaussian/g16.c01/l703.exe)
 Integral derivatives from FoFJK, PRISM(SPDF).
 Compute integral first derivatives, UseDBF=F ICtDFT=           0.
 Calling FoFJK, ICntrl=      2527 FMM=F ISym2X=0 I1Cent= 0 IOpClX= 0 NMat=1 NMatS=1 NMatT=0.
 FoFJK:  IHMeth= 1 ICntrl=    2527 DoSepK=F KAlg= 0 I1Cent=           0 FoldK=F
 IRaf=         0 NMat=       1 IRICut=       1 DoRegI=T DoRafI=F ISym2E= 0 IDoP0=0 IntGTp=1.
 FoFCou: FMM=F IPFlag=           0 FMFlag=      100000 FMFlg1=         800
         NFxFlg=           0 DoJE=F BraDBF=F KetDBF=F FulRan=T
         wScrn=  0.000000 ICntrl=      2527 IOpCl=  0 I1Cent=           0 NGrid=           0
         NMat0=    1 NMatS0=      1 NMatT0=    0 NMatD0=    1 NMtDS0=    0 NMtDT0=    0
 Symmetry not used in FoFCou.
 Leave Link  703 at Tue Feb 23 00:11:28 2021, MaxMem=   104857600 cpu:             111.3 elap:               3.6
 (Enter /sw/arch/RedHatEnterpriseServer7/EB_production/2019/software/Gaussian/g16.c01/l716.exe)
 Dipole        = 5.84702140D-04 9.29829221D-04 1.08497937D-04
 ***** Axes restored to original set *****
 -------------------------------------------------------------------
 Center     Atomic                   Forces (Hartrees/Bohr)
 Number     Number              X              Y              Z
 -------------------------------------------------------------------
      1        6           0.004096469    0.020657690    0.006071825
      2        6          -0.007250817   -0.025814813   -0.006476371
      3        7           0.000007909    0.000014320   -0.000053700
      4        6           0.024299850    0.002584451    0.012861988
      5        6          -0.019198690   -0.003959959   -0.009885655
      6        6          -0.001295486    0.010804813   -0.025367590
      7        6           0.002880685   -0.008338923    0.020027334
      8        6          -0.015726206    0.012358410    0.018999050
      9        6           0.012150529   -0.008344414   -0.016219435
     10        1          -0.004672362    0.000134542    0.003006098
     11        1          -0.003425940    0.001942755   -0.005960837
     12        1           0.005307346   -0.003050190   -0.000019820
     13        1           0.004180623    0.008565053    0.007363278
     14        1           0.005094055    0.010129916   -0.001290892
     15        1          -0.010382560    0.003027350   -0.003351598
     16        1          -0.007040608   -0.002675848   -0.009395973
     17        1          -0.002901947    0.000493698    0.006496682
     18        1           0.000745970   -0.005493192    0.000588968
     19        1           0.002685266    0.004693903   -0.002929048
     20        1           0.001041116    0.000574336    0.012023721
     21        1          -0.003084069   -0.006580958    0.008700647
     22        1          -0.005302048    0.003017312    0.000006597
     23        1           0.000965211   -0.006265158   -0.003254056
     24        1           0.005383997    0.001192117   -0.000220709
     25        1           0.001826483   -0.006467375   -0.009926775
     26        1           0.008356489   -0.006500290   -0.004032775
     27        1          -0.002675976   -0.004661297    0.002931980
     28        1          -0.001479806    0.004180261   -0.003367760
     29        1           0.005414515    0.003781490    0.002674825
 -------------------------------------------------------------------
 Cartesian Forces:  Max     0.025814813 RMS     0.008670235
 Leave Link  716 at Tue Feb 23 00:11:28 2021, MaxMem=   104857600 cpu:               0.8 elap:               0.1
 (Enter /sw/arch/RedHatEnterpriseServer7/EB_production/2019/software/Gaussian/g16.c01/l103.exe)

 GradGradGradGradGradGradGradGradGradGradGradGradGradGradGradGradGradGrad
 Berny optimization.
 FormGI is forming the generalized inverse of G from B-inverse, IUseBI=4.
 Internal  Forces:  Max     0.016408695 RMS     0.005661820
 Search for a local minimum.
 Step number   1 out of a maximum of  164
 All quantities printed in internal units (Hartrees-Bohrs-Radians)
 RMS Force = .56618D-02 SwitMx=.10000D-02 MixMth= 1
 Mixed Optimization -- RFO/linear search
 Second derivative matrix not updated -- first step.
 ITU=  0
     Eigenvalues ---    0.00230   0.00230   0.00230   0.00230   0.00230
     Eigenvalues ---    0.00230   0.00230   0.00230   0.02801   0.02801
     Eigenvalues ---    0.02801   0.02802   0.04554   0.04554   0.04554
     Eigenvalues ---    0.04554   0.04694   0.04694   0.04805   0.05295
     Eigenvalues ---    0.05295   0.05295   0.05295   0.05649   0.05649
     Eigenvalues ---    0.05649   0.05649   0.09466   0.09466   0.09466
     Eigenvalues ---    0.09466   0.12975   0.12975   0.12975   0.12975
     Eigenvalues ---    0.14089   0.14680   0.16000   0.16000   0.16000
     Eigenvalues ---    0.16000   0.16000   0.16000   0.16000   0.16000
     Eigenvalues ---    0.16000   0.16000   0.16000   0.16000   0.22008
     Eigenvalues ---    0.22008   0.22008   0.22008   0.27253   0.27253
     Eigenvalues ---    0.27254   0.27254   0.29193   0.29193   0.29194
     Eigenvalues ---    0.29194   0.34413   0.34413   0.34414   0.34414
     Eigenvalues ---    0.34497   0.34498   0.34499   0.34499   0.34693
     Eigenvalues ---    0.34693   0.34694   0.34694   0.34837   0.34838
     Eigenvalues ---    0.34838   0.34839   0.35047   0.35048   0.35049
     Eigenvalues ---    0.35049
 RFO step:  Lambda=-2.60958928D-02 EMin= 2.30000000D-03
 Linear search not attempted -- first point.
 Maximum step size (   0.300) exceeded in Quadratic search.
    -- Step size scaled by   0.902
 Iteration  1 RMS(Cart)=  0.07341433 RMS(Int)=  0.00157566
 Iteration  2 RMS(Cart)=  0.00168846 RMS(Int)=  0.00122244
 Iteration  3 RMS(Cart)=  0.00000082 RMS(Int)=  0.00122244
 ITry= 1 IFail=0 DXMaxC= 2.20D-01 DCOld= 1.00D+10 DXMaxT= 3.00D-01 DXLimC= 3.00D+00 Rises=F
 Variable       Old X    -DE/DX   Delta X   Delta X   Delta X     New X
                                 (Linear)    (Quad)   (Total)
    R1        2.93799  -0.01131   0.00000  -0.03417  -0.03417   2.90382
    R2        2.05938   0.00541   0.00000   0.01304   0.01304   2.07242
    R3        2.05598   0.00703   0.00000   0.01683   0.01683   2.07281
    R4        2.06176   0.00410   0.00000   0.00991   0.00991   2.07167
    R5        2.89601  -0.01273   0.00000  -0.03610  -0.03610   2.85990
    R6        2.06496   0.00300   0.00000   0.00731   0.00731   2.07227
    R7        2.06638   0.00255   0.00000   0.00620   0.00620   2.07258
    R8        2.89601  -0.01264   0.00000  -0.03585  -0.03585   2.86016
    R9        2.89602  -0.01264   0.00000  -0.03585  -0.03585   2.86017
   R10        2.89601  -0.01267   0.00000  -0.03594  -0.03594   2.86007
   R11        2.93801  -0.01131   0.00000  -0.03416  -0.03416   2.90385
   R12        2.06638   0.00257   0.00000   0.00627   0.00627   2.07265
   R13        2.06496   0.00305   0.00000   0.00742   0.00742   2.07238
   R14        2.05598   0.00701   0.00000   0.01680   0.01680   2.07278
   R15        2.05938   0.00542   0.00000   0.01305   0.01305   2.07243
   R16        2.06174   0.00411   0.00000   0.00993   0.00993   2.07167
   R17        2.93799  -0.01133   0.00000  -0.03423  -0.03423   2.90376
   R18        2.06499   0.00303   0.00000   0.00736   0.00736   2.07235
   R19        2.06638   0.00257   0.00000   0.00627   0.00627   2.07265
   R20        2.06177   0.00406   0.00000   0.00982   0.00982   2.07158
   R21        2.05596   0.00702   0.00000   0.01681   0.01681   2.07277
   R22        2.05940   0.00537   0.00000   0.01294   0.01294   2.07234
   R23        2.93801  -0.01131   0.00000  -0.03418  -0.03418   2.90384
   R24        2.06497   0.00302   0.00000   0.00735   0.00735   2.07233
   R25        2.06638   0.00250   0.00000   0.00610   0.00610   2.07248
   R26        2.06175   0.00409   0.00000   0.00990   0.00990   2.07165
   R27        2.05938   0.00542   0.00000   0.01306   0.01306   2.07244
   R28        2.05595   0.00701   0.00000   0.01680   0.01680   2.07275
    A1        1.94321   0.00229   0.00000   0.01338   0.01329   1.95650
    A2        1.95082   0.00255   0.00000   0.01345   0.01335   1.96416
    A3        1.90506  -0.00732   0.00000  -0.03880  -0.03873   1.86633
    A4        1.90362  -0.00150   0.00000  -0.00136  -0.00157   1.90205
    A5        1.87698   0.00226   0.00000   0.00894   0.00902   1.88600
    A6        1.88168   0.00171   0.00000   0.00393   0.00397   1.88566
[...]
 Alpha  occ. eigenvalues --   -0.31350  -0.30781
 Alpha virt. eigenvalues --    0.01731   0.02713   0.03252   0.03889   0.03890
 Alpha virt. eigenvalues --    0.05973   0.06194   0.06196   0.06803   0.07419
 Alpha virt. eigenvalues --    0.08565   0.08566   0.09303   0.09795   0.10244
 Alpha virt. eigenvalues --    0.10247   0.11497   0.11565   0.12089   0.12093
 Alpha virt. eigenvalues --    0.14776   0.14913   0.15133   0.15138   0.15776
 Alpha virt. eigenvalues --    0.17133   0.18365   0.18368   0.20960   0.21539
 Alpha virt. eigenvalues --    0.22095   0.22898   0.22900   0.26753   0.26759
 Alpha virt. eigenvalues --    0.26907   0.27761   0.27762   0.28023   0.28307
 Alpha virt. eigenvalues --    0.30661   0.31538   0.36030   0.36615   0.36618
 Alpha virt. eigenvalues --    0.36895   0.37705   0.37707   0.39401   0.39988
 Alpha virt. eigenvalues --    0.39992   0.40576   0.40952   0.41514   0.42476
 Alpha virt. eigenvalues --    0.42478   0.42542   0.43034   0.43490   0.44815
 Alpha virt. eigenvalues --    0.44935   0.44942   0.45472   0.45483   0.46572
 Alpha virt. eigenvalues --    0.48064   0.48068   0.49328   0.49686   0.51732
 Alpha virt. eigenvalues --    0.51963   0.52504   0.52509   0.54552   0.54567
 Alpha virt. eigenvalues --    0.59087   0.60913   0.61619   0.63494   0.63502
 Alpha virt. eigenvalues --    0.72449   0.73313   0.73322   0.75724   1.02273
 Alpha virt. eigenvalues --    1.04158   1.10471   1.10490   1.14957   1.14963
 Alpha virt. eigenvalues --    1.15543   1.18273   1.21298   1.22215   1.22219
 Alpha virt. eigenvalues --    1.22303   1.22383   1.23609   1.25324   1.25330
 Alpha virt. eigenvalues --    1.25624   1.26886   1.28027   1.28032   1.29553
 Alpha virt. eigenvalues --    1.30526   1.30529   1.32061   1.32183   1.34971
 Alpha virt. eigenvalues --    1.34974   1.36912   1.38292   1.39737   1.42063
 Alpha virt. eigenvalues --    1.42079   1.43401   1.47600   1.47612   1.48570
 Alpha virt. eigenvalues --    1.50455   1.50513   1.51009   1.53122   1.53127
 Alpha virt. eigenvalues --    1.54491   1.56029   1.57460   1.57473   1.60068
 Alpha virt. eigenvalues --    1.60072   1.61004   1.61104   1.66948   1.68047
 Alpha virt. eigenvalues --    1.68052   1.70177   1.70214   1.71145   1.71154
 Alpha virt. eigenvalues --    1.71353   1.71678   1.73045   1.73048   1.73339
 Alpha virt. eigenvalues --    1.73434   1.73773   1.73778   1.76066   1.76242
 Alpha virt. eigenvalues --    1.78677   1.78681   1.79149   1.80866   1.80954
 Alpha virt. eigenvalues --    1.80965   1.83101   1.89290   1.89298   1.90310
 Alpha virt. eigenvalues --    1.92577   1.95574   1.95591   1.98199   2.01144
 Alpha virt. eigenvalues --    2.05462   2.05471   2.07052   2.12931   2.15064
 Alpha virt. eigenvalues --    2.15068   2.16355   2.19439   2.19449   2.19905
 Alpha virt. eigenvalues --    2.23563   2.24002   2.24092   2.24099   2.29616
 Alpha virt. eigenvalues --    2.29732   2.34445   2.34445   2.35042   2.37242
 Alpha virt. eigenvalues --    2.39129   2.39136   2.43535   2.45210   2.46064
 Alpha virt. eigenvalues --    2.46071   2.46706   2.46741   2.50311   2.51315
 Alpha virt. eigenvalues --    2.51319   2.52111   2.53487   2.53495   2.54549
 Alpha virt. eigenvalues --    2.57319   2.59709   2.61073   2.61077   2.64613
 Alpha virt. eigenvalues --    2.67187   2.67578   2.68470   2.68483   2.68602
 Alpha virt. eigenvalues --    2.73864   2.73884   2.79565   2.82017   2.85767
 Alpha virt. eigenvalues --    2.88670   2.88692   2.94436   2.96047   2.97206
 Alpha virt. eigenvalues --    2.97221   3.02449   3.14178   3.14189   3.15274
 Alpha virt. eigenvalues --    3.18739   3.22927   3.22941   3.24985   3.24994
 Alpha virt. eigenvalues --    3.25637   3.26006   3.29175   3.29392   3.31347
 Alpha virt. eigenvalues --    3.31821   3.31824   3.33887   3.36111   3.37327
 Alpha virt. eigenvalues --    3.39056   3.39058   3.59975   3.59979   3.61266
 Alpha virt. eigenvalues --   21.76378  21.76386  21.78818  21.80223  21.87979
 Alpha virt. eigenvalues --   21.87984  21.91034  21.92106  31.78696
          Condensed to atoms (all electrons):
               1          2          3          4          5          6
     1  C    5.111120   0.186288  -0.031020   0.021634  -0.000117   0.011547
     2  C    0.186288   5.475056   0.159621  -0.145595   0.006319  -0.038307
     3  N   -0.031020   0.159621   6.873271   0.159334  -0.030984   0.159634
     4  C    0.021634  -0.145595   0.159334   5.475524   0.186224  -0.145469
     5  C   -0.000117   0.006319  -0.030984   0.186224   5.111165   0.021633
     6  C    0.011547  -0.038307   0.159634  -0.145469   0.021633   5.475045
     7  C   -0.020431   0.011537  -0.031015   0.006345  -0.000115   0.186274
     8  C    0.006341  -0.145452   0.159341  -0.038243   0.011540  -0.145587
     9  C   -0.000115   0.021629  -0.030984   0.011544  -0.020502   0.006312
    10  H    0.414738  -0.042205  -0.003616  -0.000037  -0.000101  -0.009973
    11  H    0.403215  -0.033366  -0.011486  -0.001443   0.000065   0.026538
    12  H    0.395292  -0.031804   0.006620  -0.000310   0.000046  -0.001084
    13  H   -0.028700   0.412180  -0.023400  -0.010287   0.003690   0.011666
    14  H   -0.029026   0.393040  -0.019296   0.006356  -0.005393  -0.026478
    15  H   -0.000816   0.013664  -0.019261   0.392925  -0.028988   0.006409
    16  H    0.000313  -0.018997  -0.023416   0.412211  -0.028703  -0.010333
    17  H    0.000070  -0.005785  -0.011513  -0.033307   0.403152  -0.001447
    18  H    0.000106   0.010250  -0.003594  -0.042242   0.414793  -0.000034
    19  H   -0.000013   0.000383   0.006620  -0.031814   0.395293  -0.000310
    20  H   -0.000150   0.011666  -0.023404  -0.019033   0.000314   0.412181
    21  H    0.002500  -0.026478  -0.019292   0.013662  -0.000816   0.393040
    22  H    0.000690  -0.001084   0.006620   0.000379  -0.000013  -0.031802
    23  H   -0.007156   0.026536  -0.011485  -0.005796   0.000070  -0.033362
    24  H    0.001281  -0.009973  -0.003616   0.010280   0.000106  -0.042211
    25  H    0.003690  -0.010331  -0.023416   0.011675  -0.000152  -0.018991
    26  H   -0.005408   0.006410  -0.019261  -0.026505   0.002518   0.013663
    27  H    0.000046  -0.000310   0.006620  -0.001089   0.000692   0.000383
    28  H   -0.000101  -0.000034  -0.003591  -0.009997   0.001288   0.010246
    29  H    0.000065  -0.001447  -0.011516   0.026592  -0.007194  -0.005783
               7          8          9         10         11         12
     1  C   -0.020431   0.006341  -0.000115   0.414738   0.403215   0.395292
     2  C    0.011537  -0.145452   0.021629  -0.042205  -0.033366  -0.031804
     3  N   -0.031015   0.159341  -0.030984  -0.003616  -0.011486   0.006620
     4  C    0.006345  -0.038243   0.011544  -0.000037  -0.001443  -0.000310
     5  C   -0.000115   0.011540  -0.020502  -0.000101   0.000065   0.000046
     6  C    0.186274  -0.145587   0.006312  -0.009973   0.026538  -0.001084
     7  C    5.111143   0.021636  -0.000119   0.001281  -0.007157   0.000690
     8  C    0.021636   5.475447   0.186249   0.010281  -0.005795   0.000379
     9  C   -0.000119   0.186249   5.111149   0.000106   0.000070  -0.000013
    10  H    0.001281   0.010281   0.000106   0.497596  -0.025831  -0.017653
    11  H   -0.007157  -0.005795   0.000070  -0.025831   0.507022  -0.020809
    12  H    0.000690   0.000379  -0.000013  -0.017653  -0.020809   0.495485
    13  H   -0.000150  -0.019034   0.000314  -0.002844   0.004378  -0.002066
    14  H    0.002502   0.013663  -0.000817   0.004097  -0.004135  -0.001014
    15  H   -0.005408  -0.026506   0.002517   0.000024  -0.000023   0.000020
    16  H    0.003691   0.011675  -0.000152  -0.000032   0.000082  -0.000034
    17  H    0.000065   0.026588  -0.007193  -0.000000   0.000002  -0.000007
    18  H   -0.000101  -0.009994   0.001287   0.000028  -0.000034   0.000070
    19  H    0.000046  -0.001088   0.000692  -0.000002   0.000001  -0.000001
    20  H   -0.028707  -0.010280   0.003689  -0.000058   0.000330   0.000004
    21  H   -0.029021   0.006346  -0.005388   0.001289  -0.006519   0.000292
    22  H    0.395288  -0.000310   0.000046  -0.000018   0.000158  -0.000018
    23  H    0.403210  -0.001442   0.000065   0.000043   0.003431   0.000157
    24  H    0.414744  -0.000037  -0.000101  -0.000008   0.000043  -0.000018
    25  H    0.000313   0.412204  -0.028701  -0.002621   0.000561   0.000084
    26  H   -0.000816   0.392926  -0.028989  -0.000792   0.000260   0.000034
    27  H   -0.000013  -0.031814   0.395294   0.000070  -0.000007  -0.000001
    28  H    0.000105  -0.042237   0.414788   0.000028  -0.000000  -0.000002
    29  H    0.000070  -0.033309   0.403154  -0.000034   0.000002   0.000001
              13         14         15         16         17         18
     1  C   -0.028700  -0.029026  -0.000816   0.000313   0.000070   0.000106
     2  C    0.412180   0.393040   0.013664  -0.018997  -0.005785   0.010250
     3  N   -0.023400  -0.019296  -0.019261  -0.023416  -0.011513  -0.003594
     4  C   -0.010287   0.006356   0.392925   0.412211  -0.033307  -0.042242
     5  C    0.003690  -0.005393  -0.028988  -0.028703   0.403152   0.414793
     6  C    0.011666  -0.026478   0.006409  -0.010333  -0.001447  -0.000034
     7  C   -0.000150   0.002502  -0.005408   0.003691   0.000065  -0.000101
     8  C   -0.019034   0.013663  -0.026506   0.011675   0.026588  -0.009994
     9  C    0.000314  -0.000817   0.002517  -0.000152  -0.007193   0.001287
    10  H   -0.002844   0.004097   0.000024  -0.000032  -0.000000   0.000028
    11  H    0.004378  -0.004135  -0.000023   0.000082   0.000002  -0.000034
    12  H   -0.002066  -0.001014   0.000020  -0.000034  -0.000007   0.000070
    13  H    0.455742  -0.014634  -0.000333   0.000321   0.000560  -0.002603
    14  H   -0.014634   0.460925   0.000324   0.003163   0.000259  -0.000789
    15  H   -0.000333   0.000324   0.460915  -0.014632  -0.004147   0.004097
    16  H    0.000321   0.003163  -0.014632   0.455719   0.004381  -0.002844
    17  H    0.000560   0.000259  -0.004147   0.004381   0.507070  -0.025837
    18  H   -0.002603  -0.000789   0.004097  -0.002844  -0.025837   0.497588
    19  H    0.000084   0.000033  -0.001008  -0.002070  -0.020815  -0.017646
    20  H   -0.000177  -0.000210   0.003156   0.000325   0.000083  -0.000032
    21  H   -0.000210   0.001506   0.000324  -0.000333  -0.000023   0.000024
    22  H    0.000004   0.000292   0.000033   0.000084   0.000001  -0.000002
    23  H    0.000330  -0.006518   0.000260   0.000561   0.000002  -0.000000
    24  H   -0.000058   0.001289  -0.000792  -0.002621  -0.000034   0.000028
    25  H    0.000325  -0.000333  -0.000210  -0.000178   0.000329  -0.000058
    26  H    0.003156   0.000325   0.001505  -0.000210  -0.006524   0.001290
    27  H   -0.000034   0.000020   0.000293   0.000004   0.000158  -0.000019
    28  H   -0.000032   0.000024   0.001290  -0.000058   0.000044  -0.000008
    29  H    0.000083  -0.000023  -0.006526   0.000330   0.003450   0.000044
              19         20         21         22         23         24
     1  C   -0.000013  -0.000150   0.002500   0.000690  -0.007156   0.001281
     2  C    0.000383   0.011666  -0.026478  -0.001084   0.026536  -0.009973
     3  N    0.006620  -0.023404  -0.019292   0.006620  -0.011485  -0.003616
     4  C   -0.031814  -0.019033   0.013662   0.000379  -0.005796   0.010280
     5  C    0.395293   0.000314  -0.000816  -0.000013   0.000070   0.000106
     6  C   -0.000310   0.412181   0.393040  -0.031802  -0.033362  -0.042211
     7  C    0.000046  -0.028707  -0.029021   0.395288   0.403210   0.414744
     8  C   -0.001088  -0.010280   0.006346  -0.000310  -0.001442  -0.000037
     9  C    0.000692   0.003689  -0.005388   0.000046   0.000065  -0.000101
    10  H   -0.000002  -0.000058   0.001289  -0.000018   0.000043  -0.000008
    11  H    0.000001   0.000330  -0.006519   0.000158   0.003431   0.000043
    12  H   -0.000001   0.000004   0.000292  -0.000018   0.000157  -0.000018
    13  H    0.000084  -0.000177  -0.000210   0.000004   0.000330  -0.000058
    14  H    0.000033  -0.000210   0.001506   0.000292  -0.006518   0.001289
    15  H   -0.001008   0.003156   0.000324   0.000033   0.000260  -0.000792
    16  H   -0.002070   0.000325  -0.000333   0.000084   0.000561  -0.002621
    17  H   -0.020815   0.000083  -0.000023   0.000001   0.000002  -0.000034
    18  H   -0.017646  -0.000032   0.000024  -0.000002  -0.000000   0.000028
    19  H    0.495478  -0.000034   0.000020  -0.000001  -0.000007   0.000070
    20  H   -0.000034   0.455743  -0.014632  -0.002067   0.004379  -0.002843
    21  H    0.000020  -0.014632   0.460923  -0.001013  -0.004135   0.004097
    22  H   -0.000001  -0.002067  -0.001013   0.495484  -0.020808  -0.017651
    23  H   -0.000007   0.004379  -0.004135  -0.020808   0.507022  -0.025832
    24  H    0.000070  -0.002843   0.004097  -0.017651  -0.025832   0.497593
    25  H    0.000004   0.000320   0.003164  -0.000034   0.000082  -0.000032
    26  H    0.000292  -0.000333   0.000324   0.000020  -0.000023   0.000024
    27  H   -0.000018   0.000084   0.000033  -0.000001   0.000001  -0.000002
    28  H   -0.000019  -0.002600  -0.000789   0.000070  -0.000034   0.000028
    29  H    0.000158   0.000560   0.000259  -0.000007   0.000002  -0.000000
              25         26         27         28         29
     1  C    0.003690  -0.005408   0.000046  -0.000101   0.000065
     2  C   -0.010331   0.006410  -0.000310  -0.000034  -0.001447
     3  N   -0.023416  -0.019261   0.006620  -0.003591  -0.011516
     4  C    0.011675  -0.026505  -0.001089  -0.009997   0.026592
     5  C   -0.000152   0.002518   0.000692   0.001288  -0.007194
     6  C   -0.018991   0.013663   0.000383   0.010246  -0.005783
     7  C    0.000313  -0.000816  -0.000013   0.000105   0.000070
     8  C    0.412204   0.392926  -0.031814  -0.042237  -0.033309
     9  C   -0.028701  -0.028989   0.395294   0.414788   0.403154
    10  H   -0.002621  -0.000792   0.000070   0.000028  -0.000034
    11  H    0.000561   0.000260  -0.000007  -0.000000   0.000002
    12  H    0.000084   0.000034  -0.000001  -0.000002   0.000001
    13  H    0.000325   0.003156  -0.000034  -0.000032   0.000083
    14  H   -0.000333   0.000325   0.000020   0.000024  -0.000023
    15  H   -0.000210   0.001505   0.000293   0.001290  -0.006526
    16  H   -0.000178  -0.000210   0.000004  -0.000058   0.000330
    17  H    0.000329  -0.006524   0.000158   0.000044   0.003450
    18  H   -0.000058   0.001290  -0.000019  -0.000008   0.000044
    19  H    0.000004   0.000292  -0.000018  -0.000019   0.000158
    20  H    0.000320  -0.000333   0.000084  -0.002600   0.000560
    21  H    0.003164   0.000324   0.000033  -0.000789   0.000259
    22  H   -0.000034   0.000020  -0.000001   0.000070  -0.000007
    23  H    0.000082  -0.000023   0.000001  -0.000034   0.000002
    24  H   -0.000032   0.000024  -0.000002   0.000028  -0.000000
    25  H    0.455723  -0.014634  -0.002070  -0.002846   0.004381
    26  H   -0.014634   0.460922  -0.001008   0.004098  -0.004147
    27  H   -0.002070  -0.001008   0.495476  -0.017646  -0.020815
    28  H   -0.002846   0.004098  -0.017646   0.497593  -0.025838
    29  H    0.004381  -0.004147  -0.020815  -0.025838   0.507071
 Mulliken charges:
               1
     1  C   -0.435885
     2  C   -0.223409
     3  N   -0.182515
     4  C   -0.223519
     5  C   -0.435829
     6  C   -0.223402
     7  C   -0.435888
     8  C   -0.223483
     9  C   -0.435834
    10  H    0.176243
    11  H    0.170447
    12  H    0.175659
    13  H    0.211730
    14  H    0.220846
    15  H    0.220893
    16  H    0.211755
    17  H    0.170417
    18  H    0.176232
    19  H    0.175669
    20  H    0.211727
    21  H    0.220845
    22  H    0.175659
    23  H    0.170448
    24  H    0.176245
    25  H    0.211751
    26  H    0.220884
    27  H    0.175670
    28  H    0.176228
    29  H    0.170418
 Sum of Mulliken charges =   1.00000
 Mulliken charges with hydrogens summed into heavy atoms:
               1
     1  C    0.086464
     2  C    0.209166
     3  N   -0.182515
     4  C    0.209129
     5  C    0.086489
     6  C    0.209170
     7  C    0.086464
     8  C    0.209152
     9  C    0.086482
 Electronic spatial extent (au):  <R**2>=           1428.9916
 Charge=              1.0000 electrons
 Dipole moment (field-independent basis, Debye):
    X=             -0.0005    Y=             -0.0000    Z=              0.0001  Tot=              0.0005
 Quadrupole moment (field-independent basis, Debye-Ang):
   XX=            -48.6868   YY=            -50.3522   ZZ=            -50.3535
   XY=             -0.0000   XZ=              0.0001   YZ=              0.0003
 Traceless Quadrupole moment (field-independent basis, Debye-Ang):
   XX=              1.1107   YY=             -0.5547   ZZ=             -0.5560
   XY=             -0.0000   XZ=              0.0001   YZ=              0.0003
 Octapole moment (field-independent basis, Debye-Ang**2):
  XXX=             -0.0020  YYY=             -0.0001  ZZZ=              0.0001  XYY=             -3.5003
  XXY=             -0.0005  XXZ=              0.0008  XZZ=              3.4948  YZZ=              0.0002
  YYZ=              0.0002  XYZ=             -5.2782
 Hexadecapole moment (field-independent basis, Debye-Ang**3):
 XXXX=           -847.3218 YYYY=           -498.1172 ZZZZ=           -497.9032 XXXY=             -0.0004
 XXXZ=              0.0026 YYYX=             -0.0009 YYYZ=              3.1744 ZZZX=             -0.0001
 ZZZY=             -3.1715 XXYY=           -214.4637 XXZZ=           -214.4179 YYZZ=           -156.9731
 XXYZ=             -0.0002 YYXZ=             -0.0000 ZZXY=              0.0005
 N-N= 5.364055712045D+02 E-N=-1.918968787698D+03  KE= 3.694126962202D+02
 Unable to Open any file for archive entry.
 1\1\GINC-TCN1741\SP\RBP86\TZVP\C8H20N1(1+)\ELENAA\23-Feb-2021\0\\# BP8
 6/TZVP SCRF=COSMORS geom=CHECKPOINT guess=CHECKPOINT\\COSMO-file for #
 CBXCPBUEXACCNR-UHFFFAOYSA-N\\1,1\C,0,1.0316137459,-2.8908258201,-2.182
 6807788\C,0,2.3048322898,-2.249020908,-1.6499100641\N,0,2.2108494004,-
 0.7488884451,-1.3432582136\C,0,3.6078855366,-0.2339551298,-0.973956044
 5\C,0,4.1960208348,-0.7974267633,0.3119092628\C,0,1.7056229006,0.03177
 06489,-2.5633326334\C,0,2.4886486302,-0.1840925464,-3.8506246486\C,0,1
 .2251084694,-0.5443253145,-0.1857912331\C,0,1.1276442713,0.8772566515,
 0.3494367648\H,0,0.1975031483,-2.8357943991,-1.471631307\H,0,0.7106968
 902,-2.4692204838,-3.1440444392\H,0,1.2499384465,-3.9554202172,-2.3477
 890602\H,0,2.6082392869,-2.7265667714,-0.7111098209\H,0,3.1305089471,-
 2.3610957282,-2.3636321876\H,0,3.5241079552,0.8587832354,-0.9227603916
 \H,0,4.2510420582,-0.4797035582,-1.82683552\H,0,3.6040277992,-0.541914
 1975,1.20028375\H,0,4.3349872971,-1.8854178491,0.2753664338\H,0,5.1900
 00876,-0.345579933,0.4388796631\H,0,1.7331851215,1.0884291987,-2.27322
 07901\H,0,0.6535387095,-0.2523303597,-2.6902529115\H,0,2.0173979328,0.
 4379456795,-4.6247541256\H,0,2.4562115604,-1.2238419859,-4.2010895077\
 H,0,3.535947563,0.1337941265,-3.7701533295\H,0,0.2508979771,-0.8775407
 734,-0.5617221141\H,0,1.535038298,-1.2414199748,0.6027000064\H,0,0.386
 5941367,0.8677895435,1.1612496708\H,0,0.7756879566,1.5927227582,-0.404
 6221223\H,0,2.0731319607,1.2399493163,0.7730656916\\Version=ES64L-G16R
 evC.01\State=1-A\HF=-371.6031582\RMSD=4.712e-09\Dipole=-0.0000803,-0.0
 000747,-0.0001795\Quadrupole=-0.3439921,-0.2000396,0.5440318,0.1216982
 ,0.2576245,0.4506838\PG=C01 [X(C8H20N1)]\\@
 The archive entry for this job was punched.


 A MAN IS EXACTLY AS GREAT AS THE TIDE SURGING
 BENEATH HIM.      - BISMARCK
 Job cpu time:       0 days  0 hours  7 minutes 58.0 seconds.
 Elapsed time:       0 days  0 hours  0 minutes 15.5 seconds.
 File lengths (MBytes):  RWF=     68 Int=      0 D2E=      0 Chk=     11 Scr=      1
 Normal termination of Gaussian 16 at Tue Feb 23 00:17:38 2021.
