 Entering Gaussian System, Link 0=g16
 Input=CKLJMWTZIZZHCS-UWTATZPHSA-N.gjf
 Output=CKLJMWTZIZZHCS-UWTATZPHSA-N.log
 Initial command:
 /sw/arch/RedHatEnterpriseServer7/EB_production/2019/software/Gaussian/g16.c01/l1.exe "/scratch-local/elenaa.9715191/Gau-16645.inp" -scrdir="/scratch-local/elenaa.9715191/"
 Entering Link 1 = /sw/arch/RedHatEnterpriseServer7/EB_production/2019/software/Gaussian/g16.c01/l1.exe PID=     16646.
  
 Copyright (c) 1988-2019, Gaussian, Inc.  All Rights Reserved.
  
 This is part of the Gaussian(R) 16 program.  It is based on
 the Gaussian(R) 09 system (copyright 2009, Gaussian, Inc.),
 the Gaussian(R) 03 system (copyright 2003, Gaussian, Inc.),
 the Gaussian(R) 98 system (copyright 1998, Gaussian, Inc.),
 the Gaussian(R) 94 system (copyright 1995, Gaussian, Inc.),
 the Gaussian 92(TM) system (copyright 1992, Gaussian, Inc.),
 the Gaussian 90(TM) system (copyright 1990, Gaussian, Inc.),
 the Gaussian 88(TM) system (copyright 1988, Gaussian, Inc.),
 the Gaussian 86(TM) system (copyright 1986, Carnegie Mellon
 University), and the Gaussian 82(TM) system (copyright 1983,
 Carnegie Mellon University). Gaussian is a federally registered
 trademark of Gaussian, Inc.
  
 This software contains proprietary and confidential information,
 including trade secrets, belonging to Gaussian, Inc.
  
 This software is provided under written license and may be
 used, copied, transmitted, or stored only in accord with that
 written license.
  
 The following legend is applicable only to US Government
 contracts under FAR:
  
                    RESTRICTED RIGHTS LEGEND
  
 Use, reproduction and disclosure by the US Government is
 subject to restrictions as set forth in subparagraphs (a)
 and (c) of the Commercial Computer Software - Restricted
 Rights clause in FAR 52.227-19.
  
 Gaussian, Inc.
 340 Quinnipiac St., Bldg. 40, Wallingford CT 06492
  
  
 ---------------------------------------------------------------
 Warning -- This program may not be used in any manner that
 competes with the business of Gaussian, Inc. or will provide
 assistance to any competitor of Gaussian, Inc.  The licensee
 of this program is prohibited from giving any competitor of
 Gaussian, Inc. access to this program.  By using this program,
 the user acknowledges that Gaussian, Inc. is engaged in the
 business of creating and licensing software in the field of
 computational chemistry and represents and warrants to the
 licensee that it is not a competitor of Gaussian, Inc. and that
 it will not use this program in any manner prohibited above.
 ---------------------------------------------------------------
  

 Cite this work as:
 Gaussian 16, Revision C.01,
 M. J. Frisch, G. W. Trucks, H. B. Schlegel, G. E. Scuseria, 
 M. A. Robb, J. R. Cheeseman, G. Scalmani, V. Barone, 
 G. A. Petersson, H. Nakatsuji, X. Li, M. Caricato, A. V. Marenich, 
 J. Bloino, B. G. Janesko, R. Gomperts, B. Mennucci, H. P. Hratchian, 
 J. V. Ortiz, A. F. Izmaylov, J. L. Sonnenberg, D. Williams-Young, 
 F. Ding, F. Lipparini, F. Egidi, J. Goings, B. Peng, A. Petrone, 
 T. Henderson, D. Ranasinghe, V. G. Zakrzewski, J. Gao, N. Rega, 
 G. Zheng, W. Liang, M. Hada, M. Ehara, K. Toyota, R. Fukuda, 
 J. Hasegawa, M. Ishida, T. Nakajima, Y. Honda, O. Kitao, H. Nakai, 
 T. Vreven, K. Throssell, J. A. Montgomery, Jr., J. E. Peralta, 
 F. Ogliaro, M. J. Bearpark, J. J. Heyd, E. N. Brothers, K. N. Kudin, 
 V. N. Staroverov, T. A. Keith, R. Kobayashi, J. Normand, 
 K. Raghavachari, A. P. Rendell, J. C. Burant, S. S. Iyengar, 
 J. Tomasi, M. Cossi, J. M. Millam, M. Klene, C. Adamo, R. Cammi, 
 J. W. Ochterski, R. L. Martin, K. Morokuma, O. Farkas, 
 J. B. Foresman, and D. J. Fox, Gaussian, Inc., Wallingford CT, 2019.
 
 ******************************************
 Gaussian 16:  ES64L-G16RevC.01  3-Jul-2019
                22-Feb-2021 
 ******************************************
 %chk=CKLJMWTZIZZHCS-UWTATZPHSA-N.chk
 %NProcShared=32
 Will use up to   32 processors via shared memory.
 -------------------------------------------------------------
 #P BP86/TZVP EmpiricalDispersion=GD3 SCRF=(Solvent=Water) Opt
 -------------------------------------------------------------
 1/18=20,19=15,26=3,38=1/1,3;
 2/9=110,12=2,17=6,18=5,40=1/2;
 3/5=19,7=101,11=2,25=1,30=1,70=2201,71=1,72=1,74=404,124=31/1,2,3;
 4//1;
 5/5=2,38=5,53=1/2;
 6/7=2,8=2,9=2,10=2,28=1/1;
 7//1,2,3,16;
 1/18=20,19=15,26=3/3(2);
 2/9=110/2;
 99//99;
 2/9=110/2;
 3/5=19,7=101,11=2,25=1,30=1,70=2205,71=1,72=1,74=404,124=31/1,2,3;
 4/5=5,16=3,69=1/1;
 5/5=2,38=5,53=1/2;
 7//1,2,3,16;
 1/18=20,19=15,26=3/3(-5);
 2/9=110/2;
 6/7=2,8=2,9=2,10=2,19=2,28=1/1;
 99/9=1/99;
 Leave Link    1 at Mon Feb 22 20:57:35 2021, MaxMem=           0 cpu:               1.7 elap:               0.1
 (Enter /sw/arch/RedHatEnterpriseServer7/EB_production/2019/software/Gaussian/g16.c01/l101.exe)
 -------------------------------------
 Particle #CKLJMWTZIZZHCS-UWTATZPHSA-N
 -------------------------------------
 Symbolic Z-matrix:
 Charge =  0 Multiplicity = 1
 N                     1.04009   2.47256  -3.24489 
 C                     1.19289   1.56248  -2.0965 
 C                     0.92639   2.33325  -0.77265 
 C                     0.94696   1.47035   0.42443 
 O                     1.85091   1.58035   1.28261 
 O                    -0.02002   0.54591   0.61897 
 C                     2.54649   0.96491  -2.14685 
 O                     3.57233   1.68308  -2.12022 
 O                     2.7073   -0.37455  -2.21965 
 H                     0.0991    2.86824  -3.25342 
 H                     1.72161   3.2312   -3.17456 
 H                     1.1979    1.9629   -4.1167 
 H                     0.4412    0.77341  -2.20397 
 H                    -0.05726   2.80872  -0.82182 
 H                     1.67127   3.12623  -0.66374 
 H                    -0.01792  -0.00888   1.42717 
 
 ITRead=  0  0  0  0  0  0  0  0  0  0  0  0  0  0  0  0
 MicOpt= -1 -1 -1 -1 -1 -1 -1 -1 -1 -1 -1 -1 -1 -1 -1 -1
 NAtoms=     16 NQM=       16 NQMF=       0 NMMI=      0 NMMIF=      0
                NMic=       0 NMicF=      0.
                    Isotopes and Nuclear Properties:
 (Nuclear quadrupole moments (NQMom) in fm**2, nuclear magnetic moments (NMagM)
  in nuclear magnetons)

  Atom         1           2           3           4           5           6           7           8           9          10
 IAtWgt=          14          12          12          12          16          16          12          16          16           1
 AtmWgt=  14.0030740  12.0000000  12.0000000  12.0000000  15.9949146  15.9949146  12.0000000  15.9949146  15.9949146   1.0078250
 NucSpn=           2           0           0           0           0           0           0           0           0           1
 AtZEff=  -0.0000000  -0.0000000  -0.0000000  -0.0000000  -0.0000000  -0.0000000  -0.0000000  -0.0000000  -0.0000000  -0.0000000
 NQMom=    2.0440000   0.0000000   0.0000000   0.0000000   0.0000000   0.0000000   0.0000000   0.0000000   0.0000000   0.0000000
 NMagM=    0.4037610   0.0000000   0.0000000   0.0000000   0.0000000   0.0000000   0.0000000   0.0000000   0.0000000   2.7928460
 AtZNuc=   7.0000000   6.0000000   6.0000000   6.0000000   8.0000000   8.0000000   6.0000000   8.0000000   8.0000000   1.0000000

  Atom        11          12          13          14          15          16
 IAtWgt=           1           1           1           1           1           1
 AtmWgt=   1.0078250   1.0078250   1.0078250   1.0078250   1.0078250   1.0078250
 NucSpn=           1           1           1           1           1           1
 AtZEff=  -0.0000000  -0.0000000  -0.0000000  -0.0000000  -0.0000000  -0.0000000
 NQMom=    0.0000000   0.0000000   0.0000000   0.0000000   0.0000000   0.0000000
 NMagM=    2.7928460   2.7928460   2.7928460   2.7928460   2.7928460   2.7928460
 AtZNuc=   1.0000000   1.0000000   1.0000000   1.0000000   1.0000000   1.0000000
 Leave Link  101 at Mon Feb 22 20:57:35 2021, MaxMem=   104857600 cpu:               2.9 elap:               0.1
 (Enter /sw/arch/RedHatEnterpriseServer7/EB_production/2019/software/Gaussian/g16.c01/l103.exe)

 GradGradGradGradGradGradGradGradGradGradGradGradGradGradGradGradGradGrad
 Berny optimization.
 Initialization pass.
                           ----------------------------
                           !    Initial Parameters    !
                           ! (Angstroms and Degrees)  !
 --------------------------                            --------------------------
 ! Name  Definition              Value          Derivative Info.                !
 --------------------------------------------------------------------------------
 ! R1    R(1,2)                  1.4732         estimate D2E/DX2                !
 ! R2    R(1,10)                 1.0208         estimate D2E/DX2                !
 ! R3    R(1,11)                 1.0222         estimate D2E/DX2                !
 ! R4    R(1,12)                 1.0221         estimate D2E/DX2                !
 ! R5    R(2,3)                  1.5549         estimate D2E/DX2                !
 ! R6    R(2,7)                  1.4805         estimate D2E/DX2                !
 ! R7    R(2,13)                 1.0951         estimate D2E/DX2                !
 ! R8    R(3,4)                  1.4758         estimate D2E/DX2                !
 ! R9    R(3,14)                 1.0936         estimate D2E/DX2                !
 ! R10   R(3,15)                 1.0934         estimate D2E/DX2                !
 ! R11   R(4,5)                  1.2513         estimate D2E/DX2                !
 ! R12   R(4,6)                  1.3518         estimate D2E/DX2                !
 ! R13   R(6,16)                 0.9803         estimate D2E/DX2                !
 ! R14   R(7,8)                  1.2525         estimate D2E/DX2                !
 ! R15   R(7,9)                  1.351          estimate D2E/DX2                !
 ! A1    A(2,1,10)             109.972          estimate D2E/DX2                !
 ! A2    A(2,1,11)             109.6137         estimate D2E/DX2                !
 ! A3    A(2,1,12)             109.9279         estimate D2E/DX2                !
 ! A4    A(10,1,11)            109.1154         estimate D2E/DX2                !
 ! A5    A(10,1,12)            109.1758         estimate D2E/DX2                !
 ! A6    A(11,1,12)            109.0144         estimate D2E/DX2                !
 ! A7    A(1,2,3)              109.8575         estimate D2E/DX2                !
 ! A8    A(1,2,7)              108.5214         estimate D2E/DX2                !
 ! A9    A(1,2,13)             107.3031         estimate D2E/DX2                !
 ! A10   A(3,2,7)              112.6898         estimate D2E/DX2                !
 ! A11   A(3,2,13)             108.8499         estimate D2E/DX2                !
 ! A12   A(7,2,13)             109.476          estimate D2E/DX2                !
 ! A13   A(2,3,4)              113.477          estimate D2E/DX2                !
 ! A14   A(2,3,14)             109.3531         estimate D2E/DX2                !
 ! A15   A(2,3,15)             109.1202         estimate D2E/DX2                !
 ! A16   A(4,3,14)             107.6502         estimate D2E/DX2                !
 ! A17   A(4,3,15)             109.4969         estimate D2E/DX2                !
 ! A18   A(14,3,15)            107.5722         estimate D2E/DX2                !
 ! A19   A(3,4,5)              120.996          estimate D2E/DX2                !
 ! A20   A(3,4,6)              120.4372         estimate D2E/DX2                !
 ! A21   A(5,4,6)              118.5659         estimate D2E/DX2                !
 ! A22   A(4,6,16)             120.273          estimate D2E/DX2                !
 ! A23   A(2,7,8)              121.1087         estimate D2E/DX2                !
 ! A24   A(2,7,9)              120.7189         estimate D2E/DX2                !
 ! A25   A(8,7,9)              118.1722         estimate D2E/DX2                !
 ! D1    D(10,1,2,3)           -58.7156         estimate D2E/DX2                !
 ! D2    D(10,1,2,7)           177.6754         estimate D2E/DX2                !
 ! D3    D(10,1,2,13)           59.4686         estimate D2E/DX2                !
 ! D4    D(11,1,2,3)            61.2443         estimate D2E/DX2                !
 ! D5    D(11,1,2,7)           -62.3647         estimate D2E/DX2                !
 ! D6    D(11,1,2,13)          179.4285         estimate D2E/DX2                !
 ! D7    D(12,1,2,3)          -178.9475         estimate D2E/DX2                !
 ! D8    D(12,1,2,7)            57.4436         estimate D2E/DX2                !
 ! D9    D(12,1,2,13)          -60.7633         estimate D2E/DX2                !
 ! D10   D(1,2,3,4)            175.1555         estimate D2E/DX2                !
 ! D11   D(1,2,3,14)            54.962          estimate D2E/DX2                !
 ! D12   D(1,2,3,15)           -62.4533         estimate D2E/DX2                !
 ! D13   D(7,2,3,4)            -63.7085         estimate D2E/DX2                !
 ! D14   D(7,2,3,14)           176.098          estimate D2E/DX2                !
 ! D15   D(7,2,3,15)            58.6827         estimate D2E/DX2                !
 ! D16   D(13,2,3,4)            57.9329         estimate D2E/DX2                !
 ! D17   D(13,2,3,14)          -62.2606         estimate D2E/DX2                !
 ! D18   D(13,2,3,15)         -179.6759         estimate D2E/DX2                !
 ! D19   D(1,2,7,8)             59.109          estimate D2E/DX2                !
 ! D20   D(1,2,7,9)           -121.0564         estimate D2E/DX2                !
 ! D21   D(3,2,7,8)            -62.7854         estimate D2E/DX2                !
 ! D22   D(3,2,7,9)            117.0491         estimate D2E/DX2                !
 ! D23   D(13,2,7,8)           175.9288         estimate D2E/DX2                !
 ! D24   D(13,2,7,9)            -4.2366         estimate D2E/DX2                !
 ! D25   D(2,3,4,5)            112.3149         estimate D2E/DX2                !
 ! D26   D(2,3,4,6)            -68.0444         estimate D2E/DX2                !
 ! D27   D(14,3,4,5)          -126.5308         estimate D2E/DX2                !
 ! D28   D(14,3,4,6)            53.1099         estimate D2E/DX2                !
 ! D29   D(15,3,4,5)            -9.8674         estimate D2E/DX2                !
 ! D30   D(15,3,4,6)           169.7733         estimate D2E/DX2                !
 ! D31   D(3,4,6,16)          -178.2943         estimate D2E/DX2                !
 ! D32   D(5,4,6,16)             1.355          estimate D2E/DX2                !
 --------------------------------------------------------------------------------
 Trust Radius=3.00D-01 FncErr=1.00D-07 GrdErr=1.00D-06 EigMax=2.50D+02 EigMin=1.00D-04
 Number of steps in this run=     82 maximum allowed number of steps=    100.
 GradGradGradGradGradGradGradGradGradGradGradGradGradGradGradGradGradGrad

 Leave Link  103 at Mon Feb 22 20:57:35 2021, MaxMem=   104857600 cpu:               1.0 elap:               0.1
 (Enter /sw/arch/RedHatEnterpriseServer7/EB_production/2019/software/Gaussian/g16.c01/l202.exe)
                          Input orientation:                          
 ---------------------------------------------------------------------
 Center     Atomic      Atomic             Coordinates (Angstroms)
 Number     Number       Type             X           Y           Z
 ---------------------------------------------------------------------
      1          7           0        1.040090    2.472560   -3.244890
      2          6           0        1.192890    1.562480   -2.096500
      3          6           0        0.926390    2.333250   -0.772650
      4          6           0        0.946960    1.470350    0.424430
      5          8           0        1.850910    1.580350    1.282610
      6          8           0       -0.020020    0.545910    0.618970
      7          6           0        2.546490    0.964910   -2.146850
      8          8           0        3.572330    1.683080   -2.120220
      9          8           0        2.707300   -0.374550   -2.219650
     10          1           0        0.099100    2.868240   -3.253420
     11          1           0        1.721610    3.231200   -3.174560
     12          1           0        1.197900    1.962900   -4.116700
     13          1           0        0.441200    0.773410   -2.203970
     14          1           0       -0.057260    2.808720   -0.821820
     15          1           0        1.671270    3.126230   -0.663740
     16          1           0       -0.017920   -0.008880    1.427170
 ---------------------------------------------------------------------
                    Distance matrix (angstroms):
                    1          2          3          4          5
     1  N    0.000000
     2  C    1.473225   0.000000
     3  C    2.478771   1.554891   0.000000
     4  C    3.804866   2.534572   1.475812   0.000000
     5  O    4.685267   3.442629   2.376066   1.251279   0.000000
     6  O    4.445810   3.142983   2.454971   1.351845   2.238496
     7  C    2.397486   1.480492   2.526955   3.070089   3.552998
     8  O    2.881042   2.382612   3.039682   3.662385   3.814852
     9  O    3.454959   2.461847   3.549314   3.673365   4.101325
    10  H    1.020832   2.059090   2.669240   4.024866   5.030215
    11  H    1.022228   2.055817   2.684746   4.080858   4.754828
    12  H    1.022111   2.059507   3.375433   4.574652   5.452093
    13  H    2.080696   1.095089   2.171909   2.765864   3.846385
    14  H    2.681128   2.177337   1.093644   2.086344   3.094936
    15  H    2.736422   2.174158   1.093401   2.109663   2.492046
    16  H    5.394912   4.043697   3.349105   2.030912   2.457453
                    6          7          8          9         10
     6  O    0.000000
     7  C    3.796353   0.000000
     8  O    4.658465   1.252527   0.000000
     9  O    4.042683   1.351041   2.234279   0.000000
    10  H    4.516947   3.291942   3.840843   4.288015   0.000000
    11  H    4.963358   2.621581   2.633149   3.858092   1.664481
    12  H    5.090949   2.587467   3.114827   3.367604   1.665009
    13  H    2.869402   2.114753   3.261670   2.540328   2.367845
    14  H    2.682829   3.454686   4.015823   4.441838   2.437349
    15  H    3.341236   2.763499   2.796077   3.968586   3.040513
    16  H    0.980298   4.505340   5.323213   4.567257   5.495401
                   11         12         13         14         15
    11  H    0.000000
    12  H    1.664477   0.000000
    13  H    2.936363   2.376135   0.000000
    14  H    2.979640   3.625889   2.510237   0.000000
    15  H    2.513517   3.674282   3.069388   1.764545   0.000000
    16  H    5.890671   6.008380   3.742719   3.605326   4.129671
                   16
    16  H    0.000000
 Stoichiometry    C4H7NO4
 Framework group  C1[X(C4H7NO4)]
 Deg. of freedom    42
 Full point group                 C1      NOp   1
 Largest Abelian subgroup         C1      NOp   1
 Largest concise Abelian subgroup C1      NOp   1
                         Standard orientation:                         
 ---------------------------------------------------------------------
 Center     Atomic      Atomic             Coordinates (Angstroms)
 Number     Number       Type             X           Y           Z
 ---------------------------------------------------------------------
      1          7           0        1.786776    1.589219   -0.088060
      2          6           0        0.710752    0.621102   -0.362496
      3          6           0       -0.546506    0.975686    0.480865
      4          6           0       -1.713604    0.122740    0.183569
      5          8           0       -2.152902   -0.686438    1.030886
      6          8           0       -2.336011    0.206700   -1.013530
      7          6           0        1.220563   -0.740441   -0.082940
      8          8           0        1.644320   -1.052047    1.053791
      9          8           0        1.237530   -1.683199   -1.050532
     10          1           0        1.470855    2.534060   -0.310694
     11          1           0        2.043129    1.546212    0.900567
     12          1           0        2.607857    1.367452   -0.654943
     13          1           0        0.459517    0.705888   -1.424998
     14          1           0       -0.834520    2.012177    0.283910
     15          1           0       -0.298854    0.898025    1.543015
     16          1           0       -3.126132   -0.342995   -1.199348
 ---------------------------------------------------------------------
 Rotational constants (GHZ):           2.2384248           1.1427898           0.9990564
 Leave Link  202 at Mon Feb 22 20:57:35 2021, MaxMem=   104857600 cpu:               0.6 elap:               0.0
 (Enter /sw/arch/RedHatEnterpriseServer7/EB_production/2019/software/Gaussian/g16.c01/l301.exe)
 Standard basis: TZVP (5D, 7F)
 Ernie: Thresh=  0.10000D-02 Tol=  0.10000D-05 Strict=F.
 There are   222 symmetry adapted cartesian basis functions of A   symmetry.
 There are   213 symmetry adapted basis functions of A   symmetry.
   213 basis functions,   371 primitive gaussians,   222 cartesian basis functions
    35 alpha electrons       35 beta electrons
       nuclear repulsion energy       467.1062406796 Hartrees.
 IExCor=  404 DFT=T Ex=B Corr=P86 ExCW=0 ScaHFX=  0.000000
 ScaDFX=  1.000000  1.000000  1.000000  1.000000 ScalE2=  1.000000  1.000000
 IRadAn=      5 IRanWt=     -1 IRanGd=            0 ICorTp=0 IEmpDi=131
 NAtoms=   16 NActive=   16 NUniq=   16 SFac= 1.00D+00 NAtFMM=   60 NAOKFM=F Big=F
 Integral buffers will be    131072 words long.
 Raffenetti 2 integral format.
 Two-electron integral symmetry is turned on.
 R6Disp:  Grimme-D3 Dispersion energy=       -0.0157004521 Hartrees.
 Nuclear repulsion after empirical dispersion term =      467.0905402275 Hartrees.
 ------------------------------------------------------------------------------
 Polarizable Continuum Model (PCM)
 =================================
 Model                : PCM.
 Atomic radii         : UFF (Universal Force Field).
 Polarization charges : Total charges.
 Charge compensation  : None.
 Solution method      : On-the-fly selection.
 Cavity type          : Scaled VdW (van der Waals Surface) (Alpha=1.100).
 Cavity algorithm     : GePol (No added spheres)
                        Default sphere list used, NSphG=   16.
                        Lebedev-Laikov grids with approx.  5.0 points / Ang**2.
                        Smoothing algorithm: York/Karplus (Gamma=1.0000).
                        Polarization charges: spherical gaussians, with
                                              point-specific exponents (IZeta= 3).
                        Self-potential: point-specific (ISelfS= 7).
                        Self-field    : sphere-specific E.n sum rule (ISelfD= 2).
 1st derivatives      : Analytical E(r).r(x)/FMM algorithm (CHGder, D1EAlg=3).
                        Cavity 1st derivative terms included.
 Solvent              : Water, Eps=  78.355300 Eps(inf)=   1.777849
 ------------------------------------------------------------------------------
 Spheres list:
 ISph  on   Nord     Re0    Alpha      Xe            Ye            Ze
    1   N      1    1.8300  1.100      1.786776      1.589219     -0.088060
    2   C      2    1.9255  1.100      0.710752      0.621102     -0.362496
    3   C      3    1.9255  1.100     -0.546506      0.975686      0.480865
    4   C      4    1.9255  1.100     -1.713604      0.122740      0.183569
    5   O      5    1.7500  1.100     -2.152902     -0.686438      1.030886
    6   O      6    1.7500  1.100     -2.336011      0.206700     -1.013530
    7   C      7    1.9255  1.100      1.220563     -0.740441     -0.082940
    8   O      8    1.7500  1.100      1.644320     -1.052047      1.053791
    9   O      9    1.7500  1.100      1.237530     -1.683199     -1.050532
   10   H     10    1.4430  1.100      1.470855      2.534060     -0.310694
   11   H     11    1.4430  1.100      2.043129      1.546212      0.900567
   12   H     12    1.4430  1.100      2.607857      1.367452     -0.654943
   13   H     13    1.4430  1.100      0.459517      0.705888     -1.424998
   14   H     14    1.4430  1.100     -0.834520      2.012177      0.283910
   15   H     15    1.4430  1.100     -0.298854      0.898025      1.543015
   16   H     16    1.4430  1.100     -3.126132     -0.342995     -1.199348
 ------------------------------------------------------------------------------
 GePol: Number of generator spheres                  =      16
 GePol: Total number of spheres                      =      16
 GePol: Number of exposed spheres                    =      16 (100.00%)
 GePol: Number of points                             =    1410
 GePol: Average weight of points                     =       0.14
 GePol: Minimum weight of points                     =   0.11D-07
 GePol: Maximum weight of points                     =    0.20577
 GePol: Number of points with low weight             =      82
 GePol: Fraction of low-weight points (<1% of avg)   =       5.82%
 GePol: Cavity surface area                          =    191.061 Ang**2
 GePol: Cavity volume                                =    181.875 Ang**3
 Leave Link  301 at Mon Feb 22 20:57:36 2021, MaxMem=   104857600 cpu:               1.7 elap:               0.1
 (Enter /sw/arch/RedHatEnterpriseServer7/EB_production/2019/software/Gaussian/g16.c01/l302.exe)
 NPDir=0 NMtPBC=     1 NCelOv=     1 NCel=       1 NClECP=     1 NCelD=      1
         NCelK=      1 NCelE2=     1 NClLst=     1 CellRange=     0.0.
 One-electron integrals computed using PRISM.
 One-electron integral symmetry used in STVInt
 PrsmSu:  requested number of processors reduced to:  29 ShMem   1 Linda.
 NBasis=   213 RedAO= T EigKep=  1.82D-04  NBF=   213
 NBsUse=   213 1.00D-06 EigRej= -1.00D+00 NBFU=   213
 Precomputing XC quadrature grid using
 IXCGrd= 4 IRadAn=           5 IRanWt=          -1 IRanGd=           0 AccXCQ= 0.00D+00.
 Generated NRdTot=       0 NPtTot=           0 NUsed=           0 NTot=          32
 NSgBfM=   220   220   220   220   220 MxSgAt=    16 MxSgA2=    16.
 Leave Link  302 at Mon Feb 22 20:57:36 2021, MaxMem=   104857600 cpu:               7.6 elap:               0.3
 (Enter /sw/arch/RedHatEnterpriseServer7/EB_production/2019/software/Gaussian/g16.c01/l303.exe)
 DipDrv:  MaxL=1.
 Leave Link  303 at Mon Feb 22 20:57:36 2021, MaxMem=   104857600 cpu:               2.3 elap:               0.1
 (Enter /sw/arch/RedHatEnterpriseServer7/EB_production/2019/software/Gaussian/g16.c01/l401.exe)
 ExpMin= 9.52D-02 ExpMax= 2.70D+04 ExpMxC= 9.22D+02 IAcc=3 IRadAn=         5 AccDes= 0.00D+00
 Harris functional with IExCor=  404 and IRadAn=       5 diagonalized for initial guess.
 HarFok:  IExCor=  404 AccDes= 0.00D+00 IRadAn=         5 IDoV= 1 UseB2=F ITyADJ=14
 ICtDFT=  3500011 ScaDFX=  1.000000  1.000000  1.000000  1.000000
 FoFCou: FMM=F IPFlag=           0 FMFlag=      100000 FMFlg1=           0
         NFxFlg=           0 DoJE=T BraDBF=F KetDBF=T FulRan=T
         wScrn=  0.000000 ICntrl=       500 IOpCl=  0 I1Cent=   200000004 NGrid=           0
         NMat0=    1 NMatS0=      1 NMatT0=    0 NMatD0=    1 NMtDS0=    0 NMtDT0=    0
 Petite list used in FoFCou.
 Harris En= -512.655056554031    
 JPrj=0 DoOrth=F DoCkMO=F.
 Leave Link  401 at Mon Feb 22 20:57:37 2021, MaxMem=   104857600 cpu:              10.5 elap:               0.4
 (Enter /sw/arch/RedHatEnterpriseServer7/EB_production/2019/software/Gaussian/g16.c01/l502.exe)
 Integral symmetry usage will be decided dynamically.
 Closed shell SCF:
 Using DIIS extrapolation, IDIIS=  1040.
 NGot=   104857600 LenX=   104749244 LenY=   104699519
 Requested convergence on RMS density matrix=1.00D-08 within 128 cycles.
 Requested convergence on MAX density matrix=1.00D-06.
 Requested convergence on             energy=1.00D-06.
 No special actions if energy rises.
 Fock matrices will be formed incrementally for  20 cycles.

 Cycle   1  Pass 1  IDiag  1:
 FoFJK:  IHMeth= 1 ICntrl=     500 DoSepK=F KAlg= 0 I1Cent=           0 FoldK=F
 IRaf= 930000000 NMat=       1 IRICut=       1 DoRegI=T DoRafI=F ISym2E= 0 IDoP0=0 IntGTp=1.
 FoFCou: FMM=F IPFlag=           0 FMFlag=      100000 FMFlg1=           0
         NFxFlg=           0 DoJE=T BraDBF=F KetDBF=F FulRan=T
         wScrn=  0.000000 ICntrl=       500 IOpCl=  0 I1Cent=           0 NGrid=           0
         NMat0=    1 NMatS0=      1 NMatT0=    0 NMatD0=    1 NMtDS0=    0 NMtDT0=    0
 Symmetry not used in FoFCou.
 Inv3:  Mode=1 IEnd=     5964300.
 Iteration    1 A*A^-1 deviation from unit magnitude is 3.55D-15 for    585.
 Iteration    1 A*A^-1 deviation from orthogonality  is 1.22D-15 for   1141   1017.
 Iteration    1 A^-1*A deviation from unit magnitude is 4.00D-15 for    747.
 Iteration    1 A^-1*A deviation from orthogonality  is 1.87D-15 for    594    462.
 E= -512.216803569440    
 DIIS: error= 3.40D-02 at cycle   1 NSaved=   1.
 NSaved= 1 IEnMin= 1 EnMin= -512.216803569440     IErMin= 1 ErrMin= 3.40D-02
 ErrMax= 3.40D-02  0.00D+00 EMaxC= 1.00D-01 BMatC= 3.92D-01 BMatP= 3.92D-01
 IDIUse=3 WtCom= 6.60D-01 WtEn= 3.40D-01
 Coeff-Com:  0.100D+01
 Coeff-En:   0.100D+01
 Coeff:      0.100D+01
 Gap=    -0.037 Goal=   None    Shift=    0.000
 GapD=   -0.037 DampG=0.250 DampE=0.500 DampFc=0.2500 IDamp=-1.
 Damping current iteration by 2.50D-01
 RMSDP=3.03D-02 MaxDP=2.23D+00              OVMax= 6.73D-01

 Cycle   2  Pass 1  IDiag  1:
 RMSU=  7.55D-03    CP:  1.04D+00
 E= -512.284347956253     Delta-E=       -0.067544386812 Rises=F Damp=T
 DIIS: error= 9.02D-03 at cycle   2 NSaved=   2.
 NSaved= 2 IEnMin= 2 EnMin= -512.284347956253     IErMin= 2 ErrMin= 9.02D-03
 ErrMax= 9.02D-03  0.00D+00 EMaxC= 1.00D-01 BMatC= 3.47D-02 BMatP= 3.92D-01
 IDIUse=3 WtCom= 9.10D-01 WtEn= 9.02D-02
 Coeff-Com: -0.114D+00 0.111D+01
 Coeff-En:   0.302D+00 0.698D+00
 Coeff:     -0.765D-01 0.108D+01
 Gap=     0.061 Goal=   None    Shift=    0.000
 RMSDP=5.71D-03 MaxDP=3.54D-01 DE=-6.75D-02 OVMax= 5.57D-01

 Cycle   3  Pass 1  IDiag  1:
 RMSU=  3.00D-03    CP:  1.01D+00  3.59D-01
 E= -512.425915801418     Delta-E=       -0.141567845165 Rises=F Damp=F
 DIIS: error= 2.39D-02 at cycle   3 NSaved=   3.
 NSaved= 3 IEnMin= 3 EnMin= -512.425915801418     IErMin= 2 ErrMin= 9.02D-03
 ErrMax= 2.39D-02  0.00D+00 EMaxC= 1.00D-01 BMatC= 1.13D-01 BMatP= 3.47D-02
 IDIUse=2 WtCom= 0.00D+00 WtEn= 1.00D+00
 Coeff-En:   0.450D-01 0.000D+00 0.955D+00
 Coeff:      0.450D-01 0.000D+00 0.955D+00
 Gap=     0.105 Goal=   None    Shift=    0.000
 RMSDP=1.44D-02 MaxDP=1.09D+00 DE=-1.42D-01 OVMax= 7.83D-01

 Cycle   4  Pass 1  IDiag  1:
 RMSU=  1.22D-02    CP:  1.05D+00  1.27D+00 -9.57D-02
 E= -510.511788668159     Delta-E=        1.914127133259 Rises=F Damp=F
 DIIS: error= 1.18D-01 at cycle   4 NSaved=   4.
 NSaved= 4 IEnMin= 3 EnMin= -512.425915801418     IErMin= 2 ErrMin= 9.02D-03
 ErrMax= 1.18D-01  0.00D+00 EMaxC= 1.00D-01 BMatC= 1.89D+00 BMatP= 3.47D-02
 IDIUse=2 WtCom= 0.00D+00 WtEn= 1.00D+00
 Coeff-En:   0.000D+00 0.000D+00 0.918D+00 0.817D-01
 Coeff:      0.000D+00 0.000D+00 0.918D+00 0.817D-01
 Gap=    -0.017 Goal=   None    Shift=    0.000
 RMSDP=1.14D-02 MaxDP=6.62D-01 DE= 1.91D+00 OVMax= 7.79D-01

 Cycle   5  Pass 1  IDiag  1:
 RMSU=  3.37D-03    CP:  1.05D+00  7.32D-01  6.19D-01  1.91D-01
 E= -512.259863743591     Delta-E=       -1.748075075432 Rises=F Damp=F
 DIIS: error= 4.48D-02 at cycle   5 NSaved=   5.
 NSaved= 5 IEnMin= 3 EnMin= -512.425915801418     IErMin= 2 ErrMin= 9.02D-03
 ErrMax= 4.48D-02  0.00D+00 EMaxC= 1.00D-01 BMatC= 3.34D-01 BMatP= 3.47D-02
 IDIUse=2 WtCom= 0.00D+00 WtEn= 1.00D+00
 Coeff-En:   0.000D+00 0.000D+00 0.674D+00 0.000D+00 0.326D+00
 Coeff:      0.000D+00 0.000D+00 0.674D+00 0.000D+00 0.326D+00
 Gap=     0.076 Goal=   None    Shift=    0.000
 RMSDP=2.51D-03 MaxDP=1.50D-01 DE=-1.75D+00 OVMax= 1.67D-01

 Cycle   6  Pass 1  IDiag  1:
 RMSU=  1.27D-03    CP:  1.04D+00  5.92D-01  7.65D-01  9.72D-02  5.77D-01
 E= -512.500869630422     Delta-E=       -0.241005886832 Rises=F Damp=F
 DIIS: error= 9.50D-03 at cycle   6 NSaved=   6.
 NSaved= 6 IEnMin= 6 EnMin= -512.500869630422     IErMin= 2 ErrMin= 9.02D-03
 ErrMax= 9.50D-03  0.00D+00 EMaxC= 1.00D-01 BMatC= 2.37D-02 BMatP= 3.47D-02
 IDIUse=3 WtCom= 9.05D-01 WtEn= 9.50D-02
 Coeff-Com: -0.130D-01 0.109D+00 0.411D+00-0.121D-01 0.190D+00 0.315D+00
 Coeff-En:   0.000D+00 0.000D+00 0.183D+00 0.000D+00 0.000D+00 0.817D+00
 Coeff:     -0.117D-01 0.988D-01 0.389D+00-0.109D-01 0.172D+00 0.362D+00
 Gap=     0.113 Goal=   None    Shift=    0.000
 RMSDP=1.41D-03 MaxDP=1.30D-01 DE=-2.41D-01 OVMax= 4.85D-02

 Cycle   7  Pass 1  IDiag  1:
 RMSU=  3.30D-04    CP:  1.03D+00  4.84D-01  8.30D-01  6.23D-02  4.10D-01
                    CP:  3.62D-01
 E= -512.517784373308     Delta-E=       -0.016914742885 Rises=F Damp=F
 DIIS: error= 3.41D-03 at cycle   7 NSaved=   7.
 NSaved= 7 IEnMin= 7 EnMin= -512.517784373308     IErMin= 7 ErrMin= 3.41D-03
 ErrMax= 3.41D-03  0.00D+00 EMaxC= 1.00D-01 BMatC= 2.03D-03 BMatP= 2.37D-02
 IDIUse=3 WtCom= 9.66D-01 WtEn= 3.41D-02
 Coeff-Com: -0.143D-02 0.131D-01 0.190D+00-0.478D-02 0.704D-01 0.265D+00
 Coeff-Com:  0.468D+00
 Coeff-En:   0.000D+00 0.000D+00 0.000D+00 0.000D+00 0.000D+00 0.425D-01
 Coeff-En:   0.958D+00
 Coeff:     -0.138D-02 0.127D-01 0.184D+00-0.462D-02 0.680D-01 0.257D+00
 Coeff:      0.484D+00
 Gap=     0.113 Goal=   None    Shift=    0.000
 RMSDP=2.93D-04 MaxDP=2.07D-02 DE=-1.69D-02 OVMax= 1.81D-02

 Cycle   8  Pass 1  IDiag  1:
 RMSU=  1.29D-04    CP:  1.03D+00  4.98D-01  8.25D-01  6.74D-02  4.44D-01
                    CP:  4.60D-01  5.17D-01
 E= -512.519016412574     Delta-E=       -0.001232039266 Rises=F Damp=F
 DIIS: error= 2.07D-03 at cycle   8 NSaved=   8.
 NSaved= 8 IEnMin= 8 EnMin= -512.519016412574     IErMin= 8 ErrMin= 2.07D-03
 ErrMax= 2.07D-03  0.00D+00 EMaxC= 1.00D-01 BMatC= 4.12D-04 BMatP= 2.03D-03
 IDIUse=3 WtCom= 9.79D-01 WtEn= 2.07D-02
 Coeff-Com: -0.109D-02 0.604D-02 0.376D-01-0.223D-02 0.877D-03 0.876D-01
 Coeff-Com:  0.355D+00 0.516D+00
 Coeff-En:   0.000D+00 0.000D+00 0.000D+00 0.000D+00 0.000D+00 0.000D+00
 Coeff-En:   0.219D+00 0.781D+00
 Coeff:     -0.107D-02 0.592D-02 0.369D-01-0.218D-02 0.859D-03 0.858D-01
 Coeff:      0.352D+00 0.522D+00
 Gap=     0.113 Goal=   None    Shift=    0.000
 RMSDP=1.18D-04 MaxDP=7.75D-03 DE=-1.23D-03 OVMax= 9.06D-03

 Cycle   9  Pass 1  IDiag  1:
 RMSU=  3.67D-05    CP:  1.03D+00  4.94D-01  8.32D-01  6.41D-02  4.25D-01
                    CP:  4.51D-01  6.81D-01  6.16D-01
 E= -512.519312744679     Delta-E=       -0.000296332105 Rises=F Damp=F
 DIIS: error= 3.96D-04 at cycle   9 NSaved=   9.
 NSaved= 9 IEnMin= 9 EnMin= -512.519312744679     IErMin= 9 ErrMin= 3.96D-04
 ErrMax= 3.96D-04  0.00D+00 EMaxC= 1.00D-01 BMatC= 3.77D-05 BMatP= 4.12D-04
 IDIUse=3 WtCom= 9.96D-01 WtEn= 3.96D-03
 Coeff-Com:  0.170D-02-0.296D-02 0.119D-01-0.214D-03-0.451D-02 0.355D-01
 Coeff-Com:  0.207D+00 0.340D+00 0.412D+00
 Coeff-En:   0.000D+00 0.000D+00 0.000D+00 0.000D+00 0.000D+00 0.000D+00
 Coeff-En:   0.000D+00 0.000D+00 0.100D+01
 Coeff:      0.169D-02-0.295D-02 0.118D-01-0.213D-03-0.449D-02 0.354D-01
 Coeff:      0.206D+00 0.339D+00 0.414D+00
 Gap=     0.113 Goal=   None    Shift=    0.000
 RMSDP=2.97D-05 MaxDP=1.11D-03 DE=-2.96D-04 OVMax= 1.70D-03

 Cycle  10  Pass 1  IDiag  1:
 RMSU=  1.65D-05    CP:  1.03D+00  4.93D-01  8.30D-01  6.45D-02  4.28D-01
                    CP:  4.49D-01  6.69D-01  6.60D-01  4.52D-01
 E= -512.519339316803     Delta-E=       -0.000026572124 Rises=F Damp=F
 DIIS: error= 1.35D-04 at cycle  10 NSaved=  10.
 NSaved=10 IEnMin=10 EnMin= -512.519339316803     IErMin=10 ErrMin= 1.35D-04
 ErrMax= 1.35D-04  0.00D+00 EMaxC= 1.00D-01 BMatC= 2.22D-06 BMatP= 3.77D-05
 IDIUse=3 WtCom= 9.99D-01 WtEn= 1.35D-03
 Coeff-Com:  0.149D-02-0.239D-02 0.499D-02 0.355D-05-0.230D-02 0.143D-01
 Coeff-Com:  0.880D-01 0.137D+00 0.244D+00 0.515D+00
 Coeff-En:   0.000D+00 0.000D+00 0.000D+00 0.000D+00 0.000D+00 0.000D+00
 Coeff-En:   0.000D+00 0.000D+00 0.000D+00 0.100D+01
 Coeff:      0.148D-02-0.239D-02 0.499D-02 0.354D-05-0.229D-02 0.143D-01
 Coeff:      0.879D-01 0.136D+00 0.244D+00 0.516D+00
 Gap=     0.113 Goal=   None    Shift=    0.000
 RMSDP=9.05D-06 MaxDP=8.55D-04 DE=-2.66D-05 OVMax= 3.70D-04

 Cycle  11  Pass 1  IDiag  1:
 RMSU=  3.81D-06    CP:  1.03D+00  4.92D-01  8.30D-01  6.43D-02  4.26D-01
                    CP:  4.48D-01  6.73D-01  6.56D-01  5.02D-01  8.58D-01
 E= -512.519340903279     Delta-E=       -0.000001586476 Rises=F Damp=F
 DIIS: error= 4.00D-05 at cycle  11 NSaved=  11.
 NSaved=11 IEnMin=11 EnMin= -512.519340903279     IErMin=11 ErrMin= 4.00D-05
 ErrMax= 4.00D-05  0.00D+00 EMaxC= 1.00D-01 BMatC= 2.60D-07 BMatP= 2.22D-06
 IDIUse=1 WtCom= 1.00D+00 WtEn= 0.00D+00
 Coeff-Com:  0.688D-03-0.650D-03 0.693D-03 0.125D-06-0.646D-03 0.154D-02
 Coeff-Com:  0.113D-01 0.118D-01 0.679D-01 0.268D+00 0.640D+00
 Coeff:      0.688D-03-0.650D-03 0.693D-03 0.125D-06-0.646D-03 0.154D-02
 Coeff:      0.113D-01 0.118D-01 0.679D-01 0.268D+00 0.640D+00
 Gap=     0.113 Goal=   None    Shift=    0.000
 RMSDP=2.98D-06 MaxDP=2.29D-04 DE=-1.59D-06 OVMax= 1.73D-04

 Cycle  12  Pass 1  IDiag  1:
 RMSU=  1.12D-06    CP:  1.03D+00  4.92D-01  8.30D-01  6.42D-02  4.26D-01
                    CP:  4.48D-01  6.75D-01  6.54D-01  5.16D-01  8.53D-01
                    CP:  7.68D-01
 E= -512.519341093884     Delta-E=       -0.000000190605 Rises=F Damp=F
 DIIS: error= 5.72D-06 at cycle  12 NSaved=  12.
 NSaved=12 IEnMin=12 EnMin= -512.519341093884     IErMin=12 ErrMin= 5.72D-06
 ErrMax= 5.72D-06  0.00D+00 EMaxC= 1.00D-01 BMatC= 7.39D-09 BMatP= 2.60D-07
 IDIUse=1 WtCom= 1.00D+00 WtEn= 0.00D+00
 Coeff-Com:  0.289D-03-0.329D-03 0.208D-03-0.330D-05-0.121D-03 0.231D-03
 Coeff-Com:  0.169D-02 0.958D-03 0.169D-01 0.772D-01 0.244D+00 0.659D+00
 Coeff:      0.289D-03-0.329D-03 0.208D-03-0.330D-05-0.121D-03 0.231D-03
 Coeff:      0.169D-02 0.958D-03 0.169D-01 0.772D-01 0.244D+00 0.659D+00
 Gap=     0.113 Goal=   None    Shift=    0.000
 RMSDP=5.92D-07 MaxDP=2.37D-05 DE=-1.91D-07 OVMax= 1.72D-05

 Cycle  13  Pass 1  IDiag  1:
 RMSU=  3.55D-07    CP:  1.03D+00  4.92D-01  8.30D-01  6.42D-02  4.26D-01
                    CP:  4.48D-01  6.74D-01  6.54D-01  5.15D-01  8.70D-01
                    CP:  8.10D-01  7.68D-01
 E= -512.519341098901     Delta-E=       -0.000000005016 Rises=F Damp=F
 DIIS: error= 2.36D-06 at cycle  13 NSaved=  13.
 NSaved=13 IEnMin=13 EnMin= -512.519341098901     IErMin=13 ErrMin= 2.36D-06
 ErrMax= 2.36D-06  0.00D+00 EMaxC= 1.00D-01 BMatC= 1.29D-09 BMatP= 7.39D-09
 IDIUse=1 WtCom= 1.00D+00 WtEn= 0.00D+00
 Coeff-Com:  0.952D-04-0.897D-04 0.539D-04-0.214D-06-0.931D-05-0.108D-03
 Coeff-Com: -0.269D-03-0.534D-03 0.239D-02 0.151D-01 0.653D-01 0.349D+00
 Coeff-Com:  0.569D+00
 Coeff:      0.952D-04-0.897D-04 0.539D-04-0.214D-06-0.931D-05-0.108D-03
 Coeff:     -0.269D-03-0.534D-03 0.239D-02 0.151D-01 0.653D-01 0.349D+00
 Coeff:      0.569D+00
 Gap=     0.113 Goal=   None    Shift=    0.000
 RMSDP=4.45D-07 MaxDP=4.34D-05 DE=-5.02D-09 OVMax= 8.61D-06

 Cycle  14  Pass 1  IDiag  1:
 RMSU=  1.43D-07    CP:  1.03D+00  4.92D-01  8.30D-01  6.42D-02  4.26D-01
                    CP:  4.48D-01  6.74D-01  6.54D-01  5.15D-01  8.67D-01
                    CP:  8.06D-01  8.02D-01  7.86D-01
 E= -512.519341099991     Delta-E=       -0.000000001090 Rises=F Damp=F
 DIIS: error= 5.05D-07 at cycle  14 NSaved=  14.
 NSaved=14 IEnMin=14 EnMin= -512.519341099991     IErMin=14 ErrMin= 5.05D-07
 ErrMax= 5.05D-07  0.00D+00 EMaxC= 1.00D-01 BMatC= 5.92D-11 BMatP= 1.29D-09
 IDIUse=1 WtCom= 1.00D+00 WtEn= 0.00D+00
 Coeff-Com:  0.131D-04-0.134D-04 0.117D-04-0.226D-06 0.707D-05-0.464D-04
 Coeff-Com: -0.930D-04 0.233D-04-0.424D-03-0.170D-02-0.218D-02 0.583D-01
 Coeff-Com:  0.195D+00 0.751D+00
 Coeff:      0.131D-04-0.134D-04 0.117D-04-0.226D-06 0.707D-05-0.464D-04
 Coeff:     -0.930D-04 0.233D-04-0.424D-03-0.170D-02-0.218D-02 0.583D-01
 Coeff:      0.195D+00 0.751D+00
 Gap=     0.113 Goal=   None    Shift=    0.000
 RMSDP=5.27D-08 MaxDP=1.08D-06 DE=-1.09D-09 OVMax= 1.54D-06

 Cycle  15  Pass 1  IDiag  1:
 RMSU=  2.66D-08    CP:  1.03D+00  4.92D-01  8.30D-01  6.42D-02  4.26D-01
                    CP:  4.48D-01  6.74D-01  6.54D-01  5.15D-01  8.67D-01
                    CP:  8.04D-01  8.19D-01  8.08D-01  8.26D-01
 E= -512.519341100041     Delta-E=       -0.000000000050 Rises=F Damp=F
 DIIS: error= 2.02D-07 at cycle  15 NSaved=  15.
 NSaved=15 IEnMin=15 EnMin= -512.519341100041     IErMin=15 ErrMin= 2.02D-07
 ErrMax= 2.02D-07  0.00D+00 EMaxC= 1.00D-01 BMatC= 3.60D-12 BMatP= 5.92D-11
 IDIUse=1 WtCom= 1.00D+00 WtEn= 0.00D+00
 Coeff-Com:  0.150D-05-0.856D-06 0.327D-05-0.108D-06 0.109D-05-0.802D-05
 Coeff-Com:  0.548D-06 0.408D-04-0.110D-03-0.109D-02-0.281D-02 0.607D-02
 Coeff-Com:  0.375D-01 0.249D+00 0.712D+00
 Coeff:      0.150D-05-0.856D-06 0.327D-05-0.108D-06 0.109D-05-0.802D-05
 Coeff:      0.548D-06 0.408D-04-0.110D-03-0.109D-02-0.281D-02 0.607D-02
 Coeff:      0.375D-01 0.249D+00 0.712D+00
 Gap=     0.113 Goal=   None    Shift=    0.000
 RMSDP=2.25D-08 MaxDP=2.32D-06 DE=-4.99D-11 OVMax= 7.38D-07

 Cycle  16  Pass 1  IDiag  1:
 RMSU=  5.75D-09    CP:  1.03D+00  4.92D-01  8.30D-01  6.42D-02  4.26D-01
                    CP:  4.48D-01  6.74D-01  6.54D-01  5.15D-01  8.66D-01
                    CP:  8.04D-01  8.17D-01  8.13D-01  8.74D-01  8.49D-01
 E= -512.519341100043     Delta-E=       -0.000000000002 Rises=F Damp=F
 DIIS: error= 3.81D-08 at cycle  16 NSaved=  16.
 NSaved=16 IEnMin=16 EnMin= -512.519341100043     IErMin=16 ErrMin= 3.81D-08
 ErrMax= 3.81D-08  0.00D+00 EMaxC= 1.00D-01 BMatC= 3.73D-13 BMatP= 3.60D-12
 IDIUse=1 WtCom= 1.00D+00 WtEn= 0.00D+00
 Coeff-Com:  0.353D-06-0.227D-06 0.154D-05-0.307D-07 0.206D-07 0.274D-06
 Coeff-Com:  0.945D-05 0.180D-04-0.463D-05-0.410D-03-0.105D-02-0.420D-03
 Coeff-Com:  0.600D-02 0.782D-01 0.384D+00 0.534D+00
 Coeff:      0.353D-06-0.227D-06 0.154D-05-0.307D-07 0.206D-07 0.274D-06
 Coeff:      0.945D-05 0.180D-04-0.463D-05-0.410D-03-0.105D-02-0.420D-03
 Coeff:      0.600D-02 0.782D-01 0.384D+00 0.534D+00
 Gap=     0.113 Goal=   None    Shift=    0.000
 RMSDP=3.07D-09 MaxDP=1.07D-07 DE=-2.16D-12 OVMax= 1.38D-07

 Error on total polarization charges =  0.00893
 SCF Done:  E(RB-P86) =  -512.519341100     A.U. after   16 cycles
            NFock= 16  Conv=0.31D-08     -V/T= 2.0043
 KE= 5.103310643119D+02 PE=-2.137712041235D+03 EE= 6.477710955954D+02
 Leave Link  502 at Mon Feb 22 20:57:48 2021, MaxMem=   104857600 cpu:             363.9 elap:              11.6
 (Enter /sw/arch/RedHatEnterpriseServer7/EB_production/2019/software/Gaussian/g16.c01/l601.exe)
 Copying SCF densities to generalized density rwf, IOpCl= 0 IROHF=0.

 **********************************************************************

            Population analysis using the SCF Density.

 **********************************************************************

 Orbital symmetries:
       Occupied  (A) (A) (A) (A) (A) (A) (A) (A) (A) (A) (A) (A)
                 (A) (A) (A) (A) (A) (A) (A) (A) (A) (A) (A) (A)
                 (A) (A) (A) (A) (A) (A) (A) (A) (A) (A) (A)
       Virtual   (A) (A) (A) (A) (A) (A) (A) (A) (A) (A) (A) (A)
                 (A) (A) (A) (A) (A) (A) (A) (A) (A) (A) (A) (A)
                 (A) (A) (A) (A) (A) (A) (A) (A) (A) (A) (A) (A)
                 (A) (A) (A) (A) (A) (A) (A) (A) (A) (A) (A) (A)
                 (A) (A) (A) (A) (A) (A) (A) (A) (A) (A) (A) (A)
                 (A) (A) (A) (A) (A) (A) (A) (A) (A) (A) (A) (A)
                 (A) (A) (A) (A) (A) (A) (A) (A) (A) (A) (A) (A)
                 (A) (A) (A) (A) (A) (A) (A) (A) (A) (A) (A) (A)
                 (A) (A) (A) (A) (A) (A) (A) (A) (A) (A) (A) (A)
                 (A) (A) (A) (A) (A) (A) (A) (A) (A) (A) (A) (A)
                 (A) (A) (A) (A) (A) (A) (A) (A) (A) (A) (A) (A)
                 (A) (A) (A) (A) (A) (A) (A) (A) (A) (A) (A) (A)
                 (A) (A) (A) (A) (A) (A) (A) (A) (A) (A) (A) (A)
                 (A) (A) (A) (A) (A) (A) (A) (A) (A) (A) (A) (A)
                 (A) (A) (A) (A) (A) (A) (A) (A) (A) (A)
 The electronic state is 1-A.
 Alpha  occ. eigenvalues --  -18.83065 -18.76992 -18.72735 -18.71093 -14.14199
 Alpha  occ. eigenvalues --  -10.05082  -9.98971  -9.98774  -9.94682  -1.02708
 Alpha  occ. eigenvalues --   -0.96648  -0.93391  -0.93283  -0.83168  -0.75759
 Alpha  occ. eigenvalues --   -0.66622  -0.59902  -0.57111  -0.55805  -0.51233
 Alpha  occ. eigenvalues --   -0.46433  -0.45535  -0.44009  -0.42758  -0.39748
 Alpha  occ. eigenvalues --   -0.37960  -0.36750  -0.34963  -0.34250  -0.33352
 Alpha  occ. eigenvalues --   -0.29394  -0.24531  -0.22457  -0.21668  -0.18470
 Alpha virt. eigenvalues --   -0.07188  -0.03997  -0.01035   0.01482   0.03610
 Alpha virt. eigenvalues --    0.04031   0.06405   0.07527   0.09114   0.09986
 Alpha virt. eigenvalues --    0.10811   0.11647   0.13883   0.16026   0.17241
 Alpha virt. eigenvalues --    0.17988   0.18909   0.20994   0.22398   0.24324
 Alpha virt. eigenvalues --    0.26008   0.27086   0.28214   0.29746   0.30812
 Alpha virt. eigenvalues --    0.31799   0.33057   0.34877   0.36114   0.37434
 Alpha virt. eigenvalues --    0.37899   0.38462   0.40733   0.41273   0.41757
 Alpha virt. eigenvalues --    0.42177   0.43167   0.43319   0.44541   0.45152
 Alpha virt. eigenvalues --    0.46406   0.47817   0.49205   0.49399   0.51148
 Alpha virt. eigenvalues --    0.52048   0.52716   0.55865   0.56602   0.58884
 Alpha virt. eigenvalues --    0.60555   0.64523   0.65864   0.68309   0.70011
 Alpha virt. eigenvalues --    0.72897   0.78861   0.82251   0.88046   0.94283
 Alpha virt. eigenvalues --    1.04083   1.08252   1.14608   1.19077   1.22125
 Alpha virt. eigenvalues --    1.22958   1.26196   1.26933   1.29781   1.30187
 Alpha virt. eigenvalues --    1.33697   1.34313   1.36419   1.38559   1.39848
 Alpha virt. eigenvalues --    1.40991   1.43623   1.44633   1.47440   1.48748
 Alpha virt. eigenvalues --    1.51353   1.52533   1.53868   1.55207   1.56401
 Alpha virt. eigenvalues --    1.56762   1.60940   1.62399   1.64518   1.70563
 Alpha virt. eigenvalues --    1.74236   1.77440   1.79260   1.80053   1.83797
 Alpha virt. eigenvalues --    1.84696   1.86297   1.88235   1.90512   1.95723
 Alpha virt. eigenvalues --    1.97328   2.01530   2.05155   2.08815   2.10624
 Alpha virt. eigenvalues --    2.15720   2.19778   2.20266   2.24915   2.26452
 Alpha virt. eigenvalues --    2.34677   2.37170   2.39327   2.44629   2.45806
 Alpha virt. eigenvalues --    2.46813   2.48178   2.50194   2.52119   2.52582
 Alpha virt. eigenvalues --    2.53859   2.54549   2.55319   2.56393   2.56619
 Alpha virt. eigenvalues --    2.58382   2.59228   2.60958   2.61302   2.61411
 Alpha virt. eigenvalues --    2.62311   2.63821   2.65157   2.67234   2.68844
 Alpha virt. eigenvalues --    2.70521   2.72021   2.75331   2.75683   2.77149
 Alpha virt. eigenvalues --    2.78713   2.79785   2.83194   2.88030   2.91895
 Alpha virt. eigenvalues --    2.94414   2.97084   2.98980   3.03897   3.05343
 Alpha virt. eigenvalues --    3.06750   3.08539   3.10032   3.13999   3.18572
 Alpha virt. eigenvalues --    3.24035   3.27651   3.29905   3.32359   3.44629
 Alpha virt. eigenvalues --    3.47264   3.65217   3.75955   3.77501   3.81833
 Alpha virt. eigenvalues --    3.98283   4.00834   4.08286   4.17682  21.65524
 Alpha virt. eigenvalues --   21.74225  21.77955  21.81780  31.34344  43.06556
 Alpha virt. eigenvalues --   43.12047  43.14437  43.24292
          Condensed to atoms (all electrons):
               1          2          3          4          5          6
     1  N    6.212936   0.019269  -0.007389   0.012522  -0.000128  -0.000443
     2  C    0.019269   6.716423  -0.152696  -0.015025  -0.023357   0.007310
     3  C   -0.007389  -0.152696   6.030026  -0.013436  -0.115453  -0.116728
     4  C    0.012522  -0.015025  -0.013436   4.889706   0.625304   0.346886
     5  O   -0.000128  -0.023357  -0.115453   0.625304   7.960066  -0.127008
     6  O   -0.000443   0.007310  -0.116728   0.346886  -0.127008   7.863414
     7  C    0.011738  -0.342415  -0.006244   0.030281   0.010408  -0.009848
     8  O   -0.006303  -0.148274  -0.014909  -0.011280   0.000473   0.000188
     9  O   -0.002974  -0.142654  -0.029485   0.011808  -0.000326   0.000055
    10  H    0.350367  -0.003619  -0.010654   0.000746  -0.000009  -0.000017
    11  H    0.323807   0.014398  -0.023574  -0.000615  -0.000072  -0.000021
    12  H    0.359200  -0.054534   0.009838  -0.000011   0.000013   0.000013
    13  H   -0.031505   0.346143  -0.034583  -0.009094   0.000357   0.005576
    14  H   -0.004867  -0.038518   0.358760   0.002624   0.004635   0.005366
    15  H   -0.011748   0.031040   0.342881  -0.042091   0.004968   0.003367
    16  H    0.000031   0.000146   0.011854  -0.019357   0.002135   0.293516
               7          8          9         10         11         12
     1  N    0.011738  -0.006303  -0.002974   0.350367   0.323807   0.359200
     2  C   -0.342415  -0.148274  -0.142654  -0.003619   0.014398  -0.054534
     3  C   -0.006244  -0.014909  -0.029485  -0.010654  -0.023574   0.009838
     4  C    0.030281  -0.011280   0.011808   0.000746  -0.000615  -0.000011
     5  O    0.010408   0.000473  -0.000326  -0.000009  -0.000072   0.000013
     6  O   -0.009848   0.000188   0.000055  -0.000017  -0.000021   0.000013
     7  C    5.165614   0.547181   0.566134  -0.000706  -0.010471   0.017125
     8  O    0.547181   8.153339  -0.174576  -0.000591   0.017530   0.001435
     9  O    0.566134  -0.174576   8.233920  -0.000708   0.001372   0.002262
    10  H   -0.000706  -0.000591  -0.000708   0.362930  -0.012091  -0.011764
    11  H   -0.010471   0.017530   0.001372  -0.012091   0.368001  -0.010999
    12  H    0.017125   0.001435   0.002262  -0.011764  -0.010999   0.356764
    13  H   -0.014807   0.011198   0.023253  -0.005829   0.005829  -0.003151
    14  H    0.008119   0.000323  -0.000310   0.002774  -0.001199  -0.000005
    15  H   -0.013438   0.017212   0.002379  -0.000603   0.008348  -0.000339
    16  H    0.000372   0.000003   0.000030  -0.000001   0.000003  -0.000001
              13         14         15         16
     1  N   -0.031505  -0.004867  -0.011748   0.000031
     2  C    0.346143  -0.038518   0.031040   0.000146
     3  C   -0.034583   0.358760   0.342881   0.011854
     4  C   -0.009094   0.002624  -0.042091  -0.019357
     5  O    0.000357   0.004635   0.004968   0.002135
     6  O    0.005576   0.005366   0.003367   0.293516
     7  C   -0.014807   0.008119  -0.013438   0.000372
     8  O    0.011198   0.000323   0.017212   0.000003
     9  O    0.023253  -0.000310   0.002379   0.000030
    10  H   -0.005829   0.002774  -0.000603  -0.000001
    11  H    0.005829  -0.001199   0.008348   0.000003
    12  H   -0.003151  -0.000005  -0.000339  -0.000001
    13  H    0.474303  -0.003798   0.006233  -0.000143
    14  H   -0.003798   0.493249  -0.016597  -0.000410
    15  H    0.006233  -0.016597   0.484232  -0.000252
    16  H   -0.000143  -0.000410  -0.000252   0.368903
 Mulliken charges:
               1
     1  N   -0.224514
     2  C   -0.213635
     3  C   -0.228207
     4  C    0.191031
     5  O   -0.342008
     6  O   -0.271626
     7  C    0.040958
     8  O   -0.392950
     9  O   -0.490181
    10  H    0.329776
    11  H    0.319754
    12  H    0.334154
    13  H    0.230017
    14  H    0.189852
    15  H    0.184406
    16  H    0.343171
 Sum of Mulliken charges =  -0.00000
 Mulliken charges with hydrogens summed into heavy atoms:
               1
     1  N    0.759171
     2  C    0.016382
     3  C    0.146051
     4  C    0.191031
     5  O   -0.342008
     6  O    0.071545
     7  C    0.040958
     8  O   -0.392950
     9  O   -0.490181
 Electronic spatial extent (au):  <R**2>=           1246.1724
 Charge=              0.0000 electrons
 Dipole moment (field-independent basis, Debye):
    X=              1.0728    Y=             16.0567    Z=             -2.1705  Tot=             16.2382
 Quadrupole moment (field-independent basis, Debye-Ang):
   XX=            -42.4719   YY=            -50.2052   ZZ=            -59.4232
   XY=             22.0633   XZ=              4.6638   YZ=              0.6172
 Traceless Quadrupole moment (field-independent basis, Debye-Ang):
   XX=              8.2282   YY=              0.4949   ZZ=             -8.7231
   XY=             22.0633   XZ=              4.6638   YZ=              0.6172
 Octapole moment (field-independent basis, Debye-Ang**2):
  XXX=             -2.9071  YYY=             63.3120  ZZZ=             -3.6104  XYY=              6.9266
  XXY=             44.0267  XXZ=            -30.2780  XZZ=             -4.7940  YZZ=             18.1371
  YYZ=              3.3069  XYZ=            -12.3469
 Hexadecapole moment (field-independent basis, Debye-Ang**3):
 XXXX=           -690.3756 YYYY=           -356.2644 ZZZZ=           -252.0785 XXXY=            110.1925
 XXXZ=             62.2348 YYYX=             90.2308 YYYZ=            -19.4387 ZZZX=             17.8822
 ZZZY=             -0.1565 XXYY=           -194.4851 XXZZ=           -185.8793 YYZZ=           -117.4766
 XXYZ=             19.1433 YYXZ=              7.7578 ZZXY=             29.6704
 N-N= 4.670905402275D+02 E-N=-2.137712039334D+03  KE= 5.103310643119D+02
 No NMR shielding tensors so no spin-rotation constants.
 Leave Link  601 at Mon Feb 22 20:57:49 2021, MaxMem=   104857600 cpu:               6.8 elap:               0.3
 (Enter /sw/arch/RedHatEnterpriseServer7/EB_production/2019/software/Gaussian/g16.c01/l701.exe)
 ... and contract with generalized density number  0.
 Compute integral first derivatives.
 R6Disp: Adding Grimme-D3 dispersion energy 1st derivatives to the gradient.
 PrsmSu:  requested number of processors reduced to:  29 ShMem   1 Linda.
 D1PCM: PCM CHGder 1st derivatives, ID1Alg=3 FixD1E=F DoIter=F DoCFld=F I1PDM=0.
 GePol: Maximum number of non-zero 1st derivatives   =     223
 CoulSu:  requested number of processors reduced to:  29 ShMem   1 Linda.
 CoulSu:  requested number of processors reduced to:  30 ShMem   1 Linda.
 Leave Link  701 at Mon Feb 22 20:57:49 2021, MaxMem=   104857600 cpu:              17.7 elap:               0.6
 (Enter /sw/arch/RedHatEnterpriseServer7/EB_production/2019/software/Gaussian/g16.c01/l702.exe)
 L702 exits ... SP integral derivatives will be done elsewhere.
 Leave Link  702 at Mon Feb 22 20:57:50 2021, MaxMem=   104857600 cpu:               1.5 elap:               0.1
 (Enter /sw/arch/RedHatEnterpriseServer7/EB_production/2019/software/Gaussian/g16.c01/l703.exe)
 Integral derivatives from FoFJK, PRISM(SPDF).
 Compute integral first derivatives, UseDBF=F ICtDFT=           0.
 Calling FoFJK, ICntrl=      2527 FMM=F ISym2X=0 I1Cent= 0 IOpClX= 0 NMat=1 NMatS=1 NMatT=0.
 FoFJK:  IHMeth= 1 ICntrl=    2527 DoSepK=F KAlg= 0 I1Cent=           0 FoldK=F
 IRaf=         0 NMat=       1 IRICut=       1 DoRegI=T DoRafI=F ISym2E= 0 IDoP0=0 IntGTp=1.
 FoFCou: FMM=F IPFlag=           0 FMFlag=      100000 FMFlg1=         800
         NFxFlg=           0 DoJE=F BraDBF=F KetDBF=F FulRan=T
         wScrn=  0.000000 ICntrl=      2527 IOpCl=  0 I1Cent=           0 NGrid=           0
         NMat0=    1 NMatS0=      1 NMatT0=    0 NMatD0=    1 NMtDS0=    0 NMtDT0=    0
 Symmetry not used in FoFCou.
 Leave Link  703 at Mon Feb 22 20:57:51 2021, MaxMem=   104857600 cpu:              39.9 elap:               1.3
 (Enter /sw/arch/RedHatEnterpriseServer7/EB_production/2019/software/Gaussian/g16.c01/l716.exe)
 Dipole        = 4.22068924D-01 6.31717387D+00-8.53940106D-01
 ***** Axes restored to original set *****
 -------------------------------------------------------------------
 Center     Atomic                   Forces (Hartrees/Bohr)
 Number     Number              X              Y              Z
 -------------------------------------------------------------------
      1        7          -0.004079940    0.006002882   -0.000938169
      2        6          -0.026514304   -0.011338370    0.022401866
      3        6          -0.011069151    0.003004672   -0.022900339
      4        6           0.043024597   -0.022640456    0.072407032
      5        8          -0.016767555    0.003186014   -0.022069708
      6        8          -0.024283797    0.006897672   -0.036519034
      7        6           0.071418172   -0.096284017   -0.002607778
      8        8          -0.008752919    0.032237204   -0.000703971
      9        8          -0.036059931    0.056896272    0.004837403
     10        1          -0.006416292    0.005284736   -0.005159760
     11        1           0.007205085    0.006587990   -0.002616460
     12        1           0.000342307    0.000025532   -0.007445550
     13        1          -0.001414817   -0.000928200   -0.001897795
     14        1          -0.006161298    0.001982645   -0.002575015
     15        1           0.003684814   -0.001440930    0.003998984
     16        1           0.015845029    0.010526352    0.001788293
 -------------------------------------------------------------------
 Cartesian Forces:  Max     0.096284017 RMS     0.026283346
 Leave Link  716 at Mon Feb 22 20:57:51 2021, MaxMem=   104857600 cpu:               1.0 elap:               0.1
 (Enter /sw/arch/RedHatEnterpriseServer7/EB_production/2019/software/Gaussian/g16.c01/l103.exe)

 GradGradGradGradGradGradGradGradGradGradGradGradGradGradGradGradGradGrad
 Berny optimization.
 FormGI is forming the generalized inverse of G from B-inverse, IUseBI=4.
 Internal  Forces:  Max     0.060953079 RMS     0.013815435
 Search for a local minimum.
 Step number   1 out of a maximum of   82
 All quantities printed in internal units (Hartrees-Bohrs-Radians)
 RMS Force = .13815D-01 SwitMx=.10000D-02 MixMth= 1
 Mixed Optimization -- RFO/linear search
 Second derivative matrix not updated -- first step.
 ITU=  0
     Eigenvalues ---    0.00230   0.00723   0.01024   0.01024   0.01086
     Eigenvalues ---    0.01386   0.02329   0.04110   0.04250   0.04835
     Eigenvalues ---    0.05423   0.05938   0.05950   0.05992   0.09626
     Eigenvalues ---    0.12963   0.16000   0.16000   0.16000   0.16000
     Eigenvalues ---    0.16395   0.18064   0.21998   0.25000   0.25000
     Eigenvalues ---    0.25000   0.25000   0.27239   0.34231   0.34395
     Eigenvalues ---    0.34423   0.34513   0.35054   0.35357   0.43984
     Eigenvalues ---    0.44003   0.44206   0.51327   0.54631   0.54800
     Eigenvalues ---    0.82310   0.82766
 RFO step:  Lambda=-3.98827902D-02 EMin= 2.30000000D-03
 Linear search not attempted -- first point.
 Maximum step size (   0.300) exceeded in Quadratic search.
    -- Step size scaled by   0.837
 Iteration  1 RMS(Cart)=  0.04788428 RMS(Int)=  0.00196358
 Iteration  2 RMS(Cart)=  0.00220786 RMS(Int)=  0.00008869
 Iteration  3 RMS(Cart)=  0.00000312 RMS(Int)=  0.00008866
 Iteration  4 RMS(Cart)=  0.00000000 RMS(Int)=  0.00008866
 ITry= 1 IFail=0 DXMaxC= 1.74D-01 DCOld= 1.00D+10 DXMaxT= 3.00D-01 DXLimC= 3.00D+00 Rises=F
 Variable       Old X    -DE/DX   Delta X   Delta X   Delta X     New X
                                 (Linear)    (Quad)   (Total)
    R1        2.78399   0.02395   0.00000   0.05093   0.05093   2.83493
    R2        1.92909   0.00799   0.00000   0.01387   0.01387   1.94297
    R3        1.93173   0.00952   0.00000   0.01660   0.01660   1.94833
    R4        1.93151   0.00640   0.00000   0.01116   0.01116   1.94267
    R5        2.93832  -0.00495   0.00000  -0.01326  -0.01326   2.92506
    R6        2.79773   0.02717   0.00000   0.05905   0.05905   2.85677
    R7        2.06942   0.00183   0.00000   0.00400   0.00400   2.07342
    R8        2.78888   0.01406   0.00000   0.03014   0.03014   2.81902
    R9        2.06669   0.00652   0.00000   0.01422   0.01422   2.08091
   R10        2.06623   0.00187   0.00000   0.00406   0.00406   2.07029
   R11        2.36457  -0.02698   0.00000  -0.02602  -0.02602   2.33856
   R12        2.55462  -0.01087   0.00000  -0.01552  -0.01552   2.53910
   R13        1.85249  -0.00446   0.00000  -0.00674  -0.00674   1.84575
   R14        2.36693   0.01130   0.00000   0.01095   0.01095   2.37789
   R15        2.55310  -0.06095   0.00000  -0.08675  -0.08675   2.46635
    A1        1.91937   0.00681   0.00000   0.03084   0.03061   1.94998
    A2        1.91312   0.00117   0.00000   0.00448   0.00438   1.91750
    A3        1.91860   0.00313   0.00000   0.01122   0.01111   1.92972
    A4        1.90442  -0.00290   0.00000  -0.00834  -0.00855   1.89587
    A5        1.90548  -0.00482   0.00000  -0.01935  -0.01958   1.88590
    A6        1.90266  -0.00355   0.00000  -0.01951  -0.01949   1.88317
    A7        1.91738  -0.00135   0.00000  -0.01087  -0.01101   1.90637
    A8        1.89406   0.00085   0.00000  -0.00254  -0.00279   1.89126
    A9        1.87279   0.00035   0.00000   0.00695   0.00698   1.87977
   A10        1.96681  -0.00242   0.00000  -0.01552  -0.01563   1.95118
   A11        1.89979   0.00143   0.00000   0.01006   0.01014   1.90993
   A12        1.91072   0.00126   0.00000   0.01303   0.01307   1.92379
   A13        1.98055  -0.00542   0.00000  -0.02054  -0.02061   1.95993
   A14        1.90857  -0.00092   0.00000  -0.00415  -0.00411   1.90446
   A15        1.90451   0.00402   0.00000   0.01445   0.01417   1.91868
   A16        1.87885   0.00407   0.00000   0.01826   0.01828   1.89713
   A17        1.91108  -0.00220   0.00000  -0.01945  -0.01943   1.89165
   A18        1.87749   0.00070   0.00000   0.01313   0.01317   1.89066
   A19        2.11178   0.00989   0.00000   0.02855   0.02855   2.14033
   A20        2.10203  -0.03663   0.00000  -0.10571  -0.10571   1.99631
   A21        2.06937   0.02674   0.00000   0.07718   0.07718   2.14654
   A22        2.09916  -0.03437   0.00000  -0.14388  -0.14388   1.95528
   A23        2.11375  -0.02472   0.00000  -0.07133  -0.07135   2.04240
   A24        2.10694  -0.02471   0.00000  -0.07131  -0.07133   2.03561
   A25        2.06249   0.04943   0.00000   0.14267   0.14265   2.20514
    D1       -1.02478  -0.00153   0.00000  -0.00981  -0.00980  -1.03458
    D2        3.10102   0.00179   0.00000   0.01812   0.01812   3.11914
    D3        1.03792  -0.00035   0.00000   0.00028   0.00027   1.03820
    D4        1.06891  -0.00013   0.00000   0.00185   0.00192   1.07084
    D5       -1.08847   0.00318   0.00000   0.02978   0.02984  -1.05863
    D6        3.13162   0.00104   0.00000   0.01194   0.01200  -3.13957
    D7       -3.12322  -0.00184   0.00000  -0.01243  -0.01248  -3.13570
    D8        1.00258   0.00148   0.00000   0.01550   0.01544   1.01802
    D9       -1.06052  -0.00066   0.00000  -0.00234  -0.00241  -1.06293
   D10        3.05704   0.00211   0.00000   0.02012   0.02012   3.07716
   D11        0.95927   0.00115   0.00000   0.01334   0.01327   0.97254
   D12       -1.09002  -0.00149   0.00000  -0.00842  -0.00854  -1.09856
   D13       -1.11192   0.00061   0.00000  -0.00127  -0.00114  -1.11306
   D14        3.07349  -0.00036   0.00000  -0.00805  -0.00800   3.06549
   D15        1.02421  -0.00299   0.00000  -0.02981  -0.02981   0.99440
   D16        1.01112   0.00162   0.00000   0.01208   0.01215   1.02326
   D17       -1.08665   0.00066   0.00000   0.00529   0.00529  -1.08136
   D18       -3.13594  -0.00198   0.00000  -0.01646  -0.01652   3.13073
   D19        1.03165  -0.00314   0.00000  -0.04172  -0.04171   0.98994
   D20       -2.11283  -0.00247   0.00000  -0.03046  -0.03045  -2.14328
   D21       -1.09581  -0.00044   0.00000  -0.01602  -0.01605  -1.11186
   D22        2.04289   0.00024   0.00000  -0.00476  -0.00479   2.03810
   D23        3.07054  -0.00154   0.00000  -0.02762  -0.02760   3.04294
   D24       -0.07394  -0.00086   0.00000  -0.01636  -0.01634  -0.09029
   D25        1.96026   0.00072   0.00000   0.00206   0.00225   1.96251
   D26       -1.18760   0.00095   0.00000   0.00551   0.00569  -1.18191
   D27       -2.20838  -0.00102   0.00000  -0.00344  -0.00344  -2.21182
   D28        0.92694  -0.00079   0.00000   0.00002   0.00000   0.92694
   D29       -0.17222   0.00090   0.00000   0.01193   0.01176  -0.16046
   D30        2.96310   0.00114   0.00000   0.01538   0.01520   2.97830
   D31       -3.11182  -0.00072   0.00000  -0.00999  -0.01001  -3.12184
   D32        0.02365  -0.00055   0.00000  -0.00677  -0.00674   0.01691
         Item               Value     Threshold  Converged?
 Maximum Force            0.060953     0.000450     NO 
 RMS     Force            0.013815     0.000300     NO 
 Maximum Displacement     0.174443     0.001800     NO 
 RMS     Displacement     0.048266     0.001200     NO 
 Predicted change in Energy=-2.137072D-02
 Lowest energy point so far.  Saving SCF results.
 GradGradGradGradGradGradGradGradGradGradGradGradGradGradGradGradGradGrad

 Leave Link  103 at Mon Feb 22 20:57:51 2021, MaxMem=   104857600 cpu:               1.2 elap:               0.1
 (Enter /sw/arch/RedHatEnterpriseServer7/EB_production/2019/software/Gaussian/g16.c01/l202.exe)
                          Input orientation:                          
 ---------------------------------------------------------------------
 Center     Atomic      Atomic             Coordinates (Angstroms)
 Number     Number       Type             X           Y           Z
 ---------------------------------------------------------------------
      1          7           0        1.029994    2.463934   -3.243988
      2          6           0        1.181999    1.539893   -2.071991
      3          6           0        0.932733    2.329817   -0.764397
      4          6           0        0.980262    1.455085    0.443055
      5          8           0        1.872800    1.542632    1.295782
      6          8           0       -0.027092    0.569875    0.526659
      7          6           0        2.570999    0.944549   -2.111965
      8          8           0        3.538040    1.749628   -2.119407
      9          8           0        2.648546   -0.357856   -2.145183
     10          1           0        0.091790    2.883086   -3.279001
     11          1           0        1.727061    3.221349   -3.185660
     12          1           0        1.186055    1.958123   -4.125247
     13          1           0        0.427509    0.749368   -2.170344
     14          1           0       -0.057925    2.807929   -0.815162
     15          1           0        1.688730    3.114769   -0.652365
     16          1           0        0.027739    0.027978    1.337424
 ---------------------------------------------------------------------
                    Distance matrix (angstroms):
                    1          2          3          4          5
     1  N    0.000000
     2  C    1.500179   0.000000
     3  C    2.485120   1.547875   0.000000
     4  C    3.822896   2.524548   1.491762   0.000000
     5  O    4.708358   3.437893   2.397441   1.237511   0.000000
     6  O    4.350019   3.025858   2.384425   1.343632   2.268787
     7  C    2.442274   1.511738   2.533540   3.052739   3.529579
     8  O    2.839932   2.365834   2.993376   3.632519   3.805179
     9  O    3.433597   2.399494   3.474792   3.573360   4.006729
    10  H    1.028173   2.109407   2.708602   4.084393   5.088954
    11  H    1.031010   2.089174   2.699686   4.104262   4.787760
    12  H    1.028016   2.095422   3.390817   4.600519   5.480128
    13  H    2.110791   1.097204   2.174801   2.762865   3.838250
    14  H    2.683486   2.173694   1.101168   2.119228   3.128060
    15  H    2.752096   2.179988   1.095551   2.111024   2.510134
    16  H    5.284670   3.904140   3.245786   1.934898   2.387501
                    6          7          8          9         10
     6  O    0.000000
     7  C    3.721934   0.000000
     8  O    4.593871   1.258323   0.000000
     9  O    3.893387   1.305135   2.287652   0.000000
    10  H    4.455123   3.356542   3.808678   4.280917   0.000000
    11  H    4.887604   2.654970   2.565640   3.839588   1.672497
    12  H    5.003917   2.645506   3.098177   3.379836   1.664063
    13  H    2.740931   2.153149   3.267801   2.481851   2.427876
    14  H    2.609659   3.473488   3.968882   4.372201   2.469527
    15  H    3.287952   2.760196   2.726860   3.899856   3.082712
    16  H    0.976729   4.382529   5.218810   4.375620   5.428363
                   11         12         13         14         15
    11  H    0.000000
    12  H    1.664707   0.000000
    13  H    2.971598   2.420356   0.000000
    14  H    2.996056   3.636801   2.511939   0.000000
    15  H    2.535826   3.694783   3.080594   1.780859   0.000000
    16  H    5.791684   5.908293   3.603423   3.516972   4.030686
                   16
    16  H    0.000000
 Stoichiometry    C4H7NO4
 Framework group  C1[X(C4H7NO4)]
 Deg. of freedom    42
 Full point group                 C1      NOp   1
 RotChk:  IX=2 Diff= 5.41D-02
 Largest Abelian subgroup         C1      NOp   1
 Largest concise Abelian subgroup C1      NOp   1
                         Standard orientation:                         
 ---------------------------------------------------------------------
 Center     Atomic      Atomic             Coordinates (Angstroms)
 Number     Number       Type             X           Y           Z
 ---------------------------------------------------------------------
      1          7           0        1.827068    1.545275   -0.060463
      2          6           0        0.703087    0.599108   -0.363729
      3          6           0       -0.519579    0.962265    0.513266
      4          6           0       -1.709281    0.117297    0.203439
      5          8           0       -2.167661   -0.708588    1.002960
      6          8           0       -2.240365    0.331542   -1.012044
      7          6           0        1.183110   -0.810215   -0.101545
      8          8           0        1.620965   -1.059800    1.051437
      9          8           0        1.111088   -1.647989   -1.099705
     10          1           0        1.562018    2.521896   -0.242398
     11          1           0        2.101454    1.457493    0.929481
     12          1           0        2.649439    1.325660   -0.636911
     13          1           0        0.441681    0.719987   -1.422461
     14          1           0       -0.783094    2.018142    0.345180
     15          1           0       -0.270864    0.833693    1.572436
     16          1           0       -3.026348   -0.225856   -1.171847
 ---------------------------------------------------------------------
 Rotational constants (GHZ):           2.2455960           1.1704943           1.0265319
 Leave Link  202 at Mon Feb 22 20:57:51 2021, MaxMem=   104857600 cpu:               1.6 elap:               0.1
 (Enter /sw/arch/RedHatEnterpriseServer7/EB_production/2019/software/Gaussian/g16.c01/l301.exe)
 Standard basis: TZVP (5D, 7F)
 Ernie: Thresh=  0.10000D-02 Tol=  0.10000D-05 Strict=F.
 There are   222 symmetry adapted cartesian basis functions of A   symmetry.
 There are   213 symmetry adapted basis functions of A   symmetry.
   213 basis functions,   371 primitive gaussians,   222 cartesian basis functions
    35 alpha electrons       35 beta electrons
       nuclear repulsion energy       469.4157819842 Hartrees.
 IExCor=  404 DFT=T Ex=B Corr=P86 ExCW=0 ScaHFX=  0.000000
 ScaDFX=  1.000000  1.000000  1.000000  1.000000 ScalE2=  1.000000  1.000000
 IRadAn=      5 IRanWt=     -1 IRanGd=            0 ICorTp=0 IEmpDi=131
 NAtoms=   16 NActive=   16 NUniq=   16 SFac= 1.00D+00 NAtFMM=   60 NAOKFM=F Big=F
 Integral buffers will be    131072 words long.
 Raffenetti 2 integral format.
 Two-electron integral symmetry is turned on.
 R6Disp:  Grimme-D3 Dispersion energy=       -0.0161636631 Hartrees.
 Nuclear repulsion after empirical dispersion term =      469.3996183212 Hartrees.
 ------------------------------------------------------------------------------
 Polarizable Continuum Model (PCM)
 =================================
 Model                : PCM.
 Atomic radii         : UFF (Universal Force Field).
 Polarization charges : Total charges.
 Charge compensation  : None.
 Solution method      : On-the-fly selection.
 Cavity type          : Scaled VdW (van der Waals Surface) (Alpha=1.100).
 Cavity algorithm     : GePol (No added spheres)
                        Default sphere list used, NSphG=   16.
                        Lebedev-Laikov grids with approx.  5.0 points / Ang**2.
                        Smoothing algorithm: York/Karplus (Gamma=1.0000).
                        Polarization charges: spherical gaussians, with
                                              point-specific exponents (IZeta= 3).
                        Self-potential: point-specific (ISelfS= 7).
                        Self-field    : sphere-specific E.n sum rule (ISelfD= 2).
 1st derivatives      : Analytical E(r).r(x)/FMM algorithm (CHGder, D1EAlg=3).
                        Cavity 1st derivative terms included.
 Solvent              : Water, Eps=  78.355300 Eps(inf)=   1.777849
 ------------------------------------------------------------------------------
 Spheres list:
 ISph  on   Nord     Re0    Alpha      Xe            Ye            Ze
    1   N      1    1.8300  1.100      1.827068      1.545275     -0.060463
    2   C      2    1.9255  1.100      0.703087      0.599108     -0.363729
    3   C      3    1.9255  1.100     -0.519579      0.962265      0.513266
    4   C      4    1.9255  1.100     -1.709281      0.117297      0.203439
    5   O      5    1.7500  1.100     -2.167661     -0.708588      1.002960
    6   O      6    1.7500  1.100     -2.240365      0.331542     -1.012044
    7   C      7    1.9255  1.100      1.183110     -0.810215     -0.101545
    8   O      8    1.7500  1.100      1.620965     -1.059800      1.051437
    9   O      9    1.7500  1.100      1.111088     -1.647989     -1.099705
   10   H     10    1.4430  1.100      1.562018      2.521896     -0.242398
   11   H     11    1.4430  1.100      2.101454      1.457493      0.929481
   12   H     12    1.4430  1.100      2.649439      1.325660     -0.636911
   13   H     13    1.4430  1.100      0.441681      0.719987     -1.422461
   14   H     14    1.4430  1.100     -0.783094      2.018142      0.345180
   15   H     15    1.4430  1.100     -0.270864      0.833693      1.572436
   16   H     16    1.4430  1.100     -3.026348     -0.225856     -1.171847
 ------------------------------------------------------------------------------
 GePol: Number of generator spheres                  =      16
 GePol: Total number of spheres                      =      16
 GePol: Number of exposed spheres                    =      16 (100.00%)
 GePol: Number of points                             =    1406
 GePol: Average weight of points                     =       0.13
 GePol: Minimum weight of points                     =   0.11D-07
 GePol: Maximum weight of points                     =    0.20577
 GePol: Number of points with low weight             =      84
 GePol: Fraction of low-weight points (<1% of avg)   =       5.97%
 GePol: Cavity surface area                          =    189.061 Ang**2
 GePol: Cavity volume                                =    181.137 Ang**3
 Leave Link  301 at Mon Feb 22 20:57:51 2021, MaxMem=   104857600 cpu:               2.1 elap:               0.1
 (Enter /sw/arch/RedHatEnterpriseServer7/EB_production/2019/software/Gaussian/g16.c01/l302.exe)
 NPDir=0 NMtPBC=     1 NCelOv=     1 NCel=       1 NClECP=     1 NCelD=      1
         NCelK=      1 NCelE2=     1 NClLst=     1 CellRange=     0.0.
 One-electron integrals computed using PRISM.
 One-electron integral symmetry used in STVInt
 PrsmSu:  requested number of processors reduced to:  29 ShMem   1 Linda.
 NBasis=   213 RedAO= T EigKep=  1.85D-04  NBF=   213
 NBsUse=   213 1.00D-06 EigRej= -1.00D+00 NBFU=   213
 Precomputing XC quadrature grid using
 IXCGrd= 4 IRadAn=           5 IRanWt=          -1 IRanGd=           0 AccXCQ= 0.00D+00.
 Generated NRdTot=       0 NPtTot=           0 NUsed=           0 NTot=          32
 NSgBfM=   220   220   220   220   220 MxSgAt=    16 MxSgA2=    16.
 Leave Link  302 at Mon Feb 22 20:57:52 2021, MaxMem=   104857600 cpu:               5.8 elap:               0.2
 (Enter /sw/arch/RedHatEnterpriseServer7/EB_production/2019/software/Gaussian/g16.c01/l303.exe)
 DipDrv:  MaxL=1.
 Leave Link  303 at Mon Feb 22 20:57:52 2021, MaxMem=   104857600 cpu:               1.6 elap:               0.1
 (Enter /sw/arch/RedHatEnterpriseServer7/EB_production/2019/software/Gaussian/g16.c01/l401.exe)
 Initial guess from the checkpoint file:  "CKLJMWTZIZZHCS-UWTATZPHSA-N.chk"
 B after Tr=     0.000000   -0.000000    0.000000
         Rot=    0.999816   -0.014479   -0.000279    0.012542 Ang=  -2.20 deg.
 Guess basis will be translated and rotated to current coordinates.
 JPrj=2 DoOrth=T DoCkMO=T.
 Generating alternative initial guess.
 ExpMin= 9.52D-02 ExpMax= 2.70D+04 ExpMxC= 9.22D+02 IAcc=3 IRadAn=         5 AccDes= 0.00D+00
 Harris functional with IExCor=  404 and IRadAn=       5 diagonalized for initial guess.
 HarFok:  IExCor=  404 AccDes= 0.00D+00 IRadAn=         5 IDoV= 1 UseB2=F ITyADJ=14
 ICtDFT=  3500011 ScaDFX=  1.000000  1.000000  1.000000  1.000000
 FoFCou: FMM=F IPFlag=           0 FMFlag=      100000 FMFlg1=           0
         NFxFlg=           0 DoJE=T BraDBF=F KetDBF=T FulRan=T
         wScrn=  0.000000 ICntrl=       500 IOpCl=  0 I1Cent=   200000004 NGrid=           0
         NMat0=    1 NMatS0=      1 NMatT0=    0 NMatD0=    1 NMtDS0=    0 NMtDT0=    0
 Petite list used in FoFCou.
 Harris En= -512.670338510024    
 Leave Link  401 at Mon Feb 22 20:57:52 2021, MaxMem=   104857600 cpu:              13.6 elap:               0.5
 (Enter /sw/arch/RedHatEnterpriseServer7/EB_production/2019/software/Gaussian/g16.c01/l502.exe)
 Integral symmetry usage will be decided dynamically.
 Closed shell SCF:
 Using DIIS extrapolation, IDIIS=  1040.
 NGot=   104857600 LenX=   104749244 LenY=   104699519
 Requested convergence on RMS density matrix=1.00D-08 within 128 cycles.
 Requested convergence on MAX density matrix=1.00D-06.
 Requested convergence on             energy=1.00D-06.
 No special actions if energy rises.
 Fock matrices will be formed incrementally for  20 cycles.

 Cycle   1  Pass 1  IDiag  1:
 FoFJK:  IHMeth= 1 ICntrl=     500 DoSepK=F KAlg= 0 I1Cent=           0 FoldK=F
 IRaf= 930000000 NMat=       1 IRICut=       1 DoRegI=T DoRafI=F ISym2E= 0 IDoP0=0 IntGTp=1.
 FoFCou: FMM=F IPFlag=           0 FMFlag=      100000 FMFlg1=           0
         NFxFlg=           0 DoJE=T BraDBF=F KetDBF=F FulRan=T
         wScrn=  0.000000 ICntrl=       500 IOpCl=  0 I1Cent=           0 NGrid=           0
         NMat0=    1 NMatS0=      1 NMatT0=    0 NMatD0=    1 NMtDS0=    0 NMtDT0=    0
 Symmetry not used in FoFCou.
 Inv3:  Mode=1 IEnd=     5930508.
 Iteration    1 A*A^-1 deviation from unit magnitude is 2.66D-15 for      2.
 Iteration    1 A*A^-1 deviation from orthogonality  is 1.46D-15 for    630    466.
 Iteration    1 A^-1*A deviation from unit magnitude is 3.11D-15 for    239.
 Iteration    1 A^-1*A deviation from orthogonality  is 1.44D-15 for   1264    935.
 E= -512.529984359708    
 DIIS: error= 3.61D-03 at cycle   1 NSaved=   1.
 NSaved= 1 IEnMin= 1 EnMin= -512.529984359708     IErMin= 1 ErrMin= 3.61D-03
 ErrMax= 3.61D-03  0.00D+00 EMaxC= 1.00D-01 BMatC= 8.97D-03 BMatP= 8.97D-03
 IDIUse=3 WtCom= 9.64D-01 WtEn= 3.61D-02
 Coeff-Com:  0.100D+01
 Coeff-En:   0.100D+01
 Coeff:      0.100D+01
 Gap=     0.517 Goal=   None    Shift=    0.000
 GapD=    0.517 DampG=2.000 DampE=1.000 DampFc=2.0000 IDamp=-1.
 RMSDP=1.69D-03 MaxDP=1.48D-01              OVMax= 4.06D-02

 Cycle   2  Pass 1  IDiag  1:
 RMSU=  1.60D-03    CP:  9.68D-01
 E= -512.539877133555     Delta-E=       -0.009892773847 Rises=F Damp=F
 DIIS: error= 2.80D-03 at cycle   2 NSaved=   2.
 NSaved= 2 IEnMin= 2 EnMin= -512.539877133555     IErMin= 2 ErrMin= 2.80D-03
[...]
      6          8           0       -1.987051    0.203527   -1.192327
      7          6           0        1.202640   -0.878030   -0.057918
      8          8           0        2.462838   -0.967032    0.123874
      9          8           0        0.338926   -1.779906   -0.080561
     10          1           0        1.805935    1.958387    0.910792
     11          1           0        2.637163    0.689415    0.095161
     12          1           0        2.108444    2.147467   -0.718297
     13          1           0        0.470798    0.705842   -1.366623
     14          1           0       -0.778634    2.015124    0.414278
     15          1           0       -0.348631    0.761446    1.608996
     16          1           0       -2.812533   -0.294014   -1.374820
 ---------------------------------------------------------------------
 Rotational constants (GHZ):           2.7117448           1.1144582           0.9359716
 Standard basis: TZVP (5D, 7F)
 There are   222 symmetry adapted cartesian basis functions of A   symmetry.
 There are   213 symmetry adapted basis functions of A   symmetry.
   213 basis functions,   371 primitive gaussians,   222 cartesian basis functions
    35 alpha electrons       35 beta electrons
       nuclear repulsion energy       471.2807200413 Hartrees.
 NAtoms=   16 NActive=   16 NUniq=   16 SFac= 1.00D+00 NAtFMM=   60 NAOKFM=F Big=F
 Integral buffers will be    131072 words long.
 Raffenetti 2 integral format.
 Two-electron integral symmetry is turned on.
 Warning! Using old PCM defaults because the COSMOthermo output has been requested.
 These settings can be overridden by following keywords.
 ------------------------------------------------------------------------------
 Polarizable Continuum Model (PCM)
 =================================
 Model                : C-PCM.
 Atomic radii         : Klamt.
 XCosmo               : -1.000 (infinite dielectric limit)
 Polarization charges : Electronic and nuclear charges.
 Charge compensation  : Type 3 (Electronic density weighted correction).
 Solution method      : On-the-fly selection.
 Cavity type          : VdW (van der Waals Surface) (Alpha=1.000).
 Cavity algorithm     : GePol (No added spheres)
                        Default sphere list used, NSphG=   16.
                        Tesserae with average area of 0.200 Ang**2.
                        Smoothing algorithm: None.
                        Polarization charges: point-like.
                        Self-potential: constant (ISelfS= 1).
                        Self-field    : global E.n sum rule (ISelfD= 3).
 Solvent              : Water, Eps=  78.355300 Eps(inf)=   1.777849
 ------------------------------------------------------------------------------
 Spheres list:
 ISph  on   Nord     Re0    Alpha      Xe            Ye            Ze
    1   N      1    1.8300  1.000      1.886177      1.464419      0.013744
    2   C      2    2.0000  1.000      0.693741      0.590669     -0.298327
    3   C      3    2.0000  1.000     -0.532553      0.947629      0.542541
    4   C      4    2.0000  1.000     -1.773885      0.168090      0.151068
    5   O      5    1.7200  1.000     -2.542894     -0.357182      0.937778
    6   O      6    1.7200  1.000     -1.987051      0.203527     -1.192327
    7   C      7    2.0000  1.000      1.202640     -0.878030     -0.057918
    8   O      8    1.7200  1.000      2.462838     -0.967032      0.123874
    9   O      9    1.7200  1.000      0.338926     -1.779906     -0.080561
   10   H     10    1.3000  1.000      1.805935      1.958387      0.910792
   11   H     11    1.3000  1.000      2.637163      0.689415      0.095161
   12   H     12    1.3000  1.000      2.108444      2.147467     -0.718297
   13   H     13    1.3000  1.000      0.470798      0.705842     -1.366623
   14   H     14    1.3000  1.000     -0.778634      2.015124      0.414278
   15   H     15    1.3000  1.000     -0.348631      0.761446      1.608996
   16   H     16    1.3000  1.000     -2.812533     -0.294014     -1.374820
 ------------------------------------------------------------------------------
 One-electron integrals computed using PRISM.
 PrsmSu:  requested number of processors reduced to:  29 ShMem   1 Linda.
 NBasis=   213 RedAO= T EigKep=  1.96D-04  NBF=   213
 NBsUse=   213 1.00D-06 EigRej= -1.00D+00 NBFU=   213
 Initial guess from the checkpoint file:  "CKLJMWTZIZZHCS-UWTATZPHSA-N.chk"
 B after Tr=     0.000000   -0.000000   -0.000000
         Rot=    1.000000    0.000000    0.000000    0.000000 Ang=   0.00 deg.
 Requested convergence on RMS density matrix=1.00D-08 within 128 cycles.
 Requested convergence on MAX density matrix=1.00D-06.
 Requested convergence on             energy=1.00D-06.
 No special actions if energy rises.
 Inv3:  Mode=1 IEnd=     3817152.
 Iteration    1 A*A^-1 deviation from unit magnitude is 3.44D-15 for    361.
 Iteration    1 A*A^-1 deviation from orthogonality  is 2.23D-15 for    730     26.
 Iteration    1 A^-1*A deviation from unit magnitude is 3.44D-15 for    361.
 Iteration    1 A^-1*A deviation from orthogonality  is 3.04D-15 for    319     54.
 Error on nuclear    polarization charges =  0.00838
 Error on electronic polarization charges = -0.03291
 SCF Done:  E(RB-P86) =  -512.560511741     A.U. after   12 cycles
            NFock= 12  Conv=0.60D-08     -V/T= 2.0043
 --------------------------------------------------------------------
 Variational C-PCM results
 =========================
 <psi(f)|   H    |psi(f)>                     (a.u.) =    -512.478462
 <psi(f)|H+V(f)/2|psi(f)>                     (a.u.) =    -512.560512
 Total free energy in solution:
 - with all non electrostatic terms           (a.u.) =    -512.549828
 --------------------------------------------------------------------
 (Polarized solute)-Solvent               (kcal/mol) =     -51.49
 --------------------------------------------------------------------
 Cavitation energy                        (kcal/mol) =      20.37
 Dispersion energy                        (kcal/mol) =     -14.95
 Repulsion energy                         (kcal/mol) =       1.28
 Total non electrostatic                  (kcal/mol) =       6.70
 --------------------------------------------------------------------
 Partition over spheres:
 Sphere  on Atom  Surface  Charge   GEl     GCav    GDR
    1      N1      10.09  -0.150   -5.49    1.22   -0.68
    2      C2       4.42  -0.045   -1.22    0.52   -0.11
    3      C3       8.58  -0.053   -1.25    1.01   -0.34
    4      C4       7.80  -0.010   -0.47    0.92   -0.34
    5      O5      20.45   0.246   -5.07    2.54   -1.73
    6      O6      14.67   0.077   -0.40    1.82   -1.17
    7      C7      11.16   0.037   -1.53    1.31   -0.69
    8      O8      17.57   0.261   -6.40    2.18   -1.72
    9      O9      17.72   0.300  -10.68    2.20   -1.45
   10      H10      7.57  -0.145   -6.05    1.07   -0.89
   11      H11      3.83  -0.050   -1.03    0.54   -0.35
   12      H12      8.16  -0.154   -6.60    1.15   -1.07
   13      H13      5.96  -0.054   -0.97    0.84   -0.64
   14      H14      6.57  -0.058   -1.52    0.93   -0.84
   15      H15      6.51  -0.049   -0.60    0.92   -0.71
   16      H16      8.48  -0.153   -2.21    1.20   -0.94
 --------------------------------------------------------------------
 - cavitation energy not included in the total energy.
 - dispersion energy not included in the total energy.
 - repulsion  energy not included in the total energy.
 After PCM corrections, the energy is  -512.560511741     a.u.
 --------------------------------------------------------------------
 Writing COSMO formatted file "CKLJMWTZIZZHCS-UWTATZPHSA-N.cosmo"
 Recomputed dielectric energy= -0.082235 old= -0.082050 diff=-1.85D-04

 **********************************************************************

            Population analysis using the SCF Density.

 **********************************************************************

 Orbital symmetries:
       Occupied  (A) (A) (A) (A) (A) (A) (A) (A) (A) (A) (A) (A)
                 (A) (A) (A) (A) (A) (A) (A) (A) (A) (A) (A) (A)
                 (A) (A) (A) (A) (A) (A) (A) (A) (A) (A) (A)
       Virtual   (A) (A) (A) (A) (A) (A) (A) (A) (A) (A) (A) (A)
                 (A) (A) (A) (A) (A) (A) (A) (A) (A) (A) (A) (A)
                 (A) (A) (A) (A) (A) (A) (A) (A) (A) (A) (A) (A)
                 (A) (A) (A) (A) (A) (A) (A) (A) (A) (A) (A) (A)
                 (A) (A) (A) (A) (A) (A) (A) (A) (A) (A) (A) (A)
                 (A) (A) (A) (A) (A) (A) (A) (A) (A) (A) (A) (A)
                 (A) (A) (A) (A) (A) (A) (A) (A) (A) (A) (A) (A)
                 (A) (A) (A) (A) (A) (A) (A) (A) (A) (A) (A) (A)
                 (A) (A) (A) (A) (A) (A) (A) (A) (A) (A) (A) (A)
                 (A) (A) (A) (A) (A) (A) (A) (A) (A) (A) (A) (A)
                 (A) (A) (A) (A) (A) (A) (A) (A) (A) (A) (A) (A)
                 (A) (A) (A) (A) (A) (A) (A) (A) (A) (A) (A) (A)
                 (A) (A) (A) (A) (A) (A) (A) (A) (A) (A) (A) (A)
                 (A) (A) (A) (A) (A) (A) (A) (A) (A) (A) (A) (A)
                 (A) (A) (A) (A) (A) (A) (A) (A) (A) (A)
 The electronic state is 1-A.
 Alpha  occ. eigenvalues --  -18.82248 -18.77162 -18.74425 -18.73597 -14.08809
 Alpha  occ. eigenvalues --  -10.03957  -9.99984  -9.96465  -9.92721  -1.02526
 Alpha  occ. eigenvalues --   -0.96890  -0.94336  -0.90191  -0.87799  -0.72987
 Alpha  occ. eigenvalues --   -0.62971  -0.56549  -0.52151  -0.50405  -0.47936
 Alpha  occ. eigenvalues --   -0.45210  -0.44346  -0.42929  -0.41964  -0.38818
 Alpha  occ. eigenvalues --   -0.38204  -0.37338  -0.35681  -0.34818  -0.33473
 Alpha  occ. eigenvalues --   -0.29516  -0.25224  -0.24640  -0.23685  -0.21931
 Alpha virt. eigenvalues --   -0.05103  -0.01443   0.01570   0.03077   0.05624
 Alpha virt. eigenvalues --    0.06336   0.07734   0.08844   0.09449   0.10907
 Alpha virt. eigenvalues --    0.12423   0.14878   0.16472   0.17236   0.17510
 Alpha virt. eigenvalues --    0.19353   0.20713   0.21149   0.24881   0.25232
 Alpha virt. eigenvalues --    0.25942   0.26807   0.28236   0.29500   0.31083
 Alpha virt. eigenvalues --    0.32455   0.34070   0.35704   0.36627   0.36884
 Alpha virt. eigenvalues --    0.37643   0.39225   0.39849   0.40711   0.41604
 Alpha virt. eigenvalues --    0.41798   0.43372   0.44560   0.45897   0.45933
 Alpha virt. eigenvalues --    0.46841   0.47464   0.48866   0.51261   0.52095
 Alpha virt. eigenvalues --    0.52897   0.54563   0.56685   0.57947   0.60900
 Alpha virt. eigenvalues --    0.63285   0.64749   0.65841   0.71225   0.74165
 Alpha virt. eigenvalues --    0.75202   0.79489   0.86884   0.87665   0.93306
 Alpha virt. eigenvalues --    1.07847   1.11156   1.18975   1.21542   1.23022
 Alpha virt. eigenvalues --    1.26047   1.26659   1.27799   1.29712   1.32069
 Alpha virt. eigenvalues --    1.33298   1.35889   1.36864   1.39860   1.42361
 Alpha virt. eigenvalues --    1.43465   1.45198   1.46454   1.47310   1.49284
 Alpha virt. eigenvalues --    1.52577   1.53354   1.55320   1.55385   1.57624
 Alpha virt. eigenvalues --    1.60988   1.61932   1.63955   1.66353   1.68653
 Alpha virt. eigenvalues --    1.71456   1.76906   1.78978   1.80152   1.82808
 Alpha virt. eigenvalues --    1.85015   1.85897   1.87485   1.88990   1.92461
 Alpha virt. eigenvalues --    1.98196   2.03064   2.05187   2.10679   2.15292
 Alpha virt. eigenvalues --    2.18728   2.20280   2.22962   2.24407   2.28629
 Alpha virt. eigenvalues --    2.30628   2.34307   2.39297   2.43177   2.45752
 Alpha virt. eigenvalues --    2.46664   2.47462   2.49823   2.50929   2.51398
 Alpha virt. eigenvalues --    2.53701   2.54348   2.55630   2.56772   2.56939
 Alpha virt. eigenvalues --    2.57570   2.59215   2.60200   2.60637   2.61992
 Alpha virt. eigenvalues --    2.64008   2.66954   2.68187   2.69206   2.70728
 Alpha virt. eigenvalues --    2.70922   2.73027   2.75287   2.76744   2.78865
 Alpha virt. eigenvalues --    2.82159   2.85383   2.88584   2.90452   2.92784
 Alpha virt. eigenvalues --    2.97551   3.01736   3.02734   3.07374   3.09325
 Alpha virt. eigenvalues --    3.11292   3.12811   3.15048   3.17792   3.20147
 Alpha virt. eigenvalues --    3.22430   3.25946   3.28911   3.31126   3.40995
 Alpha virt. eigenvalues --    3.42221   3.61531   3.77512   3.80246   3.80408
 Alpha virt. eigenvalues --    4.02724   4.10227   4.12618   4.18131  21.69165
 Alpha virt. eigenvalues --   21.74544  21.79785  21.83350  31.40828  43.06914
 Alpha virt. eigenvalues --   43.11922  43.13215  43.22039
          Condensed to atoms (all electrons):
               1          2          3          4          5          6
     1  N    6.280398   0.087886  -0.032512   0.013984  -0.000233  -0.000477
     2  C    0.087886   6.496275  -0.102990  -0.006413  -0.000365   0.008388
     3  C   -0.032512  -0.102990   5.948214   0.027565  -0.123745  -0.148993
     4  C    0.013984  -0.006413   0.027565   4.853040   0.624608   0.301856
     5  O   -0.000233  -0.000365  -0.123745   0.624608   7.950707  -0.106688
     6  O   -0.000477   0.008388  -0.148993   0.301856  -0.106688   7.921125
     7  C   -0.005153  -0.058577  -0.056139   0.036934   0.003344   0.000687
     8  O   -0.045871  -0.238049   0.000543   0.001780  -0.000028  -0.000046
     9  O    0.009580  -0.226667   0.023667   0.042494  -0.006449  -0.008536
    10  H    0.350448  -0.027653   0.002034  -0.001033  -0.000053  -0.000007
    11  H    0.300100  -0.066306   0.009007  -0.001168   0.000020   0.000041
    12  H    0.336197  -0.000898  -0.002971  -0.000171   0.000005   0.000059
    13  H   -0.023777   0.375912  -0.030559  -0.010791   0.000556   0.012446
    14  H   -0.002345  -0.046741   0.384406   0.004975  -0.000284   0.001227
    15  H   -0.001356  -0.025465   0.392993  -0.049522   0.010356   0.006227
    16  H    0.000043   0.000350   0.013988  -0.015702   0.001718   0.286298
               7          8          9         10         11         12
     1  N   -0.005153  -0.045871   0.009580   0.350448   0.300100   0.336197
     2  C   -0.058577  -0.238049  -0.226667  -0.027653  -0.066306  -0.000898
     3  C   -0.056139   0.000543   0.023667   0.002034   0.009007  -0.002971
     4  C    0.036934   0.001780   0.042494  -0.001033  -0.001168  -0.000171
     5  O    0.003344  -0.000028  -0.006449  -0.000053   0.000020   0.000005
     6  O    0.000687  -0.000046  -0.008536  -0.000007   0.000041   0.000059
     7  C    4.816782   0.497526   0.579210   0.001738  -0.011680   0.002294
     8  O    0.497526   8.251271  -0.098961   0.002330   0.101628   0.001744
     9  O    0.579210  -0.098961   8.128797   0.000012   0.004462  -0.000181
    10  H    0.001738   0.002330   0.000012   0.356268  -0.005517  -0.010440
    11  H   -0.011680   0.101628   0.004462  -0.005517   0.376373  -0.004982
    12  H    0.002294   0.001744  -0.000181  -0.010440  -0.004982   0.353608
    13  H    0.000183   0.002236   0.002070   0.002807   0.002474  -0.004588
    14  H    0.006602  -0.000535   0.000378  -0.001154  -0.000338   0.000226
    15  H    0.002760   0.002387  -0.003780   0.002625   0.000406  -0.000006
    16  H   -0.000329   0.000004   0.000058   0.000003  -0.000001  -0.000003
              13         14         15         16
     1  N   -0.023777  -0.002345  -0.001356   0.000043
     2  C    0.375912  -0.046741  -0.025465   0.000350
     3  C   -0.030559   0.384406   0.392993   0.013988
     4  C   -0.010791   0.004975  -0.049522  -0.015702
     5  O    0.000556  -0.000284   0.010356   0.001718
     6  O    0.012446   0.001227   0.006227   0.286298
     7  C    0.000183   0.006602   0.002760  -0.000329
     8  O    0.002236  -0.000535   0.002387   0.000004
     9  O    0.002070   0.000378  -0.003780   0.000058
    10  H    0.002807  -0.001154   0.002625   0.000003
    11  H    0.002474  -0.000338   0.000406  -0.000001
    12  H   -0.004588   0.000226  -0.000006  -0.000003
    13  H    0.432916  -0.001632   0.005270  -0.000355
    14  H   -0.001632   0.446914  -0.013410  -0.000307
    15  H    0.005270  -0.013410   0.486611  -0.000451
    16  H   -0.000355  -0.000307  -0.000451   0.379159
 Mulliken charges:
               1
     1  N   -0.266913
     2  C   -0.168686
     3  C   -0.304508
     4  C    0.177564
     5  O   -0.353470
     6  O   -0.273608
     7  C    0.183819
     8  O   -0.477959
     9  O   -0.446152
    10  H    0.327592
    11  H    0.295481
    12  H    0.330107
    13  H    0.234834
    14  H    0.222017
    15  H    0.184354
    16  H    0.335527
 Sum of Mulliken charges =  -0.00000
 Mulliken charges with hydrogens summed into heavy atoms:
               1
     1  N    0.686268
     2  C    0.066148
     3  C    0.101864
     4  C    0.177564
     5  O   -0.353470
     6  O    0.061919
     7  C    0.183819
     8  O   -0.477959
     9  O   -0.446152
 Electronic spatial extent (au):  <R**2>=           1251.5065
 Charge=              0.0000 electrons
 Dipole moment (field-independent basis, Debye):
    X=              2.4065    Y=             13.5045    Z=             -2.0478  Tot=             13.8693
 Quadrupole moment (field-independent basis, Debye-Ang):
   XX=            -54.4568   YY=            -51.6419   ZZ=            -50.4679
   XY=             17.3568   XZ=              6.7591   YZ=              3.1132
 Traceless Quadrupole moment (field-independent basis, Debye-Ang):
   XX=             -2.2679   YY=              0.5469   ZZ=              1.7210
   XY=             17.3568   XZ=              6.7591   YZ=              3.1132
 Octapole moment (field-independent basis, Debye-Ang**2):
  XXX=             -7.7576  YYY=             54.1161  ZZZ=             -5.4593  XYY=             10.5436
  XXY=             43.7807  XXZ=            -30.6393  XZZ=              6.2915  YZZ=              6.4647
  YYZ=             -0.6290  XYZ=             -6.1669
 Hexadecapole moment (field-independent basis, Debye-Ang**3):
 XXXX=           -989.3417 YYYY=           -363.1980 ZZZZ=           -161.2110 XXXY=            107.6138
 XXXZ=             82.4956 YYYX=             71.8663 YYYZ=             -0.4069 ZZZX=             20.2715
 ZZZY=              4.8911 XXYY=           -201.0413 XXZZ=           -178.7475 YYZZ=            -81.7839
 XXYZ=             17.7414 YYXZ=             -1.0539 ZZXY=             17.9332
 N-N= 4.712807200413D+02 E-N=-2.146187002831D+03  KE= 5.103678964664D+02
 Unable to Open any file for archive entry.
 1\1\GINC-TCN1787\SP\RBP86\TZVP\C4H7N1O4\ELENAA\22-Feb-2021\0\\# BP86/T
 ZVP SCRF=COSMORS geom=CHECKPOINT guess=CHECKPOINT\\COSMO-file for #CKL
 JMWTZIZZHCS-UWTATZPHSA-N\\0,1\N,0,1.054102494,2.5045876014,-3.23922115
 03\C,0,1.190426418,1.600558367,-2.0363590986\C,0,0.8467048149,2.309932
 6034,-0.7260457234\C,0,0.8524236513,1.3832971793,0.475265822\O,0,1.364
 2301877,1.641566483,1.5511603247\O,0,0.1284140307,0.2548388346,0.24331
 93773\C,0,2.6760759193,1.0870005744,-2.090712101\O,0,3.2854237527,1.37
 60426582,-3.1743258436\O,0,3.0867636599,0.4567850235,-1.0936866368\H,0
 ,1.0374130229,3.5031284187,-2.9988588746\H,0,1.9907119791,2.2669666943
 ,-3.7265996499\H,0,0.2427150884,2.2958152652,-3.8307500355\H,0,0.52485
 94437,0.7420004356,-2.1916808751\H,0,-0.1671685445,2.7400620436,-0.786
 0660194\H,0,1.555008911,3.1230945474,-0.5189438126\H,0,0.151135171,-0.
 2855167297,1.0617142968\\Version=ES64L-G16RevC.01\State=1-A\HF=-512.56
 05117\RMSD=6.046e-09\Dipole=-4.3419091,2.3220009,-2.3517189\Quadrupole
 =-7.2794939,6.3008923,0.9786016,2.0259056,6.994755,-9.979981\PG=C01 [X
 (C4H7N1O4)]\\@
 The archive entry for this job was punched.


 STEINBACH'S GUIDELINES FOR SYSTEMS PROGRAMMING:
 NEVER TEST FOR AN ERROR CONDITION YOU DON'T KNOW HOW
 TO HANDLE.
 Job cpu time:       0 days  0 hours  4 minutes 49.5 seconds.
 Elapsed time:       0 days  0 hours  0 minutes  9.5 seconds.
 File lengths (MBytes):  RWF=     40 Int=      0 D2E=      0 Chk=      7 Scr=      1
 Normal termination of Gaussian 16 at Mon Feb 22 21:01:48 2021.
