 Entering Gaussian System, Link 0=g16
 Input=CZMRCDWAGMRECN-FBXJDJJESA-N.gjf
 Output=CZMRCDWAGMRECN-FBXJDJJESA-N.log
 Initial command:
 /sw/arch/RedHatEnterpriseServer7/EB_production/2019/software/Gaussian/g16.c01/l1.exe "/scratch-local/elenaa.9715193/Gau-13713.inp" -scrdir="/scratch-local/elenaa.9715193/"
 Entering Link 1 = /sw/arch/RedHatEnterpriseServer7/EB_production/2019/software/Gaussian/g16.c01/l1.exe PID=     13714.
  
 Copyright (c) 1988-2019, Gaussian, Inc.  All Rights Reserved.
  
 This is part of the Gaussian(R) 16 program.  It is based on
 the Gaussian(R) 09 system (copyright 2009, Gaussian, Inc.),
 the Gaussian(R) 03 system (copyright 2003, Gaussian, Inc.),
 the Gaussian(R) 98 system (copyright 1998, Gaussian, Inc.),
 the Gaussian(R) 94 system (copyright 1995, Gaussian, Inc.),
 the Gaussian 92(TM) system (copyright 1992, Gaussian, Inc.),
 the Gaussian 90(TM) system (copyright 1990, Gaussian, Inc.),
 the Gaussian 88(TM) system (copyright 1988, Gaussian, Inc.),
 the Gaussian 86(TM) system (copyright 1986, Carnegie Mellon
 University), and the Gaussian 82(TM) system (copyright 1983,
 Carnegie Mellon University). Gaussian is a federally registered
 trademark of Gaussian, Inc.
  
 This software contains proprietary and confidential information,
 including trade secrets, belonging to Gaussian, Inc.
  
 This software is provided under written license and may be
 used, copied, transmitted, or stored only in accord with that
 written license.
  
 The following legend is applicable only to US Government
 contracts under FAR:
  
                    RESTRICTED RIGHTS LEGEND
  
 Use, reproduction and disclosure by the US Government is
 subject to restrictions as set forth in subparagraphs (a)
 and (c) of the Commercial Computer Software - Restricted
 Rights clause in FAR 52.227-19.
  
 Gaussian, Inc.
 340 Quinnipiac St., Bldg. 40, Wallingford CT 06492
  
  
 ---------------------------------------------------------------
 Warning -- This program may not be used in any manner that
 competes with the business of Gaussian, Inc. or will provide
 assistance to any competitor of Gaussian, Inc.  The licensee
 of this program is prohibited from giving any competitor of
 Gaussian, Inc. access to this program.  By using this program,
 the user acknowledges that Gaussian, Inc. is engaged in the
 business of creating and licensing software in the field of
 computational chemistry and represents and warrants to the
 licensee that it is not a competitor of Gaussian, Inc. and that
 it will not use this program in any manner prohibited above.
 ---------------------------------------------------------------
  

 Cite this work as:
 Gaussian 16, Revision C.01,
 M. J. Frisch, G. W. Trucks, H. B. Schlegel, G. E. Scuseria, 
 M. A. Robb, J. R. Cheeseman, G. Scalmani, V. Barone, 
 G. A. Petersson, H. Nakatsuji, X. Li, M. Caricato, A. V. Marenich, 
 J. Bloino, B. G. Janesko, R. Gomperts, B. Mennucci, H. P. Hratchian, 
 J. V. Ortiz, A. F. Izmaylov, J. L. Sonnenberg, D. Williams-Young, 
 F. Ding, F. Lipparini, F. Egidi, J. Goings, B. Peng, A. Petrone, 
 T. Henderson, D. Ranasinghe, V. G. Zakrzewski, J. Gao, N. Rega, 
 G. Zheng, W. Liang, M. Hada, M. Ehara, K. Toyota, R. Fukuda, 
 J. Hasegawa, M. Ishida, T. Nakajima, Y. Honda, O. Kitao, H. Nakai, 
 T. Vreven, K. Throssell, J. A. Montgomery, Jr., J. E. Peralta, 
 F. Ogliaro, M. J. Bearpark, J. J. Heyd, E. N. Brothers, K. N. Kudin, 
 V. N. Staroverov, T. A. Keith, R. Kobayashi, J. Normand, 
 K. Raghavachari, A. P. Rendell, J. C. Burant, S. S. Iyengar, 
 J. Tomasi, M. Cossi, J. M. Millam, M. Klene, C. Adamo, R. Cammi, 
 J. W. Ochterski, R. L. Martin, K. Morokuma, O. Farkas, 
 J. B. Foresman, and D. J. Fox, Gaussian, Inc., Wallingford CT, 2019.
 
 ******************************************
 Gaussian 16:  ES64L-G16RevC.01  3-Jul-2019
                22-Feb-2021 
 ******************************************
 %chk=CZMRCDWAGMRECN-FBXJDJJESA-N.chk
 %NProcShared=32
 Will use up to   32 processors via shared memory.
 -------------------------------------------------------------
 #P BP86/TZVP EmpiricalDispersion=GD3 SCRF=(Solvent=Water) Opt
 -------------------------------------------------------------
 1/18=20,19=15,26=3,38=1/1,3;
 2/9=110,12=2,17=6,18=5,40=1/2;
 3/5=19,7=101,11=2,25=1,30=1,70=2201,71=1,72=1,74=404,124=31/1,2,3;
 4//1;
 5/5=2,38=5,53=1/2;
 6/7=2,8=2,9=2,10=2,28=1/1;
 7//1,2,3,16;
 1/18=20,19=15,26=3/3(2);
 2/9=110/2;
 99//99;
 2/9=110/2;
 3/5=19,7=101,11=2,25=1,30=1,70=2205,71=1,72=1,74=404,124=31/1,2,3;
 4/5=5,16=3,69=1/1;
 5/5=2,38=5,53=1/2;
 7//1,2,3,16;
 1/18=20,19=15,26=3/3(-5);
 2/9=110/2;
 6/7=2,8=2,9=2,10=2,19=2,28=1/1;
 99/9=1/99;
 Leave Link    1 at Mon Feb 22 20:57:35 2021, MaxMem=           0 cpu:               1.6 elap:               0.1
 (Enter /sw/arch/RedHatEnterpriseServer7/EB_production/2019/software/Gaussian/g16.c01/l101.exe)
 -------------------------------------
 Particle #CZMRCDWAGMRECN-FBXJDJJESA-N
 -------------------------------------
 Symbolic Z-matrix:
 Charge =  0 Multiplicity = 1
 O                     0.62053  -1.04338  -0.09934 
 C                     0.49954   0.13622   0.69025 
 C                    -0.45386  -0.0744    1.89282 
 O                     0.12412  -1.08681   2.75087 
 C                    -0.61278  -1.37709   3.96247 
 O                    -0.64231  -0.28266   4.90904 
 C                     0.59403   0.29571   5.41213 
 C                     1.48998  -0.75022   6.15341 
 O                     2.16189  -1.6254    5.25622 
 O                     1.35363   0.89064   4.34058 
 C                     1.63836   2.27428   4.61048 
 C                     0.8607    3.19458   3.63537 
 O                     1.29003   2.99493   2.29544 
 C                     1.29279   2.5247    6.09482 
 O                     2.43799   2.31695   6.9217 
 C                     0.20819   1.47088   6.36196 
 O                    -1.07669   2.02631   6.0662 
 C                    -2.06124  -1.82726   3.6231 
 O                    -2.81747  -2.04819   4.81398 
 C                    -2.76803  -0.79303   2.70703 
 O                    -4.03464  -1.29511   2.28709 
 C                    -1.89909  -0.46349   1.46312 
 O                    -2.50197   0.58551   0.70602 
 H                     1.23105  -0.79482  -0.82396 
 H                     1.49404   0.40679   1.05353 
 H                     0.135     0.9484    0.05436 
 H                    -0.50133   0.87455   2.43215 
 H                    -0.13434  -2.23542   4.4332 
 H                     0.8785   -1.34826   6.83126 
 H                     2.26774  -0.25928   6.74099 
 H                     2.68646  -2.2149    5.83759 
 H                     2.70556   2.44268   4.44532 
 H                     1.03466   4.24141   3.89143 
 H                    -0.21113   2.99555   3.69205 
 H                     0.72554   3.59237   1.75947 
 H                     0.93184   3.54278   6.27819 
 H                     3.07245   3.01441   6.65294 
 H                     0.19558   1.17645   7.41616 
 H                    -1.72054   1.31875   6.28153 
 H                    -2.01422  -2.78427   3.09533 
 H                    -2.87237  -1.17545   5.25622 
 H                    -2.94626   0.12565   3.27355 
 H                    -3.8306   -2.11675   1.79248 
 H                    -1.85401  -1.35075   0.82486 
 H                    -2.53878   1.35299   1.31505 
 
 ITRead=  0  0  0  0  0  0  0  0  0  0  0  0  0  0  0  0  0  0  0  0
 ITRead=  0  0  0  0  0  0  0  0  0  0  0  0  0  0  0  0  0  0  0  0
 ITRead=  0  0  0  0  0
 MicOpt= -1 -1 -1 -1 -1 -1 -1 -1 -1 -1 -1 -1 -1 -1 -1 -1 -1 -1 -1 -1
 MicOpt= -1 -1 -1 -1 -1 -1 -1 -1 -1 -1 -1 -1 -1 -1 -1 -1 -1 -1 -1 -1
 MicOpt= -1 -1 -1 -1 -1
 NAtoms=     45 NQM=       45 NQMF=       0 NMMI=      0 NMMIF=      0
                NMic=       0 NMicF=      0.
                    Isotopes and Nuclear Properties:
 (Nuclear quadrupole moments (NQMom) in fm**2, nuclear magnetic moments (NMagM)
  in nuclear magnetons)

  Atom         1           2           3           4           5           6           7           8           9          10
 IAtWgt=          16          12          12          16          12          16          12          12          16          16
 AtmWgt=  15.9949146  12.0000000  12.0000000  15.9949146  12.0000000  15.9949146  12.0000000  12.0000000  15.9949146  15.9949146
 NucSpn=           0           0           0           0           0           0           0           0           0           0
 AtZEff=  -0.0000000  -0.0000000  -0.0000000  -0.0000000  -0.0000000  -0.0000000  -0.0000000  -0.0000000  -0.0000000  -0.0000000
 NQMom=    0.0000000   0.0000000   0.0000000   0.0000000   0.0000000   0.0000000   0.0000000   0.0000000   0.0000000   0.0000000
 NMagM=    0.0000000   0.0000000   0.0000000   0.0000000   0.0000000   0.0000000   0.0000000   0.0000000   0.0000000   0.0000000
 AtZNuc=   8.0000000   6.0000000   6.0000000   8.0000000   6.0000000   8.0000000   6.0000000   6.0000000   8.0000000   8.0000000

  Atom        11          12          13          14          15          16          17          18          19          20
 IAtWgt=          12          12          16          12          16          12          16          12          16          12
 AtmWgt=  12.0000000  12.0000000  15.9949146  12.0000000  15.9949146  12.0000000  15.9949146  12.0000000  15.9949146  12.0000000
 NucSpn=           0           0           0           0           0           0           0           0           0           0
 AtZEff=  -0.0000000  -0.0000000  -0.0000000  -0.0000000  -0.0000000  -0.0000000  -0.0000000  -0.0000000  -0.0000000  -0.0000000
 NQMom=    0.0000000   0.0000000   0.0000000   0.0000000   0.0000000   0.0000000   0.0000000   0.0000000   0.0000000   0.0000000
 NMagM=    0.0000000   0.0000000   0.0000000   0.0000000   0.0000000   0.0000000   0.0000000   0.0000000   0.0000000   0.0000000
 AtZNuc=   6.0000000   6.0000000   8.0000000   6.0000000   8.0000000   6.0000000   8.0000000   6.0000000   8.0000000   6.0000000

  Atom        21          22          23          24          25          26          27          28          29          30
 IAtWgt=          16          12          16           1           1           1           1           1           1           1
 AtmWgt=  15.9949146  12.0000000  15.9949146   1.0078250   1.0078250   1.0078250   1.0078250   1.0078250   1.0078250   1.0078250
 NucSpn=           0           0           0           1           1           1           1           1           1           1
 AtZEff=  -0.0000000  -0.0000000  -0.0000000  -0.0000000  -0.0000000  -0.0000000  -0.0000000  -0.0000000  -0.0000000  -0.0000000
 NQMom=    0.0000000   0.0000000   0.0000000   0.0000000   0.0000000   0.0000000   0.0000000   0.0000000   0.0000000   0.0000000
 NMagM=    0.0000000   0.0000000   0.0000000   2.7928460   2.7928460   2.7928460   2.7928460   2.7928460   2.7928460   2.7928460
 AtZNuc=   8.0000000   6.0000000   8.0000000   1.0000000   1.0000000   1.0000000   1.0000000   1.0000000   1.0000000   1.0000000

  Atom        31          32          33          34          35          36          37          38          39          40
 IAtWgt=           1           1           1           1           1           1           1           1           1           1
 AtmWgt=   1.0078250   1.0078250   1.0078250   1.0078250   1.0078250   1.0078250   1.0078250   1.0078250   1.0078250   1.0078250
 NucSpn=           1           1           1           1           1           1           1           1           1           1
 AtZEff=  -0.0000000  -0.0000000  -0.0000000  -0.0000000  -0.0000000  -0.0000000  -0.0000000  -0.0000000  -0.0000000  -0.0000000
 NQMom=    0.0000000   0.0000000   0.0000000   0.0000000   0.0000000   0.0000000   0.0000000   0.0000000   0.0000000   0.0000000
 NMagM=    2.7928460   2.7928460   2.7928460   2.7928460   2.7928460   2.7928460   2.7928460   2.7928460   2.7928460   2.7928460
 AtZNuc=   1.0000000   1.0000000   1.0000000   1.0000000   1.0000000   1.0000000   1.0000000   1.0000000   1.0000000   1.0000000

  Atom        41          42          43          44          45
 IAtWgt=           1           1           1           1           1
 AtmWgt=   1.0078250   1.0078250   1.0078250   1.0078250   1.0078250
 NucSpn=           1           1           1           1           1
 AtZEff=  -0.0000000  -0.0000000  -0.0000000  -0.0000000  -0.0000000
 NQMom=    0.0000000   0.0000000   0.0000000   0.0000000   0.0000000
 NMagM=    2.7928460   2.7928460   2.7928460   2.7928460   2.7928460
 AtZNuc=   1.0000000   1.0000000   1.0000000   1.0000000   1.0000000
 Leave Link  101 at Mon Feb 22 20:57:35 2021, MaxMem=   104857600 cpu:               3.2 elap:               0.1
 (Enter /sw/arch/RedHatEnterpriseServer7/EB_production/2019/software/Gaussian/g16.c01/l103.exe)

 GradGradGradGradGradGradGradGradGradGradGradGradGradGradGradGradGradGrad
 Berny optimization.
 Initialization pass.
                           ----------------------------
                           !    Initial Parameters    !
                           ! (Angstroms and Degrees)  !
 --------------------------                            --------------------------
 ! Name  Definition              Value          Derivative Info.                !
 --------------------------------------------------------------------------------
 ! R1    R(1,2)                  1.4246         estimate D2E/DX2                !
 ! R2    R(1,24)                 0.9796         estimate D2E/DX2                !
 ! R3    R(2,3)                  1.549          estimate D2E/DX2                !
 ! R4    R(2,25)                 1.0928         estimate D2E/DX2                !
 ! R5    R(2,26)                 1.094          estimate D2E/DX2                !
 ! R6    R(3,4)                  1.4475         estimate D2E/DX2                !
 ! R7    R(3,22)                 1.5572         estimate D2E/DX2                !
 ! R8    R(3,27)                 1.0925         estimate D2E/DX2                !
 ! R9    R(4,5)                  1.4475         estimate D2E/DX2                !
 ! R10   R(5,6)                  1.4473         estimate D2E/DX2                !
 ! R11   R(5,18)                 1.5543         estimate D2E/DX2                !
 ! R12   R(5,28)                 1.0896         estimate D2E/DX2                !
 ! R13   R(6,7)                  1.4547         estimate D2E/DX2                !
 ! R14   R(7,8)                  1.564          estimate D2E/DX2                !
 ! R15   R(7,10)                 1.4419         estimate D2E/DX2                !
 ! R16   R(7,16)                 1.5595         estimate D2E/DX2                !
 ! R17   R(8,9)                  1.4221         estimate D2E/DX2                !
 ! R18   R(8,29)                 1.0913         estimate D2E/DX2                !
 ! R19   R(8,30)                 1.0914         estimate D2E/DX2                !
 ! R20   R(9,31)                 0.9801         estimate D2E/DX2                !
 ! R21   R(10,11)                1.4382         estimate D2E/DX2                !
 ! R22   R(11,12)                1.55           estimate D2E/DX2                !
 ! R23   R(11,14)                1.5445         estimate D2E/DX2                !
 ! R24   R(11,32)                1.093          estimate D2E/DX2                !
 ! R25   R(12,13)                1.4211         estimate D2E/DX2                !
 ! R26   R(12,33)                1.0916         estimate D2E/DX2                !
 ! R27   R(12,34)                1.0916         estimate D2E/DX2                !
 ! R28   R(13,35)                0.9812         estimate D2E/DX2                !
 ! R29   R(14,15)                1.4277         estimate D2E/DX2                !
 ! R30   R(14,16)                1.5357         estimate D2E/DX2                !
 ! R31   R(14,36)                1.0956         estimate D2E/DX2                !
 ! R32   R(15,37)                0.9804         estimate D2E/DX2                !
 ! R33   R(16,17)                1.4307         estimate D2E/DX2                !
 ! R34   R(16,38)                1.0946         estimate D2E/DX2                !
 ! R35   R(17,39)                0.9806         estimate D2E/DX2                !
 ! R36   R(18,19)                1.4279         estimate D2E/DX2                !
 ! R37   R(18,20)                1.5519         estimate D2E/DX2                !
 ! R38   R(18,40)                1.0939         estimate D2E/DX2                !
 ! R39   R(19,41)                0.9799         estimate D2E/DX2                !
 ! R40   R(20,21)                1.4257         estimate D2E/DX2                !
 ! R41   R(20,22)                1.5527         estimate D2E/DX2                !
 ! R42   R(20,42)                1.0939         estimate D2E/DX2                !
 ! R43   R(21,43)                0.9805         estimate D2E/DX2                !
 ! R44   R(22,23)                1.4273         estimate D2E/DX2                !
 ! R45   R(22,44)                1.0939         estimate D2E/DX2                !
 ! R46   R(23,45)                0.9805         estimate D2E/DX2                !
 ! A1    A(2,1,24)             104.6443         estimate D2E/DX2                !
 ! A2    A(1,2,3)              111.7137         estimate D2E/DX2                !
 ! A3    A(1,2,25)             108.178          estimate D2E/DX2                !
 ! A4    A(1,2,26)             108.7141         estimate D2E/DX2                !
 ! A5    A(3,2,25)             109.6153         estimate D2E/DX2                !
 ! A6    A(3,2,26)             110.3096         estimate D2E/DX2                !
 ! A7    A(25,2,26)            108.2191         estimate D2E/DX2                !
 ! A8    A(2,3,4)              108.0312         estimate D2E/DX2                !
 ! A9    A(2,3,22)             113.0158         estimate D2E/DX2                !
 ! A10   A(2,3,27)             106.9706         estimate D2E/DX2                !
 ! A11   A(4,3,22)             111.0637         estimate D2E/DX2                !
 ! A12   A(4,3,27)             109.4035         estimate D2E/DX2                !
 ! A13   A(22,3,27)            108.2359         estimate D2E/DX2                !
 ! A14   A(3,4,5)              115.6681         estimate D2E/DX2                !
 ! A15   A(4,5,6)              113.9653         estimate D2E/DX2                !
 ! A16   A(4,5,18)             110.4714         estimate D2E/DX2                !
 ! A17   A(4,5,28)             107.2206         estimate D2E/DX2                !
 ! A18   A(6,5,18)             110.0477         estimate D2E/DX2                !
 ! A19   A(6,5,28)             108.7897         estimate D2E/DX2                !
 ! A20   A(18,5,28)            105.9841         estimate D2E/DX2                !
 ! A21   A(5,6,7)              120.6306         estimate D2E/DX2                !
 ! A22   A(6,7,8)              112.6368         estimate D2E/DX2                !
 ! A23   A(6,7,10)             110.7786         estimate D2E/DX2                !
 ! A24   A(6,7,16)             107.4554         estimate D2E/DX2                !
 ! A25   A(8,7,10)             109.0479         estimate D2E/DX2                !
 ! A26   A(8,7,16)             110.9156         estimate D2E/DX2                !
 ! A27   A(10,7,16)            105.7855         estimate D2E/DX2                !
 ! A28   A(7,8,9)              112.5318         estimate D2E/DX2                !
 ! A29   A(7,8,29)             109.8691         estimate D2E/DX2                !
 ! A30   A(7,8,30)             111.258          estimate D2E/DX2                !
 ! A31   A(9,8,29)             108.6235         estimate D2E/DX2                !
 ! A32   A(9,8,30)             106.2472         estimate D2E/DX2                !
 ! A33   A(29,8,30)            108.1428         estimate D2E/DX2                !
 ! A34   A(8,9,31)             104.4062         estimate D2E/DX2                !
 ! A35   A(7,10,11)            111.2094         estimate D2E/DX2                !
 ! A36   A(10,11,12)           110.7217         estimate D2E/DX2                !
 ! A37   A(10,11,14)           106.9809         estimate D2E/DX2                !
 ! A38   A(10,11,32)           108.2515         estimate D2E/DX2                !
 ! A39   A(12,11,14)           113.3333         estimate D2E/DX2                !
 ! A40   A(12,11,32)           107.6584         estimate D2E/DX2                !
 ! A41   A(14,11,32)           109.799          estimate D2E/DX2                !
 ! A42   A(11,12,13)           110.988          estimate D2E/DX2                !
 ! A43   A(11,12,33)           109.9896         estimate D2E/DX2                !
 ! A44   A(11,12,34)           110.5911         estimate D2E/DX2                !
 ! A45   A(13,12,33)           107.9231         estimate D2E/DX2                !
 ! A46   A(13,12,34)           108.6611         estimate D2E/DX2                !
 ! A47   A(33,12,34)           108.6102         estimate D2E/DX2                !
 ! A48   A(12,13,35)           104.8135         estimate D2E/DX2                !
 ! A49   A(11,14,15)           110.7045         estimate D2E/DX2                !
 ! A50   A(11,14,16)           102.3537         estimate D2E/DX2                !
 ! A51   A(11,14,36)           112.6577         estimate D2E/DX2                !
 ! A52   A(15,14,16)           111.4638         estimate D2E/DX2                !
 ! A53   A(15,14,36)           107.61           estimate D2E/DX2                !
 ! A54   A(16,14,36)           112.0779         estimate D2E/DX2                !
 ! A55   A(14,15,37)           104.8801         estimate D2E/DX2                !
 ! A56   A(7,16,14)            103.6753         estimate D2E/DX2                !
 ! A57   A(7,16,17)            112.882          estimate D2E/DX2                !
 ! A58   A(7,16,38)            112.7511         estimate D2E/DX2                !
 ! A59   A(14,16,17)           109.3853         estimate D2E/DX2                !
 ! A60   A(14,16,38)           111.1158         estimate D2E/DX2                !
 ! A61   A(17,16,38)           107.0478         estimate D2E/DX2                !
 ! A62   A(16,17,39)           105.3165         estimate D2E/DX2                !
 ! A63   A(5,18,19)            110.8706         estimate D2E/DX2                !
 ! A64   A(5,18,20)            111.1181         estimate D2E/DX2                !
 ! A65   A(5,18,40)            108.5825         estimate D2E/DX2                !
 ! A66   A(19,18,20)           110.7455         estimate D2E/DX2                !
 ! A67   A(19,18,40)           106.845          estimate D2E/DX2                !
 ! A68   A(20,18,40)           108.5308         estimate D2E/DX2                !
 ! A69   A(18,19,41)           105.5606         estimate D2E/DX2                !
 ! A70   A(18,20,21)           110.1076         estimate D2E/DX2                !
 ! A71   A(18,20,22)           111.0668         estimate D2E/DX2                !
 ! A72   A(18,20,42)           109.1579         estimate D2E/DX2                !
 ! A73   A(21,20,22)           109.6296         estimate D2E/DX2                !
 ! A74   A(21,20,42)           107.6699         estimate D2E/DX2                !
 ! A75   A(22,20,42)           109.1366         estimate D2E/DX2                !
 ! A76   A(20,21,43)           104.9994         estimate D2E/DX2                !
 ! A77   A(3,22,20)            110.5705         estimate D2E/DX2                !
 ! A78   A(3,22,23)            110.7796         estimate D2E/DX2                !
 ! A79   A(3,22,44)            108.9917         estimate D2E/DX2                !
 ! A80   A(20,22,23)           110.1547         estimate D2E/DX2                !
 ! A81   A(20,22,44)           108.5628         estimate D2E/DX2                !
 ! A82   A(23,22,44)           107.7001         estimate D2E/DX2                !
 ! A83   A(22,23,45)           105.1696         estimate D2E/DX2                !
 ! D1    D(24,1,2,3)           179.5058         estimate D2E/DX2                !
 ! D2    D(24,1,2,25)          -59.7581         estimate D2E/DX2                !
 ! D3    D(24,1,2,26)           57.5437         estimate D2E/DX2                !
 ! D4    D(1,2,3,4)             63.1495         estimate D2E/DX2                !
 ! D5    D(1,2,3,22)           -60.1449         estimate D2E/DX2                !
 ! D6    D(1,2,3,27)          -179.1646         estimate D2E/DX2                !
 ! D7    D(25,2,3,4)           -56.745          estimate D2E/DX2                !
 ! D8    D(25,2,3,22)          179.9606         estimate D2E/DX2                !
 ! D9    D(25,2,3,27)           60.9409         estimate D2E/DX2                !
 ! D10   D(26,2,3,4)          -175.811          estimate D2E/DX2                !
 ! D11   D(26,2,3,22)           60.8946         estimate D2E/DX2                !
 ! D12   D(26,2,3,27)          -58.1251         estimate D2E/DX2                !
 ! D13   D(2,3,4,5)            177.6566         estimate D2E/DX2                !
 ! D14   D(22,3,4,5)           -57.8722         estimate D2E/DX2                !
 ! D15   D(27,3,4,5)            61.5465         estimate D2E/DX2                !
 ! D16   D(2,3,22,20)          174.5716         estimate D2E/DX2                !
 ! D17   D(2,3,22,23)          -63.0145         estimate D2E/DX2                !
 ! D18   D(2,3,22,44)           55.3125         estimate D2E/DX2                !
 ! D19   D(4,3,22,20)           52.971          estimate D2E/DX2                !
 ! D20   D(4,3,22,23)          175.3849         estimate D2E/DX2                !
 ! D21   D(4,3,22,44)          -66.2881         estimate D2E/DX2                !
 ! D22   D(27,3,22,20)         -67.1434         estimate D2E/DX2                !
 ! D23   D(27,3,22,23)          55.2704         estimate D2E/DX2                !
 ! D24   D(27,3,22,44)         173.5975         estimate D2E/DX2                !
 ! D25   D(3,4,5,6)            -66.7372         estimate D2E/DX2                !
 ! D26   D(3,4,5,18)            57.7605         estimate D2E/DX2                !
 ! D27   D(3,4,5,28)           172.8122         estimate D2E/DX2                !
 ! D28   D(4,5,6,7)            -56.8583         estimate D2E/DX2                !
 ! D29   D(18,5,6,7)           178.4174         estimate D2E/DX2                !
 ! D30   D(28,5,6,7)            62.7093         estimate D2E/DX2                !
 ! D31   D(4,5,18,19)         -176.9494         estimate D2E/DX2                !
 ! D32   D(4,5,18,20)          -53.332          estimate D2E/DX2                !
 ! D33   D(4,5,18,40)           65.9616         estimate D2E/DX2                !
 ! D34   D(6,5,18,19)          -50.24           estimate D2E/DX2                !
 ! D35   D(6,5,18,20)           73.3774         estimate D2E/DX2                !
 ! D36   D(6,5,18,40)         -167.329          estimate D2E/DX2                !
 ! D37   D(28,5,18,19)          67.2238         estimate D2E/DX2                !
 ! D38   D(28,5,18,20)        -169.1588         estimate D2E/DX2                !
 ! D39   D(28,5,18,40)         -49.8652         estimate D2E/DX2                !
 ! D40   D(5,6,7,8)            -59.4642         estimate D2E/DX2                !
 ! D41   D(5,6,7,10)            62.9765         estimate D2E/DX2                !
 ! D42   D(5,6,7,16)           178.0841         estimate D2E/DX2                !
 ! D43   D(6,7,8,9)             75.8227         estimate D2E/DX2                !
 ! D44   D(6,7,8,29)           -45.3452         estimate D2E/DX2                !
 ! D45   D(6,7,8,30)          -165.0719         estimate D2E/DX2                !
 ! D46   D(10,7,8,9)           -47.5863         estimate D2E/DX2                !
 ! D47   D(10,7,8,29)         -168.7542         estimate D2E/DX2                !
 ! D48   D(10,7,8,30)           71.5191         estimate D2E/DX2                !
 ! D49   D(16,7,8,9)          -163.6932         estimate D2E/DX2                !
 ! D50   D(16,7,8,29)           75.1389         estimate D2E/DX2                !
 ! D51   D(16,7,8,30)          -44.5878         estimate D2E/DX2                !
 ! D52   D(6,7,10,11)          123.9937         estimate D2E/DX2                !
 ! D53   D(8,7,10,11)         -111.4988         estimate D2E/DX2                !
 ! D54   D(16,7,10,11)           7.847          estimate D2E/DX2                !
 ! D55   D(6,7,16,14)         -143.1809         estimate D2E/DX2                !
 ! D56   D(6,7,16,17)          -24.9209         estimate D2E/DX2                !
 ! D57   D(6,7,16,38)           96.5487         estimate D2E/DX2                !
 ! D58   D(8,7,16,14)           93.3079         estimate D2E/DX2                !
 ! D59   D(8,7,16,17)         -148.4322         estimate D2E/DX2                !
 ! D60   D(8,7,16,38)          -26.9626         estimate D2E/DX2                !
 ! D61   D(10,7,16,14)         -24.7987         estimate D2E/DX2                !
 ! D62   D(10,7,16,17)          93.4612         estimate D2E/DX2                !
 ! D63   D(10,7,16,38)        -145.0692         estimate D2E/DX2                !
 ! D64   D(7,8,9,31)           179.477          estimate D2E/DX2                !
 ! D65   D(29,8,9,31)          -58.646          estimate D2E/DX2                !
 ! D66   D(30,8,9,31)           57.4877         estimate D2E/DX2                !
 ! D67   D(7,10,11,12)        -111.5422         estimate D2E/DX2                !
 ! D68   D(7,10,11,14)          12.396          estimate D2E/DX2                !
 ! D69   D(7,10,11,32)         130.666          estimate D2E/DX2                !
 ! D70   D(10,11,12,13)        -64.2761         estimate D2E/DX2                !
 ! D71   D(10,11,12,33)        176.3645         estimate D2E/DX2                !
 ! D72   D(10,11,12,34)         56.4025         estimate D2E/DX2                !
 ! D73   D(14,11,12,13)        175.5088         estimate D2E/DX2                !
 ! D74   D(14,11,12,33)         56.1494         estimate D2E/DX2                !
 ! D75   D(14,11,12,34)        -63.8127         estimate D2E/DX2                !
 ! D76   D(32,11,12,13)         53.8775         estimate D2E/DX2                !
 ! D77   D(32,11,12,33)        -65.4819         estimate D2E/DX2                !
 ! D78   D(32,11,12,34)        174.556          estimate D2E/DX2                !
 ! D79   D(10,11,14,15)         91.5529         estimate D2E/DX2                !
 ! D80   D(10,11,14,16)        -27.3436         estimate D2E/DX2                !
 ! D81   D(10,11,14,36)       -147.8998         estimate D2E/DX2                !
 ! D82   D(12,11,14,15)       -146.1282         estimate D2E/DX2                !
 ! D83   D(12,11,14,16)         94.9754         estimate D2E/DX2                !
 ! D84   D(12,11,14,36)        -25.5808         estimate D2E/DX2                !
 ! D85   D(32,11,14,15)        -25.7034         estimate D2E/DX2                !
 ! D86   D(32,11,14,16)       -144.5999         estimate D2E/DX2                !
 ! D87   D(32,11,14,36)         94.8439         estimate D2E/DX2                !
 ! D88   D(11,12,13,35)        178.1821         estimate D2E/DX2                !
 ! D89   D(33,12,13,35)        -61.2278         estimate D2E/DX2                !
 ! D90   D(34,12,13,35)         56.3692         estimate D2E/DX2                !
 ! D91   D(11,14,15,37)         64.8862         estimate D2E/DX2                !
 ! D92   D(16,14,15,37)        178.1127         estimate D2E/DX2                !
 ! D93   D(36,14,15,37)        -58.6208         estimate D2E/DX2                !
 ! D94   D(11,14,16,7)          31.0141         estimate D2E/DX2                !
 ! D95   D(11,14,16,17)        -89.6393         estimate D2E/DX2                !
 ! D96   D(11,14,16,38)        152.3883         estimate D2E/DX2                !
 ! D97   D(15,14,16,7)         -87.3461         estimate D2E/DX2                !
 ! D98   D(15,14,16,17)        152.0004         estimate D2E/DX2                !
 ! D99   D(15,14,16,38)         34.0281         estimate D2E/DX2                !
 ! D100  D(36,14,16,7)         151.9713         estimate D2E/DX2                !
 ! D101  D(36,14,16,17)         31.3178         estimate D2E/DX2                !
 ! D102  D(36,14,16,38)        -86.6545         estimate D2E/DX2                !
 ! D103  D(7,16,17,39)          66.7857         estimate D2E/DX2                !
 ! D104  D(14,16,17,39)       -178.3457         estimate D2E/DX2                !
 ! D105  D(38,16,17,39)        -57.8579         estimate D2E/DX2                !
 ! D106  D(5,18,19,41)          63.6277         estimate D2E/DX2                !
 ! D107  D(20,18,19,41)        -60.2032         estimate D2E/DX2                !
 ! D108  D(40,18,19,41)       -178.2226         estimate D2E/DX2                !
 ! D109  D(5,18,20,21)         173.4895         estimate D2E/DX2                !
 ! D110  D(5,18,20,22)          51.8623         estimate D2E/DX2                !
 ! D111  D(5,18,20,42)         -68.517          estimate D2E/DX2                !
 ! D112  D(19,18,20,21)        -62.8217         estimate D2E/DX2                !
 ! D113  D(19,18,20,22)        175.5512         estimate D2E/DX2                !
 ! D114  D(19,18,20,42)         55.1718         estimate D2E/DX2                !
 ! D115  D(40,18,20,21)         54.165          estimate D2E/DX2                !
 ! D116  D(40,18,20,22)        -67.4621         estimate D2E/DX2                !
 ! D117  D(40,18,20,42)        172.1585         estimate D2E/DX2                !
 ! D118  D(18,20,21,43)        -60.6607         estimate D2E/DX2                !
 ! D119  D(22,20,21,43)         61.8178         estimate D2E/DX2                !
 ! D120  D(42,20,21,43)       -179.5685         estimate D2E/DX2                !
 ! D121  D(18,20,22,3)         -51.374          estimate D2E/DX2                !
 ! D122  D(18,20,22,23)       -174.1526         estimate D2E/DX2                !
 ! D123  D(18,20,22,44)         68.144          estimate D2E/DX2                !
 ! D124  D(21,20,22,3)        -173.2801         estimate D2E/DX2                !
 ! D125  D(21,20,22,23)         63.9413         estimate D2E/DX2                !
 ! D126  D(21,20,22,44)        -53.7621         estimate D2E/DX2                !
 ! D127  D(42,20,22,3)          69.0179         estimate D2E/DX2                !
 ! D128  D(42,20,22,23)        -53.7607         estimate D2E/DX2                !
 ! D129  D(42,20,22,44)       -171.4641         estimate D2E/DX2                !
 ! D130  D(3,22,23,45)         -61.9022         estimate D2E/DX2                !
 ! D131  D(20,22,23,45)         60.7536         estimate D2E/DX2                !
 ! D132  D(44,22,23,45)        178.9891         estimate D2E/DX2                !
 --------------------------------------------------------------------------------
 Trust Radius=3.00D-01 FncErr=1.00D-07 GrdErr=1.00D-06 EigMax=2.50D+02 EigMin=1.00D-04
 Number of steps in this run=    270 maximum allowed number of steps=    270.
 GradGradGradGradGradGradGradGradGradGradGradGradGradGradGradGradGradGrad

 Leave Link  103 at Mon Feb 22 20:57:36 2021, MaxMem=   104857600 cpu:               0.5 elap:               0.0
 (Enter /sw/arch/RedHatEnterpriseServer7/EB_production/2019/software/Gaussian/g16.c01/l202.exe)
                          Input orientation:                          
 ---------------------------------------------------------------------
 Center     Atomic      Atomic             Coordinates (Angstroms)
 Number     Number       Type             X           Y           Z
 ---------------------------------------------------------------------
      1          8           0        0.620530   -1.043380   -0.099340
      2          6           0        0.499540    0.136220    0.690250
      3          6           0       -0.453860   -0.074400    1.892820
      4          8           0        0.124120   -1.086810    2.750870
      5          6           0       -0.612780   -1.377090    3.962470
      6          8           0       -0.642310   -0.282660    4.909040
      7          6           0        0.594030    0.295710    5.412130
      8          6           0        1.489980   -0.750220    6.153410
      9          8           0        2.161890   -1.625400    5.256220
     10          8           0        1.353630    0.890640    4.340580
     11          6           0        1.638360    2.274280    4.610480
     12          6           0        0.860700    3.194580    3.635370
     13          8           0        1.290030    2.994930    2.295440
     14          6           0        1.292790    2.524700    6.094820
     15          8           0        2.437990    2.316950    6.921700
     16          6           0        0.208190    1.470880    6.361960
     17          8           0       -1.076690    2.026310    6.066200
     18          6           0       -2.061240   -1.827260    3.623100
     19          8           0       -2.817470   -2.048190    4.813980
     20          6           0       -2.768030   -0.793030    2.707030
     21          8           0       -4.034640   -1.295110    2.287090
     22          6           0       -1.899090   -0.463490    1.463120
     23          8           0       -2.501970    0.585510    0.706020
     24          1           0        1.231050   -0.794820   -0.823960
     25          1           0        1.494040    0.406790    1.053530
     26          1           0        0.135000    0.948400    0.054360
     27          1           0       -0.501330    0.874550    2.432150
     28          1           0       -0.134340   -2.235420    4.433200
     29          1           0        0.878500   -1.348260    6.831260
     30          1           0        2.267740   -0.259280    6.740990
     31          1           0        2.686460   -2.214900    5.837590
     32          1           0        2.705560    2.442680    4.445320
     33          1           0        1.034660    4.241410    3.891430
     34          1           0       -0.211130    2.995550    3.692050
     35          1           0        0.725540    3.592370    1.759470
     36          1           0        0.931840    3.542780    6.278190
     37          1           0        3.072450    3.014410    6.652940
     38          1           0        0.195580    1.176450    7.416160
     39          1           0       -1.720540    1.318750    6.281530
     40          1           0       -2.014220   -2.784270    3.095330
     41          1           0       -2.872370   -1.175450    5.256220
     42          1           0       -2.946260    0.125650    3.273550
     43          1           0       -3.830600   -2.116750    1.792480
     44          1           0       -1.854010   -1.350750    0.824860
     45          1           0       -2.538780    1.352990    1.315050
 ---------------------------------------------------------------------
                    Distance matrix (angstroms):
                    1          2          3          4          5
     1  O    0.000000
     2  C    1.424622   0.000000
     3  C    2.462100   1.549034   0.000000
     4  O    2.893442   2.425468   1.447510   0.000000
     5  C    4.258018   3.772902   2.450655   1.447501   0.000000
     6  O    5.220855   4.390612   3.029269   2.427297   1.447288
     7  C    5.671875   4.725518   3.690609   3.035536   2.521143
     8  C    6.319713   5.622532   4.731583   3.681867   3.100771
     9  O    5.603263   5.168636   4.534337   3.274044   3.071521
    10  O    4.898036   3.824072   3.192155   2.819429   3.025283
    11  C    5.850235   4.608298   4.156845   4.128922   4.338208
    12  C    5.653852   4.261189   3.930748   4.433417   4.814385
    13  O    4.742483   3.372496   3.553033   4.269352   5.051162
    14  C    7.179885   5.961834   5.240507   5.058735   4.837570
    15  O    7.993121   6.880708   6.274630   5.859642   5.631179
    16  C    6.945497   5.833909   4.774873   4.425926   3.813460
    17  O    7.093478   5.912510   4.713597   4.703709   4.027906
    18  C    4.654344   4.360557   2.941098   2.466749   1.554304
    19  O    6.080313   5.725325   4.244488   3.719358   2.456848
    20  C    4.406895   3.950686   2.556316   2.907363   2.561710
    21  O    5.237273   5.015714   3.803626   4.189721   3.810872
    22  C    3.020933   2.590445   1.557152   2.477944   2.955674
    23  O    3.612740   3.034991   2.457383   3.724837   4.245622
    24  H    0.979587   1.922180   3.277014   3.753660   5.162234
    25  H    2.048200   1.092799   2.174917   2.643574   4.010343
    26  H    2.055858   1.094021   2.184676   3.378367   4.608731
    27  H    3.368303   2.140348   1.092537   2.083195   2.724735
    28  H    4.747074   4.476176   3.350467   2.053373   1.089597
    29  H    6.942097   6.329241   5.271251   4.157767   3.233373
    30  H    7.079423   6.316202   5.562916   4.604451   4.155366
    31  H    6.394346   6.066753   5.477642   4.167255   3.886256
    32  H    6.095400   4.928167   4.778377   4.689594   5.082831
    33  H    6.635266   5.233210   4.983608   5.524481   5.855480
    34  H    5.601719   4.206141   3.566615   4.202841   4.399367
    35  H    4.995636   3.624815   3.854085   4.820716   5.598200
    36  H    7.861467   6.558705   5.851122   5.876011   5.652745
    37  H    8.250506   7.103345   6.680895   6.382696   6.332837
    38  H    7.847991   6.812660   5.700323   5.185787   4.370582
    39  H    7.195538   6.131031   4.775575   4.653499   3.724611
    40  H    4.492051   4.542319   3.350246   2.751821   2.167054
    41  H    6.395296   5.825662   4.286486   3.906864   2.611550
    42  H    5.046287   4.306633   2.856308   3.342228   2.859715
    43  H    4.954156   5.004088   3.947611   4.197511   3.950990
    44  H    2.659318   2.787184   2.174863   2.773477   3.374306
    45  H    4.210027   3.332010   2.591940   3.886546   4.262821
                    6          7          8          9         10
     6  O    0.000000
     7  C    1.454699   0.000000
     8  C    2.512714   1.564031   0.000000
     9  O    3.128422   2.484584   1.422095   0.000000
    10  O    2.384021   1.441927   2.448952   2.796809   0.000000
    11  C    3.439264   2.376554   3.398566   3.987301   1.438185
    12  C    3.996558   3.410489   4.722072   5.249043   2.459358
    13  O    4.615998   4.181383   5.380526   5.556420   2.935077
    14  C    3.609980   2.433665   3.281374   4.322258   2.398168
    15  O    4.505221   3.124804   3.300988   4.288610   3.142034
    16  C    2.430891   1.559511   2.572890   3.824468   2.394721
    17  O    2.618978   2.492808   3.782132   4.947672   3.189666
    18  C    2.460243   3.841626   4.491508   4.532401   4.423019
    19  O    2.803115   4.182103   4.693924   5.016807   5.124344
    20  C    3.102904   4.450435   5.478140   5.612069   4.742501
    21  O    4.405403   5.806993   6.765114   6.879085   6.166667
    22  C    3.672405   4.731460   5.793689   5.677077   4.549025
    23  O    4.677332   5.640627   6.884323   6.880700   5.307427
    24  H    6.053022   6.362694   6.982315   6.206844   5.433993
    25  H    4.461422   4.451938   5.229480   4.715763   3.325436
    26  H    5.068297   5.416864   6.474542   6.147526   4.456465
    27  H    2.737516   3.227251   4.522496   4.617127   2.661436
    28  H    2.073096   2.809884   2.793449   2.514390   3.463363
    29  H    2.672695   2.190317   1.091348   2.050524   3.382589
    30  H    3.438747   2.207983   1.091413   2.020403   2.814228
    31  H    3.959352   3.295822   1.917445   0.980140   3.696194
    32  H    4.341745   3.162714   3.819662   4.183588   2.060950
    33  H    4.931021   4.251498   5.499113   6.128031   3.395753
    34  H    3.523300   3.300923   4.794044   5.425037   2.701798
    35  H    5.177515   4.922112   6.224883   6.443251   3.788927
    36  H    4.357351   3.377520   4.330928   5.409947   3.311508
    37  H    5.264152   3.882461   4.114144   4.930292   3.579350
    38  H    3.019389   2.224995   2.642360   4.047478   3.298782
    39  H    2.368718   2.675762   3.821582   4.979211   3.660749
    40  H    3.380789   4.653687   5.076281   4.842760   5.137901
    41  H    2.427092   3.768892   4.473910   5.054328   4.792306
    42  H    2.854773   4.139577   5.361060   5.752421   4.495867
    43  H    4.820998   6.204771   7.013821   6.938938   6.512561
    44  H    4.391988   5.454061   6.319521   5.986638   5.260520
    45  H    4.380492   5.264827   6.638082   6.819085   4.951611
                   11         12         13         14         15
    11  C    0.000000
    12  C    1.550015   0.000000
    13  O    2.449506   1.421125   0.000000
    14  C    1.544472   2.585408   3.828369   0.000000
    15  O    2.446010   3.749406   4.814535   1.427716   0.000000
    16  C    2.399692   3.291079   4.475454   1.535662   2.449725
    17  O    3.090648   3.320733   4.556119   2.421497   3.628957
    18  C    5.611113   5.810057   6.020565   6.024821   6.949698
    19  O    6.211246   6.511889   6.974787   6.280614   7.149601
    20  C    5.696296   5.470880   5.566498   6.242973   7.384989
    21  O    7.093773   6.777871   6.837882   7.580981   8.741941
    22  C    5.469443   5.071152   4.777438   6.369460   7.505811
    23  O    5.936252   5.166806   4.765588   6.870213   8.126239
    24  H    6.254472   5.994839   4.908802   7.674148   8.434161
    25  H    4.019980   3.852115   2.877921   5.471805   6.243010
    26  H    4.977578   4.289009   3.247279   6.349201   7.371367
    27  H    3.358964   2.947101   2.779149   4.399661   5.556634
    28  H    4.848844   5.577772   5.827127   5.239888   5.790819
    29  H    4.316486   5.554406   6.293355   3.964063   3.984213
    30  H    3.369587   4.853224   5.595419   3.019703   2.588166
    31  H    4.770435   6.119285   6.452842   4.946948   4.666336
    32  H    1.092956   2.150554   2.632620   2.173361   2.493965
    33  H    2.179699   1.091642   2.041105   2.805112   3.854273
    34  H    2.187317   1.091625   2.050366   2.873461   4.231900
    35  H    3.270911   1.922370   0.981248   4.500772   5.586394
    36  H    2.211226   2.666609   4.036179   1.095626   2.045789
    37  H    2.603085   3.745668   4.707994   1.928342   0.980419
    38  H    3.340462   4.337004   5.543146   2.183481   2.563910
    39  H    3.871389   4.145323   5.268968   3.251051   4.324303
    40  H    6.420744   6.656084   6.705001   6.936744   7.777257
    41  H    5.715269   5.971610   6.594229   5.634085   6.570434
    42  H    5.236672   4.903284   5.209186   5.628903   6.863013
    43  H    7.558558   7.322210   7.252799   8.142623   9.233732
    44  H    6.298286   5.994051   5.561702   7.259059   8.309317
    45  H    5.399735   4.509080   4.279827   6.236989   7.558570
                   16         17         18         19         20
    16  C    0.000000
    17  O    1.430697   0.000000
    18  C    4.850711   4.667770   0.000000
    19  O    4.892312   4.604337   1.427897   0.000000
    20  C    5.228928   4.700354   1.551892   2.452980   0.000000
    21  O    6.500529   5.836349   2.441805   2.904101   1.425740
    22  C    5.672834   5.297527   2.559624   3.818764   1.552728
    23  O    6.333917   5.730520   3.811175   4.889913   2.444423
    24  H    7.603755   7.794789   5.628628   7.053213   5.334842
    25  H    5.564632   5.861600   4.922772   6.225514   4.726401
    26  H    6.329626   6.226741   5.026297   6.352213   4.300793
    27  H    4.037627   3.855374   3.339380   4.424933   2.827421
    28  H    4.192148   4.660156   2.129742   2.716475   3.463593
    29  H    2.935491   3.974394   4.377648   4.268432   5.533058
    30  H    2.716406   4.106638   5.560564   5.724764   6.474311
    31  H    4.472333   5.674630   5.253083   5.600787   6.447758
    32  H    3.294656   4.135944   6.452195   7.127951   6.591787
    33  H    3.802947   3.754210   6.818017   7.432972   6.419411
    34  H    3.103042   2.706512   5.165961   5.787145   4.675611
    35  H    5.094240   4.924277   6.372727   7.327951   5.686355
    36  H    2.196237   2.525631   6.696668   6.889135   6.726178
    37  H    3.266671   4.305342   7.679614   7.981407   8.011118
    38  H    1.094617   2.040423   5.338803   5.123291   5.902350
    39  H    1.936391   0.980587   4.132881   3.833177   4.281810
    40  H    5.806572   5.731205   1.093901   2.034891   2.164265
    41  H    4.208987   3.759229   1.936458   0.979931   2.579826
    42  H    4.615027   3.860919   2.172396   2.667413   1.093930
    43  H    7.075526   6.558479   2.562344   3.187569   1.928132
    44  H    6.547804   6.283344   2.846077   4.162662   2.165421
    45  H    5.747264   5.016422   3.958425   4.887556   2.568183
                   21         22         23         24         25
    21  O    0.000000
    22  C    2.435383   0.000000
    23  O    2.895789   1.427258   0.000000
    24  H    6.136482   3.890796   4.263987   0.000000
    25  H    5.914764   3.526823   4.015072   2.244549   0.000000
    26  H    5.234913   2.848782   2.740431   2.238658   1.771630
    27  H    4.148825   2.164048   2.658125   4.048480   2.469999
    28  H    4.549979   3.882712   5.239770   5.619373   4.588580
    29  H    6.692627   6.108580   7.258485   7.683292   6.069700
    30  H    7.786537   6.727562   7.738518   7.654410   5.778362
    31  H    7.656713   6.575005   7.816336   6.964991   5.584116
    32  H    8.003707   6.208232   6.674565   6.357743   4.137254
    33  H    7.676247   6.053071   6.001683   6.901962   4.792600
    34  H    5.916325   4.447729   4.469073   6.069690   4.070758
    35  H    6.842891   4.840094   4.535172   5.116355   3.352143
    36  H    7.999999   6.873810   7.182310   8.327355   6.119442
    37  H    9.388468   7.984124   8.505267   8.590985   6.375300
    38  H    7.093006   6.520409   7.256167   8.535671   6.539223
    39  H    5.304986   5.140558   5.677551   7.979163   6.204610
    40  H    2.636844   2.839610   4.159582   5.463563   5.163303
    41  H    3.190756   3.980172   4.893107   7.345170   6.263515
    42  H    2.043583   2.172857   2.645954   5.923409   4.972303
    43  H    0.980492   2.563684   3.201228   5.849236   5.938526
    44  H    2.626092   1.093910   2.045257   3.541929   3.788229
    45  H    3.192944   1.931509   0.980458   4.837362   4.150581
                   26         27         28         29         30
    26  H    0.000000
    27  H    2.462571   0.000000
    28  H    5.420654   3.716288   0.000000
    29  H    7.194012   5.118299   2.750198   0.000000
    30  H    7.121664   5.245896   3.873114   1.767488   0.000000
    31  H    7.068392   5.594973   3.151134   2.237669   2.194518
    32  H    5.302941   4.098296   5.472641   4.837570   3.572447
    33  H    5.135797   3.978003   6.603742   6.317547   5.467786
    34  H    4.188486   2.483990   5.283772   5.469060   5.102426
    35  H    3.201049   3.056837   6.469263   7.082110   6.482988
    36  H    6.789832   4.895452   6.158597   4.922500   4.056411
    37  H    7.512541   5.930090   6.539990   4.886523   3.372293
    38  H    7.365580   5.041546   4.543980   2.680046   2.609794
    39  H    6.508290   4.062205   4.308652   3.764327   4.313660
    40  H    5.272520   4.014425   2.371725   4.938332   6.164543
    41  H    6.372940   4.218969   3.049214   4.071810   5.428134
    42  H    4.531475   2.691930   3.850498   5.427569   6.273524
    43  H    5.304921   4.521183   4.544208   6.939417   8.070173
    44  H    3.136227   3.060243   4.093901   6.598747   7.292512
    45  H    2.983644   2.372345   5.327371   7.028736   7.425825
                   31         32         33         34         35
    31  H    0.000000
    32  H    4.861258   0.000000
    33  H    6.942616   2.516770   0.000000
    34  H    6.336257   3.062705   1.773108   0.000000
    35  H    7.362109   3.529314   2.249903   2.228993   0.000000
    36  H    6.035205   2.777718   2.489032   2.879924   4.523699
    37  H    5.306549   2.309777   3.644730   4.421439   5.457845
    38  H    4.494176   4.090138   4.745709   4.164557   6.173789
    39  H    5.666164   4.921915   4.673933   3.434441   5.621537
    40  H    5.471797   7.170760   7.699976   6.083874   7.067697
    41  H    5.684984   6.697890   6.816884   5.189033   6.921295
    42  H    6.616646   6.219706   5.759252   3.986528   5.271878
    43  H    7.671025   8.399247   8.276626   6.545574   7.304352
    44  H    6.818364   6.948922   7.001466   5.459868   5.653495
    45  H    7.777296   6.203960   5.267844   3.710268   3.983481
                   36         37         38         39         40
    36  H    0.000000
    37  H    2.236476   0.000000
    38  H    2.727008   3.498140   0.000000
    39  H    3.461422   5.097643   2.231401   0.000000
    40  H    7.670817   8.494439   6.264191   5.203162   0.000000
    41  H    6.146392   7.405852   4.428215   2.932406   2.827396
    42  H    5.978654   7.482652   5.304390   3.460321   3.060734
    43  H    8.650590   9.879523   7.660357   6.033787   2.332860
    44  H    7.838776   8.791538   7.350700   6.076125   2.689922
    45  H    6.439964   7.920814   6.688156   5.033549   4.534477
                   41         42         43         44         45
    41  H    0.000000
    42  H    2.372615   0.000000
    43  H    3.715070   2.829131   0.000000
    44  H    4.550246   3.060858   2.330226   0.000000
    45  H    4.694370   2.346940   3.733073   2.831856   0.000000
 Stoichiometry    C12H22O11
 Framework group  C1[X(C12H22O11)]
 Deg. of freedom   129
 Full point group                 C1      NOp   1
 Largest Abelian subgroup         C1      NOp   1
 Largest concise Abelian subgroup C1      NOp   1
                         Standard orientation:                         
 ---------------------------------------------------------------------
 Center     Atomic      Atomic             Coordinates (Angstroms)
 Number     Number       Type             X           Y           Z
 ---------------------------------------------------------------------
      1          8           0        2.751113    2.360835    2.034817
      2          6           0        1.760149    2.404336    1.012250
      3          6           0        1.587741    1.028169    0.322362
      4          8           0        1.114913    0.085847    1.314203
      5          6           0        0.845718   -1.251549    0.830297
      6          8           0       -0.267781   -1.330379   -0.090871
      7          6           0       -1.586383   -0.854631    0.297846
      8          6           0       -2.149655   -1.600010    1.552169
      9          8           0       -1.540646   -1.167368    2.762244
     10          8           0       -1.560930    0.562206    0.564450
     11          6           0       -2.523814    1.261058   -0.243533
     12          6           0       -1.814173    2.152958   -1.293995
     13          8           0       -1.061427    3.180617   -0.664006
     14          6           0       -3.446284    0.192967   -0.870929
     15          8           0       -4.584366   -0.041326   -0.041320
     16          6           0       -2.530636   -1.038455   -0.929619
     17          8           0       -1.827671   -1.048564   -2.175666
     18          6           0        2.119212   -1.861016    0.180202
     19          8           0        1.844662   -3.152757   -0.362860
     20          6           0        2.696870   -0.918306   -0.908824
     21          8           0        3.942553   -1.423570   -1.383923
     22          6           0        2.893904    0.519027   -0.355453
     23          8           0        3.296140    1.399073   -1.404638
     24          1           0        2.780127    3.273090    2.390540
     25          1           0        0.813985    2.707782    1.467118
     26          1           0        2.046020    3.163787    0.278497
     27          1           0        0.826933    1.152629   -0.451795
     28          1           0        0.626706   -1.871084    1.699453
     29          1           0       -1.991335   -2.674693    1.447141
     30          1           0       -3.220408   -1.424077    1.669299
     31          1           0       -1.981092   -1.696687    3.459742
     32          1           0       -3.106528    1.916588    0.408600
     33          1           0       -2.553929    2.627286   -1.941650
     34          1           0       -1.141196    1.556187   -1.912552
     35          1           0       -0.632248    3.665247   -1.401425
     36          1           0       -3.812581    0.481408   -1.862405
     37          1           0       -5.079160    0.805054   -0.047783
     38          1           0       -3.111915   -1.964733   -0.881572
     39          1           0       -1.286494   -1.866163   -2.161132
     40          1           0        2.875968   -1.998466    0.958050
     41          1           0        1.188176   -3.004378   -1.075092
     42          1           0        2.006988   -0.884546   -1.757120
     43          1           0        4.525367   -1.443900   -0.595711
     44          1           0        3.696246    0.499070    0.387842
     45          1           0        2.562008    1.376398   -2.054125
 ---------------------------------------------------------------------
 Rotational constants (GHZ):           0.3468662           0.1999358           0.1726239
 Leave Link  202 at Mon Feb 22 20:57:36 2021, MaxMem=   104857600 cpu:               0.7 elap:               0.1
 (Enter /sw/arch/RedHatEnterpriseServer7/EB_production/2019/software/Gaussian/g16.c01/l301.exe)
 Standard basis: TZVP (5D, 7F)
 Ernie: Thresh=  0.10000D-02 Tol=  0.10000D-05 Strict=F.
 There are   592 symmetry adapted cartesian basis functions of A   symmetry.
 There are   569 symmetry adapted basis functions of A   symmetry.
   569 basis functions,   981 primitive gaussians,   592 cartesian basis functions
    91 alpha electrons       91 beta electrons
       nuclear repulsion energy      2394.0502368416 Hartrees.
 IExCor=  404 DFT=T Ex=B Corr=P86 ExCW=0 ScaHFX=  0.000000
 ScaDFX=  1.000000  1.000000  1.000000  1.000000 ScalE2=  1.000000  1.000000
 IRadAn=      5 IRanWt=     -1 IRanGd=            0 ICorTp=0 IEmpDi=131
 NAtoms=   45 NActive=   45 NUniq=   45 SFac= 1.00D+00 NAtFMM=   60 NAOKFM=F Big=F
 Integral buffers will be    131072 words long.
 Raffenetti 2 integral format.
 Two-electron integral symmetry is turned on.
 R6Disp:  Grimme-D3 Dispersion energy=       -0.0681815295 Hartrees.
 Nuclear repulsion after empirical dispersion term =     2393.9820553120 Hartrees.
 ------------------------------------------------------------------------------
 Polarizable Continuum Model (PCM)
 =================================
 Model                : PCM.
 Atomic radii         : UFF (Universal Force Field).
 Polarization charges : Total charges.
 Charge compensation  : None.
 Solution method      : On-the-fly selection.
 Cavity type          : Scaled VdW (van der Waals Surface) (Alpha=1.100).
 Cavity algorithm     : GePol (No added spheres)
                        Default sphere list used, NSphG=   45.
                        Lebedev-Laikov grids with approx.  5.0 points / Ang**2.
                        Smoothing algorithm: York/Karplus (Gamma=1.0000).
                        Polarization charges: spherical gaussians, with
                                              point-specific exponents (IZeta= 3).
                        Self-potential: point-specific (ISelfS= 7).
                        Self-field    : sphere-specific E.n sum rule (ISelfD= 2).
 1st derivatives      : Analytical E(r).r(x)/FMM algorithm (CHGder, D1EAlg=3).
                        Cavity 1st derivative terms included.
 Solvent              : Water, Eps=  78.355300 Eps(inf)=   1.777849
 ------------------------------------------------------------------------------
 GePol: Number of generator spheres                  =      45
 GePol: Total number of spheres                      =      45
 GePol: Number of exposed spheres                    =      45 (100.00%)
 GePol: Number of points                             =    2909
 GePol: Average weight of points                     =       0.13
 GePol: Minimum weight of points                     =   0.37D-10
 GePol: Maximum weight of points                     =    0.20546
 GePol: Number of points with low weight             =     203
 GePol: Fraction of low-weight points (<1% of avg)   =       6.98%
 GePol: Cavity surface area                          =    377.410 Ang**2
 GePol: Cavity volume                                =    431.947 Ang**3
 Leave Link  301 at Mon Feb 22 20:57:36 2021, MaxMem=   104857600 cpu:               2.4 elap:               0.1
 (Enter /sw/arch/RedHatEnterpriseServer7/EB_production/2019/software/Gaussian/g16.c01/l302.exe)
 NPDir=0 NMtPBC=     1 NCelOv=     1 NCel=       1 NClECP=     1 NCelD=      1
         NCelK=      1 NCelE2=     1 NClLst=     1 CellRange=     0.0.
 One-electron integrals computed using PRISM.
 One-electron integral symmetry used in STVInt
 PrsmSu:  requested number of processors reduced to:  23 ShMem   1 Linda.
 NBasis=   569 RedAO= T EigKep=  4.58D-05  NBF=   569
 NBsUse=   569 1.00D-06 EigRej= -1.00D+00 NBFU=   569
 Precomputing XC quadrature grid using
 IXCGrd= 4 IRadAn=           5 IRanWt=          -1 IRanGd=           0 AccXCQ= 0.00D+00.
 Generated NRdTot=       0 NPtTot=           0 NUsed=           0 NTot=          32
 NSgBfM=   580   580   580   580   580 MxSgAt=    45 MxSgA2=    45.
 Leave Link  302 at Mon Feb 22 20:57:37 2021, MaxMem=   104857600 cpu:              21.3 elap:               0.7
 (Enter /sw/arch/RedHatEnterpriseServer7/EB_production/2019/software/Gaussian/g16.c01/l303.exe)
 DipDrv:  MaxL=1.
 Leave Link  303 at Mon Feb 22 20:57:37 2021, MaxMem=   104857600 cpu:               3.9 elap:               0.2
 (Enter /sw/arch/RedHatEnterpriseServer7/EB_production/2019/software/Gaussian/g16.c01/l401.exe)
 ExpMin= 9.52D-02 ExpMax= 2.70D+04 ExpMxC= 9.22D+02 IAcc=3 IRadAn=         5 AccDes= 0.00D+00
 Harris functional with IExCor=  404 and IRadAn=       5 diagonalized for initial guess.
 HarFok:  IExCor=  404 AccDes= 0.00D+00 IRadAn=         5 IDoV= 1 UseB2=F ITyADJ=14
 ICtDFT=  3500011 ScaDFX=  1.000000  1.000000  1.000000  1.000000
 FoFCou: FMM=F IPFlag=           0 FMFlag=      100000 FMFlg1=           0
         NFxFlg=           0 DoJE=T BraDBF=F KetDBF=T FulRan=T
         wScrn=  0.000000 ICntrl=       500 IOpCl=  0 I1Cent=   200000004 NGrid=           0
         NMat0=    1 NMatS0=      1 NMatT0=    0 NMatD0=    1 NMtDS0=    0 NMtDT0=    0
 Petite list used in FoFCou.
 Harris En= -1298.74006709661    
 JPrj=0 DoOrth=F DoCkMO=F.
 Leave Link  401 at Mon Feb 22 20:57:39 2021, MaxMem=   104857600 cpu:              46.5 elap:               1.5
 (Enter /sw/arch/RedHatEnterpriseServer7/EB_production/2019/software/Gaussian/g16.c01/l502.exe)
 Integral symmetry usage will be decided dynamically.
 Closed shell SCF:
 Using DIIS extrapolation, IDIIS=  1040.
 NGot=   104857600 LenX=   104130716 LenY=   103779660
 Requested convergence on RMS density matrix=1.00D-08 within 128 cycles.
 Requested convergence on MAX density matrix=1.00D-06.
 Requested convergence on             energy=1.00D-06.
 No special actions if energy rises.
 Fock matrices will be formed incrementally for  20 cycles.

 Cycle   1  Pass 1  IDiag  1:
 FoFJK:  IHMeth= 1 ICntrl=     500 DoSepK=F KAlg= 0 I1Cent=           0 FoldK=F
 IRaf= 810000000 NMat=       1 IRICut=       1 DoRegI=T DoRafI=F ISym2E= 0 IDoP0=0 IntGTp=1.
 FoFCou: FMM=F IPFlag=           0 FMFlag=      100000 FMFlg1=           0
         NFxFlg=           0 DoJE=T BraDBF=F KetDBF=F FulRan=T
         wScrn=  0.000000 ICntrl=       500 IOpCl=  0 I1Cent=           0 NGrid=           0
         NMat0=    1 NMatS0=      1 NMatT0=    0 NMatD0=    1 NMtDS0=    0 NMtDT0=    0
 Symmetry not used in FoFCou.
 Inv3:  Mode=1 IEnd=    25386843.
 Iteration    1 A*A^-1 deviation from unit magnitude is 3.22D-15 for   1492.
 Iteration    1 A*A^-1 deviation from orthogonality  is 2.88D-15 for   2098   1398.
 Iteration    1 A^-1*A deviation from unit magnitude is 3.44D-15 for   1492.
 Iteration    1 A^-1*A deviation from orthogonality  is 2.44D-15 for   2749   2106.
 E= -1298.01202341159    
 DIIS: error= 1.85D-02 at cycle   1 NSaved=   1.
 NSaved= 1 IEnMin= 1 EnMin= -1298.01202341159     IErMin= 1 ErrMin= 1.85D-02
 ErrMax= 1.85D-02  0.00D+00 EMaxC= 1.00D-01 BMatC= 6.02D-01 BMatP= 6.02D-01
 IDIUse=3 WtCom= 8.15D-01 WtEn= 1.85D-01
 Coeff-Com:  0.100D+01
 Coeff-En:   0.100D+01
 Coeff:      0.100D+01
 Gap=     0.166 Goal=   None    Shift=    0.000
 GapD=    0.166 DampG=1.000 DampE=0.500 DampFc=0.5000 IDamp=-1.
 Damping current iteration by 5.00D-01
 RMSDP=9.91D-03 MaxDP=1.37D+00              OVMax= 1.78D-01

 Cycle   2  Pass 1  IDiag  1:
 RMSU=  4.79D-03    CP:  1.13D+00
 E= -1298.07184444410     Delta-E=       -0.059821032513 Rises=F Damp=T
 DIIS: error= 8.63D-03 at cycle   2 NSaved=   2.
 NSaved= 2 IEnMin= 2 EnMin= -1298.07184444410     IErMin= 2 ErrMin= 8.63D-03
 ErrMax= 8.63D-03  0.00D+00 EMaxC= 1.00D-01 BMatC= 1.41D-01 BMatP= 6.02D-01
 IDIUse=3 WtCom= 9.14D-01 WtEn= 8.63D-02
 Coeff-Com:  0.301D+00 0.699D+00
 Coeff-En:   0.445D+00 0.555D+00
 Coeff:      0.313D+00 0.687D+00
 Gap=     0.215 Goal=   None    Shift=    0.000
 RMSDP=2.68D-03 MaxDP=3.70D-01 DE=-5.98D-02 OVMax= 1.19D-01

 Cycle   3  Pass 1  IDiag  1:
 RMSU=  1.02D-03    CP:  1.06D+00  5.03D-01
 E= -1298.45258655934     Delta-E=       -0.380742115241 Rises=F Damp=F
 DIIS: error= 3.11D-03 at cycle   3 NSaved=   3.
 NSaved= 3 IEnMin= 3 EnMin= -1298.45258655934     IErMin= 3 ErrMin= 3.11D-03
 ErrMax= 3.11D-03  0.00D+00 EMaxC= 1.00D-01 BMatC= 2.48D-02 BMatP= 1.41D-01
 IDIUse=3 WtCom= 9.69D-01 WtEn= 3.11D-02
 Coeff-Com:  0.106D+00 0.325D+00 0.569D+00
 Coeff-En:   0.000D+00 0.000D+00 0.100D+01
 Coeff:      0.103D+00 0.315D+00 0.582D+00
 Gap=     0.210 Goal=   None    Shift=    0.000
 RMSDP=7.57D-04 MaxDP=5.39D-02 DE=-3.81D-01 OVMax= 2.34D-02

 Cycle   4  Pass 1  IDiag  1:
 RMSU=  6.24D-04    CP:  1.07D+00  4.82D-01  6.03D-01
 E= -1298.46946344214     Delta-E=       -0.016876882800 Rises=F Damp=F
 DIIS: error= 1.96D-03 at cycle   4 NSaved=   4.
 NSaved= 4 IEnMin= 4 EnMin= -1298.46946344214     IErMin= 4 ErrMin= 1.96D-03
 ErrMax= 1.96D-03  0.00D+00 EMaxC= 1.00D-01 BMatC= 6.83D-03 BMatP= 2.48D-02
 IDIUse=3 WtCom= 9.80D-01 WtEn= 1.96D-02
 Coeff-Com:  0.317D-01 0.973D-01 0.355D+00 0.516D+00
 Coeff-En:   0.000D+00 0.000D+00 0.223D+00 0.777D+00
 Coeff:      0.311D-01 0.954D-01 0.352D+00 0.521D+00
 Gap=     0.206 Goal=   None    Shift=    0.000
 RMSDP=3.38D-04 MaxDP=2.75D-02 DE=-1.69D-02 OVMax= 8.24D-03

 Cycle   5  Pass 1  IDiag  1:
 RMSU=  1.61D-04    CP:  1.06D+00  4.83D-01  7.33D-01  5.93D-01
 E= -1298.47519101783     Delta-E=       -0.005727575686 Rises=F Damp=F
 DIIS: error= 4.10D-04 at cycle   5 NSaved=   5.
 NSaved= 5 IEnMin= 5 EnMin= -1298.47519101783     IErMin= 5 ErrMin= 4.10D-04
 ErrMax= 4.10D-04  0.00D+00 EMaxC= 1.00D-01 BMatC= 3.26D-04 BMatP= 6.83D-03
 IDIUse=3 WtCom= 9.96D-01 WtEn= 4.10D-03
 Coeff-Com:  0.110D-01 0.273D-01 0.148D+00 0.269D+00 0.545D+00
 Coeff-En:   0.000D+00 0.000D+00 0.000D+00 0.000D+00 0.100D+01
 Coeff:      0.110D-01 0.272D-01 0.148D+00 0.267D+00 0.547D+00
 Gap=     0.205 Goal=   None    Shift=    0.000
 RMSDP=6.17D-05 MaxDP=3.96D-03 DE=-5.73D-03 OVMax= 3.40D-03

 Cycle   6  Pass 1  IDiag  1:
 RMSU=  4.77D-05    CP:  1.06D+00  4.84D-01  7.40D-01  5.86D-01  7.64D-01
 E= -1298.47534041743     Delta-E=       -0.000149399596 Rises=F Damp=F
 DIIS: error= 3.27D-04 at cycle   6 NSaved=   6.
 NSaved= 6 IEnMin= 6 EnMin= -1298.47534041743     IErMin= 6 ErrMin= 3.27D-04
 ErrMax= 3.27D-04  0.00D+00 EMaxC= 1.00D-01 BMatC= 1.22D-04 BMatP= 3.26D-04
 IDIUse=3 WtCom= 9.97D-01 WtEn= 3.27D-03
 Coeff-Com:  0.356D-02 0.498D-02 0.563D-01 0.119D+00 0.396D+00 0.420D+00
 Coeff-En:   0.000D+00 0.000D+00 0.000D+00 0.000D+00 0.286D+00 0.714D+00
 Coeff:      0.355D-02 0.496D-02 0.561D-01 0.118D+00 0.396D+00 0.421D+00
 Gap=     0.205 Goal=   None    Shift=    0.000
 RMSDP=2.92D-05 MaxDP=2.43D-03 DE=-1.49D-04 OVMax= 1.47D-03

 Cycle   7  Pass 1  IDiag  1:
 RMSU=  1.00D-05    CP:  1.06D+00  4.83D-01  7.36D-01  6.02D-01  7.49D-01
                    CP:  4.85D-01
 E= -1298.47542498470     Delta-E=       -0.000084567276 Rises=F Damp=F
 DIIS: error= 3.42D-05 at cycle   7 NSaved=   7.
 NSaved= 7 IEnMin= 7 EnMin= -1298.47542498470     IErMin= 7 ErrMin= 3.42D-05
 ErrMax= 3.42D-05  0.00D+00 EMaxC= 1.00D-01 BMatC= 2.52D-06 BMatP= 1.22D-04
 IDIUse=1 WtCom= 1.00D+00 WtEn= 0.00D+00
 Coeff-Com:  0.174D-02 0.167D-02 0.267D-01 0.575D-01 0.204D+00 0.238D+00
 Coeff-Com:  0.470D+00
 Coeff:      0.174D-02 0.167D-02 0.267D-01 0.575D-01 0.204D+00 0.238D+00
 Coeff:      0.470D+00
 Gap=     0.205 Goal=   None    Shift=    0.000
 RMSDP=6.21D-06 MaxDP=6.82D-04 DE=-8.46D-05 OVMax= 2.82D-04

 Cycle   8  Pass 1  IDiag  1:
 RMSU=  4.11D-06    CP:  1.06D+00  4.82D-01  7.36D-01  6.02D-01  7.53D-01
                    CP:  4.99D-01  6.22D-01
 E= -1298.47542679805     Delta-E=       -0.000001813351 Rises=F Damp=F
 DIIS: error= 1.71D-05 at cycle   8 NSaved=   8.
 NSaved= 8 IEnMin= 8 EnMin= -1298.47542679805     IErMin= 8 ErrMin= 1.71D-05
 ErrMax= 1.71D-05  0.00D+00 EMaxC= 1.00D-01 BMatC= 3.57D-07 BMatP= 2.52D-06
 IDIUse=1 WtCom= 1.00D+00 WtEn= 0.00D+00
 Coeff-Com:  0.525D-03 0.133D-03 0.679D-02 0.147D-01 0.559D-01 0.723D-01
 Coeff-Com:  0.289D+00 0.561D+00
 Coeff:      0.525D-03 0.133D-03 0.679D-02 0.147D-01 0.559D-01 0.723D-01
 Coeff:      0.289D+00 0.561D+00
 Gap=     0.205 Goal=   None    Shift=    0.000
 RMSDP=1.99D-06 MaxDP=1.00D-04 DE=-1.81D-06 OVMax= 9.16D-05

 Cycle   9  Pass 1  IDiag  1:
 RMSU=  1.15D-06    CP:  1.06D+00  4.82D-01  7.36D-01  6.02D-01  7.55D-01
                    CP:  5.02D-01  6.54D-01  6.39D-01
 E= -1298.47542704519     Delta-E=       -0.000000247139 Rises=F Damp=F
 DIIS: error= 6.37D-06 at cycle   9 NSaved=   9.
 NSaved= 9 IEnMin= 9 EnMin= -1298.47542704519     IErMin= 9 ErrMin= 6.37D-06
 ErrMax= 6.37D-06  0.00D+00 EMaxC= 1.00D-01 BMatC= 4.26D-08 BMatP= 3.57D-07
 IDIUse=1 WtCom= 1.00D+00 WtEn= 0.00D+00
 Coeff-Com:  0.185D-03-0.559D-04 0.189D-02 0.397D-02 0.160D-01 0.223D-01
 Coeff-Com:  0.130D+00 0.337D+00 0.488D+00
 Coeff:      0.185D-03-0.559D-04 0.189D-02 0.397D-02 0.160D-01 0.223D-01
 Coeff:      0.130D+00 0.337D+00 0.488D+00
 Gap=     0.205 Goal=   None    Shift=    0.000
 RMSDP=6.23D-07 MaxDP=2.80D-05 DE=-2.47D-07 OVMax= 3.76D-05

 Cycle  10  Pass 1  IDiag  1:
 RMSU=  4.92D-07    CP:  1.06D+00  4.82D-01  7.36D-01  6.02D-01  7.56D-01
                    CP:  5.02D-01  6.64D-01  6.23D-01  6.93D-01
 E= -1298.47542708761     Delta-E=       -0.000000042417 Rises=F Damp=F
 DIIS: error= 1.95D-06 at cycle  10 NSaved=  10.
 NSaved=10 IEnMin=10 EnMin= -1298.47542708761     IErMin=10 ErrMin= 1.95D-06
 ErrMax= 1.95D-06  0.00D+00 EMaxC= 1.00D-01 BMatC= 6.01D-09 BMatP= 4.26D-08
 IDIUse=1 WtCom= 1.00D+00 WtEn= 0.00D+00
 Coeff-Com:  0.279D-04-0.641D-04 0.135D-04-0.471D-04 0.311D-03 0.135D-02
 Coeff-Com:  0.315D-01 0.114D+00 0.308D+00 0.544D+00
 Coeff:      0.279D-04-0.641D-04 0.135D-04-0.471D-04 0.311D-03 0.135D-02
 Coeff:      0.315D-01 0.114D+00 0.308D+00 0.544D+00
 Gap=     0.205 Goal=   None    Shift=    0.000
 RMSDP=2.57D-07 MaxDP=2.27D-05 DE=-4.24D-08 OVMax= 1.10D-05

 Cycle  11  Pass 1  IDiag  1:
 RMSU=  1.31D-07    CP:  1.06D+00  4.82D-01  7.36D-01  6.02D-01  7.56D-01
                    CP:  5.02D-01  6.68D-01  6.49D-01  7.05D-01  6.54D-01
 E= -1298.47542709218     Delta-E=       -0.000000004571 Rises=F Damp=F
 DIIS: error= 3.48D-07 at cycle  11 NSaved=  11.
 NSaved=11 IEnMin=11 EnMin= -1298.47542709218     IErMin=11 ErrMin= 3.48D-07
 ErrMax= 3.48D-07  0.00D+00 EMaxC= 1.00D-01 BMatC= 1.85D-10 BMatP= 6.01D-09
 IDIUse=1 WtCom= 1.00D+00 WtEn= 0.00D+00
 Coeff-Com:  0.830D-05-0.312D-04-0.506D-04-0.144D-03-0.343D-03 0.808D-05
 Coeff-Com:  0.120D-01 0.482D-01 0.144D+00 0.285D+00 0.511D+00
 Coeff:      0.830D-05-0.312D-04-0.506D-04-0.144D-03-0.343D-03 0.808D-05
 Coeff:      0.120D-01 0.482D-01 0.144D+00 0.285D+00 0.511D+00
 Gap=     0.205 Goal=   None    Shift=    0.000
 RMSDP=5.19D-08 MaxDP=3.29D-06 DE=-4.57D-09 OVMax= 2.00D-06

 Cycle  12  Pass 1  IDiag  1:
 RMSU=  3.81D-08    CP:  1.06D+00  4.82D-01  7.36D-01  6.02D-01  7.55D-01
                    CP:  5.02D-01  6.68D-01  6.51D-01  7.18D-01  6.47D-01
                    CP:  7.96D-01
 E= -1298.47542709232     Delta-E=       -0.000000000143 Rises=F Damp=F
 DIIS: error= 2.20D-07 at cycle  12 NSaved=  12.
 NSaved=12 IEnMin=12 EnMin= -1298.47542709232     IErMin=12 ErrMin= 2.20D-07
 ErrMax= 2.20D-07  0.00D+00 EMaxC= 1.00D-01 BMatC= 3.75D-11 BMatP= 1.85D-10
 IDIUse=1 WtCom= 1.00D+00 WtEn= 0.00D+00
 Coeff-Com:  0.141D-05-0.104D-04-0.305D-04-0.765D-04-0.237D-03-0.154D-03
 Coeff-Com:  0.321D-02 0.144D-01 0.469D-01 0.102D+00 0.329D+00 0.505D+00
 Coeff:      0.141D-05-0.104D-04-0.305D-04-0.765D-04-0.237D-03-0.154D-03
 Coeff:      0.321D-02 0.144D-01 0.469D-01 0.102D+00 0.329D+00 0.505D+00
 Gap=     0.205 Goal=   None    Shift=    0.000
 RMSDP=2.04D-08 MaxDP=1.33D-06 DE=-1.43D-10 OVMax= 6.89D-07

 Cycle  13  Pass 1  IDiag  1:
 RMSU=  1.01D-08    CP:  1.06D+00  4.82D-01  7.36D-01  6.02D-01  7.56D-01
                    CP:  5.02D-01  6.68D-01  6.50D-01  7.19D-01  6.61D-01
                    CP:  7.84D-01  6.01D-01
 E= -1298.47542709232     Delta-E=        0.000000000000 Rises=F Damp=F
 DIIS: error= 2.92D-08 at cycle  13 NSaved=  13.
 NSaved=13 IEnMin=12 EnMin= -1298.47542709232     IErMin=13 ErrMin= 2.92D-08
 ErrMax= 2.92D-08  0.00D+00 EMaxC= 1.00D-01 BMatC= 1.99D-12 BMatP= 3.75D-11
 IDIUse=1 WtCom= 1.00D+00 WtEn= 0.00D+00
 Coeff-Com:  0.175D-06-0.344D-05-0.129D-04-0.313D-04-0.104D-03-0.820D-04
 Coeff-Com:  0.912D-03 0.446D-02 0.155D-01 0.357D-01 0.145D+00 0.274D+00
 Coeff-Com:  0.524D+00
 Coeff:      0.175D-06-0.344D-05-0.129D-04-0.313D-04-0.104D-03-0.820D-04
 Coeff:      0.912D-03 0.446D-02 0.155D-01 0.357D-01 0.145D+00 0.274D+00
 Coeff:      0.524D+00
 Gap=     0.205 Goal=   None    Shift=    0.000
 RMSDP=5.12D-09 MaxDP=3.52D-07 DE= 4.55D-13 OVMax= 1.62D-07

 Error on total polarization charges =  0.01246
 SCF Done:  E(RB-P86) =  -1298.47542709     A.U. after   13 cycles
            NFock= 13  Conv=0.51D-08     -V/T= 2.0043
 KE= 1.292885217427D+03 PE=-7.838198083306D+03 EE= 2.852855383474D+03
 Leave Link  502 at Mon Feb 22 20:59:10 2021, MaxMem=   104857600 cpu:            2879.9 elap:              91.2
 (Enter /sw/arch/RedHatEnterpriseServer7/EB_production/2019/software/Gaussian/g16.c01/l601.exe)
 Copying SCF densities to generalized density rwf, IOpCl= 0 IROHF=0.

 **********************************************************************

            Population analysis using the SCF Density.

 **********************************************************************

 Orbital symmetries:
       Occupied  (A) (A) (A) (A) (A) (A) (A) (A) (A) (A) (A) (A)
                 (A) (A) (A) (A) (A) (A) (A) (A) (A) (A) (A) (A)
                 (A) (A) (A) (A) (A) (A) (A) (A) (A) (A) (A) (A)
                 (A) (A) (A) (A) (A) (A) (A) (A) (A) (A) (A) (A)
                 (A) (A) (A) (A) (A) (A) (A) (A) (A) (A) (A) (A)
                 (A) (A) (A) (A) (A) (A) (A) (A) (A) (A) (A) (A)
                 (A) (A) (A) (A) (A) (A) (A) (A) (A) (A) (A) (A)
                 (A) (A) (A) (A) (A) (A) (A)
       Virtual   (A) (A) (A) (A) (A) (A) (A) (A) (A) (A) (A) (A)
                 (A) (A) (A) (A) (A) (A) (A) (A) (A) (A) (A) (A)
                 (A) (A) (A) (A) (A) (A) (A) (A) (A) (A) (A) (A)
                 (A) (A) (A) (A) (A) (A) (A) (A) (A) (A) (A) (A)
                 (A) (A) (A) (A) (A) (A) (A) (A) (A) (A) (A) (A)
                 (A) (A) (A) (A) (A) (A) (A) (A) (A) (A) (A) (A)
                 (A) (A) (A) (A) (A) (A) (A) (A) (A) (A) (A) (A)
                 (A) (A) (A) (A) (A) (A) (A) (A) (A) (A) (A) (A)
                 (A) (A) (A) (A) (A) (A) (A) (A) (A) (A) (A) (A)
                 (A) (A) (A) (A) (A) (A) (A) (A) (A) (A) (A) (A)
                 (A) (A) (A) (A) (A) (A) (A) (A) (A) (A) (A) (A)
                 (A) (A) (A) (A) (A) (A) (A) (A) (A) (A) (A) (A)
                 (A) (A) (A) (A) (A) (A) (A) (A) (A) (A) (A) (A)
                 (A) (A) (A) (A) (A) (A) (A) (A) (A) (A) (A) (A)
                 (A) (A) (A) (A) (A) (A) (A) (A) (A) (A) (A) (A)
                 (A) (A) (A) (A) (A) (A) (A) (A) (A) (A) (A) (A)
                 (A) (A) (A) (A) (A) (A) (A) (A) (A) (A) (A) (A)
                 (A) (A) (A) (A) (A) (A) (A) (A) (A) (A) (A) (A)
                 (A) (A) (A) (A) (A) (A) (A) (A) (A) (A) (A) (A)
                 (A) (A) (A) (A) (A) (A) (A) (A) (A) (A) (A) (A)
                 (A) (A) (A) (A) (A) (A) (A) (A) (A) (A) (A) (A)
                 (A) (A) (A) (A) (A) (A) (A) (A) (A) (A) (A) (A)
                 (A) (A) (A) (A) (A) (A) (A) (A) (A) (A) (A) (A)
                 (A) (A) (A) (A) (A) (A) (A) (A) (A) (A) (A) (A)
                 (A) (A) (A) (A) (A) (A) (A) (A) (A) (A) (A) (A)
                 (A) (A) (A) (A) (A) (A) (A) (A) (A) (A) (A) (A)
                 (A) (A) (A) (A) (A) (A) (A) (A) (A) (A) (A) (A)
                 (A) (A) (A) (A) (A) (A) (A) (A) (A) (A) (A) (A)
                 (A) (A) (A) (A) (A) (A) (A) (A) (A) (A) (A) (A)
                 (A) (A) (A) (A) (A) (A) (A) (A) (A) (A) (A) (A)
                 (A) (A) (A) (A) (A) (A) (A) (A) (A) (A) (A) (A)
                 (A) (A) (A) (A) (A) (A) (A) (A) (A) (A) (A) (A)
                 (A) (A) (A) (A) (A) (A) (A) (A) (A) (A) (A) (A)
                 (A) (A) (A) (A) (A) (A) (A) (A) (A) (A) (A) (A)
                 (A) (A) (A) (A) (A) (A) (A) (A) (A) (A) (A) (A)
                 (A) (A) (A) (A) (A) (A) (A) (A) (A) (A) (A) (A)
                 (A) (A) (A) (A) (A) (A) (A) (A) (A) (A) (A) (A)
                 (A) (A) (A) (A) (A) (A) (A) (A) (A) (A) (A) (A)
                 (A) (A) (A) (A) (A) (A) (A) (A) (A) (A) (A) (A)
                 (A) (A) (A) (A) (A) (A) (A) (A) (A) (A)
 The electronic state is 1-A.
 Alpha  occ. eigenvalues --  -18.80198 -18.79074 -18.78836 -18.78833 -18.78723
 Alpha  occ. eigenvalues --  -18.78396 -18.78387 -18.78114 -18.77685 -18.77547
 Alpha  occ. eigenvalues --  -18.77197 -10.02388 -10.00800  -9.97193  -9.96865
 Alpha  occ. eigenvalues --   -9.96512  -9.96030  -9.95953  -9.95793  -9.95713
 Alpha  occ. eigenvalues --   -9.95035  -9.94432  -9.94264  -1.00426  -0.97506
 Alpha  occ. eigenvalues --   -0.96215  -0.95412  -0.95331  -0.95219  -0.94650
 Alpha  occ. eigenvalues --   -0.94207  -0.93927  -0.93777  -0.92346  -0.72422
 Alpha  occ. eigenvalues --   -0.71674  -0.71112  -0.69613  -0.64183  -0.63137
 Alpha  occ. eigenvalues --   -0.60235  -0.58496  -0.57014  -0.55671  -0.55497
 Alpha  occ. eigenvalues --   -0.52239  -0.50889  -0.49741  -0.49147  -0.48101
 Alpha  occ. eigenvalues --   -0.47434  -0.46183  -0.46033  -0.45784  -0.45391
 Alpha  occ. eigenvalues --   -0.44120  -0.43885  -0.43133  -0.42223  -0.40973
 Alpha  occ. eigenvalues --   -0.40744  -0.40393  -0.39745  -0.38935  -0.38427
 Alpha  occ. eigenvalues --   -0.37813  -0.36963  -0.36657  -0.35244  -0.34640
 Alpha  occ. eigenvalues --   -0.33946  -0.33561  -0.32635  -0.32253  -0.31168
 Alpha  occ. eigenvalues --   -0.30904  -0.30694  -0.30253  -0.29684  -0.29539
 Alpha  occ. eigenvalues --   -0.26569  -0.26121  -0.26005  -0.25580  -0.24504
 Alpha  occ. eigenvalues --   -0.23735  -0.23322  -0.23195  -0.22866  -0.22476
 Alpha  occ. eigenvalues --   -0.22218
 Alpha virt. eigenvalues --   -0.01685  -0.00143   0.00723   0.01231   0.01485
 Alpha virt. eigenvalues --    0.01586   0.02659   0.03548   0.04077   0.04647
 Alpha virt. eigenvalues --    0.05428   0.05768   0.06305   0.07219   0.07477
 Alpha virt. eigenvalues --    0.08337   0.08377   0.08805   0.09449   0.10002
 Alpha virt. eigenvalues --    0.10295   0.10747   0.10871   0.11342   0.11486
 Alpha virt. eigenvalues --    0.12250   0.13175   0.13743   0.13881   0.14058
 Alpha virt. eigenvalues --    0.14722   0.15090   0.15547   0.15768   0.16180
[...]
    29  H    0.002745   0.000297  -0.000001  -0.000194   0.000000  -0.000000
    30  H    0.000008  -0.000017  -0.000000   0.000027   0.000000  -0.000000
    31  H    0.000007   0.000020  -0.000000  -0.000012  -0.000000   0.000000
    32  H   -0.000000  -0.000013  -0.000000  -0.000009   0.000000  -0.000000
    33  H   -0.000000   0.000031   0.000000  -0.000033   0.000002   0.000000
    34  H   -0.000020  -0.002208   0.000009   0.000939   0.000358   0.000000
    35  H    0.000000  -0.000020  -0.000000  -0.000457   0.000182  -0.000009
    36  H   -0.000000   0.000020  -0.000000  -0.000015   0.000000  -0.000000
    37  H   -0.000000  -0.000000   0.000000   0.000000   0.000000   0.000000
    38  H   -0.000025  -0.000042   0.000000   0.000006   0.000000  -0.000000
    39  H    0.000786   0.003134  -0.000070  -0.001769  -0.000023   0.000000
    40  H   -0.039757  -0.021538  -0.006632  -0.032664  -0.000480  -0.000010
    41  H    0.300564  -0.009612  -0.000273  -0.002677  -0.000007  -0.000000
    42  H   -0.008552   0.419537  -0.039548  -0.062842  -0.010035  -0.000003
    43  H    0.000905  -0.026337   0.299554  -0.016234   0.000039   0.000002
    44  H   -0.000680  -0.017615  -0.005064   0.346719  -0.044399  -0.001707
    45  H   -0.000016  -0.005669   0.000735  -0.026328   0.300730   0.000017
              25         26         27         28         29         30
     1  O   -0.047212  -0.053146   0.007997   0.000065  -0.000000   0.000000
     2  C    0.413327   0.371210   0.003379  -0.001294  -0.000015  -0.000010
     3  C   -0.067224   0.000843   0.213257  -0.001472   0.000523  -0.000327
     4  O   -0.002980   0.006876  -0.038042  -0.055443   0.000319  -0.000097
     5  C   -0.003316   0.003583  -0.008614   0.414139   0.007728   0.000670
     6  O    0.000045  -0.000061   0.029189  -0.057518  -0.009029   0.007545
     7  C   -0.000864   0.000230  -0.006752  -0.027689  -0.081164   0.017529
     8  C   -0.000163   0.000016  -0.003977  -0.012013   0.457439   0.319686
     9  O    0.000085   0.000001   0.000071   0.053313  -0.054636  -0.041412
    10  O    0.002483  -0.000024  -0.015072   0.000056   0.007123  -0.007495
    11  C    0.000137  -0.000490   0.010260   0.000346   0.000783  -0.006258
    12  C    0.000130   0.000672  -0.035244   0.000009   0.000004  -0.000132
    13  O    0.005744   0.002432   0.025808  -0.000000  -0.000001   0.000006
    14  C    0.000026   0.000038   0.000397  -0.000970   0.005079  -0.003785
    15  O   -0.000002   0.000000  -0.000107  -0.000009   0.000550   0.014161
    16  C    0.000132  -0.000069   0.000016   0.004897  -0.016882   0.005819
    17  O   -0.000004   0.000000  -0.000625   0.000047  -0.000118   0.000703
    18  C    0.001263  -0.001551  -0.016414  -0.068955   0.000620  -0.000294
    19  O   -0.000003   0.000000   0.000028   0.012076   0.002745   0.000008
    20  C   -0.001261   0.001105  -0.000152   0.011419   0.000297  -0.000017
    21  O    0.000016  -0.000038  -0.001174  -0.000231  -0.000001  -0.000000
    22  C    0.019112  -0.031729  -0.020192   0.000517  -0.000194   0.000027
    23  O    0.000316   0.019605  -0.011809   0.000080   0.000000   0.000000
    24  H   -0.000083  -0.004942  -0.001137  -0.000001  -0.000000  -0.000000
    25  H    0.591786  -0.052700  -0.001453  -0.000148   0.000001  -0.000002
    26  H   -0.052700   0.594615  -0.002730   0.000028  -0.000000   0.000000
    27  H   -0.001453  -0.002730   0.674423   0.000822  -0.000011   0.000095
    28  H   -0.000148   0.000028   0.000822   0.552091  -0.009668   0.002978
    29  H    0.000001  -0.000000  -0.000011  -0.009668   0.568773  -0.052695
    30  H   -0.000002   0.000000   0.000095   0.002978  -0.052695   0.594626
    31  H   -0.000002  -0.000000   0.000004  -0.000198  -0.002350  -0.002856
    32  H    0.000008  -0.000050  -0.001366  -0.000006  -0.000015  -0.000260
    33  H    0.000037   0.000036  -0.000403  -0.000000  -0.000006  -0.000001
    34  H    0.000017  -0.000390  -0.013092  -0.000061   0.000022  -0.000075
    35  H   -0.001309   0.001572  -0.000908  -0.000001   0.000000   0.000000
    36  H   -0.000003  -0.000001  -0.000108  -0.000010   0.000074   0.000351
    37  H   -0.000000   0.000000  -0.000004   0.000000  -0.000014  -0.000620
    38  H   -0.000000  -0.000000   0.000027  -0.000128   0.000510  -0.005298
    39  H   -0.000012  -0.000003  -0.000273  -0.000130  -0.000247   0.000035
    40  H   -0.000013   0.000024   0.000978  -0.011760  -0.000062   0.000001
    41  H    0.000000   0.000000   0.000043  -0.003120   0.000208   0.000033
    42  H    0.000082   0.000198   0.005477  -0.000958   0.000025  -0.000006
    43  H    0.000001  -0.000011   0.000033  -0.000144  -0.000000   0.000000
    44  H    0.001324  -0.000820   0.018073  -0.000659   0.000002   0.000000
    45  H   -0.000256   0.001925   0.006275  -0.000006   0.000000   0.000000
              31         32         33         34         35         36
     1  O   -0.000000  -0.000001   0.000001  -0.000009  -0.000021  -0.000000
     2  C    0.000001   0.000235   0.000019  -0.000533   0.000026   0.000008
     3  C    0.000063   0.000547   0.000453   0.008430   0.001265   0.000054
     4  O    0.000092  -0.000062  -0.000013  -0.000335   0.000020   0.000002
     5  C    0.000800  -0.000477  -0.000062  -0.003791   0.000004  -0.000076
     6  O   -0.000625  -0.000634  -0.000104  -0.000272   0.000015  -0.000348
     7  C    0.015477  -0.009306   0.005000  -0.020620   0.000213   0.018346
     8  C   -0.034378   0.002550   0.000146   0.001414   0.000010   0.000562
     9  O    0.302313   0.000035  -0.000001   0.000005  -0.000000   0.000026
    10  O   -0.000460  -0.031819   0.007278  -0.008128  -0.000783   0.005925
    11  C    0.000149   0.335754  -0.059738  -0.025939   0.011124  -0.084018
    12  C   -0.000002  -0.027404   0.395283   0.389053  -0.027499   0.015575
    13  O   -0.000000   0.010673  -0.044457  -0.051521   0.298976   0.000170
    14  C   -0.000045  -0.010520   0.025445  -0.030637  -0.001733   0.464755
    15  O   -0.000016  -0.008842   0.000243  -0.000170   0.000016  -0.035269
    16  C   -0.001506   0.018326  -0.012469   0.040151   0.000053  -0.113632
    17  O    0.000009  -0.000833   0.000968   0.014823   0.000049   0.010121
    18  C   -0.000078   0.000022   0.000001   0.000993  -0.000013   0.000007
    19  O    0.000007  -0.000000  -0.000000  -0.000020   0.000000  -0.000000
    20  C    0.000020  -0.000013   0.000031  -0.002208  -0.000020   0.000020
    21  O   -0.000000  -0.000000   0.000000   0.000009  -0.000000  -0.000000
    22  C   -0.000012  -0.000009  -0.000033   0.000939  -0.000457  -0.000015
    23  O   -0.000000   0.000000   0.000002   0.000358   0.000182   0.000000
    24  H    0.000000  -0.000000   0.000000   0.000000  -0.000009  -0.000000
    25  H   -0.000002   0.000008   0.000037   0.000017  -0.001309  -0.000003
    26  H   -0.000000  -0.000050   0.000036  -0.000390   0.001572  -0.000001
    27  H    0.000004  -0.001366  -0.000403  -0.013092  -0.000908  -0.000108
    28  H   -0.000198  -0.000006  -0.000000  -0.000061  -0.000001  -0.000010
    29  H   -0.002350  -0.000015  -0.000006   0.000022   0.000000   0.000074
    30  H   -0.002856  -0.000260  -0.000001  -0.000075   0.000000   0.000351
    31  H    0.406175   0.000003   0.000000   0.000001  -0.000000  -0.000002
    32  H    0.000003   0.520503  -0.006390   0.009314  -0.000272   0.002735
    33  H    0.000000  -0.006390   0.581114  -0.048623  -0.003693   0.001883
    34  H    0.000001   0.009314  -0.048623   0.577497  -0.002671   0.002109
    35  H   -0.000000  -0.000272  -0.003693  -0.002671   0.408353  -0.000021
    36  H   -0.000002   0.002735   0.001883   0.002109  -0.000021   0.504187
    37  H    0.000002  -0.000148   0.000262  -0.000113   0.000004  -0.006196
    38  H    0.000046  -0.000215  -0.000199   0.001373  -0.000003   0.000147
    39  H    0.000015   0.000060   0.000378  -0.002665   0.000011   0.000407
    40  H    0.000003   0.000000  -0.000000  -0.000002   0.000000  -0.000000
    41  H   -0.000005   0.000001  -0.000000  -0.000084  -0.000000  -0.000006
    42  H    0.000000   0.000003  -0.000048   0.002007   0.000013  -0.000011
    43  H   -0.000000   0.000000   0.000000   0.000001  -0.000000   0.000000
    44  H   -0.000000  -0.000000  -0.000002   0.000010   0.000014   0.000000
    45  H   -0.000000  -0.000001   0.000025   0.000150   0.000206   0.000001
              37         38         39         40         41         42
     1  O    0.000000  -0.000000   0.000000   0.000248   0.000000   0.000028
     2  C    0.000000   0.000002   0.000174  -0.000481   0.000017  -0.004015
     3  C    0.000002   0.000012   0.002407   0.015294   0.001951  -0.005188
     4  O    0.000000   0.000022   0.000407   0.006000   0.000657   0.001379
     5  C   -0.000011  -0.000893  -0.011376  -0.093572  -0.045005  -0.019656
     6  O    0.000003   0.001493   0.028363   0.009290   0.020371   0.014558
     7  C   -0.002480  -0.057655  -0.023203   0.001050   0.002024   0.003608
     8  C    0.001030   0.016964   0.000279   0.000106  -0.000570   0.000174
     9  O   -0.000036   0.000212  -0.000091   0.000158   0.000075   0.000024
    10  O   -0.000158   0.006380   0.001760   0.000037   0.000070   0.000031
    11  C    0.003591   0.019996  -0.000017  -0.000024  -0.000198  -0.000348
    12  C    0.000327  -0.000643  -0.001656  -0.000001   0.000040  -0.000145
    13  O   -0.000068   0.000037  -0.000008  -0.000001  -0.000000  -0.000160
    14  C   -0.043400  -0.112262   0.016511   0.000005   0.000397  -0.000423
    15  O    0.309418   0.003045  -0.000303   0.000000  -0.000002   0.000001
    16  C    0.016891   0.436287  -0.048833  -0.000012   0.000345   0.001426
    17  O   -0.000346  -0.041734   0.319309   0.000001   0.001142   0.000950
    18  C    0.000000   0.000282   0.003436   0.428918  -0.002605  -0.067579
    19  O   -0.000000  -0.000025   0.000786  -0.039757   0.300564  -0.008552
    20  C   -0.000000  -0.000042   0.003134  -0.021538  -0.009612   0.419537
    21  O    0.000000   0.000000  -0.000070  -0.006632  -0.000273  -0.039548
    22  C    0.000000   0.000006  -0.001769  -0.032664  -0.002677  -0.062842
    23  O    0.000000   0.000000  -0.000023  -0.000480  -0.000007  -0.010035
    24  H    0.000000  -0.000000   0.000000  -0.000010  -0.000000  -0.000003
    25  H   -0.000000  -0.000000  -0.000012  -0.000013   0.000000   0.000082
    26  H    0.000000  -0.000000  -0.000003   0.000024   0.000000   0.000198
    27  H   -0.000004   0.000027  -0.000273   0.000978   0.000043   0.005477
    28  H    0.000000  -0.000128  -0.000130  -0.011760  -0.003120  -0.000958
    29  H   -0.000014   0.000510  -0.000247  -0.000062   0.000208   0.000025
    30  H   -0.000620  -0.005298   0.000035   0.000001   0.000033  -0.000006
    31  H    0.000002   0.000046   0.000015   0.000003  -0.000005   0.000000
    32  H   -0.000148  -0.000215   0.000060   0.000000   0.000001   0.000003
    33  H    0.000262  -0.000199   0.000378  -0.000000  -0.000000  -0.000048
    34  H   -0.000113   0.001373  -0.002665  -0.000002  -0.000084   0.002007
    35  H    0.000004  -0.000003   0.000011   0.000000  -0.000000   0.000013
    36  H   -0.006196   0.000147   0.000407  -0.000000  -0.000006  -0.000011
    37  H    0.403995   0.000003   0.000039  -0.000000   0.000000  -0.000000
    38  H    0.000003   0.523301  -0.001612  -0.000005  -0.000406   0.000067
    39  H    0.000039  -0.001612   0.381620   0.000159   0.002746  -0.000194
    40  H   -0.000000  -0.000005   0.000159   0.521693   0.008436   0.007377
    41  H    0.000000  -0.000406   0.002746   0.008436   0.414641   0.003524
    42  H   -0.000000   0.000067  -0.000194   0.007377   0.003524   0.532920
    43  H   -0.000000   0.000000   0.000005   0.005879   0.000004   0.008206
    44  H   -0.000000  -0.000000  -0.000013   0.007606   0.000050   0.009594
    45  H    0.000000  -0.000000   0.000005   0.000062  -0.000002   0.005240
              43         44         45
     1  O   -0.000035   0.035020  -0.000152
     2  C   -0.000202  -0.018512  -0.009451
     3  C    0.001497  -0.050534  -0.003759
     4  O    0.000248   0.002958   0.000281
     5  C   -0.002310  -0.019978  -0.000970
     6  O    0.000051   0.001654  -0.000013
     7  C    0.000025   0.000245   0.000158
     8  C    0.000001  -0.000025   0.000003
     9  O   -0.000000   0.000002  -0.000000
    10  O   -0.000000   0.000001   0.000009
    11  C    0.000000   0.000009  -0.000072
    12  C   -0.000001  -0.000116  -0.000177
    13  O    0.000000  -0.000016   0.000198
    14  C   -0.000000  -0.000001   0.000026
    15  O   -0.000000   0.000000   0.000000
    16  C    0.000003   0.000006  -0.000044
    17  O   -0.000000   0.000000  -0.000020
    18  C   -0.007732  -0.009169  -0.000052
    19  O    0.000905  -0.000680  -0.000016
    20  C   -0.026337  -0.017615  -0.005669
    21  O    0.299554  -0.005064   0.000735
    22  C   -0.016234   0.346719  -0.026328
    23  O    0.000039  -0.044399   0.300730
    24  H    0.000002  -0.001707   0.000017
    25  H    0.000001   0.001324  -0.000256
    26  H   -0.000011  -0.000820   0.001925
    27  H    0.000033   0.018073   0.006275
    28  H   -0.000144  -0.000659  -0.000006
    29  H   -0.000000   0.000002   0.000000
    30  H    0.000000   0.000000   0.000000
    31  H   -0.000000  -0.000000  -0.000000
    32  H    0.000000  -0.000000  -0.000001
    33  H    0.000000  -0.000002   0.000025
    34  H    0.000001   0.000010   0.000150
    35  H   -0.000000   0.000014   0.000206
    36  H    0.000000   0.000000   0.000001
    37  H   -0.000000  -0.000000   0.000000
    38  H    0.000000  -0.000000  -0.000000
    39  H    0.000005  -0.000013   0.000005
    40  H    0.005879   0.007606   0.000062
    41  H    0.000004   0.000050  -0.000002
    42  H    0.008206   0.009594   0.005240
    43  H    0.424731   0.006495   0.000012
    44  H    0.006495   0.550645   0.007482
    45  H    0.000012   0.007482   0.414548
 Mulliken charges:
               1
     1  O   -0.419368
     2  C   -0.162329
     3  C    0.004615
     4  O   -0.212038
     5  C   -0.008118
     6  O   -0.293044
     7  C    0.046977
     8  C   -0.239628
     9  O   -0.400010
    10  O   -0.206046
    11  C    0.088474
    12  C   -0.268495
    13  O   -0.413122
    14  C   -0.190154
    15  O   -0.381906
    16  C   -0.093630
    17  O   -0.382999
    18  C   -0.127487
    19  O   -0.379379
    20  C   -0.084264
    21  O   -0.373802
    22  C   -0.156841
    23  O   -0.385304
    24  H    0.311978
    25  H    0.142936
    26  H    0.143746
    27  H    0.183006
    28  H    0.199709
    29  H    0.174285
    30  H    0.157366
    31  H    0.317354
    32  H    0.197876
    33  H    0.157636
    34  H    0.163279
    35  H    0.317288
    36  H    0.212249
    37  H    0.318028
    38  H    0.210911
    39  H    0.330450
    40  H    0.193687
    41  H    0.307235
    42  H    0.203262
    43  H    0.305317
    44  H    0.181398
    45  H    0.308899
 Sum of Mulliken charges =  -0.00000
 Mulliken charges with hydrogens summed into heavy atoms:
               1
     1  O   -0.107390
     2  C    0.124353
     3  C    0.187621
     4  O   -0.212038
     5  C    0.191592
     6  O   -0.293044
     7  C    0.046977
     8  C    0.092022
     9  O   -0.082656
    10  O   -0.206046
    11  C    0.286350
    12  C    0.052421
    13  O   -0.095835
    14  C    0.022095
    15  O   -0.063878
    16  C    0.117281
    17  O   -0.052548
    18  C    0.066200
    19  O   -0.072145
    20  C    0.118998
    21  O   -0.068485
    22  C    0.024557
    23  O   -0.076404
 Electronic spatial extent (au):  <R**2>=           6804.2326
 Charge=              0.0000 electrons
 Dipole moment (field-independent basis, Debye):
    X=             -5.2970    Y=              2.8769    Z=             -1.3878  Tot=              6.1855
 Quadrupole moment (field-independent basis, Debye-Ang):
   XX=           -132.8998   YY=           -125.9373   ZZ=           -139.5367
   XY=              4.1255   XZ=              5.3165   YZ=            -17.6121
 Traceless Quadrupole moment (field-independent basis, Debye-Ang):
   XX=             -0.1085   YY=              6.8539   ZZ=             -6.7454
   XY=              4.1255   XZ=              5.3165   YZ=            -17.6121
 Octapole moment (field-independent basis, Debye-Ang**2):
  XXX=            -83.7353  YYY=             74.0364  ZZZ=             31.3941  XYY=            -16.2519
  XXY=             34.7978  XXZ=             51.7870  XZZ=            -30.1543  YZZ=             14.3788
  YYZ=             25.3246  XYZ=             27.4541
 Hexadecapole moment (field-independent basis, Debye-Ang**3):
 XXXX=          -4451.5906 YYYY=          -2256.3200 ZZZZ=          -1341.8855 XXXY=           -329.3762
 XXXZ=            148.4416 YYYX=            276.0725 YYYZ=            -31.1064 ZZZX=            -79.7907
 ZZZY=           -128.3621 XXYY=          -1026.1755 XXZZ=          -1074.7298 YYZZ=           -476.6638
 XXYZ=            -47.8021 YYXZ=             75.2900 ZZXY=            104.3426
 N-N= 2.421480482487D+03 E-N=-7.892374030730D+03  KE= 1.292933984075D+03
 Unable to Open any file for archive entry.
 1\1\GINC-TCN1657\SP\RBP86\TZVP\C12H22O11\ELENAA\22-Feb-2021\0\\# BP86/
 TZVP SCRF=COSMORS geom=CHECKPOINT guess=CHECKPOINT\\COSMO-file for #CZ
 MRCDWAGMRECN-FBXJDJJESA-N\\0,1\O,0,0.4106496414,-1.1092319498,-0.19957
 17657\C,0,0.5119725418,0.0672551527,0.6255106689\C,0,-0.3615751302,-0.
 0951231393,1.8530757011\O,0,0.2024240677,-1.1603639211,2.6588463139\C,
 0,-0.4685474772,-1.3563494683,3.8782676095\O,0,-0.5063262794,-0.169286
 1462,4.7019776844\C,0,0.678496523,0.2995993453,5.3742093393\C,0,1.4020
 069186,-0.7897257265,6.1716285565\O,0,2.1417454791,-1.6594013398,5.302
 2683884\O,0,1.574519188,0.9137719307,4.453365194\C,0,1.5920893856,2.35
 39444592,4.6456101781\C,0,0.6813001353,3.0830344661,3.6640889585\O,0,1
 .2121024987,2.8824710962,2.3411842656\C,0,1.1964109416,2.5539441522,6.
 1185769755\O,0,2.294437957,2.3134499474,7.0137654056\C,0,0.1764935357,
 1.4289356374,6.3478879685\O,0,-1.1320414945,1.8969457019,6.0302202865\
 C,0,-1.9460841569,-1.7298191485,3.6600970311\O,0,-2.6086340288,-1.9878
 174554,4.9008335962\C,0,-2.6513699572,-0.6593460762,2.7998687034\O,0,-
 4.0131884661,-1.0044317518,2.5169595164\C,0,-1.8383619661,-0.385463391
 9,1.5193172851\O,0,-2.4013642349,0.6787859468,0.7371890359\H,0,0.92202
 78551,-0.939437026,-1.0095597495\H,0,1.5494361897,0.2383777646,0.96194
 31854\H,0,0.1669385199,0.9665615176,0.0861577282\H,0,-0.2949234668,0.8
 495800342,2.4195508949\H,0,0.0746843681,-2.1579038288,4.3946045738\H,0
 ,0.6419079136,-1.3435217778,6.7540934588\H,0,2.0743186217,-0.266727549
 ,6.8745357834\H,0,2.60611924,-2.3003871861,5.8690532282\H,0,2.63067378
 58,2.6750650636,4.4641815958\H,0,0.6690635661,4.1572057962,3.928712962
 6\H,0,-0.349136364,2.6963614953,3.7516945088\H,0,0.5870768013,3.279068
 7596,1.7088902335\H,0,0.7311820875,3.5358846737,6.3055887822\H,0,2.982
 8688173,2.9777791539,6.8295446746\H,0,0.2140721292,1.0826096129,7.3944
 792109\H,0,-1.5087744931,1.2219821312,5.4256684903\H,0,-1.9557722419,-
 2.6843620639,3.1096290819\H,0,-2.4328024483,-1.2197821852,5.4784208406
 \H,0,-2.7137389678,0.2760308468,3.3821103788\H,0,-4.0094477823,-1.8220
 7129,1.9836769579\H,0,-1.8811626592,-1.27522083,0.870635397\H,0,-2.413
 2270942,1.4836785661,1.2896708853\\Version=ES64L-G16RevC.01\State=1-A\
 HF=-1298.4558331\RMSD=8.206e-09\Dipole=1.2515711,1.9096114,0.8421845\Q
 uadrupole=-14.3572784,10.9299086,3.4273698,0.9798129,4.4279868,-5.7282
 135\PG=C01 [X(C12H22O11)]\\@
 The archive entry for this job was punched.


 KNOWLEDGE IS EXPERIMENT'S DAUGHTER.
 -- LEONARDO DA VINCI, IN "PENSIERI" CA. 1492
 Job cpu time:       0 days  0 hours 41 minutes 29.3 seconds.
 Elapsed time:       0 days  0 hours  1 minutes 19.1 seconds.
 File lengths (MBytes):  RWF=    226 Int=      0 D2E=      0 Chk=     29 Scr=      1
 Normal termination of Gaussian 16 at Mon Feb 22 21:38:03 2021.
