 Entering Gaussian System, Link 0=g16
 Input=DLFVBJFMPXGRIB-UHFFFAOYSA-N.gjf
 Output=DLFVBJFMPXGRIB-UHFFFAOYSA-N.log
 Initial command:
 /sw/arch/RedHatEnterpriseServer7/EB_production/2019/software/Gaussian/g16.c01/l1.exe "/scratch-local/elenaa.9715195/Gau-24155.inp" -scrdir="/scratch-local/elenaa.9715195/"
 Entering Link 1 = /sw/arch/RedHatEnterpriseServer7/EB_production/2019/software/Gaussian/g16.c01/l1.exe PID=     24156.
  
 Copyright (c) 1988-2019, Gaussian, Inc.  All Rights Reserved.
  
 This is part of the Gaussian(R) 16 program.  It is based on
 the Gaussian(R) 09 system (copyright 2009, Gaussian, Inc.),
 the Gaussian(R) 03 system (copyright 2003, Gaussian, Inc.),
 the Gaussian(R) 98 system (copyright 1998, Gaussian, Inc.),
 the Gaussian(R) 94 system (copyright 1995, Gaussian, Inc.),
 the Gaussian 92(TM) system (copyright 1992, Gaussian, Inc.),
 the Gaussian 90(TM) system (copyright 1990, Gaussian, Inc.),
 the Gaussian 88(TM) system (copyright 1988, Gaussian, Inc.),
 the Gaussian 86(TM) system (copyright 1986, Carnegie Mellon
 University), and the Gaussian 82(TM) system (copyright 1983,
 Carnegie Mellon University). Gaussian is a federally registered
 trademark of Gaussian, Inc.
  
 This software contains proprietary and confidential information,
 including trade secrets, belonging to Gaussian, Inc.
  
 This software is provided under written license and may be
 used, copied, transmitted, or stored only in accord with that
 written license.
  
 The following legend is applicable only to US Government
 contracts under FAR:
  
                    RESTRICTED RIGHTS LEGEND
  
 Use, reproduction and disclosure by the US Government is
 subject to restrictions as set forth in subparagraphs (a)
 and (c) of the Commercial Computer Software - Restricted
 Rights clause in FAR 52.227-19.
  
 Gaussian, Inc.
 340 Quinnipiac St., Bldg. 40, Wallingford CT 06492
  
  
 ---------------------------------------------------------------
 Warning -- This program may not be used in any manner that
 competes with the business of Gaussian, Inc. or will provide
 assistance to any competitor of Gaussian, Inc.  The licensee
 of this program is prohibited from giving any competitor of
 Gaussian, Inc. access to this program.  By using this program,
 the user acknowledges that Gaussian, Inc. is engaged in the
 business of creating and licensing software in the field of
 computational chemistry and represents and warrants to the
 licensee that it is not a competitor of Gaussian, Inc. and that
 it will not use this program in any manner prohibited above.
 ---------------------------------------------------------------
  

 Cite this work as:
 Gaussian 16, Revision C.01,
 M. J. Frisch, G. W. Trucks, H. B. Schlegel, G. E. Scuseria, 
 M. A. Robb, J. R. Cheeseman, G. Scalmani, V. Barone, 
 G. A. Petersson, H. Nakatsuji, X. Li, M. Caricato, A. V. Marenich, 
 J. Bloino, B. G. Janesko, R. Gomperts, B. Mennucci, H. P. Hratchian, 
 J. V. Ortiz, A. F. Izmaylov, J. L. Sonnenberg, D. Williams-Young, 
 F. Ding, F. Lipparini, F. Egidi, J. Goings, B. Peng, A. Petrone, 
 T. Henderson, D. Ranasinghe, V. G. Zakrzewski, J. Gao, N. Rega, 
 G. Zheng, W. Liang, M. Hada, M. Ehara, K. Toyota, R. Fukuda, 
 J. Hasegawa, M. Ishida, T. Nakajima, Y. Honda, O. Kitao, H. Nakai, 
 T. Vreven, K. Throssell, J. A. Montgomery, Jr., J. E. Peralta, 
 F. Ogliaro, M. J. Bearpark, J. J. Heyd, E. N. Brothers, K. N. Kudin, 
 V. N. Staroverov, T. A. Keith, R. Kobayashi, J. Normand, 
 K. Raghavachari, A. P. Rendell, J. C. Burant, S. S. Iyengar, 
 J. Tomasi, M. Cossi, J. M. Millam, M. Klene, C. Adamo, R. Cammi, 
 J. W. Ochterski, R. L. Martin, K. Morokuma, O. Farkas, 
 J. B. Foresman, and D. J. Fox, Gaussian, Inc., Wallingford CT, 2019.
 
 ******************************************
 Gaussian 16:  ES64L-G16RevC.01  3-Jul-2019
                22-Feb-2021 
 ******************************************
 %chk=DLFVBJFMPXGRIB-UHFFFAOYSA-N.chk
 %NProcShared=32
 Will use up to   32 processors via shared memory.
 -------------------------------------------------------------
 #P BP86/TZVP EmpiricalDispersion=GD3 SCRF=(Solvent=Water) Opt
 -------------------------------------------------------------
 1/18=20,19=15,26=3,38=1/1,3;
 2/9=110,12=2,17=6,18=5,40=1/2;
 3/5=19,7=101,11=2,25=1,30=1,70=2201,71=1,72=1,74=404,124=31/1,2,3;
 4//1;
 5/5=2,38=5,53=1/2;
 6/7=2,8=2,9=2,10=2,28=1/1;
 7//1,2,3,16;
 1/18=20,19=15,26=3/3(2);
 2/9=110/2;
 99//99;
 2/9=110/2;
 3/5=19,7=101,11=2,25=1,30=1,70=2205,71=1,72=1,74=404,124=31/1,2,3;
 4/5=5,16=3,69=1/1;
 5/5=2,38=5,53=1/2;
 7//1,2,3,16;
 1/18=20,19=15,26=3/3(-5);
 2/9=110/2;
 6/7=2,8=2,9=2,10=2,19=2,28=1/1;
 99/9=1/99;
 Leave Link    1 at Mon Feb 22 20:57:45 2021, MaxMem=           0 cpu:               2.3 elap:               0.1
 (Enter /sw/arch/RedHatEnterpriseServer7/EB_production/2019/software/Gaussian/g16.c01/l101.exe)
 -------------------------------------
 Particle #DLFVBJFMPXGRIB-UHFFFAOYSA-N
 -------------------------------------
 Symbolic Z-matrix:
 Charge =  0 Multiplicity = 1
 C                     1.11566   0.75711   0.79672 
 C                    -0.04813   0.15971   0.12406 
 N                    -0.88269   0.9256   -0.60059 
 O                    -0.28249  -1.06684   0.21239 
 H                     1.77016   1.21855   0.05498 
 H                     1.68501  -0.00088   1.34085 
 H                     0.78469   1.5196    1.50297 
 H                    -0.71918   1.87791  -0.68595 
 H                    -1.65104   0.52809  -1.03991 
 
 ITRead=  0  0  0  0  0  0  0  0  0
 MicOpt= -1 -1 -1 -1 -1 -1 -1 -1 -1
 NAtoms=      9 NQM=        9 NQMF=       0 NMMI=      0 NMMIF=      0
                NMic=       0 NMicF=      0.
                    Isotopes and Nuclear Properties:
 (Nuclear quadrupole moments (NQMom) in fm**2, nuclear magnetic moments (NMagM)
  in nuclear magnetons)

  Atom         1           2           3           4           5           6           7           8           9
 IAtWgt=          12          12          14          16           1           1           1           1           1
 AtmWgt=  12.0000000  12.0000000  14.0030740  15.9949146   1.0078250   1.0078250   1.0078250   1.0078250   1.0078250
 NucSpn=           0           0           2           0           1           1           1           1           1
 AtZEff=  -0.0000000  -0.0000000  -0.0000000  -0.0000000  -0.0000000  -0.0000000  -0.0000000  -0.0000000  -0.0000000
 NQMom=    0.0000000   0.0000000   2.0440000   0.0000000   0.0000000   0.0000000   0.0000000   0.0000000   0.0000000
 NMagM=    0.0000000   0.0000000   0.4037610   0.0000000   2.7928460   2.7928460   2.7928460   2.7928460   2.7928460
 AtZNuc=   6.0000000   6.0000000   7.0000000   8.0000000   1.0000000   1.0000000   1.0000000   1.0000000   1.0000000
 Leave Link  101 at Mon Feb 22 20:57:45 2021, MaxMem=   104857600 cpu:               2.8 elap:               0.1
 (Enter /sw/arch/RedHatEnterpriseServer7/EB_production/2019/software/Gaussian/g16.c01/l103.exe)

 GradGradGradGradGradGradGradGradGradGradGradGradGradGradGradGradGradGrad
 Berny optimization.
 Initialization pass.
                           ----------------------------
                           !    Initial Parameters    !
                           ! (Angstroms and Degrees)  !
 --------------------------                            --------------------------
 ! Name  Definition              Value          Derivative Info.                !
 --------------------------------------------------------------------------------
 ! R1    R(1,2)                  1.471          estimate D2E/DX2                !
 ! R2    R(1,5)                  1.0915         estimate D2E/DX2                !
 ! R3    R(1,6)                  1.0931         estimate D2E/DX2                !
 ! R4    R(1,7)                  1.0907         estimate D2E/DX2                !
 ! R5    R(2,3)                  1.3447         estimate D2E/DX2                !
 ! R6    R(2,4)                  1.2519         estimate D2E/DX2                !
 ! R7    R(3,8)                  0.97           estimate D2E/DX2                !
 ! R8    R(3,9)                  0.9702         estimate D2E/DX2                !
 ! A1    A(2,1,5)              109.5929         estimate D2E/DX2                !
 ! A2    A(2,1,6)              110.9842         estimate D2E/DX2                !
 ! A3    A(2,1,7)              109.8724         estimate D2E/DX2                !
 ! A4    A(5,1,6)              108.6086         estimate D2E/DX2                !
 ! A5    A(5,1,7)              109.0514         estimate D2E/DX2                !
 ! A6    A(6,1,7)              108.6926         estimate D2E/DX2                !
 ! A7    A(1,2,3)              120.4072         estimate D2E/DX2                !
 ! A8    A(1,2,4)              120.9148         estimate D2E/DX2                !
 ! A9    A(3,2,4)              118.678          estimate D2E/DX2                !
 ! A10   A(2,3,8)              120.131          estimate D2E/DX2                !
 ! A11   A(2,3,9)              120.142          estimate D2E/DX2                !
 ! A12   A(8,3,9)              119.727          estimate D2E/DX2                !
 ! D1    D(5,1,2,3)            -60.1376         estimate D2E/DX2                !
 ! D2    D(5,1,2,4)            119.8349         estimate D2E/DX2                !
 ! D3    D(6,1,2,3)            179.909          estimate D2E/DX2                !
 ! D4    D(6,1,2,4)             -0.1185         estimate D2E/DX2                !
 ! D5    D(7,1,2,3)             59.6689         estimate D2E/DX2                !
 ! D6    D(7,1,2,4)           -120.3586         estimate D2E/DX2                !
 ! D7    D(1,2,3,8)              0.206          estimate D2E/DX2                !
 ! D8    D(1,2,3,9)           -179.7691         estimate D2E/DX2                !
 ! D9    D(4,2,3,8)           -179.7671         estimate D2E/DX2                !
 ! D10   D(4,2,3,9)              0.2579         estimate D2E/DX2                !
 --------------------------------------------------------------------------------
 Trust Radius=3.00D-01 FncErr=1.00D-07 GrdErr=1.00D-06 EigMax=2.50D+02 EigMin=1.00D-04
 Number of steps in this run=     40 maximum allowed number of steps=    100.
 GradGradGradGradGradGradGradGradGradGradGradGradGradGradGradGradGradGrad

 Leave Link  103 at Mon Feb 22 20:57:45 2021, MaxMem=   104857600 cpu:               0.8 elap:               0.1
 (Enter /sw/arch/RedHatEnterpriseServer7/EB_production/2019/software/Gaussian/g16.c01/l202.exe)
                          Input orientation:                          
 ---------------------------------------------------------------------
 Center     Atomic      Atomic             Coordinates (Angstroms)
 Number     Number       Type             X           Y           Z
 ---------------------------------------------------------------------
      1          6           0        1.115660    0.757110    0.796720
      2          6           0       -0.048130    0.159710    0.124060
      3          7           0       -0.882690    0.925600   -0.600590
      4          8           0       -0.282490   -1.066840    0.212390
      5          1           0        1.770160    1.218550    0.054980
      6          1           0        1.685010   -0.000880    1.340850
      7          1           0        0.784690    1.519600    1.502970
      8          1           0       -0.719180    1.877910   -0.685950
      9          1           0       -1.651040    0.528090   -1.039910
 ---------------------------------------------------------------------
                    Distance matrix (angstroms):
                    1          2          3          4          5
     1  C    0.000000
     2  C    1.470974   0.000000
     3  N    2.444231   1.344692   0.000000
     4  O    2.371299   1.251859   2.234053   0.000000
     5  H    1.091547   2.105254   2.748309   3.075899   0.000000
     6  H    1.093063   2.123709   3.349722   2.506142   1.774182
     7  H    1.090743   2.108147   2.749174   3.081257   1.777205
     8  H    2.611731   2.014606   0.970008   3.109544   2.679654
     9  H    3.328707   2.014907   0.970246   2.446423   3.657886
                    6          7          8          9
     6  H    0.000000
     7  H    1.774463   0.000000
     8  H    3.663045   2.679810   0.000000
     9  H    4.132440   3.658157   1.677994   0.000000
 Stoichiometry    C2H5NO
 Framework group  C1[X(C2H5NO)]
 Deg. of freedom    21
 Full point group                 C1      NOp   1
 Largest Abelian subgroup         C1      NOp   1
 Largest concise Abelian subgroup C1      NOp   1
                         Standard orientation:                         
 ---------------------------------------------------------------------
 Center     Atomic      Atomic             Coordinates (Angstroms)
 Number     Number       Type             X           Y           Z
 ---------------------------------------------------------------------
      1          6           0        1.347571   -0.349581   -0.000544
      2          6           0       -0.051321    0.105246   -0.000262
      3          7           0       -1.057164   -0.787209    0.000009
      4          8           0       -0.330878    1.325492    0.000246
      5          1           0        1.537542   -0.949650    0.891254
      6          1           0        2.035387    0.499943   -0.002364
      7          1           0        1.539807   -0.956910   -0.885935
      8          1           0       -0.864596   -1.737905    0.003037
      9          1           0       -1.978463   -0.482944   -0.003187
 ---------------------------------------------------------------------
 Rotational constants (GHZ):          11.2062322           9.2914232           5.2475931
 Leave Link  202 at Mon Feb 22 20:57:45 2021, MaxMem=   104857600 cpu:               1.5 elap:               0.1
 (Enter /sw/arch/RedHatEnterpriseServer7/EB_production/2019/software/Gaussian/g16.c01/l301.exe)
 Standard basis: TZVP (5D, 7F)
 Ernie: Thresh=  0.10000D-02 Tol=  0.10000D-05 Strict=F.
 There are   110 symmetry adapted cartesian basis functions of A   symmetry.
 There are   106 symmetry adapted basis functions of A   symmetry.
   106 basis functions,   180 primitive gaussians,   110 cartesian basis functions
    16 alpha electrons       16 beta electrons
       nuclear repulsion energy       122.5291609529 Hartrees.
 IExCor=  404 DFT=T Ex=B Corr=P86 ExCW=0 ScaHFX=  0.000000
 ScaDFX=  1.000000  1.000000  1.000000  1.000000 ScalE2=  1.000000  1.000000
 IRadAn=      5 IRanWt=     -1 IRanGd=            0 ICorTp=0 IEmpDi=131
 NAtoms=    9 NActive=    9 NUniq=    9 SFac= 1.00D+00 NAtFMM=   60 NAOKFM=F Big=F
 Integral buffers will be    131072 words long.
 Raffenetti 2 integral format.
 Two-electron integral symmetry is turned on.
 R6Disp:  Grimme-D3 Dispersion energy=       -0.0042027505 Hartrees.
 Nuclear repulsion after empirical dispersion term =      122.5249582024 Hartrees.
 ------------------------------------------------------------------------------
 Polarizable Continuum Model (PCM)
 =================================
 Model                : PCM.
 Atomic radii         : UFF (Universal Force Field).
 Polarization charges : Total charges.
 Charge compensation  : None.
 Solution method      : On-the-fly selection.
 Cavity type          : Scaled VdW (van der Waals Surface) (Alpha=1.100).
 Cavity algorithm     : GePol (No added spheres)
                        Default sphere list used, NSphG=    9.
                        Lebedev-Laikov grids with approx.  5.0 points / Ang**2.
                        Smoothing algorithm: York/Karplus (Gamma=1.0000).
                        Polarization charges: spherical gaussians, with
                                              point-specific exponents (IZeta= 3).
                        Self-potential: point-specific (ISelfS= 7).
                        Self-field    : sphere-specific E.n sum rule (ISelfD= 2).
 1st derivatives      : Analytical E(r).r(x)/FMM algorithm (CHGder, D1EAlg=3).
                        Cavity 1st derivative terms included.
 Solvent              : Water, Eps=  78.355300 Eps(inf)=   1.777849
 ------------------------------------------------------------------------------
 Spheres list:
 ISph  on   Nord     Re0    Alpha      Xe            Ye            Ze
    1   C      1    1.9255  1.100      1.347571     -0.349581     -0.000544
    2   C      2    1.9255  1.100     -0.051321      0.105246     -0.000262
    3   N      3    1.8300  1.100     -1.057164     -0.787209      0.000009
    4   O      4    1.7500  1.100     -0.330878      1.325492      0.000246
    5   H      5    1.4430  1.100      1.537542     -0.949650      0.891254
    6   H      6    1.4430  1.100      2.035387      0.499943     -0.002364
    7   H      7    1.4430  1.100      1.539807     -0.956910     -0.885935
    8   H      8    1.4430  1.100     -0.864596     -1.737905      0.003037
    9   H      9    1.4430  1.100     -1.978463     -0.482944     -0.003187
 ------------------------------------------------------------------------------
 GePol: Number of generator spheres                  =       9
 GePol: Total number of spheres                      =       9
 GePol: Number of exposed spheres                    =       9 (100.00%)
 GePol: Number of points                             =     874
 GePol: Average weight of points                     =       0.13
 GePol: Minimum weight of points                     =   0.86D-09
 GePol: Maximum weight of points                     =    0.20299
 GePol: Number of points with low weight             =      65
 GePol: Fraction of low-weight points (<1% of avg)   =       7.44%
 GePol: Cavity surface area                          =    116.788 Ang**2
 GePol: Cavity volume                                =     99.733 Ang**3
 Leave Link  301 at Mon Feb 22 20:57:45 2021, MaxMem=   104857600 cpu:               1.9 elap:               0.1
 (Enter /sw/arch/RedHatEnterpriseServer7/EB_production/2019/software/Gaussian/g16.c01/l302.exe)
 NPDir=0 NMtPBC=     1 NCelOv=     1 NCel=       1 NClECP=     1 NCelD=      1
         NCelK=      1 NCelE2=     1 NClLst=     1 CellRange=     0.0.
 One-electron integrals computed using PRISM.
 One-electron integral symmetry used in STVInt
 PrsmSu:  requested number of processors reduced to:  30 ShMem   1 Linda.
 NBasis=   106 RedAO= T EigKep=  4.36D-04  NBF=   106
 NBsUse=   106 1.00D-06 EigRej= -1.00D+00 NBFU=   106
 Precomputing XC quadrature grid using
 IXCGrd= 4 IRadAn=           5 IRanWt=          -1 IRanGd=           0 AccXCQ= 0.00D+00.
 Generated NRdTot=       0 NPtTot=           0 NUsed=           0 NTot=          32
 NSgBfM=   110   110   110   110   110 MxSgAt=     9 MxSgA2=     9.
 Leave Link  302 at Mon Feb 22 20:57:46 2021, MaxMem=   104857600 cpu:               5.0 elap:               0.2
 (Enter /sw/arch/RedHatEnterpriseServer7/EB_production/2019/software/Gaussian/g16.c01/l303.exe)
 DipDrv:  MaxL=1.
 Leave Link  303 at Mon Feb 22 20:57:46 2021, MaxMem=   104857600 cpu:               2.2 elap:               0.1
 (Enter /sw/arch/RedHatEnterpriseServer7/EB_production/2019/software/Gaussian/g16.c01/l401.exe)
 ExpMin= 9.52D-02 ExpMax= 2.70D+04 ExpMxC= 9.22D+02 IAcc=3 IRadAn=         5 AccDes= 0.00D+00
 Harris functional with IExCor=  404 and IRadAn=       5 diagonalized for initial guess.
 HarFok:  IExCor=  404 AccDes= 0.00D+00 IRadAn=         5 IDoV= 1 UseB2=F ITyADJ=14
 ICtDFT=  3500011 ScaDFX=  1.000000  1.000000  1.000000  1.000000
 FoFCou: FMM=F IPFlag=           0 FMFlag=      100000 FMFlg1=           0
         NFxFlg=           0 DoJE=T BraDBF=F KetDBF=T FulRan=T
         wScrn=  0.000000 ICntrl=       500 IOpCl=  0 I1Cent=   200000004 NGrid=           0
         NMat0=    1 NMatS0=      1 NMatT0=    0 NMatD0=    1 NMtDS0=    0 NMtDT0=    0
 Petite list used in FoFCou.
 Harris En= -209.396932805095    
 JPrj=0 DoOrth=F DoCkMO=F.
 Leave Link  401 at Mon Feb 22 20:57:46 2021, MaxMem=   104857600 cpu:               8.0 elap:               0.3
 (Enter /sw/arch/RedHatEnterpriseServer7/EB_production/2019/software/Gaussian/g16.c01/l502.exe)
 Keep J ints in memory in canonical form, NReq=46008646.
 FoFCou: FMM=F IPFlag=           0 FMFlag=           0 FMFlg1=           0
         NFxFlg=           0 DoJE=F BraDBF=F KetDBF=F FulRan=T
         wScrn=  0.000000 ICntrl=       600 IOpCl=  0 I1Cent=           0 NGrid=           0
         NMat0=    1 NMatS0=   5671 NMatT0=    0 NMatD0=    1 NMtDS0=    0 NMtDT0=    0
 Symmetry not used in FoFCou.
 Two-electron integral symmetry not used.
 Closed shell SCF:
 Using DIIS extrapolation, IDIIS=  1040.
 NGot=   104857600 LenX=    88745450 LenY=    88732909
 Requested convergence on RMS density matrix=1.00D-08 within 128 cycles.
 Requested convergence on MAX density matrix=1.00D-06.
 Requested convergence on             energy=1.00D-06.
 No special actions if energy rises.

 Cycle   1  Pass 1  IDiag  1:
 Inv3:  Mode=1 IEnd=     2291628.
 Iteration    1 A*A^-1 deviation from unit magnitude is 3.11D-15 for    380.
 Iteration    1 A*A^-1 deviation from orthogonality  is 1.78D-15 for    587    171.
 Iteration    1 A^-1*A deviation from unit magnitude is 2.66D-15 for      9.
 Iteration    1 A^-1*A deviation from orthogonality  is 2.08D-15 for    857    269.
 E= -209.146912040090    
 DIIS: error= 4.17D-02 at cycle   1 NSaved=   1.
 NSaved= 1 IEnMin= 1 EnMin= -209.146912040090     IErMin= 1 ErrMin= 4.17D-02
 ErrMax= 4.17D-02  0.00D+00 EMaxC= 1.00D-01 BMatC= 1.99D-01 BMatP= 1.99D-01
 IDIUse=3 WtCom= 5.83D-01 WtEn= 4.17D-01
 Coeff-Com:  0.100D+01
 Coeff-En:   0.100D+01
 Coeff:      0.100D+01
 Gap=     0.149 Goal=   None    Shift=    0.000
 GapD=    0.149 DampG=1.000 DampE=0.500 DampFc=0.5000 IDamp=-1.
 Damping current iteration by 5.00D-01
 RMSDP=3.17D-02 MaxDP=1.45D+00              OVMax= 3.30D-01

 Cycle   2  Pass 1  IDiag  1:
 E= -209.145486451333     Delta-E=        0.001425588757 Rises=F Damp=T
 DIIS: error= 2.97D-02 at cycle   2 NSaved=   2.
 NSaved= 2 IEnMin= 1 EnMin= -209.146912040090     IErMin= 2 ErrMin= 2.97D-02
 ErrMax= 2.97D-02  0.00D+00 EMaxC= 1.00D-01 BMatC= 6.29D-02 BMatP= 1.99D-01
 IDIUse=3 WtCom= 7.03D-01 WtEn= 2.97D-01
 Coeff-Com:  0.336D+00 0.664D+00
 Coeff-En:   0.503D+00 0.497D+00
 Coeff:      0.386D+00 0.614D+00
 Gap=     0.241 Goal=   None    Shift=    0.000
 RMSDP=1.25D-02 MaxDP=6.12D-01 DE= 1.43D-03 OVMax= 2.43D-01

 Cycle   3  Pass 1  IDiag  1:
 E= -209.266084738531     Delta-E=       -0.120598287198 Rises=F Damp=F
 DIIS: error= 2.29D-02 at cycle   3 NSaved=   3.
 NSaved= 3 IEnMin= 3 EnMin= -209.266084738531     IErMin= 3 ErrMin= 2.29D-02
 ErrMax= 2.29D-02  0.00D+00 EMaxC= 1.00D-01 BMatC= 4.87D-02 BMatP= 6.29D-02
 IDIUse=3 WtCom= 7.71D-01 WtEn= 2.29D-01
 Coeff-Com:  0.204D+00 0.444D+00 0.352D+00
 Coeff-En:   0.601D-01 0.000D+00 0.940D+00
 Coeff:      0.171D+00 0.343D+00 0.486D+00
 Gap=     0.177 Goal=   None    Shift=    0.000
 RMSDP=2.81D-03 MaxDP=6.95D-02 DE=-1.21D-01 OVMax= 1.48D-01

 Cycle   4  Pass 1  IDiag  1:
 E= -209.291951987279     Delta-E=       -0.025867248747 Rises=F Damp=F
 DIIS: error= 1.76D-02 at cycle   4 NSaved=   4.
 NSaved= 4 IEnMin= 4 EnMin= -209.291951987279     IErMin= 4 ErrMin= 1.76D-02
 ErrMax= 1.76D-02  0.00D+00 EMaxC= 1.00D-01 BMatC= 2.06D-02 BMatP= 4.87D-02
 IDIUse=3 WtCom= 8.24D-01 WtEn= 1.76D-01
 Coeff-Com:  0.629D-01 0.409D-01 0.368D+00 0.528D+00
 Coeff-En:   0.000D+00 0.000D+00 0.329D+00 0.671D+00
 Coeff:      0.519D-01 0.337D-01 0.361D+00 0.553D+00
 Gap=     0.190 Goal=   None    Shift=    0.000
 RMSDP=1.61D-03 MaxDP=5.14D-02 DE=-2.59D-02 OVMax= 7.01D-02

 Cycle   5  Pass 1  IDiag  1:
 E= -209.307492208080     Delta-E=       -0.015540220801 Rises=F Damp=F
 DIIS: error= 2.47D-03 at cycle   5 NSaved=   5.
 NSaved= 5 IEnMin= 5 EnMin= -209.307492208080     IErMin= 5 ErrMin= 2.47D-03
 ErrMax= 2.47D-03  0.00D+00 EMaxC= 1.00D-01 BMatC= 6.61D-04 BMatP= 2.06D-02
 IDIUse=3 WtCom= 9.75D-01 WtEn= 2.47D-02
 Coeff-Com:  0.167D-01-0.888D-02 0.195D+00 0.350D+00 0.447D+00
 Coeff-En:   0.000D+00 0.000D+00 0.000D+00 0.000D+00 0.100D+01
 Coeff:      0.163D-01-0.866D-02 0.190D+00 0.342D+00 0.460D+00
 Gap=     0.189 Goal=   None    Shift=    0.000
 RMSDP=3.11D-04 MaxDP=1.00D-02 DE=-1.55D-02 OVMax= 1.22D-02

 Cycle   6  Pass 1  IDiag  1:
 E= -209.308047906668     Delta-E=       -0.000555698589 Rises=F Damp=F
 DIIS: error= 6.70D-04 at cycle   6 NSaved=   6.
 NSaved= 6 IEnMin= 6 EnMin= -209.308047906668     IErMin= 6 ErrMin= 6.70D-04
 ErrMax= 6.70D-04  0.00D+00 EMaxC= 1.00D-01 BMatC= 2.99D-05 BMatP= 6.61D-04
 IDIUse=3 WtCom= 9.93D-01 WtEn= 6.70D-03
 Coeff-Com:  0.124D-02-0.308D-02 0.263D-01 0.388D-01 0.177D+00 0.760D+00
 Coeff-En:   0.000D+00 0.000D+00 0.000D+00 0.000D+00 0.793D-02 0.992D+00
 Coeff:      0.123D-02-0.306D-02 0.261D-01 0.386D-01 0.176D+00 0.762D+00
 Gap=     0.190 Goal=   None    Shift=    0.000
 RMSDP=5.19D-05 MaxDP=1.46D-03 DE=-5.56D-04 OVMax= 2.63D-03

 Cycle   7  Pass 1  IDiag  1:
 E= -209.308073772150     Delta-E=       -0.000025865482 Rises=F Damp=F
 DIIS: error= 2.55D-05 at cycle   7 NSaved=   7.
 NSaved= 7 IEnMin= 7 EnMin= -209.308073772150     IErMin= 7 ErrMin= 2.55D-05
 ErrMax= 2.55D-05  0.00D+00 EMaxC= 1.00D-01 BMatC= 1.50D-07 BMatP= 2.99D-05
 IDIUse=1 WtCom= 1.00D+00 WtEn= 0.00D+00
 Coeff-Com:  0.187D-03-0.154D-03 0.227D-02 0.106D-02 0.352D-01 0.211D+00
 Coeff-Com:  0.751D+00
 Coeff:      0.187D-03-0.154D-03 0.227D-02 0.106D-02 0.352D-01 0.211D+00
 Coeff:      0.751D+00
 Gap=     0.190 Goal=   None    Shift=    0.000
 RMSDP=6.60D-06 MaxDP=2.11D-04 DE=-2.59D-05 OVMax= 1.27D-04

 Cycle   8  Pass 1  IDiag  1:
 E= -209.308073883517     Delta-E=       -0.000000111366 Rises=F Damp=F
 DIIS: error= 2.11D-05 at cycle   8 NSaved=   8.
 NSaved= 8 IEnMin= 8 EnMin= -209.308073883517     IErMin= 8 ErrMin= 2.11D-05
 ErrMax= 2.11D-05  0.00D+00 EMaxC= 1.00D-01 BMatC= 5.16D-08 BMatP= 1.50D-07
 IDIUse=1 WtCom= 1.00D+00 WtEn= 0.00D+00
 Coeff-Com:  0.585D-04-0.871D-05 0.114D-03-0.803D-03 0.973D-02 0.729D-01
 Coeff-Com:  0.420D+00 0.498D+00
 Coeff:      0.585D-04-0.871D-05 0.114D-03-0.803D-03 0.973D-02 0.729D-01
 Coeff:      0.420D+00 0.498D+00
 Gap=     0.190 Goal=   None    Shift=    0.000
 RMSDP=3.19D-06 MaxDP=1.02D-04 DE=-1.11D-07 OVMax= 6.26D-05

 Cycle   9  Pass 1  IDiag  1:
 E= -209.308073915591     Delta-E=       -0.000000032075 Rises=F Damp=F
 DIIS: error= 2.38D-06 at cycle   9 NSaved=   9.
 NSaved= 9 IEnMin= 9 EnMin= -209.308073915591     IErMin= 9 ErrMin= 2.38D-06
 ErrMax= 2.38D-06  0.00D+00 EMaxC= 1.00D-01 BMatC= 3.65D-10 BMatP= 5.16D-08
 IDIUse=1 WtCom= 1.00D+00 WtEn= 0.00D+00
 Coeff-Com:  0.149D-04-0.346D-05-0.513D-04-0.214D-03 0.114D-02 0.117D-01
 Coeff-Com:  0.813D-01 0.130D+00 0.776D+00
 Coeff:      0.149D-04-0.346D-05-0.513D-04-0.214D-03 0.114D-02 0.117D-01
 Coeff:      0.813D-01 0.130D+00 0.776D+00
 Gap=     0.190 Goal=   None    Shift=    0.000
 RMSDP=1.99D-07 MaxDP=2.89D-06 DE=-3.21D-08 OVMax= 6.96D-06

 Cycle  10  Pass 1  IDiag  1:
 E= -209.308073925544     Delta-E=       -0.000000009953 Rises=F Damp=F
 DIIS: error= 3.71D-07 at cycle  10 NSaved=  10.
 NSaved=10 IEnMin=10 EnMin= -209.308073925544     IErMin=10 ErrMin= 3.71D-07
 ErrMax= 3.71D-07  0.00D+00 EMaxC= 1.00D-01 BMatC= 1.43D-11 BMatP= 3.65D-10
 IDIUse=1 WtCom= 1.00D+00 WtEn= 0.00D+00
 Coeff-Com:  0.373D-05-0.417D-05-0.887D-05-0.250D-04-0.164D-04 0.650D-03
 Coeff-Com:  0.730D-02 0.176D-01 0.190D+00 0.784D+00
 Coeff:      0.373D-05-0.417D-05-0.887D-05-0.250D-04-0.164D-04 0.650D-03
 Coeff:      0.730D-02 0.176D-01 0.190D+00 0.784D+00
 Gap=     0.190 Goal=   None    Shift=    0.000
 RMSDP=3.21D-08 MaxDP=4.95D-07 DE=-9.95D-09 OVMax= 1.02D-06

 Cycle  11  Pass 1  IDiag  1:
 E= -209.308073925556     Delta-E=       -0.000000000012 Rises=F Damp=F
 DIIS: error= 1.01D-07 at cycle  11 NSaved=  11.
 NSaved=11 IEnMin=11 EnMin= -209.308073925556     IErMin=11 ErrMin= 1.01D-07
 ErrMax= 1.01D-07  0.00D+00 EMaxC= 1.00D-01 BMatC= 6.12D-13 BMatP= 1.43D-11
 IDIUse=1 WtCom= 1.00D+00 WtEn= 0.00D+00
 Coeff-Com:  0.578D-06-0.115D-05-0.319D-06-0.239D-05-0.276D-04-0.143D-03
 Coeff-Com: -0.428D-03 0.134D-02 0.227D-01 0.177D+00 0.800D+00
 Coeff:      0.578D-06-0.115D-05-0.319D-06-0.239D-05-0.276D-04-0.143D-03
 Coeff:     -0.428D-03 0.134D-02 0.227D-01 0.177D+00 0.800D+00
 Gap=     0.190 Goal=   None    Shift=    0.000
 RMSDP=1.03D-08 MaxDP=3.28D-07 DE=-1.17D-11 OVMax= 3.73D-07

 Cycle  12  Pass 1  IDiag  1:
 E= -209.308073925557     Delta-E=       -0.000000000001 Rises=F Damp=F
 DIIS: error= 7.32D-09 at cycle  12 NSaved=  12.
 NSaved=12 IEnMin=12 EnMin= -209.308073925557     IErMin=12 ErrMin= 7.32D-09
 ErrMax= 7.32D-09  0.00D+00 EMaxC= 1.00D-01 BMatC= 3.69D-15 BMatP= 6.12D-13
 IDIUse=1 WtCom= 1.00D+00 WtEn= 0.00D+00
 Coeff-Com:  0.476D-07-0.156D-06-0.335D-09-0.345D-06-0.537D-05-0.394D-04
 Coeff-Com: -0.187D-03 0.163D-03 0.269D-02 0.284D-01 0.177D+00 0.792D+00
 Coeff:      0.476D-07-0.156D-06-0.335D-09-0.345D-06-0.537D-05-0.394D-04
 Coeff:     -0.187D-03 0.163D-03 0.269D-02 0.284D-01 0.177D+00 0.792D+00
 Gap=     0.190 Goal=   None    Shift=    0.000
 RMSDP=7.32D-10 MaxDP=9.69D-09 DE=-6.82D-13 OVMax= 2.11D-08

 Error on total polarization charges =  0.00878
 SCF Done:  E(RB-P86) =  -209.308073926     A.U. after   12 cycles
            NFock= 12  Conv=0.73D-09     -V/T= 2.0032
 KE= 2.086488328789D+02 PE=-7.351059183686D+02 EE= 1.946240533617D+02
 Leave Link  502 at Mon Feb 22 20:57:49 2021, MaxMem=   104857600 cpu:              67.0 elap:               2.5
 (Enter /sw/arch/RedHatEnterpriseServer7/EB_production/2019/software/Gaussian/g16.c01/l601.exe)
 Copying SCF densities to generalized density rwf, IOpCl= 0 IROHF=0.

 **********************************************************************

            Population analysis using the SCF Density.

 **********************************************************************

 Orbital symmetries:
       Occupied  (A) (A) (A) (A) (A) (A) (A) (A) (A) (A) (A) (A)
                 (A) (A) (A) (A)
       Virtual   (A) (A) (A) (A) (A) (A) (A) (A) (A) (A) (A) (A)
                 (A) (A) (A) (A) (A) (A) (A) (A) (A) (A) (A) (A)
                 (A) (A) (A) (A) (A) (A) (A) (A) (A) (A) (A) (A)
                 (A) (A) (A) (A) (A) (A) (A) (A) (A) (A) (A) (A)
                 (A) (A) (A) (A) (A) (A) (A) (A) (A) (A) (A) (A)
                 (A) (A) (A) (A) (A) (A) (A) (A) (A) (A) (A) (A)
                 (A) (A) (A) (A) (A) (A) (A) (A) (A) (A) (A) (A)
                 (A) (A) (A) (A) (A) (A)
 The electronic state is 1-A.
 Alpha  occ. eigenvalues --  -18.73321 -14.01783  -9.99745  -9.89949  -0.94890
 Alpha  occ. eigenvalues --   -0.83943  -0.68461  -0.54698  -0.50392  -0.43078
 Alpha  occ. eigenvalues --   -0.41205  -0.37152  -0.35291  -0.33059  -0.24200
 Alpha  occ. eigenvalues --   -0.21570
 Alpha virt. eigenvalues --   -0.02569   0.02437   0.06540   0.08843   0.09268
 Alpha virt. eigenvalues --    0.11045   0.12638   0.15566   0.18105   0.20178
 Alpha virt. eigenvalues --    0.22672   0.24351   0.26984   0.32416   0.34882
 Alpha virt. eigenvalues --    0.37078   0.37305   0.37767   0.40707   0.42318
 Alpha virt. eigenvalues --    0.43342   0.45777   0.49258   0.50759   0.51828
 Alpha virt. eigenvalues --    0.53839   0.56001   0.68355   0.71331   0.80926
 Alpha virt. eigenvalues --    1.08260   1.13158   1.17976   1.22899   1.23666
 Alpha virt. eigenvalues --    1.25698   1.30023   1.30068   1.41802   1.42820
 Alpha virt. eigenvalues --    1.45523   1.47647   1.50452   1.53023   1.55916
 Alpha virt. eigenvalues --    1.59410   1.69257   1.71704   1.72200   1.84918
 Alpha virt. eigenvalues --    1.85938   1.90658   1.99578   2.03031   2.10348
 Alpha virt. eigenvalues --    2.10961   2.13165   2.20372   2.22968   2.28357
 Alpha virt. eigenvalues --    2.34969   2.38836   2.43244   2.44492   2.53201
 Alpha virt. eigenvalues --    2.53477   2.54968   2.55611   2.58845   2.59645
 Alpha virt. eigenvalues --    2.64281   2.70217   2.73763   2.77860   2.83821
 Alpha virt. eigenvalues --    2.94562   3.07096   3.07457   3.15771   3.23179
 Alpha virt. eigenvalues --    3.24385   3.34597   3.40668   3.68277   3.86923
 Alpha virt. eigenvalues --    4.13452  21.65423  21.80360  31.39088  43.11172
          Condensed to atoms (all electrons):
               1          2          3          4          5          6
     1  C    5.608190   0.109788  -0.216752  -0.149092   0.338725   0.371055
     2  C    0.109788   4.789849   0.296160   0.687209  -0.005887  -0.027583
     3  N   -0.216752   0.296160   6.698650  -0.171356   0.011682   0.012150
     4  O   -0.149092   0.687209  -0.171356   8.032446   0.002909   0.015288
     5  H    0.338725  -0.005887   0.011682   0.002909   0.526075  -0.013208
     6  H    0.371055  -0.027583   0.012150   0.015288  -0.013208   0.499333
     7  H    0.339135  -0.005975   0.011748   0.002993  -0.019990  -0.013198
     8  H    0.011510  -0.005349   0.336646   0.006476  -0.001781  -0.000313
     9  H    0.012717  -0.015429   0.357736   0.005877  -0.000434  -0.000523
               7          8          9
     1  C    0.339135   0.011510   0.012717
     2  C   -0.005975  -0.005349  -0.015429
     3  N    0.011748   0.336646   0.357736
     4  O    0.002993   0.006476   0.005877
     5  H   -0.019990  -0.001781  -0.000434
     6  H   -0.013198  -0.000313  -0.000523
     7  H    0.525342  -0.001827  -0.000438
     8  H   -0.001827   0.403786  -0.019446
     9  H   -0.000438  -0.019446   0.393874
 Mulliken charges:
               1
     1  C   -0.425277
     2  C    0.177215
     3  N   -0.336665
     4  O   -0.432751
     5  H    0.161909
     6  H    0.156998
     7  H    0.162209
     8  H    0.270297
     9  H    0.266064
 Sum of Mulliken charges =  -0.00000
 Mulliken charges with hydrogens summed into heavy atoms:
               1
     1  C    0.055840
     2  C    0.177215
     3  N    0.199696
     4  O   -0.432751
 Electronic spatial extent (au):  <R**2>=            264.8575
 Charge=             -0.0000 electrons
 Dipole moment (field-independent basis, Debye):
    X=              0.1031    Y=             -5.2776    Z=              0.0002  Tot=              5.2786
 Quadrupole moment (field-independent basis, Debye-Ang):
   XX=            -19.7522   YY=            -26.8962   ZZ=            -25.0356
   XY=              2.5275   XZ=              0.0085   YZ=             -0.0079
 Traceless Quadrupole moment (field-independent basis, Debye-Ang):
   XX=              4.1425   YY=             -3.0015   ZZ=             -1.1410
   XY=              2.5275   XZ=              0.0085   YZ=             -0.0079
 Octapole moment (field-independent basis, Debye-Ang**2):
  XXX=            -10.9558  YYY=            -15.8858  ZZZ=              0.0110  XYY=             -1.2969
  XXY=             -2.9856  XXZ=             -0.0324  XZZ=              0.6735  YZZ=             -0.4107
  YYZ=              0.0106  XYZ=              0.0092
 Hexadecapole moment (field-independent basis, Debye-Ang**3):
 XXXX=           -150.2700 YYYY=           -129.0540 ZZZZ=            -31.1847 XXXY=              9.7546
 XXXZ=              0.0337 YYYX=             10.0530 YYYZ=             -0.0216 ZZZX=              0.0188
 ZZZY=             -0.0092 XXYY=            -48.7581 XXZZ=            -35.0250 YYZZ=            -27.2672
 XXYZ=              0.0122 YYXZ=             -0.0303 ZZXY=             -1.8295
 N-N= 1.225249582024D+02 E-N=-7.351059184945D+02  KE= 2.086488328789D+02
 No NMR shielding tensors so no spin-rotation constants.
 Leave Link  601 at Mon Feb 22 20:57:49 2021, MaxMem=   104857600 cpu:               8.8 elap:               0.4
 (Enter /sw/arch/RedHatEnterpriseServer7/EB_production/2019/software/Gaussian/g16.c01/l701.exe)
 ... and contract with generalized density number  0.
 Compute integral first derivatives.
 R6Disp: Adding Grimme-D3 dispersion energy 1st derivatives to the gradient.
 PrsmSu:  requested number of processors reduced to:  30 ShMem   1 Linda.
 D1PCM: PCM CHGder 1st derivatives, ID1Alg=3 FixD1E=F DoIter=F DoCFld=F I1PDM=0.
 GePol: Maximum number of non-zero 1st derivatives   =     227
 CoulSu:  requested number of processors reduced to:  30 ShMem   1 Linda.
 CoulSu:  requested number of processors reduced to:  30 ShMem   1 Linda.
 Leave Link  701 at Mon Feb 22 20:57:50 2021, MaxMem=   104857600 cpu:              12.2 elap:               0.4
 (Enter /sw/arch/RedHatEnterpriseServer7/EB_production/2019/software/Gaussian/g16.c01/l702.exe)
 L702 exits ... SP integral derivatives will be done elsewhere.
 Leave Link  702 at Mon Feb 22 20:57:50 2021, MaxMem=   104857600 cpu:               0.6 elap:               0.0
 (Enter /sw/arch/RedHatEnterpriseServer7/EB_production/2019/software/Gaussian/g16.c01/l703.exe)
 Integral derivatives from FoFJK, PRISM(SPDF).
 Compute integral first derivatives, UseDBF=F ICtDFT=           0.
 Calling FoFJK, ICntrl=      2527 FMM=F ISym2X=0 I1Cent= 0 IOpClX= 0 NMat=1 NMatS=1 NMatT=0.
 FoFJK:  IHMeth= 1 ICntrl=    2527 DoSepK=F KAlg= 0 I1Cent=           0 FoldK=F
 IRaf=         0 NMat=       1 IRICut=       1 DoRegI=T DoRafI=F ISym2E= 0 IDoP0=0 IntGTp=1.
 FoFCou: FMM=F IPFlag=           0 FMFlag=      100000 FMFlg1=         800
         NFxFlg=           0 DoJE=F BraDBF=F KetDBF=F FulRan=T
         wScrn=  0.000000 ICntrl=      2527 IOpCl=  0 I1Cent=           0 NGrid=           0
         NMat0=    1 NMatS0=      1 NMatT0=    0 NMatD0=    1 NMtDS0=    0 NMtDT0=    0
 Symmetry not used in FoFCou.
 Leave Link  703 at Mon Feb 22 20:57:51 2021, MaxMem=   104857600 cpu:              11.8 elap:               0.4
 (Enter /sw/arch/RedHatEnterpriseServer7/EB_production/2019/software/Gaussian/g16.c01/l716.exe)
 Dipole        = 4.05431572D-02-2.07638463D+00 9.19460515D-05
 ***** Axes restored to original set *****
 -------------------------------------------------------------------
 Center     Atomic                   Forces (Hartrees/Bohr)
 Number     Number              X              Y              Z
 -------------------------------------------------------------------
      1        6           0.012600151    0.010881049    0.005615601
      2        6          -0.018422515   -0.042511942   -0.003730334
      3        7           0.029353871   -0.003419215    0.020709901
      4        8           0.002671411   -0.000761306    0.002051130
      5        1           0.004632602    0.005617593   -0.001932853
      6        1          -0.001493167   -0.002534997   -0.000442571
      7        1           0.000744416    0.006915906    0.003477677
      8        1           0.004068121    0.044455301   -0.006301024
      9        1          -0.034154891   -0.018642389   -0.019447527
 -------------------------------------------------------------------
 Cartesian Forces:  Max     0.044455301 RMS     0.017034107
 Leave Link  716 at Mon Feb 22 20:57:51 2021, MaxMem=   104857600 cpu:               1.4 elap:               0.1
 (Enter /sw/arch/RedHatEnterpriseServer7/EB_production/2019/software/Gaussian/g16.c01/l103.exe)

 GradGradGradGradGradGradGradGradGradGradGradGradGradGradGradGradGradGrad
 Berny optimization.
 FormGI is forming the generalized inverse of G from B-inverse, IUseBI=4.
 Internal  Forces:  Max     0.044886497 RMS     0.013622261
 Search for a local minimum.
 Step number   1 out of a maximum of   40
 All quantities printed in internal units (Hartrees-Bohrs-Radians)
 RMS Force = .13622D-01 SwitMx=.10000D-02 MixMth= 1
 Mixed Optimization -- RFO/linear search
 Second derivative matrix not updated -- first step.
 ITU=  0
     Eigenvalues ---    0.01150   0.01646   0.02423   0.02423   0.07555
     Eigenvalues ---    0.07685   0.16000   0.16000   0.16000   0.16000
     Eigenvalues ---    0.16000   0.25000   0.25000   0.34461   0.34634
     Eigenvalues ---    0.34727   0.35624   0.53327   0.53375   0.56166
     Eigenvalues ---    0.82554
 RFO step:  Lambda=-1.24698398D-02 EMin= 1.14990185D-02
 Linear search not attempted -- first point.
 Iteration  1 RMS(Cart)=  0.03570862 RMS(Int)=  0.00058587
 Iteration  2 RMS(Cart)=  0.00126037 RMS(Int)=  0.00008943
 Iteration  3 RMS(Cart)=  0.00000032 RMS(Int)=  0.00008942
 ITry= 1 IFail=0 DXMaxC= 9.97D-02 DCOld= 1.00D+10 DXMaxT= 3.00D-01 DXLimC= 3.00D+00 Rises=F
 Variable       Old X    -DE/DX   Delta X   Delta X   Delta X     New X
                                 (Linear)    (Quad)   (Total)
    R1        2.77974   0.02459   0.00000   0.06670   0.06670   2.84643
    R2        2.06273   0.00647   0.00000   0.01802   0.01802   2.08074
    R3        2.06559   0.00076   0.00000   0.00213   0.00213   2.06772
    R4        2.06121   0.00686   0.00000   0.01907   0.01907   2.08027
    R5        2.54110   0.01593   0.00000   0.02774   0.02774   2.56884
    R6        2.36567   0.00039   0.00000   0.00047   0.00047   2.36614
    R7        1.83305   0.04489   0.00000   0.08218   0.08218   1.91523
    R8        1.83350   0.04349   0.00000   0.07969   0.07969   1.91319
    A1        1.91276   0.00440   0.00000   0.02537   0.02534   1.93810
    A2        1.93704  -0.00527   0.00000  -0.02994  -0.02976   1.90728
    A3        1.91764   0.00394   0.00000   0.02234   0.02230   1.93994
    A4        1.89558   0.00062   0.00000   0.00457   0.00475   1.90033
    A5        1.90331  -0.00449   0.00000  -0.02727  -0.02749   1.87582
    A6        1.89704   0.00070   0.00000   0.00432   0.00448   1.90153
    A7        2.10150  -0.01907   0.00000  -0.07267  -0.07267   2.02883
    A8        2.11036   0.00548   0.00000   0.02089   0.02089   2.13125
    A9        2.07132   0.01359   0.00000   0.05178   0.05178   2.12310
   A10        2.09668   0.00572   0.00000   0.03315   0.03315   2.12983
   A11        2.09687  -0.00368   0.00000  -0.02135  -0.02135   2.07552
   A12        2.08963  -0.00204   0.00000  -0.01181  -0.01181   2.07783
    D1       -1.04960   0.00020   0.00000   0.00202   0.00186  -1.04774
    D2        2.09151   0.00021   0.00000   0.00207   0.00191   2.09342
    D3        3.14000  -0.00008   0.00000  -0.00118  -0.00117   3.13884
    D4       -0.00207  -0.00008   0.00000  -0.00112  -0.00111  -0.00318
    D5        1.04142  -0.00015   0.00000  -0.00198  -0.00183   1.03959
    D6       -2.10065  -0.00015   0.00000  -0.00193  -0.00178  -2.10243
    D7        0.00360  -0.00007   0.00000  -0.00181  -0.00181   0.00179
    D8       -3.13756  -0.00008   0.00000  -0.00209  -0.00209  -3.13965
    D9       -3.13753  -0.00007   0.00000  -0.00185  -0.00185  -3.13938
   D10        0.00450  -0.00008   0.00000  -0.00213  -0.00213   0.00237
         Item               Value     Threshold  Converged?
 Maximum Force            0.044886     0.000450     NO 
 RMS     Force            0.013622     0.000300     NO 
 Maximum Displacement     0.099706     0.001800     NO 
 RMS     Displacement     0.035799     0.001200     NO 
 Predicted change in Energy=-6.434002D-03
 Lowest energy point so far.  Saving SCF results.
 GradGradGradGradGradGradGradGradGradGradGradGradGradGradGradGradGradGrad

 Leave Link  103 at Mon Feb 22 20:57:52 2021, MaxMem=   104857600 cpu:              14.9 elap:               0.6
 (Enter /sw/arch/RedHatEnterpriseServer7/EB_production/2019/software/Gaussian/g16.c01/l202.exe)
                          Input orientation:                          
 ---------------------------------------------------------------------
 Center     Atomic      Atomic             Coordinates (Angstroms)
 Number     Number       Type             X           Y           Z
 ---------------------------------------------------------------------
      1          6           0        1.117185    0.762378    0.795630
      2          6           0       -0.062352    0.108525    0.124800
      3          7           0       -0.874456    0.927262   -0.594955
      4          8           0       -0.286350   -1.119602    0.221218
      5          1           0        1.777444    1.241123    0.055872
      6          1           0        1.687709    0.005093    1.341776
      7          1           0        0.791032    1.541962    1.501113
      8          1           0       -0.697633    1.921712   -0.678464
      9          1           0       -1.680588    0.530398   -1.061471
 ---------------------------------------------------------------------
                    Distance matrix (angstroms):
                    1          2          3          4          5
     1  C    0.000000
     2  C    1.506268   0.000000
     3  N    2.434656   1.359372   0.000000
     4  O    2.416963   1.252106   2.280715   0.000000
     5  H    1.101082   2.161569   2.748574   3.140002   0.000000
     6  H    1.094191   2.134113   3.341558   2.533278   1.785882
     7  H    1.100834   2.162694   2.746855   3.143693   1.775454
     8  H    2.609708   2.082417   1.013494   3.198152   2.669917
     9  H    3.366033   2.050343   1.012417   2.512308   3.702914
                    6          7          8          9
     6  H    0.000000
     7  H    1.786445   0.000000
     8  H    3.666695   2.666626   0.000000
     9  H    4.170967   3.701217   1.746038   0.000000
 Stoichiometry    C2H5NO
 Framework group  C1[X(C2H5NO)]
 Deg. of freedom    21
 Full point group                 C1      NOp   1
 RotChk:  IX=0 Diff= 7.61D-02
 Largest Abelian subgroup         C1      NOp   1
 Largest concise Abelian subgroup C1      NOp   1
                         Standard orientation:                         
 ---------------------------------------------------------------------
 Center     Atomic      Atomic             Coordinates (Angstroms)
 Number     Number       Type             X           Y           Z
 ---------------------------------------------------------------------
      1          6           0        1.368415   -0.300431   -0.000283
      2          6           0       -0.074092    0.133179   -0.000185
      3          7           0       -1.000727   -0.861426    0.000037
      4          8           0       -0.406201    1.340437    0.000152
      5          1           0        1.599397   -0.905748    0.890009
      6          1           0        2.011713    0.584674   -0.003307
      7          1           0        1.598985   -0.912957   -0.885430
      8          1           0       -0.738491   -1.840405    0.001666
      9          1           0       -1.982834   -0.615559   -0.001610
 ---------------------------------------------------------------------
 Rotational constants (GHZ):          10.6332732           9.2734668           5.1126634
 Leave Link  202 at Mon Feb 22 20:57:52 2021, MaxMem=   104857600 cpu:               1.2 elap:               0.1
 (Enter /sw/arch/RedHatEnterpriseServer7/EB_production/2019/software/Gaussian/g16.c01/l301.exe)
 Standard basis: TZVP (5D, 7F)
 Ernie: Thresh=  0.10000D-02 Tol=  0.10000D-05 Strict=F.
 There are   110 symmetry adapted cartesian basis functions of A   symmetry.
 There are   106 symmetry adapted basis functions of A   symmetry.
   106 basis functions,   180 primitive gaussians,   110 cartesian basis functions
    16 alpha electrons       16 beta electrons
       nuclear repulsion energy       120.8828295821 Hartrees.
 IExCor=  404 DFT=T Ex=B Corr=P86 ExCW=0 ScaHFX=  0.000000
 ScaDFX=  1.000000  1.000000  1.000000  1.000000 ScalE2=  1.000000  1.000000
 IRadAn=      5 IRanWt=     -1 IRanGd=            0 ICorTp=0 IEmpDi=131
 NAtoms=    9 NActive=    9 NUniq=    9 SFac= 1.00D+00 NAtFMM=   60 NAOKFM=F Big=F
 Integral buffers will be    131072 words long.
 Raffenetti 2 integral format.
 Two-electron integral symmetry is turned on.
 R6Disp:  Grimme-D3 Dispersion energy=       -0.0042273101 Hartrees.
 Nuclear repulsion after empirical dispersion term =      120.8786022720 Hartrees.
 ------------------------------------------------------------------------------
 Polarizable Continuum Model (PCM)
 =================================
 Model                : PCM.
 Atomic radii         : UFF (Universal Force Field).
 Polarization charges : Total charges.
 Charge compensation  : None.
 Solution method      : On-the-fly selection.
 Cavity type          : Scaled VdW (van der Waals Surface) (Alpha=1.100).
 Cavity algorithm     : GePol (No added spheres)
                        Default sphere list used, NSphG=    9.
                        Lebedev-Laikov grids with approx.  5.0 points / Ang**2.
                        Smoothing algorithm: York/Karplus (Gamma=1.0000).
                        Polarization charges: spherical gaussians, with
                                              point-specific exponents (IZeta= 3).
                        Self-potential: point-specific (ISelfS= 7).
                        Self-field    : sphere-specific E.n sum rule (ISelfD= 2).
 1st derivatives      : Analytical E(r).r(x)/FMM algorithm (CHGder, D1EAlg=3).
                        Cavity 1st derivative terms included.
 Solvent              : Water, Eps=  78.355300 Eps(inf)=   1.777849
 ------------------------------------------------------------------------------
 Spheres list:
 ISph  on   Nord     Re0    Alpha      Xe            Ye            Ze
    1   C      1    1.9255  1.100      1.368415     -0.300431     -0.000283
    2   C      2    1.9255  1.100     -0.074092      0.133179     -0.000185
    3   N      3    1.8300  1.100     -1.000727     -0.861426      0.000037
    4   O      4    1.7500  1.100     -0.406201      1.340437      0.000152
    5   H      5    1.4430  1.100      1.599397     -0.905748      0.890009
    6   H      6    1.4430  1.100      2.011713      0.584674     -0.003307
    7   H      7    1.4430  1.100      1.598985     -0.912957     -0.885430
    8   H      8    1.4430  1.100     -0.738491     -1.840405      0.001666
    9   H      9    1.4430  1.100     -1.982834     -0.615559     -0.001610
 ------------------------------------------------------------------------------
 GePol: Number of generator spheres                  =       9
 GePol: Total number of spheres                      =       9
 GePol: Number of exposed spheres                    =       9 (100.00%)
 GePol: Number of points                             =     872
 GePol: Average weight of points                     =       0.14
 GePol: Minimum weight of points                     =   0.26D-09
 GePol: Maximum weight of points                     =    0.20299
 GePol: Number of points with low weight             =      53
 GePol: Fraction of low-weight points (<1% of avg)   =       6.08%
 GePol: Cavity surface area                          =    118.411 Ang**2
 GePol: Cavity volume                                =    101.272 Ang**3
 Leave Link  301 at Mon Feb 22 20:57:52 2021, MaxMem=   104857600 cpu:               1.8 elap:               0.1
 (Enter /sw/arch/RedHatEnterpriseServer7/EB_production/2019/software/Gaussian/g16.c01/l302.exe)
 NPDir=0 NMtPBC=     1 NCelOv=     1 NCel=       1 NClECP=     1 NCelD=      1
         NCelK=      1 NCelE2=     1 NClLst=     1 CellRange=     0.0.
 One-electron integrals computed using PRISM.
 One-electron integral symmetry used in STVInt
 PrsmSu:  requested number of processors reduced to:  30 ShMem   1 Linda.
 NBasis=   106 RedAO= T EigKep=  5.24D-04  NBF=   106
 NBsUse=   106 1.00D-06 EigRej= -1.00D+00 NBFU=   106
 Precomputing XC quadrature grid using
 IXCGrd= 4 IRadAn=           5 IRanWt=          -1 IRanGd=           0 AccXCQ= 0.00D+00.
 Generated NRdTot=       0 NPtTot=           0 NUsed=           0 NTot=          32
 NSgBfM=   110   110   110   110   110 MxSgAt=     9 MxSgA2=     9.
 Leave Link  302 at Mon Feb 22 20:57:52 2021, MaxMem=   104857600 cpu:               7.2 elap:               0.3
 (Enter /sw/arch/RedHatEnterpriseServer7/EB_production/2019/software/Gaussian/g16.c01/l303.exe)
 DipDrv:  MaxL=1.
 Leave Link  303 at Mon Feb 22 20:57:52 2021, MaxMem=   104857600 cpu:               0.8 elap:               0.1
 (Enter /sw/arch/RedHatEnterpriseServer7/EB_production/2019/software/Gaussian/g16.c01/l401.exe)
 Initial guess from the checkpoint file:  "DLFVBJFMPXGRIB-UHFFFAOYSA-N.chk"
 B after Tr=     0.000000   -0.000000   -0.000000
         Rot=    0.999655   -0.000005   -0.000084   -0.026276 Ang=  -3.01 deg.
 Guess basis will be translated and rotated to current coordinates.
 JPrj=2 DoOrth=T DoCkMO=T.
 Generating alternative initial guess.
 ExpMin= 9.52D-02 ExpMax= 2.70D+04 ExpMxC= 9.22D+02 IAcc=3 IRadAn=         5 AccDes= 0.00D+00
 Harris functional with IExCor=  404 and IRadAn=       5 diagonalized for initial guess.
 HarFok:  IExCor=  404 AccDes= 0.00D+00 IRadAn=         5 IDoV= 1 UseB2=F ITyADJ=14
 ICtDFT=  3500011 ScaDFX=  1.000000  1.000000  1.000000  1.000000
 FoFCou: FMM=F IPFlag=           0 FMFlag=      100000 FMFlg1=           0
         NFxFlg=           0 DoJE=T BraDBF=F KetDBF=T FulRan=T
         wScrn=  0.000000 ICntrl=       500 IOpCl=  0 I1Cent=   200000004 NGrid=           0
         NMat0=    1 NMatS0=      1 NMatT0=    0 NMatD0=    1 NMtDS0=    0 NMtDT0=    0
 Petite list used in FoFCou.
 Harris En= -209.394021835833    
 Leave Link  401 at Mon Feb 22 20:57:52 2021, MaxMem=   104857600 cpu:               6.8 elap:               0.2
 (Enter /sw/arch/RedHatEnterpriseServer7/EB_production/2019/software/Gaussian/g16.c01/l502.exe)
 Keep J ints in memory in canonical form, NReq=46008646.
 FoFCou: FMM=F IPFlag=           0 FMFlag=           0 FMFlg1=           0
         NFxFlg=           0 DoJE=F BraDBF=F KetDBF=F FulRan=T
         wScrn=  0.000000 ICntrl=       600 IOpCl=  0 I1Cent=           0 NGrid=           0
         NMat0=    1 NMatS0=   5671 NMatT0=    0 NMatD0=    1 NMtDS0=    0 NMtDT0=    0
 Symmetry not used in FoFCou.
 Two-electron integral symmetry not used.
 Closed shell SCF:
 Using DIIS extrapolation, IDIIS=  1040.
 NGot=   104857600 LenX=    88745450 LenY=    88732909
 Requested convergence on RMS density matrix=1.00D-08 within 128 cycles.
 Requested convergence on MAX density matrix=1.00D-06.
 Requested convergence on             energy=1.00D-06.
 No special actions if energy rises.

 Cycle   1  Pass 1  IDiag  1:
 Inv3:  Mode=1 IEnd=     2281152.
 Iteration    1 A*A^-1 deviation from unit magnitude is 2.89D-15 for    229.
 Iteration    1 A*A^-1 deviation from orthogonality  is 1.89D-15 for    645    185.
 Iteration    1 A^-1*A deviation from unit magnitude is 2.66D-15 for    403.
 Iteration    1 A^-1*A deviation from orthogonality  is 2.37D-15 for    814    338.
 E= -209.312495027572    
 DIIS: error= 3.95D-03 at cycle   1 NSaved=   1.
 NSaved= 1 IEnMin= 1 EnMin= -209.312495027572     IErMin= 1 ErrMin= 3.95D-03
 ErrMax= 3.95D-03  0.00D+00 EMaxC= 1.00D-01 BMatC= 2.08D-03 BMatP= 2.08D-03
 IDIUse=3 WtCom= 9.61D-01 WtEn= 3.95D-02
 Coeff-Com:  0.100D+01
 Coeff-En:   0.100D+01
 Coeff:      0.100D+01
 Gap=     0.557 Goal=   None    Shift=    0.000
 GapD=    0.557 DampG=2.000 DampE=1.000 DampFc=2.0000 IDamp=-1.
 RMSDP=8.12D-04 MaxDP=1.92D-02              OVMax= 2.61D-02

 Cycle   2  Pass 1  IDiag  1:
 E= -209.312553886256     Delta-E=       -0.000058858685 Rises=F Damp=F
 DIIS: error= 6.05D-03 at cycle   2 NSaved=   2.
 NSaved= 2 IEnMin= 2 EnMin= -209.312553886256     IErMin= 1 ErrMin= 3.95D-03
 ErrMax= 6.05D-03  0.00D+00 EMaxC= 1.00D-01 BMatC= 2.60D-03 BMatP= 2.08D-03
 IDIUse=3 WtCom= 1.14D-01 WtEn= 8.86D-01
 Coeff-Com:  0.538D+00 0.462D+00
 Coeff-En:   0.490D+00 0.510D+00
 Coeff:      0.495D+00 0.505D+00
 Gap=     0.187 Goal=   None    Shift=    0.000
 RMSDP=8.36D-04 MaxDP=2.37D-02 DE=-5.89D-05 OVMax= 4.29D-02

 Cycle   3  Pass 1  IDiag  1:
 E= -209.312734692311     Delta-E=       -0.000180806054 Rises=F Damp=F
 DIIS: error= 6.03D-03 at cycle   3 NSaved=   3.
 NSaved= 3 IEnMin= 3 EnMin= -209.312734692311     IErMin= 1 ErrMin= 3.95D-03
 ErrMax= 6.03D-03  0.00D+00 EMaxC= 1.00D-01 BMatC= 2.40D-03 BMatP= 2.08D-03
 IDIUse=3 WtCom= 1.14D-01 WtEn= 8.86D-01
 Coeff-Com:  0.601D-01 0.472D+00 0.468D+00
 Coeff-En:   0.000D+00 0.484D+00 0.516D+00
 Coeff:      0.686D-02 0.483D+00 0.510D+00
 Gap=     0.194 Goal=   None    Shift=    0.000
 RMSDP=6.30D-04 MaxDP=2.06D-02 DE=-1.81D-04 OVMax= 2.20D-02

 Cycle   4  Pass 1  IDiag  1:
 E= -209.314533819857     Delta-E=       -0.001799127547 Rises=F Damp=F
 DIIS: error= 9.95D-04 at cycle   4 NSaved=   4.
 NSaved= 4 IEnMin= 4 EnMin= -209.314533819857     IErMin= 4 ErrMin= 9.95D-04
 ErrMax= 9.95D-04  0.00D+00 EMaxC= 1.00D-01 BMatC= 1.01D-04 BMatP= 2.08D-03
 IDIUse=3 WtCom= 9.90D-01 WtEn= 9.95D-03
 Coeff-Com:  0.144D-01 0.285D+00 0.320D+00 0.380D+00
 Coeff-En:   0.000D+00 0.000D+00 0.000D+00 0.100D+01
 Coeff:      0.143D-01 0.282D+00 0.317D+00 0.386D+00
 Gap=     0.193 Goal=   None    Shift=    0.000
 RMSDP=1.27D-04 MaxDP=4.29D-03 DE=-1.80D-03 OVMax= 2.64D-03

 Cycle   5  Pass 1  IDiag  1:
 E= -209.314608239934     Delta-E=       -0.000074420077 Rises=F Damp=F
 DIIS: error= 1.13D-04 at cycle   5 NSaved=   5.
 NSaved= 5 IEnMin= 5 EnMin= -209.314608239934     IErMin= 5 ErrMin= 1.13D-04
 ErrMax= 1.13D-04  0.00D+00 EMaxC= 1.00D-01 BMatC= 2.04D-06 BMatP= 1.01D-04
 IDIUse=3 WtCom= 9.99D-01 WtEn= 1.13D-03
 Coeff-Com:  0.265D-02 0.101D+00 0.123D+00 0.182D+00 0.592D+00
 Coeff-En:   0.000D+00 0.000D+00 0.000D+00 0.000D+00 0.100D+01
 Coeff:      0.265D-02 0.101D+00 0.123D+00 0.181D+00 0.593D+00
 Gap=     0.193 Goal=   None    Shift=    0.000
 RMSDP=1.14D-05 MaxDP=2.08D-04 DE=-7.44D-05 OVMax= 4.88D-04

 Cycle   6  Pass 1  IDiag  1:
 E= -209.314609417850     Delta-E=       -0.000001177916 Rises=F Damp=F
 DIIS: error= 7.41D-05 at cycle   6 NSaved=   6.
 NSaved= 6 IEnMin= 6 EnMin= -209.314609417850     IErMin= 6 ErrMin= 7.41D-05
 ErrMax= 7.41D-05  0.00D+00 EMaxC= 1.00D-01 BMatC= 4.90D-07 BMatP= 2.04D-06
 IDIUse=1 WtCom= 1.00D+00 WtEn= 0.00D+00
 Coeff-Com: -0.258D-04 0.279D-01 0.391D-01 0.629D-01 0.370D+00 0.500D+00
 Coeff:     -0.258D-04 0.279D-01 0.391D-01 0.629D-01 0.370D+00 0.500D+00
 Gap=     0.193 Goal=   None    Shift=    0.000
 RMSDP=5.22D-06 MaxDP=9.12D-05 DE=-1.18D-06 OVMax= 2.23D-04

 Cycle   7  Pass 1  IDiag  1:
 E= -209.314609887018     Delta-E=       -0.000000469168 Rises=F Damp=F
 DIIS: error= 7.29D-06 at cycle   7 NSaved=   7.
 NSaved= 7 IEnMin= 7 EnMin= -209.314609887018     IErMin= 7 ErrMin= 7.29D-06
 ErrMax= 7.29D-06  0.00D+00 EMaxC= 1.00D-01 BMatC= 5.49D-09 BMatP= 4.90D-07
 IDIUse=1 WtCom= 1.00D+00 WtEn= 0.00D+00
 Coeff-Com: -0.126D-03 0.361D-02 0.648D-02 0.106D-01 0.834D-01 0.165D+00
 Coeff-Com:  0.731D+00
 Coeff:     -0.126D-03 0.361D-02 0.648D-02 0.106D-01 0.834D-01 0.165D+00
 Coeff:      0.731D+00
 Gap=     0.193 Goal=   None    Shift=    0.000
 RMSDP=6.70D-07 MaxDP=7.99D-06 DE=-4.69D-07 OVMax= 3.66D-05

 Cycle   8  Pass 1  IDiag  1:
 E= -209.314609892150     Delta-E=       -0.000000005132 Rises=F Damp=F
 DIIS: error= 1.86D-06 at cycle   8 NSaved=   8.
 NSaved= 8 IEnMin= 8 EnMin= -209.314609892150     IErMin= 8 ErrMin= 1.86D-06
 ErrMax= 1.86D-06  0.00D+00 EMaxC= 1.00D-01 BMatC= 4.13D-10 BMatP= 5.49D-09
 IDIUse=1 WtCom= 1.00D+00 WtEn= 0.00D+00
 Coeff-Com: -0.590D-04 0.912D-03 0.189D-02 0.338D-02 0.292D-01 0.652D-01
 Coeff-Com:  0.345D+00 0.554D+00
 Coeff:     -0.590D-04 0.912D-03 0.189D-02 0.338D-02 0.292D-01 0.652D-01
 Coeff:      0.345D+00 0.554D+00
 Gap=     0.193 Goal=   None    Shift=    0.000
 RMSDP=1.86D-07 MaxDP=3.72D-06 DE=-5.13D-09 OVMax= 5.91D-06

 Cycle   9  Pass 1  IDiag  1:
 E= -209.314609892482     Delta-E=       -0.000000000332 Rises=F Damp=F
 DIIS: error= 8.11D-07 at cycle   9 NSaved=   9.
 NSaved= 9 IEnMin= 9 EnMin= -209.314609892482     IErMin= 9 ErrMin= 8.11D-07
 ErrMax= 8.11D-07  0.00D+00 EMaxC= 1.00D-01 BMatC= 5.09D-11 BMatP= 4.13D-10
 IDIUse=1 WtCom= 1.00D+00 WtEn= 0.00D+00
 Coeff-Com: -0.101D-04 0.630D-04 0.140D-03 0.457D-03 0.366D-02 0.109D-01
 Coeff-Com:  0.759D-01 0.271D+00 0.638D+00
 Coeff:     -0.101D-04 0.630D-04 0.140D-03 0.457D-03 0.366D-02 0.109D-01
 Coeff:      0.759D-01 0.271D+00 0.638D+00
 Gap=     0.193 Goal=   None    Shift=    0.000
 RMSDP=1.01D-07 MaxDP=3.08D-06 DE=-3.32D-10 OVMax= 2.20D-06

 Cycle  10  Pass 1  IDiag  1:
 E= -209.314609892527     Delta-E=       -0.000000000045 Rises=F Damp=F
 DIIS: error= 7.45D-08 at cycle  10 NSaved=  10.
 NSaved=10 IEnMin=10 EnMin= -209.314609892527     IErMin=10 ErrMin= 7.45D-08
 ErrMax= 7.45D-08  0.00D+00 EMaxC= 1.00D-01 BMatC= 3.93D-13 BMatP= 5.09D-11
 IDIUse=1 WtCom= 1.00D+00 WtEn= 0.00D+00
 Coeff-Com: -0.847D-06-0.137D-04-0.271D-04 0.183D-04 0.945D-04 0.988D-03
 Coeff-Com:  0.109D-01 0.566D-01 0.174D+00 0.757D+00
 Coeff:     -0.847D-06-0.137D-04-0.271D-04 0.183D-04 0.945D-04 0.988D-03
 Coeff:      0.109D-01 0.566D-01 0.174D+00 0.757D+00
 Gap=     0.193 Goal=   None    Shift=    0.000
 RMSDP=1.10D-08 MaxDP=3.34D-07 DE=-4.45D-11 OVMax= 1.90D-07

 Cycle  11  Pass 1  IDiag  1:
 E= -209.314609892527     Delta-E=       -0.000000000000 Rises=F Damp=F
 DIIS: error= 1.03D-08 at cycle  11 NSaved=  11.
 NSaved=11 IEnMin=11 EnMin= -209.314609892527     IErMin=11 ErrMin= 1.03D-08
 ErrMax= 1.03D-08  0.00D+00 EMaxC= 1.00D-01 BMatC= 9.29D-15 BMatP= 3.93D-13
 IDIUse=1 WtCom= 1.00D+00 WtEn= 0.00D+00
 Coeff-Com:  0.146D-07-0.527D-05-0.791D-05-0.985D-05-0.626D-04-0.636D-04
 Coeff-Com:  0.397D-03 0.366D-02 0.151D-01 0.126D+00 0.855D+00
 Coeff:      0.146D-07-0.527D-05-0.791D-05-0.985D-05-0.626D-04-0.636D-04
 Coeff:      0.397D-03 0.366D-02 0.151D-01 0.126D+00 0.855D+00
 Gap=     0.193 Goal=   None    Shift=    0.000
 RMSDP=1.04D-09 MaxDP=1.83D-08 DE=-2.27D-13 OVMax= 3.37D-08

 Error on total polarization charges =  0.00898
 SCF Done:  E(RB-P86) =  -209.314609893     A.U. after   11 cycles
            NFock= 11  Conv=0.10D-08     -V/T= 2.0046
 KE= 2.083608170794D+02 PE=-7.316308214521D+02 EE= 1.930767922083D+02
 Leave Link  502 at Mon Feb 22 20:57:55 2021, MaxMem=   104857600 cpu:              62.0 elap:               2.3
 (Enter /sw/arch/RedHatEnterpriseServer7/EB_production/2019/software/Gaussian/g16.c01/l701.exe)
 ... and contract with generalized density number  0.
 Compute integral first derivatives.
 R6Disp: Adding Grimme-D3 dispersion energy 1st derivatives to the gradient.
 PrsmSu:  requested number of processors reduced to:  30 ShMem   1 Linda.
 D1PCM: PCM CHGder 1st derivatives, ID1Alg=3 FixD1E=F DoIter=F DoCFld=F I1PDM=0.
 GePol: Maximum number of non-zero 1st derivatives   =     214
 CoulSu:  requested number of processors reduced to:  30 ShMem   1 Linda.
 CoulSu:  requested number of processors reduced to:  30 ShMem   1 Linda.
 Leave Link  701 at Mon Feb 22 20:57:55 2021, MaxMem=   104857600 cpu:              12.6 elap:               0.4
 (Enter /sw/arch/RedHatEnterpriseServer7/EB_production/2019/software/Gaussian/g16.c01/l702.exe)
 L702 exits ... SP integral derivatives will be done elsewhere.
 Leave Link  702 at Mon Feb 22 20:57:55 2021, MaxMem=   104857600 cpu:               0.5 elap:               0.0
 (Enter /sw/arch/RedHatEnterpriseServer7/EB_production/2019/software/Gaussian/g16.c01/l703.exe)
 Integral derivatives from FoFJK, PRISM(SPDF).
 Compute integral first derivatives, UseDBF=F ICtDFT=           0.
 Calling FoFJK, ICntrl=      2527 FMM=F ISym2X=0 I1Cent= 0 IOpClX= 0 NMat=1 NMatS=1 NMatT=0.
 FoFJK:  IHMeth= 1 ICntrl=    2527 DoSepK=F KAlg= 0 I1Cent=           0 FoldK=F
 IRaf=         0 NMat=       1 IRICut=       1 DoRegI=T DoRafI=F ISym2E= 0 IDoP0=0 IntGTp=1.
 FoFCou: FMM=F IPFlag=           0 FMFlag=      100000 FMFlg1=         800
         NFxFlg=           0 DoJE=F BraDBF=F KetDBF=F FulRan=T
         wScrn=  0.000000 ICntrl=      2527 IOpCl=  0 I1Cent=           0 NGrid=           0
         NMat0=    1 NMatS0=      1 NMatT0=    0 NMatD0=    1 NMtDS0=    0 NMtDT0=    0
 Symmetry not used in FoFCou.
 Leave Link  703 at Mon Feb 22 20:57:56 2021, MaxMem=   104857600 cpu:              10.0 elap:               0.3
 (Enter /sw/arch/RedHatEnterpriseServer7/EB_production/2019/software/Gaussian/g16.c01/l716.exe)
 Dipole        = 1.05086911D-01-2.08102114D+00 2.79839205D-04
 ***** Axes restored to original set *****
 -------------------------------------------------------------------
 Center     Atomic                   Forces (Hartrees/Bohr)
 Number     Number              X              Y              Z
 -------------------------------------------------------------------
      1        6           0.005128888    0.004004902    0.002411842
      2        6          -0.005923713   -0.016010647   -0.000774160
      3        7           0.003042890   -0.000073549    0.002117097
      4        8           0.001459491    0.011321100   -0.001249618
      5        1          -0.000427808    0.000158547   -0.000085454
      6        1           0.000216834   -0.000690645    0.000341587
      7        1          -0.000289727    0.000128540   -0.000330500
      8        1          -0.000564420    0.001342207   -0.000608589
      9        1          -0.002642435   -0.000180454   -0.001822204
 -------------------------------------------------------------------
 Cartesian Forces:  Max     0.016010647 RMS     0.004301979
 Leave Link  716 at Mon Feb 22 20:57:56 2021, MaxMem=   104857600 cpu:               0.9 elap:               0.1
 (Enter /sw/arch/RedHatEnterpriseServer7/EB_production/2019/software/Gaussian/g16.c01/l103.exe)

 GradGradGradGradGradGradGradGradGradGradGradGradGradGradGradGradGradGrad
 Berny optimization.
 Using GEDIIS/GDIIS optimizer.
 FormGI is forming the generalized inverse of G from B-inverse, IUseBI=4.
 Internal  Forces:  Max     0.011460494 RMS     0.002531950
 Search for a local minimum.
 Step number   2 out of a maximum of   40
 All quantities printed in internal units (Hartrees-Bohrs-Radians)
 RMS Force = .25319D-02 SwitMx=.10000D-02 MixMth= 1
 Mixed Optimization -- RFO/linear search
 Update second derivatives using D2CorX and points    1    2
 DE= -6.54D-03 DEPred=-6.43D-03 R= 1.02D+00
 TightC=F SS=  1.41D+00  RLast= 1.79D-01 DXNew= 5.0454D-01 5.3635D-01
 Trust test= 1.02D+00 RLast= 1.79D-01 DXMaxT set to 5.05D-01
 ITU=  1  0
 Use linear search instead of GDIIS.
     Eigenvalues ---    0.01150   0.01656   0.02423   0.02423   0.07481
     Eigenvalues ---    0.07624   0.15889   0.16000   0.16000   0.16000
     Eigenvalues ---    0.16266   0.24444   0.25233   0.33460   0.34486
     Eigenvalues ---    0.34667   0.34839   0.52216   0.53707   0.56096
     Eigenvalues ---    0.85111
 RFO step:  Lambda=-3.16825143D-04 EMin= 1.14990256D-02
 Quartic linear search produced a step of  0.09249.
 Iteration  1 RMS(Cart)=  0.00681447 RMS(Int)=  0.00003351
 Iteration  2 RMS(Cart)=  0.00004684 RMS(Int)=  0.00001027
 Iteration  3 RMS(Cart)=  0.00000000 RMS(Int)=  0.00001027
 ITry= 1 IFail=0 DXMaxC= 1.92D-02 DCOld= 1.00D+10 DXMaxT= 5.05D-01 DXLimC= 3.00D+00 Rises=F
 Variable       Old X    -DE/DX   Delta X   Delta X   Delta X     New X
                                 (Linear)    (Quad)   (Total)
    R1        2.84643   0.00624   0.00617   0.01502   0.02119   2.86763
    R2        2.08074  -0.00013   0.00167  -0.00150   0.00017   2.08091
    R3        2.06772   0.00076   0.00020   0.00227   0.00246   2.07018
    R4        2.08027  -0.00003   0.00176  -0.00126   0.00050   2.08077
    R5        2.56884   0.00091   0.00257   0.00000   0.00257   2.57141
    R6        2.36614  -0.01146   0.00004  -0.01519  -0.01515   2.35099
    R7        1.91523   0.00126   0.00760  -0.00263   0.00498   1.92020
    R8        1.91319   0.00302   0.00737   0.00113   0.00851   1.92170
    A1        1.93810  -0.00033   0.00234  -0.00404  -0.00170   1.93640
    A2        1.90728  -0.00007  -0.00275   0.00221  -0.00052   1.90676
    A3        1.93994  -0.00045   0.00206  -0.00489  -0.00284   1.93710
    A4        1.90033   0.00040   0.00044   0.00375   0.00420   1.90453
    A5        1.87582   0.00008  -0.00254   0.00003  -0.00254   1.87328
    A6        1.90153   0.00039   0.00041   0.00319   0.00362   1.90515
    A7        2.02883  -0.00186  -0.00672  -0.00387  -0.01059   2.01824
    A8        2.13125   0.00175   0.00193   0.00639   0.00832   2.13958
    A9        2.12310   0.00012   0.00479  -0.00253   0.00226   2.12537
   A10        2.12983   0.00050   0.00307   0.00164   0.00471   2.13454
   A11        2.07552   0.00080  -0.00197   0.00663   0.00466   2.08018
   A12        2.07783  -0.00131  -0.00109  -0.00827  -0.00936   2.06846
    D1       -1.04774   0.00021   0.00017   0.00264   0.00279  -1.04495
    D2        2.09342   0.00022   0.00018   0.00305   0.00321   2.09663
    D3        3.13884  -0.00004  -0.00011  -0.00091  -0.00102   3.13782
    D4       -0.00318  -0.00003  -0.00010  -0.00050  -0.00060  -0.00378
    D5        1.03959  -0.00020  -0.00017  -0.00324  -0.00339   1.03620
    D6       -2.10243  -0.00019  -0.00016  -0.00283  -0.00297  -2.10540
    D7        0.00179  -0.00003  -0.00017  -0.00132  -0.00149   0.00030
    D8       -3.13965  -0.00004  -0.00019  -0.00176  -0.00195   3.14159
    D9       -3.13938  -0.00004  -0.00017  -0.00173  -0.00190  -3.14128
   D10        0.00237  -0.00005  -0.00020  -0.00217  -0.00237   0.00000
         Item               Value     Threshold  Converged?
 Maximum Force            0.011460     0.000450     NO 
 RMS     Force            0.002532     0.000300     NO 
 Maximum Displacement     0.019232     0.001800     NO 
 RMS     Displacement     0.006815     0.001200     NO 
 Predicted change in Energy=-1.949142D-04
 Lowest energy point so far.  Saving SCF results.
 GradGradGradGradGradGradGradGradGradGradGradGradGradGradGradGradGradGrad

 Leave Link  103 at Mon Feb 22 20:57:56 2021, MaxMem=   104857600 cpu:               0.6 elap:               0.0
 (Enter /sw/arch/RedHatEnterpriseServer7/EB_production/2019/software/Gaussian/g16.c01/l202.exe)
                          Input orientation:                          
 ---------------------------------------------------------------------
 Center     Atomic      Atomic             Coordinates (Angstroms)
 Number     Number       Type             X           Y           Z
 ---------------------------------------------------------------------
      1          6           0        1.121442    0.763053    0.797796
      2          6           0       -0.065196    0.098348    0.124883
      3          7           0       -0.873484    0.924395   -0.593384
      4          8           0       -0.291902   -1.121333    0.218390
      5          1           0        1.776597    1.244228    0.054950
      6          1           0        1.695003    0.008083    1.346572
      7          1           0        0.790288    1.545153    1.498561
      8          1           0       -0.695742    1.921495   -0.675321
      9          1           0       -1.685015    0.535427   -1.066927
 ---------------------------------------------------------------------
                    Distance matrix (angstroms):
                    1          2          3          4          5
     1  C    0.000000
     2  C    1.517483   0.000000
     3  N    2.437446   1.360732   0.000000
     4  O    2.425729   1.244090   2.276448   0.000000
     5  H    1.101170   2.170284   2.746918   3.146630   0.000000
     6  H    1.095494   2.144521   3.346667   2.548758   1.789693
     7  H    1.101098   2.170735   2.744032   3.149623   1.774084
     8  H    2.610407   2.088488   1.016127   3.196969   2.665417
     9  H    3.377159   2.057975   1.016918   2.517470   3.707258
                    6          7          8          9
     6  H    0.000000
     7  H    1.790027   0.000000
     8  H    3.669450   2.660016   0.000000
     9  H    4.186596   3.705185   1.747341   0.000000
 Stoichiometry    C2H5NO
 Framework group  C1[X(C2H5NO)]
 Deg. of freedom    21
 Full point group                 C1      NOp   1
 RotChk:  IX=0 Diff= 2.18D-02
 Largest Abelian subgroup         C1      NOp   1
 Largest concise Abelian subgroup C1      NOp   1
                         Standard orientation:                         
 ---------------------------------------------------------------------
 Center     Atomic      Atomic             Coordinates (Angstroms)
 Number     Number       Type             X           Y           Z
 ---------------------------------------------------------------------
      1          6           0        1.378768   -0.281473   -0.000089
      2          6           0       -0.079164    0.139465   -0.000035
      3          7           0       -0.985095   -0.875857   -0.000025
      4          8           0       -0.432172    1.332422    0.000007
      5          1           0        1.613838   -0.886629    0.889351
      6          1           0        2.012646    0.611998   -0.003995
      7          1           0        1.612345   -0.894085   -0.884716
      8          1           0       -0.705718   -1.852823    0.000206
      9          1           0       -1.977694   -0.654792    0.000018
 ---------------------------------------------------------------------
 Rotational constants (GHZ):          10.6473525           9.2225460           5.1001278
 Leave Link  202 at Mon Feb 22 20:57:56 2021, MaxMem=   104857600 cpu:               0.7 elap:               0.1
 (Enter /sw/arch/RedHatEnterpriseServer7/EB_production/2019/software/Gaussian/g16.c01/l301.exe)
 Standard basis: TZVP (5D, 7F)
 Ernie: Thresh=  0.10000D-02 Tol=  0.10000D-05 Strict=F.
 There are   110 symmetry adapted cartesian basis functions of A   symmetry.
 There are   106 symmetry adapted basis functions of A   symmetry.
   106 basis functions,   180 primitive gaussians,   110 cartesian basis functions
    16 alpha electrons       16 beta electrons
       nuclear repulsion energy       120.7981612964 Hartrees.
 IExCor=  404 DFT=T Ex=B Corr=P86 ExCW=0 ScaHFX=  0.000000
 ScaDFX=  1.000000  1.000000  1.000000  1.000000 ScalE2=  1.000000  1.000000
 IRadAn=      5 IRanWt=     -1 IRanGd=            0 ICorTp=0 IEmpDi=131
 NAtoms=    9 NActive=    9 NUniq=    9 SFac= 1.00D+00 NAtFMM=   60 NAOKFM=F Big=F
 Integral buffers will be    131072 words long.
 Raffenetti 2 integral format.
 Two-electron integral symmetry is turned on.
 R6Disp:  Grimme-D3 Dispersion energy=       -0.0042334474 Hartrees.
 Nuclear repulsion after empirical dispersion term =      120.7939278490 Hartrees.
 ------------------------------------------------------------------------------
 Polarizable Continuum Model (PCM)
 =================================
 Model                : PCM.
 Atomic radii         : UFF (Universal Force Field).
 Polarization charges : Total charges.
 Charge compensation  : None.
 Solution method      : On-the-fly selection.
 Cavity type          : Scaled VdW (van der Waals Surface) (Alpha=1.100).
 Cavity algorithm     : GePol (No added spheres)
                        Default sphere list used, NSphG=    9.
                        Lebedev-Laikov grids with approx.  5.0 points / Ang**2.
                        Smoothing algorithm: York/Karplus (Gamma=1.0000).
                        Polarization charges: spherical gaussians, with
                                              point-specific exponents (IZeta= 3).
                        Self-potential: point-specific (ISelfS= 7).
                        Self-field    : sphere-specific E.n sum rule (ISelfD= 2).
 1st derivatives      : Analytical E(r).r(x)/FMM algorithm (CHGder, D1EAlg=3).
                        Cavity 1st derivative terms included.
 Solvent              : Water, Eps=  78.355300 Eps(inf)=   1.777849
 ------------------------------------------------------------------------------
 Spheres list:
 ISph  on   Nord     Re0    Alpha      Xe            Ye            Ze
    1   C      1    1.9255  1.100      1.378768     -0.281473     -0.000089
    2   C      2    1.9255  1.100     -0.079164      0.139465     -0.000035
    3   N      3    1.8300  1.100     -0.985095     -0.875857     -0.000025
    4   O      4    1.7500  1.100     -0.432172      1.332422      0.000007
    5   H      5    1.4430  1.100      1.613838     -0.886629      0.889351
    6   H      6    1.4430  1.100      2.012646      0.611998     -0.003995
    7   H      7    1.4430  1.100      1.612345     -0.894085     -0.884716
    8   H      8    1.4430  1.100     -0.705718     -1.852823      0.000206
    9   H      9    1.4430  1.100     -1.977694     -0.654792      0.000018
 ------------------------------------------------------------------------------
 GePol: Number of generator spheres                  =       9
 GePol: Total number of spheres                      =       9
 GePol: Number of exposed spheres                    =       9 (100.00%)
 GePol: Number of points                             =     871
 GePol: Average weight of points                     =       0.14
 GePol: Minimum weight of points                     =   0.11D-10
 GePol: Maximum weight of points                     =    0.20299
 GePol: Number of points with low weight             =      49
 GePol: Fraction of low-weight points (<1% of avg)   =       5.63%
 GePol: Cavity surface area                          =    118.542 Ang**2
 GePol: Cavity volume                                =    101.372 Ang**3
 Leave Link  301 at Mon Feb 22 20:57:56 2021, MaxMem=   104857600 cpu:               1.9 elap:               0.1
 (Enter /sw/arch/RedHatEnterpriseServer7/EB_production/2019/software/Gaussian/g16.c01/l302.exe)
 NPDir=0 NMtPBC=     1 NCelOv=     1 NCel=       1 NClECP=     1 NCelD=      1
         NCelK=      1 NCelE2=     1 NClLst=     1 CellRange=     0.0.
 One-electron integrals computed using PRISM.
 One-electron integral symmetry used in STVInt
 PrsmSu:  requested number of processors reduced to:  30 ShMem   1 Linda.
 NBasis=   106 RedAO= T EigKep=  5.45D-04  NBF=   106
 NBsUse=   106 1.00D-06 EigRej= -1.00D+00 NBFU=   106
 Precomputing XC quadrature grid using
 IXCGrd= 4 IRadAn=           5 IRanWt=          -1 IRanGd=           0 AccXCQ= 0.00D+00.
 Generated NRdTot=       0 NPtTot=           0 NUsed=           0 NTot=          32
 NSgBfM=   110   110   110   110   110 MxSgAt=     9 MxSgA2=     9.
 Leave Link  302 at Mon Feb 22 20:57:56 2021, MaxMem=   104857600 cpu:               6.7 elap:               0.3
 (Enter /sw/arch/RedHatEnterpriseServer7/EB_production/2019/software/Gaussian/g16.c01/l303.exe)
 DipDrv:  MaxL=1.
 Leave Link  303 at Mon Feb 22 20:57:56 2021, MaxMem=   104857600 cpu:               0.7 elap:               0.0
 (Enter /sw/arch/RedHatEnterpriseServer7/EB_production/2019/software/Gaussian/g16.c01/l401.exe)
 Initial guess from the checkpoint file:  "DLFVBJFMPXGRIB-UHFFFAOYSA-N.chk"
 B after Tr=     0.000000    0.000000   -0.000000
         Rot=    0.999967    0.000007   -0.000029   -0.008149 Ang=   0.93 deg.
 Guess basis will be translated and rotated to current coordinates.
 JPrj=2 DoOrth=T DoCkMO=T.
 Leave Link  401 at Mon Feb 22 20:57:56 2021, MaxMem=   104857600 cpu:               2.6 elap:               0.1
 (Enter /sw/arch/RedHatEnterpriseServer7/EB_production/2019/software/Gaussian/g16.c01/l502.exe)
 Keep J ints in memory in canonical form, NReq=46008646.
 FoFCou: FMM=F IPFlag=           0 FMFlag=           0 FMFlg1=           0
         NFxFlg=           0 DoJE=F BraDBF=F KetDBF=F FulRan=T
         wScrn=  0.000000 ICntrl=       600 IOpCl=  0 I1Cent=           0 NGrid=           0
         NMat0=    1 NMatS0=   5671 NMatT0=    0 NMatD0=    1 NMtDS0=    0 NMtDT0=    0
 Symmetry not used in FoFCou.
 Two-electron integral symmetry not used.
 Closed shell SCF:
 Using DIIS extrapolation, IDIIS=  1040.
 NGot=   104857600 LenX=    88745450 LenY=    88732909
 Requested convergence on RMS density matrix=1.00D-08 within 128 cycles.
 Requested convergence on MAX density matrix=1.00D-06.
 Requested convergence on             energy=1.00D-06.
 No special actions if energy rises.

 Cycle   1  Pass 1  IDiag  1:
 Inv3:  Mode=1 IEnd=     2275923.
 Iteration    1 A*A^-1 deviation from unit magnitude is 2.66D-15 for    221.
 Iteration    1 A*A^-1 deviation from orthogonality  is 1.94D-15 for    602    235.
 Iteration    1 A^-1*A deviation from unit magnitude is 2.66D-15 for    185.
 Iteration    1 A^-1*A deviation from orthogonality  is 1.58D-15 for    759    498.
 E= -209.314726059998    
 DIIS: error= 8.71D-04 at cycle   1 NSaved=   1.
 NSaved= 1 IEnMin= 1 EnMin= -209.314726059998     IErMin= 1 ErrMin= 8.71D-04
 ErrMax= 8.71D-04  0.00D+00 EMaxC= 1.00D-01 BMatC= 1.16D-04 BMatP= 1.16D-04
 IDIUse=3 WtCom= 9.91D-01 WtEn= 8.71D-03
 Coeff-Com:  0.100D+01
 Coeff-En:   0.100D+01
[...]
 4/5=1/1;
 5/5=2,38=6/2;
 6/7=2,8=2,9=2,10=2,28=1/1;
 99/5=1,9=1/99;
 -------------------------------------------
 COSMO-file for #DLFVBJFMPXGRIB-UHFFFAOYSA-N
 -------------------------------------------
 Structure from the checkpoint file:  "DLFVBJFMPXGRIB-UHFFFAOYSA-N.chk"
 Charge =  0 Multiplicity = 1
 Redundant internal coordinates found in file.  (old form).
 C,0,1.1227505049,0.7640047252,0.7983319794
 C,0,-0.0658061433,0.093373044,0.1249964153
 N,0,-0.8725297659,0.923738102,-0.5925386169
 O,0,-0.2910760368,-1.1229853501,0.2193282007
 H,0,1.7734168232,1.2434087198,0.0514562073
 H,0,1.6974765932,0.0108862765,1.34810008
 H,0,0.7855880221,1.5448625654,1.4965847319
 H,0,-0.6925444418,1.9194689476,-0.6723302859
 H,0,-1.6852855557,0.5420929695,-1.0684087117
 Recover connectivity data from disk.
                           ----------------------------
                           !    Current Parameters    !
                           ! (Angstroms and Degrees)  !
 --------------------------                            --------------------------
 ! Name  Definition              Value                                          !
 --------------------------------------------------------------------------------
 ! R1    R(1,2)                  1.5218                                         !
 ! R2    R(1,5)                  1.1005                                         !
 ! R3    R(1,6)                  1.0953                                         !
 ! R4    R(1,7)                  1.1004                                         !
 ! R5    R(2,3)                  1.362                                          !
 ! R6    R(2,4)                  1.2406                                         !
 ! R7    R(3,8)                  1.015                                          !
 ! R8    R(3,9)                  1.0162                                         !
 ! A1    A(2,1,5)              110.7004                                         !
 ! A2    A(2,1,6)              109.2014                                         !
 ! A3    A(2,1,7)              110.7421                                         !
 ! A4    A(5,1,6)              109.2653                                         !
 ! A5    A(5,1,7)              107.6185                                         !
 ! A6    A(6,1,7)              109.2795                                         !
 ! A7    A(1,2,3)              115.2791                                         !
 ! A8    A(1,2,4)              122.7001                                         !
 ! A9    A(3,2,4)              122.0208                                         !
 ! A10   A(2,3,8)              122.3069                                         !
 ! A11   A(2,3,9)              119.4356                                         !
 ! A12   A(8,3,9)              118.2576                                         !
 ! D1    D(5,1,2,3)            -59.9264                                         !
 ! D2    D(5,1,2,4)            120.128                                          !
 ! D3    D(6,1,2,3)            179.7361                                         !
 ! D4    D(6,1,2,4)             -0.2095                                         !
 ! D5    D(7,1,2,3)             59.3549                                         !
 ! D6    D(7,1,2,4)           -120.5907                                         !
 ! D7    D(1,2,3,8)              0.0301                                         !
 ! D8    D(1,2,3,9)           -179.9915                                         !
 ! D9    D(4,2,3,8)            179.9761                                         !
 ! D10   D(4,2,3,9)             -0.0455                                         !
 --------------------------------------------------------------------------------
                          Input orientation:                          
 ---------------------------------------------------------------------
 Center     Atomic      Atomic             Coordinates (Angstroms)
 Number     Number       Type             X           Y           Z
 ---------------------------------------------------------------------
      1          6           0        1.122751    0.764005    0.798332
      2          6           0       -0.065806    0.093373    0.124996
      3          7           0       -0.872530    0.923738   -0.592539
      4          8           0       -0.291076   -1.122985    0.219328
      5          1           0        1.773417    1.243409    0.051456
      6          1           0        1.697477    0.010886    1.348100
      7          1           0        0.785588    1.544863    1.496585
      8          1           0       -0.692544    1.919469   -0.672330
      9          1           0       -1.685286    0.542093   -1.068409
 ---------------------------------------------------------------------
                    Distance matrix (angstroms):
                    1          2          3          4          5
     1  C    0.000000
     2  C    1.521773   0.000000
     3  N    2.437453   1.362045   0.000000
     4  O    2.427938   1.240634   2.277343   0.000000
     5  H    1.100463   2.170422   2.741888   3.144858   0.000000
     6  H    1.095328   2.147546   3.347284   2.552280   1.790576
     7  H    1.100443   2.170933   2.738537   3.147698   1.776254
     8  H    2.606385   2.088817   1.015008   3.195741   2.657422
     9  H    3.379206   2.061135   1.016207   2.524792   3.702508
                    6          7          8          9
     6  H    0.000000
     7  H    1.790718   0.000000
     8  H    3.665655   2.651301   0.000000
     9  H    4.191035   3.699994   1.743438   0.000000
 Stoichiometry    C2H5NO
 Framework group  C1[X(C2H5NO)]
 Deg. of freedom    21
 Full point group                 C1      NOp   1
 Largest Abelian subgroup         C1      NOp   1
 Largest concise Abelian subgroup C1      NOp   1
                         Standard orientation:                         
 ---------------------------------------------------------------------
 Center     Atomic      Atomic             Coordinates (Angstroms)
 Number     Number       Type             X           Y           Z
 ---------------------------------------------------------------------
      1          6           0        1.380353   -0.281032   -0.000093
      2          6           0       -0.081171    0.142930    0.000294
      3          7           0       -0.982898   -0.877880   -0.000069
      4          8           0       -0.434020    1.332329   -0.000094
      5          1           0        1.610343   -0.885253    0.890436
      6          1           0        2.014508    0.612035   -0.004519
      7          1           0        1.608403   -0.892988   -0.885800
      8          1           0       -0.699081   -1.852400   -0.000112
      9          1           0       -1.976825   -0.666252    0.000026
 ---------------------------------------------------------------------
 Rotational constants (GHZ):          10.6336337           9.2223734           5.0973247
 Standard basis: TZVP (5D, 7F)
 There are   110 symmetry adapted cartesian basis functions of A   symmetry.
 There are   106 symmetry adapted basis functions of A   symmetry.
   106 basis functions,   180 primitive gaussians,   110 cartesian basis functions
    16 alpha electrons       16 beta electrons
       nuclear repulsion energy       120.7978008350 Hartrees.
 NAtoms=    9 NActive=    9 NUniq=    9 SFac= 1.00D+00 NAtFMM=   60 NAOKFM=F Big=F
 Integral buffers will be    131072 words long.
 Raffenetti 2 integral format.
 Two-electron integral symmetry is turned on.
 Warning! Using old PCM defaults because the COSMOthermo output has been requested.
 These settings can be overridden by following keywords.
 ------------------------------------------------------------------------------
 Polarizable Continuum Model (PCM)
 =================================
 Model                : C-PCM.
 Atomic radii         : Klamt.
 XCosmo               : -1.000 (infinite dielectric limit)
 Polarization charges : Electronic and nuclear charges.
 Charge compensation  : Type 3 (Electronic density weighted correction).
 Solution method      : On-the-fly selection.
 Cavity type          : VdW (van der Waals Surface) (Alpha=1.000).
 Cavity algorithm     : GePol (No added spheres)
                        Default sphere list used, NSphG=    9.
                        Tesserae with average area of 0.200 Ang**2.
                        Smoothing algorithm: None.
                        Polarization charges: point-like.
                        Self-potential: constant (ISelfS= 1).
                        Self-field    : global E.n sum rule (ISelfD= 3).
 Solvent              : Water, Eps=  78.355300 Eps(inf)=   1.777849
 ------------------------------------------------------------------------------
 Spheres list:
 ISph  on   Nord     Re0    Alpha      Xe            Ye            Ze
    1   C      1    2.0000  1.000      1.380353     -0.281032     -0.000093
    2   C      2    2.0000  1.000     -0.081171      0.142930      0.000294
    3   N      3    1.8300  1.000     -0.982898     -0.877880     -0.000069
    4   O      4    1.7200  1.000     -0.434020      1.332329     -0.000094
    5   H      5    1.3000  1.000      1.610343     -0.885253      0.890436
    6   H      6    1.3000  1.000      2.014508      0.612035     -0.004519
    7   H      7    1.3000  1.000      1.608403     -0.892988     -0.885800
    8   H      8    1.3000  1.000     -0.699081     -1.852400     -0.000112
    9   H      9    1.3000  1.000     -1.976825     -0.666252      0.000026
 ------------------------------------------------------------------------------
 One-electron integrals computed using PRISM.
 PrsmSu:  requested number of processors reduced to:  30 ShMem   1 Linda.
 NBasis=   106 RedAO= T EigKep=  5.53D-04  NBF=   106
 NBsUse=   106 1.00D-06 EigRej= -1.00D+00 NBFU=   106
 Initial guess from the checkpoint file:  "DLFVBJFMPXGRIB-UHFFFAOYSA-N.chk"
 B after Tr=    -0.000000    0.000000   -0.000000
         Rot=    1.000000    0.000000   -0.000000    0.000000 Ang=   0.00 deg.
 Keep J ints in memory in canonical form, NReq=46008646.
 Requested convergence on RMS density matrix=1.00D-08 within 128 cycles.
 Requested convergence on MAX density matrix=1.00D-06.
 Requested convergence on             energy=1.00D-06.
 No special actions if energy rises.
 Inv3:  Mode=1 IEnd=     1346700.
 Iteration    1 A*A^-1 deviation from unit magnitude is 7.11D-15 for    527.
 Iteration    1 A*A^-1 deviation from orthogonality  is 8.88D-15 for    542    527.
 Iteration    1 A^-1*A deviation from unit magnitude is 3.55D-15 for    527.
 Iteration    1 A^-1*A deviation from orthogonality  is 7.11D-15 for    527    152.
 Error on nuclear    polarization charges =  0.01051
 Error on electronic polarization charges = -0.03232
 SCF Done:  E(RB-P86) =  -209.316748833     A.U. after   10 cycles
            NFock= 10  Conv=0.42D-08     -V/T= 2.0046
 --------------------------------------------------------------------
 Variational C-PCM results
 =========================
 <psi(f)|   H    |psi(f)>                     (a.u.) =    -209.293952
 <psi(f)|H+V(f)/2|psi(f)>                     (a.u.) =    -209.316749
 Total free energy in solution:
 - with all non electrostatic terms           (a.u.) =    -209.310207
 --------------------------------------------------------------------
 (Polarized solute)-Solvent               (kcal/mol) =     -14.31
 --------------------------------------------------------------------
 Cavitation energy                        (kcal/mol) =      12.67
 Dispersion energy                        (kcal/mol) =      -9.46
 Repulsion energy                         (kcal/mol) =       0.90
 Total non electrostatic                  (kcal/mol) =       4.11
 --------------------------------------------------------------------
 Partition over spheres:
 Sphere  on Atom  Surface  Charge   GEl     GCav    GDR
    1      C1      18.74  -0.014   -0.32    2.20   -1.24
    2      C2      10.10   0.012   -0.21    1.19   -0.63
    3      N3      14.09   0.007   -0.49    1.71   -1.17
    4      O4      20.67   0.327   -8.05    2.57   -1.74
    5      H5       6.54  -0.038   -0.45    0.92   -0.73
    6      H6       6.48  -0.033   -0.04    0.91   -0.67
    7      H7       6.54  -0.040   -0.47    0.92   -0.73
    8      H8       7.76  -0.112   -2.72    1.10   -0.79
    9      H9       8.10  -0.109   -1.55    1.14   -0.87
 --------------------------------------------------------------------
 - cavitation energy not included in the total energy.
 - dispersion energy not included in the total energy.
 - repulsion  energy not included in the total energy.
 After PCM corrections, the energy is  -209.316748833     a.u.
 --------------------------------------------------------------------
 Writing COSMO formatted file "DLFVBJFMPXGRIB-UHFFFAOYSA-N.cosmo"
 Recomputed dielectric energy= -0.022877 old= -0.022797 diff=-8.02D-05

 **********************************************************************

            Population analysis using the SCF Density.

 **********************************************************************

 Orbital symmetries:
       Occupied  (A) (A) (A) (A) (A) (A) (A) (A) (A) (A) (A) (A)
                 (A) (A) (A) (A)
       Virtual   (A) (A) (A) (A) (A) (A) (A) (A) (A) (A) (A) (A)
                 (A) (A) (A) (A) (A) (A) (A) (A) (A) (A) (A) (A)
                 (A) (A) (A) (A) (A) (A) (A) (A) (A) (A) (A) (A)
                 (A) (A) (A) (A) (A) (A) (A) (A) (A) (A) (A) (A)
                 (A) (A) (A) (A) (A) (A) (A) (A) (A) (A) (A) (A)
                 (A) (A) (A) (A) (A) (A) (A) (A) (A) (A) (A) (A)
                 (A) (A) (A) (A) (A) (A) (A) (A) (A) (A) (A) (A)
                 (A) (A) (A) (A) (A) (A)
 The electronic state is 1-A.
 Alpha  occ. eigenvalues --  -18.74291 -14.01975 -10.00179  -9.89703  -0.95297
 Alpha  occ. eigenvalues --   -0.82688  -0.66735  -0.53509  -0.48184  -0.42579
 Alpha  occ. eigenvalues --   -0.40104  -0.36586  -0.35243  -0.32834  -0.24227
 Alpha  occ. eigenvalues --   -0.22500
 Alpha virt. eigenvalues --   -0.02520   0.02592   0.06653   0.08867   0.09800
 Alpha virt. eigenvalues --    0.11498   0.12349   0.14986   0.18351   0.20305
 Alpha virt. eigenvalues --    0.23305   0.24611   0.27252   0.31604   0.33143
 Alpha virt. eigenvalues --    0.35750   0.37094   0.37914   0.40517   0.40910
 Alpha virt. eigenvalues --    0.43370   0.45209   0.49101   0.49885   0.51646
 Alpha virt. eigenvalues --    0.53834   0.55948   0.68155   0.70780   0.80664
 Alpha virt. eigenvalues --    1.09176   1.13360   1.19050   1.24198   1.24420
 Alpha virt. eigenvalues --    1.26308   1.29868   1.30022   1.41570   1.42122
 Alpha virt. eigenvalues --    1.45889   1.46650   1.50744   1.51986   1.55110
 Alpha virt. eigenvalues --    1.57828   1.67773   1.72290   1.72715   1.81226
 Alpha virt. eigenvalues --    1.86542   1.89626   1.96683   2.03262   2.09096
 Alpha virt. eigenvalues --    2.11454   2.12597   2.20336   2.22457   2.27040
 Alpha virt. eigenvalues --    2.32092   2.37389   2.41872   2.44312   2.49782
 Alpha virt. eigenvalues --    2.49962   2.52831   2.53965   2.57195   2.57882
 Alpha virt. eigenvalues --    2.62356   2.68017   2.70925   2.76347   2.82454
 Alpha virt. eigenvalues --    2.93262   3.07229   3.08195   3.13093   3.21933
 Alpha virt. eigenvalues --    3.23660   3.32479   3.35667   3.63031   3.75353
 Alpha virt. eigenvalues --    4.13008  21.66742  21.75626  31.34493  43.09738
          Condensed to atoms (all electrons):
               1          2          3          4          5          6
     1  C    5.531812   0.172383  -0.204654  -0.136706   0.349414   0.369565
     2  C    0.172383   4.717898   0.313698   0.664206  -0.007206  -0.029518
     3  N   -0.204654   0.313698   6.703957  -0.149890   0.009340   0.011624
     4  O   -0.136706   0.664206  -0.149890   8.038692   0.002720   0.014269
     5  H    0.349414  -0.007206   0.009340   0.002720   0.511126  -0.013631
     6  H    0.369565  -0.029518   0.011624   0.014269  -0.013631   0.506682
     7  H    0.349446  -0.007524   0.009557   0.002741  -0.019673  -0.013767
     8  H    0.006236  -0.007785   0.338398   0.004873  -0.001494   0.000003
     9  H    0.012680  -0.014118   0.341830   0.005326  -0.000367  -0.000577
               7          8          9
     1  C    0.349446   0.006236   0.012680
     2  C   -0.007524  -0.007785  -0.014118
     3  N    0.009557   0.338398   0.341830
     4  O    0.002741   0.004873   0.005326
     5  H   -0.019673  -0.001494  -0.000367
     6  H   -0.013767   0.000003  -0.000577
     7  H    0.511526  -0.001534  -0.000361
     8  H   -0.001534   0.382967  -0.018249
     9  H   -0.000361  -0.018249   0.392834
 Mulliken charges:
               1
     1  C   -0.450176
     2  C    0.197966
     3  N   -0.373859
     4  O   -0.446231
     5  H    0.169772
     6  H    0.155350
     7  H    0.169591
     8  H    0.296585
     9  H    0.281003
 Sum of Mulliken charges =  -0.00000
 Mulliken charges with hydrogens summed into heavy atoms:
               1
     1  C    0.044536
     2  C    0.197966
     3  N    0.203729
     4  O   -0.446231
 Electronic spatial extent (au):  <R**2>=            271.0659
 Charge=             -0.0000 electrons
 Dipole moment (field-independent basis, Debye):
    X=              0.3213    Y=             -5.5976    Z=              0.0019  Tot=              5.6068
 Quadrupole moment (field-independent basis, Debye-Ang):
   XX=            -20.1760   YY=            -26.2505   ZZ=            -25.2822
   XY=              3.1026   XZ=              0.0008   YZ=              0.0003
 Traceless Quadrupole moment (field-independent basis, Debye-Ang):
   XX=              3.7269   YY=             -2.3476   ZZ=             -1.3793
   XY=              3.1026   XZ=              0.0008   YZ=              0.0003
 Octapole moment (field-independent basis, Debye-Ang**2):
  XXX=            -11.2864  YYY=            -18.2031  ZZZ=              0.0125  XYY=             -0.5395
  XXY=             -4.3587  XXZ=              0.0009  XZZ=              0.6763  YZZ=             -0.2903
  YYZ=             -0.0101  XYZ=             -0.0026
 Hexadecapole moment (field-independent basis, Debye-Ang**3):
 XXXX=           -154.5700 YYYY=           -130.9634 ZZZZ=            -31.7031 XXXY=             11.0395
 XXXZ=             -0.0017 YYYX=             10.8014 YYYZ=              0.0143 ZZZX=              0.0218
 ZZZY=             -0.0058 XXYY=            -49.8303 XXZZ=            -35.3804 YYZZ=            -28.7032
 XXYZ=             -0.0095 YYXZ=             -0.0150 ZZXY=             -2.0943
 N-N= 1.207978008350D+02 E-N=-7.314946206206D+02  KE= 2.083549494662D+02
 Unable to Open any file for archive entry.
 1\1\GINC-TCN1638\SP\RBP86\TZVP\C2H5N1O1\ELENAA\22-Feb-2021\0\\# BP86/T
 ZVP SCRF=COSMORS geom=CHECKPOINT guess=CHECKPOINT\\COSMO-file for #DLF
 VBJFMPXGRIB-UHFFFAOYSA-N\\0,1\C,0,1.1227505049,0.7640047252,0.79833197
 94\C,0,-0.0658061433,0.093373044,0.1249964153\N,0,-0.8725297659,0.9237
 38102,-0.5925386169\O,0,-0.2910760368,-1.1229853501,0.2193282007\H,0,1
 .7734168232,1.2434087198,0.0514562073\H,0,1.6974765932,0.0108862765,1.
 34810008\H,0,0.7855880221,1.5448625654,1.4965847319\H,0,-0.6925444418,
 1.9194689476,-0.6723302859\H,0,-1.6852855557,0.5420929695,-1.068408711
 7\\Version=ES64L-G16RevC.01\State=1-A\HF=-209.3167488\RMSD=4.218e-09\D
 ipole=-0.0201792,2.1587126,-0.4533944\Quadrupole=1.8056136,-2.3774077,
 0.5717941,-1.235166,2.1778535,-0.5659813\PG=C01 [X(C2H5N1O1)]\\@
 The archive entry for this job was punched.


 LIFE CAN ONLY BE UNDERSTOOD BACKWARD, BUT MUST
 BE LIVED FORWARD. -- KIRKEGAARD
 Job cpu time:       0 days  0 hours  1 minutes 13.1 seconds.
 Elapsed time:       0 days  0 hours  0 minutes  2.8 seconds.
 File lengths (MBytes):  RWF=     15 Int=      0 D2E=      0 Chk=      3 Scr=      1
 Normal termination of Gaussian 16 at Mon Feb 22 20:58:11 2021.
