 Entering Gaussian System, Link 0=g16
 Input=DNIAPMSPPWPWGF-UHFFFAOYSA-N.gjf
 Output=DNIAPMSPPWPWGF-UHFFFAOYSA-N.log
 Initial command:
 /sw/arch/RedHatEnterpriseServer7/EB_production/2019/software/Gaussian/g16.c01/l1.exe "/scratch-local/elenaa.9715196/Gau-4502.inp" -scrdir="/scratch-local/elenaa.9715196/"
 Entering Link 1 = /sw/arch/RedHatEnterpriseServer7/EB_production/2019/software/Gaussian/g16.c01/l1.exe PID=      4503.
  
 Copyright (c) 1988-2019, Gaussian, Inc.  All Rights Reserved.
  
 This is part of the Gaussian(R) 16 program.  It is based on
 the Gaussian(R) 09 system (copyright 2009, Gaussian, Inc.),
 the Gaussian(R) 03 system (copyright 2003, Gaussian, Inc.),
 the Gaussian(R) 98 system (copyright 1998, Gaussian, Inc.),
 the Gaussian(R) 94 system (copyright 1995, Gaussian, Inc.),
 the Gaussian 92(TM) system (copyright 1992, Gaussian, Inc.),
 the Gaussian 90(TM) system (copyright 1990, Gaussian, Inc.),
 the Gaussian 88(TM) system (copyright 1988, Gaussian, Inc.),
 the Gaussian 86(TM) system (copyright 1986, Carnegie Mellon
 University), and the Gaussian 82(TM) system (copyright 1983,
 Carnegie Mellon University). Gaussian is a federally registered
 trademark of Gaussian, Inc.
  
 This software contains proprietary and confidential information,
 including trade secrets, belonging to Gaussian, Inc.
  
 This software is provided under written license and may be
 used, copied, transmitted, or stored only in accord with that
 written license.
  
 The following legend is applicable only to US Government
 contracts under FAR:
  
                    RESTRICTED RIGHTS LEGEND
  
 Use, reproduction and disclosure by the US Government is
 subject to restrictions as set forth in subparagraphs (a)
 and (c) of the Commercial Computer Software - Restricted
 Rights clause in FAR 52.227-19.
  
 Gaussian, Inc.
 340 Quinnipiac St., Bldg. 40, Wallingford CT 06492
  
  
 ---------------------------------------------------------------
 Warning -- This program may not be used in any manner that
 competes with the business of Gaussian, Inc. or will provide
 assistance to any competitor of Gaussian, Inc.  The licensee
 of this program is prohibited from giving any competitor of
 Gaussian, Inc. access to this program.  By using this program,
 the user acknowledges that Gaussian, Inc. is engaged in the
 business of creating and licensing software in the field of
 computational chemistry and represents and warrants to the
 licensee that it is not a competitor of Gaussian, Inc. and that
 it will not use this program in any manner prohibited above.
 ---------------------------------------------------------------
  

 Cite this work as:
 Gaussian 16, Revision C.01,
 M. J. Frisch, G. W. Trucks, H. B. Schlegel, G. E. Scuseria, 
 M. A. Robb, J. R. Cheeseman, G. Scalmani, V. Barone, 
 G. A. Petersson, H. Nakatsuji, X. Li, M. Caricato, A. V. Marenich, 
 J. Bloino, B. G. Janesko, R. Gomperts, B. Mennucci, H. P. Hratchian, 
 J. V. Ortiz, A. F. Izmaylov, J. L. Sonnenberg, D. Williams-Young, 
 F. Ding, F. Lipparini, F. Egidi, J. Goings, B. Peng, A. Petrone, 
 T. Henderson, D. Ranasinghe, V. G. Zakrzewski, J. Gao, N. Rega, 
 G. Zheng, W. Liang, M. Hada, M. Ehara, K. Toyota, R. Fukuda, 
 J. Hasegawa, M. Ishida, T. Nakajima, Y. Honda, O. Kitao, H. Nakai, 
 T. Vreven, K. Throssell, J. A. Montgomery, Jr., J. E. Peralta, 
 F. Ogliaro, M. J. Bearpark, J. J. Heyd, E. N. Brothers, K. N. Kudin, 
 V. N. Staroverov, T. A. Keith, R. Kobayashi, J. Normand, 
 K. Raghavachari, A. P. Rendell, J. C. Burant, S. S. Iyengar, 
 J. Tomasi, M. Cossi, J. M. Millam, M. Klene, C. Adamo, R. Cammi, 
 J. W. Ochterski, R. L. Martin, K. Morokuma, O. Farkas, 
 J. B. Foresman, and D. J. Fox, Gaussian, Inc., Wallingford CT, 2019.
 
 ******************************************
 Gaussian 16:  ES64L-G16RevC.01  3-Jul-2019
                22-Feb-2021 
 ******************************************
 %chk=DNIAPMSPPWPWGF-UHFFFAOYSA-N.chk
 %NProcShared=32
 Will use up to   32 processors via shared memory.
 -------------------------------------------------------------
 #P BP86/TZVP EmpiricalDispersion=GD3 SCRF=(Solvent=Water) Opt
 -------------------------------------------------------------
 1/18=20,19=15,26=3,38=1/1,3;
 2/9=110,12=2,17=6,18=5,40=1/2;
 3/5=19,7=101,11=2,25=1,30=1,70=2201,71=1,72=1,74=404,124=31/1,2,3;
 4//1;
 5/5=2,38=5,53=1/2;
 6/7=2,8=2,9=2,10=2,28=1/1;
 7//1,2,3,16;
 1/18=20,19=15,26=3/3(2);
 2/9=110/2;
 99//99;
 2/9=110/2;
 3/5=19,7=101,11=2,25=1,30=1,70=2205,71=1,72=1,74=404,124=31/1,2,3;
 4/5=5,16=3,69=1/1;
 5/5=2,38=5,53=1/2;
 7//1,2,3,16;
 1/18=20,19=15,26=3/3(-5);
 2/9=110/2;
 6/7=2,8=2,9=2,10=2,19=2,28=1/1;
 99/9=1/99;
 Leave Link    1 at Mon Feb 22 20:58:16 2021, MaxMem=           0 cpu:               1.5 elap:               0.1
 (Enter /sw/arch/RedHatEnterpriseServer7/EB_production/2019/software/Gaussian/g16.c01/l101.exe)
 -------------------------------------
 Particle #DNIAPMSPPWPWGF-UHFFFAOYSA-N
 -------------------------------------
 Symbolic Z-matrix:
 Charge =  0 Multiplicity = 1
 C                     2.73691  -2.57459   2.01263 
 C                     2.29788  -2.2903    0.55704 
 O                     1.95973  -3.51863  -0.08655 
 C                     1.08873  -1.32641   0.48866 
 O                     0.7212   -1.06748  -0.86194 
 H                     3.01594  -1.64571   2.5133 
 H                     1.92644  -3.04649   2.57158 
 H                     3.59864  -3.24247   2.01967 
 H                     3.13828  -1.84208   0.0193 
 H                     2.77653  -4.05917  -0.05178 
 H                     1.33971  -0.37531   0.96302 
 H                     0.22974  -1.76259   1.00248 
 H                    -0.05181  -0.4677   -0.79753 
 
 ITRead=  0  0  0  0  0  0  0  0  0  0  0  0  0
 MicOpt= -1 -1 -1 -1 -1 -1 -1 -1 -1 -1 -1 -1 -1
 NAtoms=     13 NQM=       13 NQMF=       0 NMMI=      0 NMMIF=      0
                NMic=       0 NMicF=      0.
                    Isotopes and Nuclear Properties:
 (Nuclear quadrupole moments (NQMom) in fm**2, nuclear magnetic moments (NMagM)
  in nuclear magnetons)

  Atom         1           2           3           4           5           6           7           8           9          10
 IAtWgt=          12          12          16          12          16           1           1           1           1           1
 AtmWgt=  12.0000000  12.0000000  15.9949146  12.0000000  15.9949146   1.0078250   1.0078250   1.0078250   1.0078250   1.0078250
 NucSpn=           0           0           0           0           0           1           1           1           1           1
 AtZEff=  -0.0000000  -0.0000000  -0.0000000  -0.0000000  -0.0000000  -0.0000000  -0.0000000  -0.0000000  -0.0000000  -0.0000000
 NQMom=    0.0000000   0.0000000   0.0000000   0.0000000   0.0000000   0.0000000   0.0000000   0.0000000   0.0000000   0.0000000
 NMagM=    0.0000000   0.0000000   0.0000000   0.0000000   0.0000000   2.7928460   2.7928460   2.7928460   2.7928460   2.7928460
 AtZNuc=   6.0000000   6.0000000   8.0000000   6.0000000   8.0000000   1.0000000   1.0000000   1.0000000   1.0000000   1.0000000

  Atom        11          12          13
 IAtWgt=           1           1           1
 AtmWgt=   1.0078250   1.0078250   1.0078250
 NucSpn=           1           1           1
 AtZEff=  -0.0000000  -0.0000000  -0.0000000
 NQMom=    0.0000000   0.0000000   0.0000000
 NMagM=    2.7928460   2.7928460   2.7928460
 AtZNuc=   1.0000000   1.0000000   1.0000000
 Leave Link  101 at Mon Feb 22 20:58:16 2021, MaxMem=   104857600 cpu:               2.6 elap:               0.2
 (Enter /sw/arch/RedHatEnterpriseServer7/EB_production/2019/software/Gaussian/g16.c01/l103.exe)

 GradGradGradGradGradGradGradGradGradGradGradGradGradGradGradGradGradGrad
 Berny optimization.
 Initialization pass.
                           ----------------------------
                           !    Initial Parameters    !
                           ! (Angstroms and Degrees)  !
 --------------------------                            --------------------------
 ! Name  Definition              Value          Derivative Info.                !
 --------------------------------------------------------------------------------
 ! R1    R(1,2)                  1.5467         estimate D2E/DX2                !
 ! R2    R(1,6)                  1.0915         estimate D2E/DX2                !
 ! R3    R(1,7)                  1.0918         estimate D2E/DX2                !
 ! R4    R(1,8)                  1.0903         estimate D2E/DX2                !
 ! R5    R(2,3)                  1.4274         estimate D2E/DX2                !
 ! R6    R(2,4)                  1.5478         estimate D2E/DX2                !
 ! R7    R(2,9)                  1.0938         estimate D2E/DX2                !
 ! R8    R(3,10)                 0.9801         estimate D2E/DX2                !
 ! R9    R(4,5)                  1.4235         estimate D2E/DX2                !
 ! R10   R(4,11)                 1.0921         estimate D2E/DX2                !
 ! R11   R(4,12)                 1.0918         estimate D2E/DX2                !
 ! R12   R(5,13)                 0.9805         estimate D2E/DX2                !
 ! A1    A(2,1,6)              110.3543         estimate D2E/DX2                !
 ! A2    A(2,1,7)              110.5201         estimate D2E/DX2                !
 ! A3    A(2,1,8)              110.0609         estimate D2E/DX2                !
 ! A4    A(6,1,7)              108.8306         estimate D2E/DX2                !
 ! A5    A(6,1,8)              108.4395         estimate D2E/DX2                !
 ! A6    A(7,1,8)              108.5813         estimate D2E/DX2                !
 ! A7    A(1,2,3)              109.4755         estimate D2E/DX2                !
 ! A8    A(1,2,4)              112.1958         estimate D2E/DX2                !
 ! A9    A(1,2,9)              108.657          estimate D2E/DX2                !
 ! A10   A(3,2,4)              109.3242         estimate D2E/DX2                !
 ! A11   A(3,2,9)              108.2402         estimate D2E/DX2                !
 ! A12   A(4,2,9)              108.8634         estimate D2E/DX2                !
 ! A13   A(2,3,10)             105.1406         estimate D2E/DX2                !
 ! A14   A(2,4,5)              110.9094         estimate D2E/DX2                !
 ! A15   A(2,4,11)             110.0981         estimate D2E/DX2                !
 ! A16   A(2,4,12)             110.183          estimate D2E/DX2                !
 ! A17   A(5,4,11)             108.2434         estimate D2E/DX2                !
 ! A18   A(5,4,12)             108.424          estimate D2E/DX2                !
 ! A19   A(11,4,12)            108.9242         estimate D2E/DX2                !
 ! A20   A(4,5,13)             104.625          estimate D2E/DX2                !
 ! D1    D(6,1,2,3)            179.0027         estimate D2E/DX2                !
 ! D2    D(6,1,2,4)            -59.4385         estimate D2E/DX2                !
 ! D3    D(6,1,2,9)             60.9804         estimate D2E/DX2                !
 ! D4    D(7,1,2,3)            -60.5698         estimate D2E/DX2                !
 ! D5    D(7,1,2,4)             60.989          estimate D2E/DX2                !
 ! D6    D(7,1,2,9)           -178.5921         estimate D2E/DX2                !
 ! D7    D(8,1,2,3)             59.357          estimate D2E/DX2                !
 ! D8    D(8,1,2,4)           -179.0842         estimate D2E/DX2                !
 ! D9    D(8,1,2,9)            -58.6653         estimate D2E/DX2                !
 ! D10   D(1,2,3,10)           -59.7546         estimate D2E/DX2                !
 ! D11   D(4,2,3,10)           176.9721         estimate D2E/DX2                !
 ! D12   D(9,2,3,10)            58.5275         estimate D2E/DX2                !
 ! D13   D(1,2,4,5)            179.0919         estimate D2E/DX2                !
 ! D14   D(1,2,4,11)            59.3133         estimate D2E/DX2                !
 ! D15   D(1,2,4,12)           -60.8486         estimate D2E/DX2                !
 ! D16   D(3,2,4,5)            -59.2627         estimate D2E/DX2                !
 ! D17   D(3,2,4,11)          -179.0412         estimate D2E/DX2                !
 ! D18   D(3,2,4,12)            60.7969         estimate D2E/DX2                !
 ! D19   D(9,2,4,5)             58.7927         estimate D2E/DX2                !
 ! D20   D(9,2,4,11)           -60.9858         estimate D2E/DX2                !
 ! D21   D(9,2,4,12)           178.8523         estimate D2E/DX2                !
 ! D22   D(2,4,5,13)           179.0939         estimate D2E/DX2                !
 ! D23   D(11,4,5,13)          -60.0253         estimate D2E/DX2                !
 ! D24   D(12,4,5,13)           57.9918         estimate D2E/DX2                !
 --------------------------------------------------------------------------------
 Trust Radius=3.00D-01 FncErr=1.00D-07 GrdErr=1.00D-06 EigMax=2.50D+02 EigMin=1.00D-04
 Number of steps in this run=     66 maximum allowed number of steps=    100.
 GradGradGradGradGradGradGradGradGradGradGradGradGradGradGradGradGradGrad

 Leave Link  103 at Mon Feb 22 20:58:16 2021, MaxMem=   104857600 cpu:               0.7 elap:               0.1
 (Enter /sw/arch/RedHatEnterpriseServer7/EB_production/2019/software/Gaussian/g16.c01/l202.exe)
                          Input orientation:                          
 ---------------------------------------------------------------------
 Center     Atomic      Atomic             Coordinates (Angstroms)
 Number     Number       Type             X           Y           Z
 ---------------------------------------------------------------------
      1          6           0        2.736910   -2.574590    2.012630
      2          6           0        2.297880   -2.290300    0.557040
      3          8           0        1.959730   -3.518630   -0.086550
      4          6           0        1.088730   -1.326410    0.488660
      5          8           0        0.721200   -1.067480   -0.861940
      6          1           0        3.015940   -1.645710    2.513300
      7          1           0        1.926440   -3.046490    2.571580
      8          1           0        3.598640   -3.242470    2.019670
      9          1           0        3.138280   -1.842080    0.019300
     10          1           0        2.776530   -4.059170   -0.051780
     11          1           0        1.339710   -0.375310    0.963020
     12          1           0        0.229740   -1.762590    1.002480
     13          1           0       -0.051810   -0.467700   -0.797530
 ---------------------------------------------------------------------
                    Distance matrix (angstroms):
                    1          2          3          4          5
     1  C    0.000000
     2  C    1.546710   0.000000
     3  O    2.429357   1.427357   0.000000
     4  C    2.568450   1.547838   2.428031   0.000000
     5  O    3.820683   2.448410   2.853651   1.423462   0.000000
     6  H    1.091488   2.181298   3.373815   2.813407   4.122187
     7  H    1.091777   2.183612   2.699941   2.828248   4.142239
     8  H    1.090271   2.176670   2.682993   3.509263   4.616700
     9  H    2.161257   1.093772   2.052073   2.164918   2.686795
    10  H    2.543096   1.930976   0.980079   3.257103   3.718998
    11  H    2.809036   2.179472   3.371421   1.092062   2.047470
    12  H    2.822348   2.180389   2.694908   1.091846   2.049579
    13  H    4.484746   3.267686   3.722897   1.921588   0.980525
                    6          7          8          9         10
     6  H    0.000000
     7  H    1.775554   0.000000
     8  H    1.769987   1.771797   0.000000
     9  H    2.504708   3.071367   2.484855   0.000000
    10  H    3.530119   2.937719   2.373556   2.247533   0.000000
    11  H    2.612859   3.172841   3.799984   2.505369   4.082290
    12  H    3.171616   2.643722   3.817618   3.071248   3.587741
    13  H    4.664804   4.681296   5.381612   3.568306   4.631879
                   11         12         13
    11  H    0.000000
    12  H    1.777115   0.000000
    13  H    2.245974   2.235184   0.000000
 Stoichiometry    C3H8O2
 Framework group  C1[X(C3H8O2)]
 Deg. of freedom    33
 Full point group                 C1      NOp   1
 Largest Abelian subgroup         C1      NOp   1
 Largest concise Abelian subgroup C1      NOp   1
                         Standard orientation:                         
 ---------------------------------------------------------------------
 Center     Atomic      Atomic             Coordinates (Angstroms)
 Number     Number       Type             X           Y           Z
 ---------------------------------------------------------------------
      1          6           0       -1.727053   -0.758008    0.027923
      2          6           0       -0.453601    0.045459   -0.325733
      3          8           0       -0.552218    1.359413    0.223035
      4          6           0        0.832517   -0.634933    0.202257
      5          8           0        1.987909    0.115429   -0.155889
      6          1           0       -1.674483   -1.760629   -0.400252
      7          1           0       -1.837776   -0.842619    1.110770
      8          1           0       -2.608567   -0.257427   -0.373378
      9          1           0       -0.386110    0.133092   -1.413898
     10          1           0       -1.353296    1.748333   -0.186319
     11          1           0        0.929406   -1.635893   -0.223525
     12          1           0        0.796736   -0.715005    1.290575
     13          1           0        2.737376   -0.383703    0.232179
 ---------------------------------------------------------------------
 Rotational constants (GHZ):           8.4192294           3.4388850           2.6537071
 Leave Link  202 at Mon Feb 22 20:58:17 2021, MaxMem=   104857600 cpu:               0.9 elap:               0.1
 (Enter /sw/arch/RedHatEnterpriseServer7/EB_production/2019/software/Gaussian/g16.c01/l301.exe)
 Standard basis: TZVP (5D, 7F)
 Ernie: Thresh=  0.10000D-02 Tol=  0.10000D-05 Strict=F.
 There are   148 symmetry adapted cartesian basis functions of A   symmetry.
 There are   143 symmetry adapted basis functions of A   symmetry.
   143 basis functions,   239 primitive gaussians,   148 cartesian basis functions
    21 alpha electrons       21 beta electrons
       nuclear repulsion energy       191.9542611306 Hartrees.
 IExCor=  404 DFT=T Ex=B Corr=P86 ExCW=0 ScaHFX=  0.000000
 ScaDFX=  1.000000  1.000000  1.000000  1.000000 ScalE2=  1.000000  1.000000
 IRadAn=      5 IRanWt=     -1 IRanGd=            0 ICorTp=0 IEmpDi=131
 NAtoms=   13 NActive=   13 NUniq=   13 SFac= 1.00D+00 NAtFMM=   60 NAOKFM=F Big=F
 Integral buffers will be    131072 words long.
 Raffenetti 2 integral format.
 Two-electron integral symmetry is turned on.
 R6Disp:  Grimme-D3 Dispersion energy=       -0.0086539527 Hartrees.
 Nuclear repulsion after empirical dispersion term =      191.9456071779 Hartrees.
 ------------------------------------------------------------------------------
 Polarizable Continuum Model (PCM)
 =================================
 Model                : PCM.
 Atomic radii         : UFF (Universal Force Field).
 Polarization charges : Total charges.
 Charge compensation  : None.
 Solution method      : On-the-fly selection.
 Cavity type          : Scaled VdW (van der Waals Surface) (Alpha=1.100).
 Cavity algorithm     : GePol (No added spheres)
                        Default sphere list used, NSphG=   13.
                        Lebedev-Laikov grids with approx.  5.0 points / Ang**2.
                        Smoothing algorithm: York/Karplus (Gamma=1.0000).
                        Polarization charges: spherical gaussians, with
                                              point-specific exponents (IZeta= 3).
                        Self-potential: point-specific (ISelfS= 7).
                        Self-field    : sphere-specific E.n sum rule (ISelfD= 2).
 1st derivatives      : Analytical E(r).r(x)/FMM algorithm (CHGder, D1EAlg=3).
                        Cavity 1st derivative terms included.
 Solvent              : Water, Eps=  78.355300 Eps(inf)=   1.777849
 ------------------------------------------------------------------------------
 Spheres list:
 ISph  on   Nord     Re0    Alpha      Xe            Ye            Ze
    1   C      1    1.9255  1.100     -1.727053     -0.758008      0.027923
    2   C      2    1.9255  1.100     -0.453601      0.045459     -0.325733
    3   O      3    1.7500  1.100     -0.552218      1.359413      0.223035
    4   C      4    1.9255  1.100      0.832517     -0.634933      0.202257
    5   O      5    1.7500  1.100      1.987909      0.115429     -0.155889
    6   H      6    1.4430  1.100     -1.674483     -1.760629     -0.400252
    7   H      7    1.4430  1.100     -1.837776     -0.842619      1.110770
    8   H      8    1.4430  1.100     -2.608567     -0.257427     -0.373378
    9   H      9    1.4430  1.100     -0.386110      0.133092     -1.413898
   10   H     10    1.4430  1.100     -1.353296      1.748333     -0.186319
   11   H     11    1.4430  1.100      0.929406     -1.635893     -0.223525
   12   H     12    1.4430  1.100      0.796736     -0.715005      1.290575
   13   H     13    1.4430  1.100      2.737376     -0.383703      0.232179
 ------------------------------------------------------------------------------
 GePol: Number of generator spheres                  =      13
 GePol: Total number of spheres                      =      13
 GePol: Number of exposed spheres                    =      13 (100.00%)
 GePol: Number of points                             =    1079
 GePol: Average weight of points                     =       0.13
 GePol: Minimum weight of points                     =   0.38D-09
 GePol: Maximum weight of points                     =    0.20577
 GePol: Number of points with low weight             =      65
 GePol: Fraction of low-weight points (<1% of avg)   =       6.02%
 GePol: Cavity surface area                          =    144.717 Ang**2
 GePol: Cavity volume                                =    129.854 Ang**3
 Leave Link  301 at Mon Feb 22 20:58:17 2021, MaxMem=   104857600 cpu:               1.9 elap:               0.1
 (Enter /sw/arch/RedHatEnterpriseServer7/EB_production/2019/software/Gaussian/g16.c01/l302.exe)
 NPDir=0 NMtPBC=     1 NCelOv=     1 NCel=       1 NClECP=     1 NCelD=      1
         NCelK=      1 NCelE2=     1 NClLst=     1 CellRange=     0.0.
 One-electron integrals computed using PRISM.
 One-electron integral symmetry used in STVInt
 PrsmSu:  requested number of processors reduced to:  30 ShMem   1 Linda.
 NBasis=   143 RedAO= T EigKep=  4.09D-04  NBF=   143
 NBsUse=   143 1.00D-06 EigRej= -1.00D+00 NBFU=   143
 Precomputing XC quadrature grid using
 IXCGrd= 4 IRadAn=           5 IRanWt=          -1 IRanGd=           0 AccXCQ= 0.00D+00.
 Generated NRdTot=       0 NPtTot=           0 NUsed=           0 NTot=          32
 NSgBfM=   147   147   147   147   147 MxSgAt=    13 MxSgA2=    13.
 Leave Link  302 at Mon Feb 22 20:58:17 2021, MaxMem=   104857600 cpu:               5.5 elap:               0.2
 (Enter /sw/arch/RedHatEnterpriseServer7/EB_production/2019/software/Gaussian/g16.c01/l303.exe)
 DipDrv:  MaxL=1.
 Leave Link  303 at Mon Feb 22 20:58:17 2021, MaxMem=   104857600 cpu:               2.7 elap:               0.1
 (Enter /sw/arch/RedHatEnterpriseServer7/EB_production/2019/software/Gaussian/g16.c01/l401.exe)
 ExpMin= 9.52D-02 ExpMax= 2.70D+04 ExpMxC= 9.22D+02 IAcc=3 IRadAn=         5 AccDes= 0.00D+00
 Harris functional with IExCor=  404 and IRadAn=       5 diagonalized for initial guess.
 HarFok:  IExCor=  404 AccDes= 0.00D+00 IRadAn=         5 IDoV= 1 UseB2=F ITyADJ=14
 ICtDFT=  3500011 ScaDFX=  1.000000  1.000000  1.000000  1.000000
 FoFCou: FMM=F IPFlag=           0 FMFlag=      100000 FMFlg1=           0
         NFxFlg=           0 DoJE=T BraDBF=F KetDBF=T FulRan=T
         wScrn=  0.000000 ICntrl=       500 IOpCl=  0 I1Cent=   200000004 NGrid=           0
         NMat0=    1 NMatS0=      1 NMatT0=    0 NMatD0=    1 NMtDS0=    0 NMtDT0=    0
 Petite list used in FoFCou.
 Harris En= -269.802623752696    
 JPrj=0 DoOrth=F DoCkMO=F.
 Leave Link  401 at Mon Feb 22 20:58:17 2021, MaxMem=   104857600 cpu:               7.2 elap:               0.3
 (Enter /sw/arch/RedHatEnterpriseServer7/EB_production/2019/software/Gaussian/g16.c01/l502.exe)
 Integral symmetry usage will be decided dynamically.
 Closed shell SCF:
 Using DIIS extrapolation, IDIIS=  1040.
 NGot=   104857600 LenX=   104807080 LenY=   104784735
 Requested convergence on RMS density matrix=1.00D-08 within 128 cycles.
 Requested convergence on MAX density matrix=1.00D-06.
 Requested convergence on             energy=1.00D-06.
 No special actions if energy rises.
 Fock matrices will be formed incrementally for  20 cycles.

 Cycle   1  Pass 1  IDiag  1:
 FoFJK:  IHMeth= 1 ICntrl=     500 DoSepK=F KAlg= 0 I1Cent=           0 FoldK=F
 IRaf= 980000000 NMat=       1 IRICut=       1 DoRegI=T DoRafI=F ISym2E= 0 IDoP0=0 IntGTp=1.
 FoFCou: FMM=F IPFlag=           0 FMFlag=      100000 FMFlg1=           0
         NFxFlg=           0 DoJE=T BraDBF=F KetDBF=F FulRan=T
         wScrn=  0.000000 ICntrl=       500 IOpCl=  0 I1Cent=           0 NGrid=           0
         NMat0=    1 NMatS0=      1 NMatT0=    0 NMatD0=    1 NMtDS0=    0 NMtDT0=    0
 Symmetry not used in FoFCou.
 Inv3:  Mode=1 IEnd=     3492723.
 Iteration    1 A*A^-1 deviation from unit magnitude is 3.11D-15 for    374.
 Iteration    1 A*A^-1 deviation from orthogonality  is 1.92D-15 for    654    129.
 Iteration    1 A^-1*A deviation from unit magnitude is 2.66D-15 for    200.
 Iteration    1 A^-1*A deviation from orthogonality  is 1.67D-15 for   1073    377.
 E= -269.516629814387    
 DIIS: error= 2.58D-02 at cycle   1 NSaved=   1.
 NSaved= 1 IEnMin= 1 EnMin= -269.516629814387     IErMin= 1 ErrMin= 2.58D-02
 ErrMax= 2.58D-02  0.00D+00 EMaxC= 1.00D-01 BMatC= 1.91D-01 BMatP= 1.91D-01
 IDIUse=3 WtCom= 7.42D-01 WtEn= 2.58D-01
 Coeff-Com:  0.100D+01
 Coeff-En:   0.100D+01
 Coeff:      0.100D+01
 Gap=     0.171 Goal=   None    Shift=    0.000
 GapD=    0.171 DampG=1.000 DampE=0.500 DampFc=0.5000 IDamp=-1.
 Damping current iteration by 5.00D-01
 RMSDP=9.94D-03 MaxDP=4.07D-01              OVMax= 1.90D-01

 Cycle   2  Pass 1  IDiag  1:
 RMSU=  4.97D-03    CP:  9.96D-01
 E= -269.551506179821     Delta-E=       -0.034876365434 Rises=F Damp=T
 DIIS: error= 1.04D-02 at cycle   2 NSaved=   2.
 NSaved= 2 IEnMin= 2 EnMin= -269.551506179821     IErMin= 2 ErrMin= 1.04D-02
 ErrMax= 1.04D-02  0.00D+00 EMaxC= 1.00D-01 BMatC= 3.39D-02 BMatP= 1.91D-01
 IDIUse=3 WtCom= 8.96D-01 WtEn= 1.04D-01
 Coeff-Com:  0.271D+00 0.729D+00
 Coeff-En:   0.402D+00 0.598D+00
 Coeff:      0.285D+00 0.715D+00
 Gap=     0.244 Goal=   None    Shift=    0.000
 RMSDP=2.68D-03 MaxDP=1.34D-01 DE=-3.49D-02 OVMax= 1.33D-01

 Cycle   3  Pass 1  IDiag  1:
 RMSU=  1.21D-03    CP:  9.91D-01  5.19D-01
 E= -269.677349938389     Delta-E=       -0.125843758568 Rises=F Damp=F
 DIIS: error= 5.68D-03 at cycle   3 NSaved=   3.
 NSaved= 3 IEnMin= 3 EnMin= -269.677349938389     IErMin= 3 ErrMin= 5.68D-03
 ErrMax= 5.68D-03  0.00D+00 EMaxC= 1.00D-01 BMatC= 8.12D-03 BMatP= 3.39D-02
 IDIUse=3 WtCom= 9.43D-01 WtEn= 5.68D-02
 Coeff-Com:  0.120D+00 0.369D+00 0.511D+00
 Coeff-En:   0.000D+00 0.000D+00 0.100D+01
 Coeff:      0.113D+00 0.348D+00 0.539D+00
 Gap=     0.242 Goal=   None    Shift=    0.000
 RMSDP=6.83D-04 MaxDP=1.08D-02 DE=-1.26D-01 OVMax= 2.49D-02

 Cycle   4  Pass 1  IDiag  1:
 RMSU=  5.26D-04    CP:  9.96D-01  5.68D-01  7.09D-01
 E= -269.682638228247     Delta-E=       -0.005288289858 Rises=F Damp=F
 DIIS: error= 2.75D-03 at cycle   4 NSaved=   4.
 NSaved= 4 IEnMin= 4 EnMin= -269.682638228247     IErMin= 4 ErrMin= 2.75D-03
 ErrMax= 2.75D-03  0.00D+00 EMaxC= 1.00D-01 BMatC= 2.03D-03 BMatP= 8.12D-03
 IDIUse=3 WtCom= 9.72D-01 WtEn= 2.75D-02
 Coeff-Com:  0.272D-01 0.827D-01 0.337D+00 0.553D+00
 Coeff-En:   0.000D+00 0.000D+00 0.222D+00 0.778D+00
 Coeff:      0.265D-01 0.805D-01 0.334D+00 0.559D+00
 Gap=     0.243 Goal=   None    Shift=    0.000
 RMSDP=2.49D-04 MaxDP=3.77D-03 DE=-5.29D-03 OVMax= 8.78D-03

 Cycle   5  Pass 1  IDiag  1:
 RMSU=  1.14D-04    CP:  9.94D-01  5.54D-01  7.85D-01  6.50D-01
 E= -269.684305852438     Delta-E=       -0.001667624191 Rises=F Damp=F
 DIIS: error= 2.97D-04 at cycle   5 NSaved=   5.
 NSaved= 5 IEnMin= 5 EnMin= -269.684305852438     IErMin= 5 ErrMin= 2.97D-04
 ErrMax= 2.97D-04  0.00D+00 EMaxC= 1.00D-01 BMatC= 1.90D-05 BMatP= 2.03D-03
 IDIUse=3 WtCom= 9.97D-01 WtEn= 2.97D-03
 Coeff-Com:  0.477D-02 0.971D-02 0.919D-01 0.185D+00 0.709D+00
 Coeff-En:   0.000D+00 0.000D+00 0.000D+00 0.000D+00 0.100D+01
 Coeff:      0.476D-02 0.968D-02 0.917D-01 0.184D+00 0.709D+00
 Gap=     0.243 Goal=   None    Shift=    0.000
 RMSDP=3.67D-05 MaxDP=5.49D-04 DE=-1.67D-03 OVMax= 9.33D-04

 Cycle   6  Pass 1  IDiag  1:
 RMSU=  2.24D-05    CP:  9.94D-01  5.51D-01  7.89D-01  6.61D-01  7.82D-01
 E= -269.684318648721     Delta-E=       -0.000012796283 Rises=F Damp=F
 DIIS: error= 1.26D-04 at cycle   6 NSaved=   6.
 NSaved= 6 IEnMin= 6 EnMin= -269.684318648721     IErMin= 6 ErrMin= 1.26D-04
 ErrMax= 1.26D-04  0.00D+00 EMaxC= 1.00D-01 BMatC= 3.94D-06 BMatP= 1.90D-05
 IDIUse=3 WtCom= 9.99D-01 WtEn= 1.26D-03
 Coeff-Com:  0.220D-02 0.306D-02 0.443D-01 0.916D-01 0.421D+00 0.438D+00
 Coeff-En:   0.000D+00 0.000D+00 0.000D+00 0.000D+00 0.439D-01 0.956D+00
 Coeff:      0.220D-02 0.305D-02 0.443D-01 0.914D-01 0.420D+00 0.439D+00
 Gap=     0.243 Goal=   None    Shift=    0.000
 RMSDP=1.12D-05 MaxDP=2.68D-04 DE=-1.28D-05 OVMax= 3.48D-04

 Cycle   7  Pass 1  IDiag  1:
 RMSU=  8.12D-06    CP:  9.94D-01  5.52D-01  7.89D-01  6.62D-01  7.99D-01
                    CP:  7.16D-01
 E= -269.684321678776     Delta-E=       -0.000003030055 Rises=F Damp=F
 DIIS: error= 3.18D-05 at cycle   7 NSaved=   7.
 NSaved= 7 IEnMin= 7 EnMin= -269.684321678776     IErMin= 7 ErrMin= 3.18D-05
 ErrMax= 3.18D-05  0.00D+00 EMaxC= 1.00D-01 BMatC= 1.67D-07 BMatP= 3.94D-06
 IDIUse=1 WtCom= 1.00D+00 WtEn= 0.00D+00
 Coeff-Com:  0.684D-03 0.405D-03 0.120D-01 0.245D-01 0.127D+00 0.212D+00
 Coeff-Com:  0.623D+00
 Coeff:      0.684D-03 0.405D-03 0.120D-01 0.245D-01 0.127D+00 0.212D+00
 Coeff:      0.623D+00
 Gap=     0.243 Goal=   None    Shift=    0.000
 RMSDP=3.71D-06 MaxDP=8.18D-05 DE=-3.03D-06 OVMax= 8.62D-05

 Cycle   8  Pass 1  IDiag  1:
 RMSU=  2.41D-06    CP:  9.94D-01  5.51D-01  7.89D-01  6.61D-01  8.06D-01
                    CP:  7.40D-01  7.45D-01
 E= -269.684321763861     Delta-E=       -0.000000085085 Rises=F Damp=F
 DIIS: error= 1.34D-05 at cycle   8 NSaved=   8.
 NSaved= 8 IEnMin= 8 EnMin= -269.684321763861     IErMin= 8 ErrMin= 1.34D-05
 ErrMax= 1.34D-05  0.00D+00 EMaxC= 1.00D-01 BMatC= 3.35D-08 BMatP= 1.67D-07
 IDIUse=1 WtCom= 1.00D+00 WtEn= 0.00D+00
 Coeff-Com:  0.207D-03-0.784D-04 0.267D-02 0.511D-02 0.317D-01 0.813D-01
 Coeff-Com:  0.378D+00 0.501D+00
 Coeff:      0.207D-03-0.784D-04 0.267D-02 0.511D-02 0.317D-01 0.813D-01
 Coeff:      0.378D+00 0.501D+00
 Gap=     0.243 Goal=   None    Shift=    0.000
 RMSDP=1.35D-06 MaxDP=2.08D-05 DE=-8.51D-08 OVMax= 3.91D-05

 Cycle   9  Pass 1  IDiag  1:
 RMSU=  8.43D-07    CP:  9.94D-01  5.51D-01  7.89D-01  6.61D-01  8.04D-01
                    CP:  7.40D-01  8.18D-01  6.51D-01
 E= -269.684321801440     Delta-E=       -0.000000037579 Rises=F Damp=F
 DIIS: error= 3.00D-06 at cycle   9 NSaved=   9.
 NSaved= 9 IEnMin= 9 EnMin= -269.684321801440     IErMin= 9 ErrMin= 3.00D-06
 ErrMax= 3.00D-06  0.00D+00 EMaxC= 1.00D-01 BMatC= 2.03D-09 BMatP= 3.35D-08
 IDIUse=1 WtCom= 1.00D+00 WtEn= 0.00D+00
 Coeff-Com:  0.254D-04-0.821D-04-0.173D-03-0.572D-03-0.895D-03 0.117D-01
 Coeff-Com:  0.103D+00 0.249D+00 0.638D+00
 Coeff:      0.254D-04-0.821D-04-0.173D-03-0.572D-03-0.895D-03 0.117D-01
 Coeff:      0.103D+00 0.249D+00 0.638D+00
 Gap=     0.243 Goal=   None    Shift=    0.000
 RMSDP=3.24D-07 MaxDP=5.08D-06 DE=-3.76D-08 OVMax= 8.56D-06

 Cycle  10  Pass 1  IDiag  1:
 RMSU=  1.21D-07    CP:  9.94D-01  5.51D-01  7.89D-01  6.61D-01  8.05D-01
                    CP:  7.45D-01  8.21D-01  6.81D-01  7.11D-01
 E= -269.684321803206     Delta-E=       -0.000000001766 Rises=F Damp=F
 DIIS: error= 2.45D-07 at cycle  10 NSaved=  10.
 NSaved=10 IEnMin=10 EnMin= -269.684321803206     IErMin=10 ErrMin= 2.45D-07
 ErrMax= 2.45D-07  0.00D+00 EMaxC= 1.00D-01 BMatC= 8.57D-12 BMatP= 2.03D-09
 IDIUse=1 WtCom= 1.00D+00 WtEn= 0.00D+00
 Coeff-Com:  0.303D-05-0.170D-04-0.677D-04-0.183D-03-0.574D-03 0.186D-02
 Coeff-Com:  0.195D-01 0.537D-01 0.156D+00 0.769D+00
 Coeff:      0.303D-05-0.170D-04-0.677D-04-0.183D-03-0.574D-03 0.186D-02
 Coeff:      0.195D-01 0.537D-01 0.156D+00 0.769D+00
 Gap=     0.243 Goal=   None    Shift=    0.000
 RMSDP=3.11D-08 MaxDP=5.05D-07 DE=-1.77D-09 OVMax= 8.37D-07

 Cycle  11  Pass 1  IDiag  1:
 RMSU=  2.17D-08    CP:  9.94D-01  5.51D-01  7.89D-01  6.61D-01  8.05D-01
                    CP:  7.45D-01  8.21D-01  6.84D-01  7.20D-01  8.55D-01
 E= -269.684321803212     Delta-E=       -0.000000000006 Rises=F Damp=F
 DIIS: error= 8.41D-08 at cycle  11 NSaved=  11.
 NSaved=11 IEnMin=11 EnMin= -269.684321803212     IErMin=11 ErrMin= 8.41D-08
 ErrMax= 8.41D-08  0.00D+00 EMaxC= 1.00D-01 BMatC= 1.88D-12 BMatP= 8.57D-12
 IDIUse=1 WtCom= 1.00D+00 WtEn= 0.00D+00
 Coeff-Com:  0.776D-06-0.563D-05-0.252D-04-0.676D-04-0.224D-03 0.580D-03
 Coeff-Com:  0.642D-02 0.184D-01 0.556D-01 0.380D+00 0.539D+00
 Coeff:      0.776D-06-0.563D-05-0.252D-04-0.676D-04-0.224D-03 0.580D-03
 Coeff:      0.642D-02 0.184D-01 0.556D-01 0.380D+00 0.539D+00
 Gap=     0.243 Goal=   None    Shift=    0.000
 RMSDP=9.89D-09 MaxDP=1.85D-07 DE=-6.37D-12 OVMax= 3.58D-07

 Error on total polarization charges =  0.00987
 SCF Done:  E(RB-P86) =  -269.684321803     A.U. after   11 cycles
            NFock= 11  Conv=0.99D-08     -V/T= 2.0043
 KE= 2.685167595534D+02 PE=-1.016046502398D+03 EE= 2.858998138635D+02
 Leave Link  502 at Mon Feb 22 20:58:23 2021, MaxMem=   104857600 cpu:             156.8 elap:               5.1
 (Enter /sw/arch/RedHatEnterpriseServer7/EB_production/2019/software/Gaussian/g16.c01/l601.exe)
 Copying SCF densities to generalized density rwf, IOpCl= 0 IROHF=0.

 **********************************************************************

            Population analysis using the SCF Density.

 **********************************************************************

 Orbital symmetries:
       Occupied  (A) (A) (A) (A) (A) (A) (A) (A) (A) (A) (A) (A)
                 (A) (A) (A) (A) (A) (A) (A) (A) (A)
       Virtual   (A) (A) (A) (A) (A) (A) (A) (A) (A) (A) (A) (A)
                 (A) (A) (A) (A) (A) (A) (A) (A) (A) (A) (A) (A)
                 (A) (A) (A) (A) (A) (A) (A) (A) (A) (A) (A) (A)
                 (A) (A) (A) (A) (A) (A) (A) (A) (A) (A) (A) (A)
                 (A) (A) (A) (A) (A) (A) (A) (A) (A) (A) (A) (A)
                 (A) (A) (A) (A) (A) (A) (A) (A) (A) (A) (A) (A)
                 (A) (A) (A) (A) (A) (A) (A) (A) (A) (A) (A) (A)
                 (A) (A) (A) (A) (A) (A) (A) (A) (A) (A) (A) (A)
                 (A) (A) (A) (A) (A) (A) (A) (A) (A) (A) (A) (A)
                 (A) (A) (A) (A) (A) (A) (A) (A) (A) (A) (A) (A)
                 (A) (A)
 The electronic state is 1-A.
 Alpha  occ. eigenvalues --  -18.77196 -18.77192  -9.95272  -9.94245  -9.88963
 Alpha  occ. eigenvalues --   -0.94954  -0.93390  -0.69791  -0.62012  -0.53604
 Alpha  occ. eigenvalues --   -0.47318  -0.46626  -0.40486  -0.39131  -0.37868
 Alpha  occ. eigenvalues --   -0.34188  -0.33962  -0.31445  -0.28549  -0.23469
 Alpha  occ. eigenvalues --   -0.23211
 Alpha virt. eigenvalues --    0.01062   0.02248   0.05107   0.07457   0.08820
 Alpha virt. eigenvalues --    0.09363   0.10235   0.12731   0.13153   0.13732
 Alpha virt. eigenvalues --    0.15472   0.15973   0.20394   0.22669   0.25687
 Alpha virt. eigenvalues --    0.27146   0.28660   0.30450   0.31768   0.32357
 Alpha virt. eigenvalues --    0.34904   0.36597   0.38038   0.39559   0.40930
 Alpha virt. eigenvalues --    0.43104   0.43349   0.43792   0.45046   0.46006
 Alpha virt. eigenvalues --    0.49044   0.50990   0.52312   0.54166   0.54564
 Alpha virt. eigenvalues --    0.58043   0.59072   0.72502   0.82205   0.83075
 Alpha virt. eigenvalues --    1.09134   1.10886   1.18763   1.21437   1.22448
 Alpha virt. eigenvalues --    1.22560   1.23175   1.26794   1.28676   1.30663
 Alpha virt. eigenvalues --    1.31411   1.36150   1.37111   1.38697   1.42023
 Alpha virt. eigenvalues --    1.43548   1.46899   1.50355   1.51382   1.56938
 Alpha virt. eigenvalues --    1.59455   1.65544   1.69961   1.71831   1.72835
 Alpha virt. eigenvalues --    1.74315   1.75856   1.79881   1.81093   1.86525
 Alpha virt. eigenvalues --    1.90270   1.93125   1.97086   1.99910   2.03726
 Alpha virt. eigenvalues --    2.10316   2.13355   2.16757   2.19027   2.21561
 Alpha virt. eigenvalues --    2.24648   2.29486   2.37212   2.40734   2.44254
 Alpha virt. eigenvalues --    2.48066   2.50261   2.52705   2.55385   2.56119
 Alpha virt. eigenvalues --    2.58508   2.60147   2.60592   2.61049   2.64268
 Alpha virt. eigenvalues --    2.71946   2.82176   2.84131   2.85453   2.88636
 Alpha virt. eigenvalues --    2.91991   2.96101   2.96479   3.05635   3.07508
 Alpha virt. eigenvalues --    3.09356   3.14380   3.16445   3.26649   3.28035
 Alpha virt. eigenvalues --    3.30430   3.32085   3.34490   3.86803   3.88561
 Alpha virt. eigenvalues --    4.16139   4.16716  21.62228  21.70678  21.78988
 Alpha virt. eigenvalues --   43.08818  43.14768
          Condensed to atoms (all electrons):
               1          2          3          4          5          6
     1  C    5.209985   0.201871  -0.041485  -0.023702   0.011693   0.363541
     2  C    0.201871   5.382911   0.224603   0.107715  -0.095501  -0.033297
     3  O   -0.041485   0.224603   8.021912  -0.067146   0.005000   0.010253
     4  C   -0.023702   0.107715  -0.067146   5.140131   0.300825  -0.000301
     5  O    0.011693  -0.095501   0.005000   0.300825   7.984984  -0.000457
     6  H    0.363541  -0.033297   0.010253  -0.000301  -0.000457   0.564923
     7  H    0.385943  -0.026474   0.000762  -0.017235  -0.000393  -0.023810
     8  H    0.397849  -0.031812  -0.005764   0.012026  -0.000262  -0.021318
     9  H   -0.058889   0.384976  -0.061089  -0.060135   0.008675   0.001226
    10  H   -0.005962  -0.037234   0.300346   0.014094  -0.000446   0.000636
    11  H    0.007428  -0.030586   0.006648   0.395153  -0.057341   0.003991
    12  H   -0.009266  -0.031451  -0.002984   0.388904  -0.059540   0.000063
    13  H   -0.001763   0.015336  -0.000533  -0.038986   0.298270   0.000003
               7          8          9         10         11         12
     1  C    0.385943   0.397849  -0.058889  -0.005962   0.007428  -0.009266
     2  C   -0.026474  -0.031812   0.384976  -0.037234  -0.030586  -0.031451
     3  O    0.000762  -0.005764  -0.061089   0.300346   0.006648  -0.002984
     4  C   -0.017235   0.012026  -0.060135   0.014094   0.395153   0.388904
     5  O   -0.000393  -0.000262   0.008675  -0.000446  -0.057341  -0.059540
     6  H   -0.023810  -0.021318   0.001226   0.000636   0.003991   0.000063
     7  H    0.554748  -0.028590   0.011504  -0.001746  -0.000828   0.008227
     8  H   -0.028590   0.529285  -0.009126   0.005458  -0.000557  -0.000568
     9  H    0.011504  -0.009126   0.651497  -0.009588  -0.014037   0.016164
    10  H   -0.001746   0.005458  -0.009588   0.445178  -0.000633  -0.000602
    11  H   -0.000828  -0.000557  -0.014037  -0.000633   0.627809  -0.064158
    12  H    0.008227  -0.000568   0.016164  -0.000602  -0.064158   0.637666
    13  H   -0.000007   0.000042  -0.000578   0.000110  -0.005364  -0.006099
              13
     1  C   -0.001763
     2  C    0.015336
     3  O   -0.000533
     4  C   -0.038986
     5  O    0.298270
     6  H    0.000003
     7  H   -0.000007
     8  H    0.000042
     9  H   -0.000578
    10  H    0.000110
    11  H   -0.005364
    12  H   -0.006099
    13  H    0.445596
 Mulliken charges:
               1
     1  C   -0.437243
     2  C   -0.031056
     3  O   -0.390522
     4  C   -0.151343
     5  O   -0.395506
     6  H    0.134548
     7  H    0.137900
     8  H    0.153337
     9  H    0.139400
    10  H    0.290390
    11  H    0.132475
    12  H    0.123644
    13  H    0.293975
 Sum of Mulliken charges =  -0.00000
 Mulliken charges with hydrogens summed into heavy atoms:
               1
     1  C   -0.011457
     2  C    0.108344
     3  O   -0.100132
     4  C    0.104776
     5  O   -0.101531
 Electronic spatial extent (au):  <R**2>=            492.8066
 Charge=             -0.0000 electrons
 Dipole moment (field-independent basis, Debye):
    X=             -1.3677    Y=             -2.6956    Z=             -0.2844  Tot=              3.0361
 Quadrupole moment (field-independent basis, Debye-Ang):
   XX=            -26.0722   YY=            -31.9827   ZZ=            -32.3816
   XY=             -6.2950   XZ=              4.0444   YZ=             -2.0287
 Traceless Quadrupole moment (field-independent basis, Debye-Ang):
   XX=              4.0733   YY=             -1.8372   ZZ=             -2.2361
   XY=             -6.2950   XZ=              4.0444   YZ=             -2.0287
 Octapole moment (field-independent basis, Debye-Ang**2):
  XXX=             16.1563  YYY=              4.2599  ZZZ=              0.5906  XYY=             -2.7140
  XXY=             -1.7816  XXZ=              4.6187  XZZ=              1.3237  YZZ=              0.6553
  YYZ=             -3.4207  XYZ=              1.2683
 Hexadecapole moment (field-independent basis, Debye-Ang**3):
 XXXX=           -322.8727 YYYY=           -160.6841 ZZZZ=            -62.3302 XXXY=            -37.1348
 XXXZ=             19.8071 YYYX=            -18.3509 YYYZ=             -1.2102 ZZZX=              1.5049
 ZZZY=             -1.8782 XXYY=            -83.2380 XXZZ=            -77.4505 YYZZ=            -39.9245
 XXYZ=             -3.7490 YYXZ=              3.1641 ZZXY=             -2.0522
 N-N= 1.919456071779D+02 E-N=-1.016046493782D+03  KE= 2.685167595534D+02
 No NMR shielding tensors so no spin-rotation constants.
 Leave Link  601 at Mon Feb 22 20:58:23 2021, MaxMem=   104857600 cpu:               5.6 elap:               0.2
 (Enter /sw/arch/RedHatEnterpriseServer7/EB_production/2019/software/Gaussian/g16.c01/l701.exe)
 ... and contract with generalized density number  0.
 Compute integral first derivatives.
 R6Disp: Adding Grimme-D3 dispersion energy 1st derivatives to the gradient.
 PrsmSu:  requested number of processors reduced to:  30 ShMem   1 Linda.
 D1PCM: PCM CHGder 1st derivatives, ID1Alg=3 FixD1E=F DoIter=F DoCFld=F I1PDM=0.
 GePol: Maximum number of non-zero 1st derivatives   =     204
 CoulSu:  requested number of processors reduced to:  29 ShMem   1 Linda.
 CoulSu:  requested number of processors reduced to:  30 ShMem   1 Linda.
 Leave Link  701 at Mon Feb 22 20:58:24 2021, MaxMem=   104857600 cpu:              15.2 elap:               0.5
 (Enter /sw/arch/RedHatEnterpriseServer7/EB_production/2019/software/Gaussian/g16.c01/l702.exe)
 L702 exits ... SP integral derivatives will be done elsewhere.
 Leave Link  702 at Mon Feb 22 20:58:24 2021, MaxMem=   104857600 cpu:               0.7 elap:               0.0
 (Enter /sw/arch/RedHatEnterpriseServer7/EB_production/2019/software/Gaussian/g16.c01/l703.exe)
 Integral derivatives from FoFJK, PRISM(SPDF).
 Compute integral first derivatives, UseDBF=F ICtDFT=           0.
 Calling FoFJK, ICntrl=      2527 FMM=F ISym2X=0 I1Cent= 0 IOpClX= 0 NMat=1 NMatS=1 NMatT=0.
 FoFJK:  IHMeth= 1 ICntrl=    2527 DoSepK=F KAlg= 0 I1Cent=           0 FoldK=F
 IRaf=         0 NMat=       1 IRICut=       1 DoRegI=T DoRafI=F ISym2E= 0 IDoP0=0 IntGTp=1.
 FoFCou: FMM=F IPFlag=           0 FMFlag=      100000 FMFlg1=         800
         NFxFlg=           0 DoJE=F BraDBF=F KetDBF=F FulRan=T
         wScrn=  0.000000 ICntrl=      2527 IOpCl=  0 I1Cent=           0 NGrid=           0
         NMat0=    1 NMatS0=      1 NMatT0=    0 NMatD0=    1 NMtDS0=    0 NMtDT0=    0
 Symmetry not used in FoFCou.
 Leave Link  703 at Mon Feb 22 20:58:24 2021, MaxMem=   104857600 cpu:              18.3 elap:               0.6
 (Enter /sw/arch/RedHatEnterpriseServer7/EB_production/2019/software/Gaussian/g16.c01/l716.exe)
 Dipole        =-5.38106613D-01-1.06054860D+00-1.11877481D-01
 ***** Axes restored to original set *****
 -------------------------------------------------------------------
 Center     Atomic                   Forces (Hartrees/Bohr)
 Number     Number              X              Y              Z
 -------------------------------------------------------------------
      1        6          -0.006625145    0.009222333   -0.009802868
      2        6          -0.005217708    0.006927720    0.012933632
      3        8          -0.000846389   -0.010642864   -0.005551794
      4        6           0.009899540   -0.010696757    0.000368472
      5        8          -0.006252938    0.005356406   -0.012135710
      6        1           0.002354318    0.004413395    0.004005616
      7        1          -0.004362956   -0.002341690    0.002250286
      8        1           0.005109656   -0.003373543   -0.000246451
      9        1           0.004999660    0.007729547   -0.003668562
     10        1          -0.006415416    0.000148897   -0.001840466
     11        1           0.006012050    0.003227343    0.009561602
     12        1          -0.003576551   -0.006231629    0.009300732
     13        1           0.004921878   -0.003739159   -0.005174487
 -------------------------------------------------------------------
 Cartesian Forces:  Max     0.012933632 RMS     0.006468921
 Leave Link  716 at Mon Feb 22 20:58:24 2021, MaxMem=   104857600 cpu:               0.9 elap:               0.1
 (Enter /sw/arch/RedHatEnterpriseServer7/EB_production/2019/software/Gaussian/g16.c01/l103.exe)

 GradGradGradGradGradGradGradGradGradGradGradGradGradGradGradGradGradGrad
 Berny optimization.
 FormGI is forming the generalized inverse of G from B-inverse, IUseBI=4.
 Internal  Forces:  Max     0.017057811 RMS     0.005630814
 Search for a local minimum.
 Step number   1 out of a maximum of   66
 All quantities printed in internal units (Hartrees-Bohrs-Radians)
 RMS Force = .56308D-02 SwitMx=.10000D-02 MixMth= 1
 Mixed Optimization -- RFO/linear search
 Second derivative matrix not updated -- first step.
 ITU=  0
     Eigenvalues ---    0.00230   0.00230   0.01330   0.01381   0.04210
     Eigenvalues ---    0.04749   0.04954   0.05528   0.05591   0.05674
     Eigenvalues ---    0.07291   0.11531   0.13838   0.16000   0.16000
     Eigenvalues ---    0.16000   0.16000   0.16000   0.16727   0.19823
     Eigenvalues ---    0.22064   0.27836   0.27933   0.34380   0.34575
     Eigenvalues ---    0.34600   0.34608   0.34641   0.34781   0.41371
     Eigenvalues ---    0.41943   0.51283   0.51369
 RFO step:  Lambda=-7.78856883D-03 EMin= 2.30000000D-03
 Linear search not attempted -- first point.
 Iteration  1 RMS(Cart)=  0.06298727 RMS(Int)=  0.00186432
 Iteration  2 RMS(Cart)=  0.00209657 RMS(Int)=  0.00068389
 Iteration  3 RMS(Cart)=  0.00000310 RMS(Int)=  0.00068389
 Iteration  4 RMS(Cart)=  0.00000000 RMS(Int)=  0.00068389
 ITry= 1 IFail=0 DXMaxC= 2.00D-01 DCOld= 1.00D+10 DXMaxT= 3.00D-01 DXLimC= 3.00D+00 Rises=F
 Variable       Old X    -DE/DX   Delta X   Delta X   Delta X     New X
                                 (Linear)    (Quad)   (Total)
    R1        2.92286  -0.00603   0.00000  -0.02099  -0.02099   2.90187
    R2        2.06261   0.00619   0.00000   0.01748   0.01748   2.08009
    R3        2.06316   0.00541   0.00000   0.01527   0.01527   2.07843
    R4        2.06031   0.00610   0.00000   0.01717   0.01717   2.07748
    R5        2.69731   0.01408   0.00000   0.03340   0.03340   2.73072
    R6        2.92499  -0.01620   0.00000  -0.05662  -0.05662   2.86837
    R7        2.06693   0.00881   0.00000   0.02507   0.02507   2.09200
    R8        1.85208  -0.00549   0.00000  -0.01053  -0.01053   1.84155
    R9        2.68995   0.01706   0.00000   0.03993   0.03993   2.72988
   R10        2.06370   0.00835   0.00000   0.02361   0.02361   2.08731
   R11        2.06329   0.00968   0.00000   0.02737   0.02737   2.09066
   R12        1.85292  -0.00651   0.00000  -0.01249  -0.01249   1.84043
    A1        1.92605   0.00256   0.00000   0.01664   0.01665   1.94270
    A2        1.92894  -0.00117   0.00000  -0.00687  -0.00689   1.92206
    A3        1.92093  -0.00072   0.00000  -0.00575  -0.00576   1.91517
    A4        1.89945  -0.00038   0.00000   0.00049   0.00049   1.89995
    A5        1.89263  -0.00095   0.00000  -0.00583  -0.00581   1.88681
    A6        1.89510   0.00063   0.00000   0.00116   0.00112   1.89622
    A7        1.91071   0.00671   0.00000   0.03854   0.03744   1.94815
    A8        1.95819  -0.00437   0.00000  -0.03307  -0.03294   1.92524
    A9        1.89642   0.00036   0.00000   0.00923   0.00783   1.90425
   A10        1.90807  -0.00450   0.00000  -0.03401  -0.03343   1.87464
   A11        1.88915   0.00132   0.00000   0.03973   0.03879   1.92794
   A12        1.90003   0.00067   0.00000  -0.01774  -0.01757   1.88245
   A13        1.83505   0.00701   0.00000   0.04178   0.04178   1.87683
   A14        1.93573  -0.00791   0.00000  -0.02981  -0.02943   1.90630
   A15        1.92157  -0.00456   0.00000  -0.04810  -0.04832   1.87325
   A16        1.92306  -0.00270   0.00000  -0.03099  -0.03113   1.89193
   A17        1.88920   0.00772   0.00000   0.05687   0.05577   1.94497
   A18        1.89236   0.00737   0.00000   0.06097   0.06027   1.95262
   A19        1.90109   0.00055   0.00000  -0.00555  -0.00872   1.89236
   A20        1.82605   0.00881   0.00000   0.05248   0.05248   1.87853
    D1        3.12419   0.00304   0.00000   0.03631   0.03667  -3.12233
    D2       -1.03740  -0.00090   0.00000  -0.00203  -0.00223  -1.03963
    D3        1.06431  -0.00258   0.00000  -0.03890  -0.03907   1.02523
    D4       -1.05714   0.00349   0.00000   0.04330   0.04365  -1.01349
    D5        1.06446  -0.00046   0.00000   0.00496   0.00475   1.06921
    D6       -3.11702  -0.00214   0.00000  -0.03191  -0.03209   3.13408
    D7        1.03598   0.00307   0.00000   0.03668   0.03706   1.07304
    D8       -3.12561  -0.00088   0.00000  -0.00166  -0.00184  -3.12744
    D9       -1.02390  -0.00256   0.00000  -0.03853  -0.03868  -1.06258
   D10       -1.04291  -0.00289   0.00000  -0.02648  -0.02732  -1.07024
   D11        3.08875   0.00111   0.00000   0.01179   0.01177   3.10052
   D12        1.02150   0.00209   0.00000   0.02937   0.03023   1.05173
   D13        3.12574  -0.00216   0.00000  -0.05910  -0.05914   3.06660
   D14        1.03521  -0.00376   0.00000  -0.07970  -0.07959   0.95562
   D15       -1.06201   0.00019   0.00000  -0.02240  -0.02298  -1.08498
   D16       -1.03433   0.00032   0.00000  -0.05584  -0.05548  -1.08981
   D17       -3.12486  -0.00128   0.00000  -0.07644  -0.07593   3.08240
   D18        1.06111   0.00267   0.00000  -0.01914  -0.01931   1.04179
   D19        1.02613  -0.00028   0.00000  -0.03776  -0.03770   0.98842
   D20       -1.06440  -0.00189   0.00000  -0.05836  -0.05815  -1.12256
   D21        3.12156   0.00206   0.00000  -0.00106  -0.00154   3.12002
   D22        3.12578   0.00076   0.00000   0.01168   0.01181   3.13759
   D23       -1.04764  -0.00475   0.00000  -0.02938  -0.03126  -1.07890
   D24        1.01215   0.00423   0.00000   0.02903   0.03078   1.04293
         Item               Value     Threshold  Converged?
 Maximum Force            0.017058     0.000450     NO 
 RMS     Force            0.005631     0.000300     NO 
 Maximum Displacement     0.199626     0.001800     NO 
 RMS     Displacement     0.063117     0.001200     NO 
 Predicted change in Energy=-4.188131D-03
 Lowest energy point so far.  Saving SCF results.
 GradGradGradGradGradGradGradGradGradGradGradGradGradGradGradGradGradGrad

 Leave Link  103 at Mon Feb 22 20:58:25 2021, MaxMem=   104857600 cpu:               1.8 elap:               0.1
 (Enter /sw/arch/RedHatEnterpriseServer7/EB_production/2019/software/Gaussian/g16.c01/l202.exe)
                          Input orientation:                          
 ---------------------------------------------------------------------
 Center     Atomic      Atomic             Coordinates (Angstroms)
 Number     Number       Type             X           Y           Z
 ---------------------------------------------------------------------
      1          6           0        2.730133   -2.532885    2.006796
      2          6           0        2.296519   -2.287247    0.554311
      3          8           0        1.915111   -3.516514   -0.102616
      4          6           0        1.096452   -1.358781    0.512629
      5          8           0        0.771419   -1.063109   -0.863516
      6          1           0        3.000795   -1.591075    2.508155
      7          1           0        1.915902   -3.013511    2.568684
      8          1           0        3.608057   -3.194317    2.025233
      9          1           0        3.124404   -1.796702    0.007039
     10          1           0        2.695795   -4.099723   -0.110376
     11          1           0        1.368713   -0.444043    1.068658
     12          1           0        0.256179   -1.850377    1.038209
     13          1           0       -0.001557   -0.470645   -0.863326
 ---------------------------------------------------------------------
                    Distance matrix (angstroms):
                    1          2          3          4          5
     1  C    0.000000
     2  C    1.535601   0.000000
     3  O    2.466050   1.445034   0.000000
     4  C    2.505987   1.517876   2.388418   0.000000
     5  O    3.772995   2.415507   2.811796   1.444590   0.000000
     6  H    1.100738   2.190472   3.420840   2.768142   4.076399
     7  H    1.099859   2.174863   2.718245   2.763511   4.110219
     8  H    1.099356   2.169452   2.738178   3.459093   4.575307
     9  H    2.167127   1.107038   2.105271   2.135412   2.613917
    10  H    2.634118   1.971370   0.974505   3.234006   3.673073
    11  H    2.663987   2.126682   3.333243   1.104554   2.115017
    12  H    2.743069   2.141962   2.613341   1.106328   2.121750
    13  H    4.466829   3.254365   3.678262   1.971715   0.973913
                    6          7          8          9         10
     6  H    0.000000
     7  H    1.789966   0.000000
     8  H    1.781114   1.786454   0.000000
     9  H    2.512597   3.082713   2.502070   0.000000
    10  H    3.639100   2.994237   2.492551   2.345506   0.000000
    11  H    2.459985   3.025171   3.673378   2.457472   4.063898
    12  H    3.124244   2.539669   3.743726   3.048427   3.511485
    13  H    4.651491   4.682041   5.365769   3.505367   4.583977
                   11         12         13
    11  H    0.000000
    12  H    1.793443   0.000000
    13  H    2.368736   2.363456   0.000000
 Stoichiometry    C3H8O2
 Framework group  C1[X(C3H8O2)]
 Deg. of freedom    33
 Full point group                 C1      NOp   1
 RotChk:  IX=0 Diff= 4.64D-02
 Largest Abelian subgroup         C1      NOp   1
 Largest concise Abelian subgroup C1      NOp   1
                         Standard orientation:                         
 ---------------------------------------------------------------------
 Center     Atomic      Atomic             Coordinates (Angstroms)
 Number     Number       Type             X           Y           Z
 ---------------------------------------------------------------------
      1          6           0       -1.717095   -0.740408    0.011923
      2          6           0       -0.446448    0.051025   -0.330366
      3          8           0       -0.485243    1.385520    0.222573
      4          6           0        0.776365   -0.642410    0.242192
      5          8           0        1.964213    0.064196   -0.178005
      6          1           0       -1.673649   -1.762251   -0.394988
      7          1           0       -1.845147   -0.797295    1.102820
      8          1           0       -2.594725   -0.237982   -0.419257
      9          1           0       -0.329918    0.091179   -1.430521
     10          1           0       -1.248255    1.845062   -0.172767
     11          1           0        0.770953   -1.681471   -0.132459
     12          1           0        0.679709   -0.667485    1.344004
     13          1           0        2.732343   -0.396729    0.204133
 ---------------------------------------------------------------------
 Rotational constants (GHZ):           8.1893733           3.5479646           2.7086053
 Leave Link  202 at Mon Feb 22 20:58:25 2021, MaxMem=   104857600 cpu:               1.8 elap:               0.1
 (Enter /sw/arch/RedHatEnterpriseServer7/EB_production/2019/software/Gaussian/g16.c01/l301.exe)
 Standard basis: TZVP (5D, 7F)
 Ernie: Thresh=  0.10000D-02 Tol=  0.10000D-05 Strict=F.
 There are   148 symmetry adapted cartesian basis functions of A   symmetry.
 There are   143 symmetry adapted basis functions of A   symmetry.
   143 basis functions,   239 primitive gaussians,   148 cartesian basis functions
    21 alpha electrons       21 beta electrons
       nuclear repulsion energy       192.3230602708 Hartrees.
 IExCor=  404 DFT=T Ex=B Corr=P86 ExCW=0 ScaHFX=  0.000000
 ScaDFX=  1.000000  1.000000  1.000000  1.000000 ScalE2=  1.000000  1.000000
 IRadAn=      5 IRanWt=     -1 IRanGd=            0 ICorTp=0 IEmpDi=131
 NAtoms=   13 NActive=   13 NUniq=   13 SFac= 1.00D+00 NAtFMM=   60 NAOKFM=F Big=F
 Integral buffers will be    131072 words long.
 Raffenetti 2 integral format.
 Two-electron integral symmetry is turned on.
 R6Disp:  Grimme-D3 Dispersion energy=       -0.0089964602 Hartrees.
 Nuclear repulsion after empirical dispersion term =      192.3140638106 Hartrees.
 ------------------------------------------------------------------------------
 Polarizable Continuum Model (PCM)
 =================================
 Model                : PCM.
 Atomic radii         : UFF (Universal Force Field).
 Polarization charges : Total charges.
 Charge compensation  : None.
 Solution method      : On-the-fly selection.
 Cavity type          : Scaled VdW (van der Waals Surface) (Alpha=1.100).
 Cavity algorithm     : GePol (No added spheres)
                        Default sphere list used, NSphG=   13.
                        Lebedev-Laikov grids with approx.  5.0 points / Ang**2.
                        Smoothing algorithm: York/Karplus (Gamma=1.0000).
                        Polarization charges: spherical gaussians, with
                                              point-specific exponents (IZeta= 3).
                        Self-potential: point-specific (ISelfS= 7).
                        Self-field    : sphere-specific E.n sum rule (ISelfD= 2).
 1st derivatives      : Analytical E(r).r(x)/FMM algorithm (CHGder, D1EAlg=3).
                        Cavity 1st derivative terms included.
 Solvent              : Water, Eps=  78.355300 Eps(inf)=   1.777849
 ------------------------------------------------------------------------------
 Spheres list:
 ISph  on   Nord     Re0    Alpha      Xe            Ye            Ze
    1   C      1    1.9255  1.100     -1.717095     -0.740408      0.011923
    2   C      2    1.9255  1.100     -0.446448      0.051025     -0.330366
    3   O      3    1.7500  1.100     -0.485243      1.385520      0.222573
    4   C      4    1.9255  1.100      0.776365     -0.642410      0.242192
    5   O      5    1.7500  1.100      1.964213      0.064196     -0.178005
    6   H      6    1.4430  1.100     -1.673649     -1.762251     -0.394988
    7   H      7    1.4430  1.100     -1.845147     -0.797295      1.102820
    8   H      8    1.4430  1.100     -2.594725     -0.237982     -0.419257
    9   H      9    1.4430  1.100     -0.329918      0.091179     -1.430521
   10   H     10    1.4430  1.100     -1.248255      1.845062     -0.172767
   11   H     11    1.4430  1.100      0.770953     -1.681471     -0.132459
   12   H     12    1.4430  1.100      0.679709     -0.667485      1.344004
   13   H     13    1.4430  1.100      2.732343     -0.396729      0.204133
 ------------------------------------------------------------------------------
 GePol: Number of generator spheres                  =      13
 GePol: Total number of spheres                      =      13
 GePol: Number of exposed spheres                    =      13 (100.00%)
 GePol: Number of points                             =    1058
 GePol: Average weight of points                     =       0.14
 GePol: Minimum weight of points                     =   0.59D-08
 GePol: Maximum weight of points                     =    0.20577
 GePol: Number of points with low weight             =      57
 GePol: Fraction of low-weight points (<1% of avg)   =       5.39%
 GePol: Cavity surface area                          =    145.069 Ang**2
 GePol: Cavity volume                                =    130.373 Ang**3
 Leave Link  301 at Mon Feb 22 20:58:25 2021, MaxMem=   104857600 cpu:               1.9 elap:               0.1
 (Enter /sw/arch/RedHatEnterpriseServer7/EB_production/2019/software/Gaussian/g16.c01/l302.exe)
 NPDir=0 NMtPBC=     1 NCelOv=     1 NCel=       1 NClECP=     1 NCelD=      1
         NCelK=      1 NCelE2=     1 NClLst=     1 CellRange=     0.0.
 One-electron integrals computed using PRISM.
 One-electron integral symmetry used in STVInt
 PrsmSu:  requested number of processors reduced to:  30 ShMem   1 Linda.
 NBasis=   143 RedAO= T EigKep=  3.69D-04  NBF=   143
 NBsUse=   143 1.00D-06 EigRej= -1.00D+00 NBFU=   143
 Precomputing XC quadrature grid using
 IXCGrd= 4 IRadAn=           5 IRanWt=          -1 IRanGd=           0 AccXCQ= 0.00D+00.
 Generated NRdTot=       0 NPtTot=           0 NUsed=           0 NTot=          32
 NSgBfM=   148   148   148   148   148 MxSgAt=    13 MxSgA2=    13.
 Leave Link  302 at Mon Feb 22 20:58:25 2021, MaxMem=   104857600 cpu:               6.7 elap:               0.2
 (Enter /sw/arch/RedHatEnterpriseServer7/EB_production/2019/software/Gaussian/g16.c01/l303.exe)
 DipDrv:  MaxL=1.
 Leave Link  303 at Mon Feb 22 20:58:25 2021, MaxMem=   104857600 cpu:               0.7 elap:               0.0
 (Enter /sw/arch/RedHatEnterpriseServer7/EB_production/2019/software/Gaussian/g16.c01/l401.exe)
 Initial guess from the checkpoint file:  "DNIAPMSPPWPWGF-UHFFFAOYSA-N.chk"
 B after Tr=    -0.000000    0.000000   -0.000000
         Rot=    0.999894    0.006498    0.002033    0.012882 Ang=   1.67 deg.
 Guess basis will be translated and rotated to current coordinates.
 JPrj=2 DoOrth=T DoCkMO=T.
 Generating alternative initial guess.
 ExpMin= 9.52D-02 ExpMax= 2.70D+04 ExpMxC= 9.22D+02 IAcc=3 IRadAn=         5 AccDes= 0.00D+00
 Harris functional with IExCor=  404 and IRadAn=       5 diagonalized for initial guess.
 HarFok:  IExCor=  404 AccDes= 0.00D+00 IRadAn=         5 IDoV= 1 UseB2=F ITyADJ=14
 ICtDFT=  3500011 ScaDFX=  1.000000  1.000000  1.000000  1.000000
 FoFCou: FMM=F IPFlag=           0 FMFlag=      100000 FMFlg1=           0
         NFxFlg=           0 DoJE=T BraDBF=F KetDBF=T FulRan=T
         wScrn=  0.000000 ICntrl=       500 IOpCl=  0 I1Cent=   200000004 NGrid=           0
         NMat0=    1 NMatS0=      1 NMatT0=    0 NMatD0=    1 NMtDS0=    0 NMtDT0=    0
 Petite list used in FoFCou.
 Harris En= -269.801975779512    
 Leave Link  401 at Mon Feb 22 20:58:26 2021, MaxMem=   104857600 cpu:              14.4 elap:               0.5
 (Enter /sw/arch/RedHatEnterpriseServer7/EB_production/2019/software/Gaussian/g16.c01/l502.exe)
 Integral symmetry usage will be decided dynamically.
 Closed shell SCF:
 Using DIIS extrapolation, IDIIS=  1040.
 NGot=   104857600 LenX=   104807080 LenY=   104784735
 Requested convergence on RMS density matrix=1.00D-08 within 128 cycles.
 Requested convergence on MAX density matrix=1.00D-06.
 Requested convergence on             energy=1.00D-06.
 No special actions if energy rises.
 Fock matrices will be formed incrementally for  20 cycles.

 Cycle   1  Pass 1  IDiag  1:
 FoFJK:  IHMeth= 1 ICntrl=     500 DoSepK=F KAlg= 0 I1Cent=           0 FoldK=F
 IRaf= 980000000 NMat=       1 IRICut=       1 DoRegI=T DoRafI=F ISym2E= 0 IDoP0=0 IntGTp=1.
 FoFCou: FMM=F IPFlag=           0 FMFlag=      100000 FMFlg1=           0
         NFxFlg=           0 DoJE=T BraDBF=F KetDBF=F FulRan=T
         wScrn=  0.000000 ICntrl=       500 IOpCl=  0 I1Cent=           0 NGrid=           0
         NMat0=    1 NMatS0=      1 NMatT0=    0 NMatD0=    1 NMtDS0=    0 NMtDT0=    0
 Symmetry not used in FoFCou.
 Inv3:  Mode=1 IEnd=     3358092.
 Iteration    1 A*A^-1 deviation from unit magnitude is 2.89D-15 for     73.
 Iteration    1 A*A^-1 deviation from orthogonality  is 1.49D-15 for   1049    316.
 Iteration    1 A^-1*A deviation from unit magnitude is 2.89D-15 for     65.
 Iteration    1 A^-1*A deviation from orthogonality  is 1.75D-15 for    931    287.
 E= -269.684445445737    
 DIIS: error= 2.32D-03 at cycle   1 NSaved=   1.
 NSaved= 1 IEnMin= 1 EnMin= -269.684445445737     IErMin= 1 ErrMin= 2.32D-03
 ErrMax= 2.32D-03  0.00D+00 EMaxC= 1.00D-01 BMatC= 2.46D-03 BMatP= 2.46D-03
 IDIUse=3 WtCom= 9.77D-01 WtEn= 2.32D-02
 Coeff-Com:  0.100D+01
 Coeff-En:   0.100D+01
 Coeff:      0.100D+01
 Gap=     0.591 Goal=   None    Shift=    0.000
 GapD=    0.591 DampG=2.000 DampE=1.000 DampFc=2.0000 IDamp=-1.
 RMSDP=6.72D-04 MaxDP=1.15D-02              OVMax= 1.85D-02

 Cycle   2  Pass 1  IDiag  1:
 RMSU=  6.72D-04    CP:  1.00D+00
 E= -269.687602470377     Delta-E=       -0.003157024640 Rises=F Damp=F
 DIIS: error= 5.45D-04 at cycle   2 NSaved=   2.
 NSaved= 2 IEnMin= 2 EnMin= -269.687602470377     IErMin= 2 ErrMin= 5.45D-04
 ErrMax= 5.45D-04  0.00D+00 EMaxC= 1.00D-01 BMatC= 8.11D-05 BMatP= 2.46D-03
 IDIUse=3 WtCom= 9.95D-01 WtEn= 5.45D-03
 Coeff-Com:  0.617D-01 0.938D+00
 Coeff-En:   0.000D+00 0.100D+01
 Coeff:      0.614D-01 0.939D+00
 Gap=     0.246 Goal=   None    Shift=    0.000
 RMSDP=1.13D-04 MaxDP=3.08D-03 DE=-3.16D-03 OVMax= 3.07D-03

 Cycle   3  Pass 1  IDiag  1:
 RMSU=  1.12D-04    CP:  1.00D+00  9.95D-01
 E= -269.687602222626     Delta-E=        0.000000247751 Rises=F Damp=F
 DIIS: error= 6.10D-04 at cycle   3 NSaved=   3.
 NSaved= 3 IEnMin= 2 EnMin= -269.687602470377     IErMin= 2 ErrMin= 5.45D-04
 ErrMax= 6.10D-04  0.00D+00 EMaxC= 1.00D-01 BMatC= 8.50D-05 BMatP= 8.11D-05
 IDIUse=3 WtCom= 9.94D-01 WtEn= 6.10D-03
 Coeff-Com:  0.929D-02 0.506D+00 0.485D+00
 Coeff-En:   0.000D+00 0.501D+00 0.499D+00
 Coeff:      0.924D-02 0.506D+00 0.485D+00
 Gap=     0.246 Goal=   None    Shift=    0.000
 RMSDP=5.99D-05 MaxDP=1.60D-03 DE= 2.48D-07 OVMax= 1.95D-03

 Cycle   4  Pass 1  IDiag  1:
 RMSU=  2.81D-05    CP:  1.00D+00  9.89D-01  5.37D-01
 E= -269.687672077825     Delta-E=       -0.000069855199 Rises=F Damp=F
 DIIS: error= 1.85D-04 at cycle   4 NSaved=   4.
 NSaved= 4 IEnMin= 4 EnMin= -269.687672077825     IErMin= 4 ErrMin= 1.85D-04
 ErrMax= 1.85D-04  0.00D+00 EMaxC= 1.00D-01 BMatC= 7.08D-06 BMatP= 8.11D-05
 IDIUse=3 WtCom= 9.98D-01 WtEn= 1.85D-03
 Coeff-Com:  0.140D-03 0.205D+00 0.274D+00 0.520D+00
 Coeff-En:   0.000D+00 0.000D+00 0.000D+00 0.100D+01
 Coeff:      0.140D-03 0.205D+00 0.273D+00 0.521D+00
 Gap=     0.246 Goal=   None    Shift=    0.000
 RMSDP=2.06D-05 MaxDP=4.74D-04 DE=-6.99D-05 OVMax= 5.31D-04

 Cycle   5  Pass 1  IDiag  1:
 RMSU=  1.04D-05    CP:  1.00D+00  9.99D-01  5.92D-01  4.74D-01
 E= -269.687677026532     Delta-E=       -0.000004948707 Rises=F Damp=F
 DIIS: error= 6.61D-05 at cycle   5 NSaved=   5.
 NSaved= 5 IEnMin= 5 EnMin= -269.687677026532     IErMin= 5 ErrMin= 6.61D-05
 ErrMax= 6.61D-05  0.00D+00 EMaxC= 1.00D-01 BMatC= 6.55D-07 BMatP= 7.08D-06
 IDIUse=1 WtCom= 1.00D+00 WtEn= 0.00D+00
 Coeff-Com: -0.240D-03 0.102D+00 0.145D+00 0.327D+00 0.427D+00
 Coeff:     -0.240D-03 0.102D+00 0.145D+00 0.327D+00 0.427D+00
 Gap=     0.246 Goal=   None    Shift=    0.000
 RMSDP=6.69D-06 MaxDP=2.39D-04 DE=-4.95D-06 OVMax= 1.47D-04

 Cycle   6  Pass 1  IDiag  1:
 RMSU=  3.30D-06    CP:  1.00D+00  9.97D-01  5.68D-01  5.44D-01  5.88D-01
 E= -269.687677483486     Delta-E=       -0.000000456954 Rises=F Damp=F
 DIIS: error= 7.09D-06 at cycle   6 NSaved=   6.
 NSaved= 6 IEnMin= 6 EnMin= -269.687677483486     IErMin= 6 ErrMin= 7.09D-06
 ErrMax= 7.09D-06  0.00D+00 EMaxC= 1.00D-01 BMatC= 1.71D-08 BMatP= 6.55D-07
 IDIUse=1 WtCom= 1.00D+00 WtEn= 0.00D+00
 Coeff-Com: -0.744D-04 0.206D-01 0.317D-01 0.850D-01 0.186D+00 0.677D+00
 Coeff:     -0.744D-04 0.206D-01 0.317D-01 0.850D-01 0.186D+00 0.677D+00
 Gap=     0.246 Goal=   None    Shift=    0.000
 RMSDP=1.15D-06 MaxDP=3.72D-05 DE=-4.57D-07 OVMax= 2.61D-05

 Cycle   7  Pass 1  IDiag  1:
 RMSU=  5.38D-07    CP:  1.00D+00  9.97D-01  5.72D-01  5.43D-01  6.09D-01
                    CP:  7.45D-01
 E= -269.687677497240     Delta-E=       -0.000000013754 Rises=F Damp=F
 DIIS: error= 1.53D-06 at cycle   7 NSaved=   7.
 NSaved= 7 IEnMin= 7 EnMin= -269.687677497240     IErMin= 7 ErrMin= 1.53D-06
 ErrMax= 1.53D-06  0.00D+00 EMaxC= 1.00D-01 BMatC= 4.94D-10 BMatP= 1.71D-08
 IDIUse=1 WtCom= 1.00D+00 WtEn= 0.00D+00
 Coeff-Com: -0.296D-04 0.435D-02 0.730D-02 0.213D-01 0.571D-01 0.256D+00
 Coeff-Com:  0.654D+00
 Coeff:     -0.296D-04 0.435D-02 0.730D-02 0.213D-01 0.571D-01 0.256D+00
 Coeff:      0.654D+00
 Gap=     0.246 Goal=   None    Shift=    0.000
 RMSDP=1.96D-07 MaxDP=2.53D-06 DE=-1.38D-08 OVMax= 5.60D-06

 Cycle   8  Pass 1  IDiag  1:
 RMSU=  1.47D-07    CP:  1.00D+00  9.97D-01  5.73D-01  5.43D-01  6.14D-01
                    CP:  7.54D-01  8.17D-01
 E= -269.687677497538     Delta-E=       -0.000000000298 Rises=F Damp=F
 DIIS: error= 9.23D-07 at cycle   8 NSaved=   8.
 NSaved= 8 IEnMin= 8 EnMin= -269.687677497538     IErMin= 8 ErrMin= 9.23D-07
 ErrMax= 9.23D-07  0.00D+00 EMaxC= 1.00D-01 BMatC= 1.72D-10 BMatP= 4.94D-10
 IDIUse=1 WtCom= 1.00D+00 WtEn= 0.00D+00
 Coeff-Com: -0.125D-04 0.125D-02 0.228D-02 0.698D-02 0.216D-01 0.106D+00
 Coeff-Com:  0.414D+00 0.448D+00
 Coeff:     -0.125D-04 0.125D-02 0.228D-02 0.698D-02 0.216D-01 0.106D+00
 Coeff:      0.414D+00 0.448D+00
 Gap=     0.246 Goal=   None    Shift=    0.000
 RMSDP=7.61D-08 MaxDP=1.29D-06 DE=-2.98D-10 OVMax= 2.59D-06

 Cycle   9  Pass 1  IDiag  1:
 RMSU=  4.90D-08    CP:  1.00D+00  9.97D-01  5.73D-01  5.43D-01  6.15D-01
                    CP:  7.62D-01  8.18D-01  6.48D-01
 E= -269.687677497683     Delta-E=       -0.000000000145 Rises=F Damp=F
 DIIS: error= 1.35D-07 at cycle   9 NSaved=   9.
 NSaved= 9 IEnMin= 9 EnMin= -269.687677497683     IErMin= 9 ErrMin= 1.35D-07
 ErrMax= 1.35D-07  0.00D+00 EMaxC= 1.00D-01 BMatC= 6.30D-12 BMatP= 1.72D-10
 IDIUse=1 WtCom= 1.00D+00 WtEn= 0.00D+00
 Coeff-Com: -0.372D-05 0.314D-03 0.636D-03 0.205D-02 0.700D-02 0.363D-01
 Coeff-Com:  0.163D+00 0.228D+00 0.563D+00
 Coeff:     -0.372D-05 0.314D-03 0.636D-03 0.205D-02 0.700D-02 0.363D-01
 Coeff:      0.163D+00 0.228D+00 0.563D+00
 Gap=     0.246 Goal=   None    Shift=    0.000
 RMSDP=2.22D-08 MaxDP=4.52D-07 DE=-1.45D-10 OVMax= 6.01D-07

 Cycle  10  Pass 1  IDiag  1:
 RMSU=  1.69D-08    CP:  1.00D+00  9.97D-01  5.73D-01  5.43D-01  6.15D-01
                    CP:  7.63D-01  8.33D-01  6.59D-01  8.12D-01
 E= -269.687677497686     Delta-E=       -0.000000000003 Rises=F Damp=F
 DIIS: error= 6.57D-08 at cycle  10 NSaved=  10.
 NSaved=10 IEnMin=10 EnMin= -269.687677497686     IErMin=10 ErrMin= 6.57D-08
 ErrMax= 6.57D-08  0.00D+00 EMaxC= 1.00D-01 BMatC= 1.57D-12 BMatP= 6.30D-12
 IDIUse=1 WtCom= 1.00D+00 WtEn= 0.00D+00
 Coeff-Com: -0.612D-06-0.475D-05 0.298D-04 0.154D-03 0.877D-03 0.564D-02
 Coeff-Com:  0.374D-01 0.772D-01 0.363D+00 0.515D+00
 Coeff:     -0.612D-06-0.475D-05 0.298D-04 0.154D-03 0.877D-03 0.564D-02
 Coeff:      0.374D-01 0.772D-01 0.363D+00 0.515D+00
 Gap=     0.246 Goal=   None    Shift=    0.000
 RMSDP=8.38D-09 MaxDP=1.96D-07 DE=-2.61D-12 OVMax= 2.19D-07

 Error on total polarization charges =  0.00997
 SCF Done:  E(RB-P86) =  -269.687677498     A.U. after   10 cycles
            NFock= 10  Conv=0.84D-08     -V/T= 2.0047
 KE= 2.684292230321D+02 PE=-1.016751868055D+03 EE= 2.863209037142D+02
 Leave Link  502 at Mon Feb 22 20:58:30 2021, MaxMem=   104857600 cpu:             142.4 elap:               4.6
 (Enter /sw/arch/RedHatEnterpriseServer7/EB_production/2019/software/Gaussian/g16.c01/l701.exe)
 ... and contract with generalized density number  0.
 Compute integral first derivatives.
 R6Disp: Adding Grimme-D3 dispersion energy 1st derivatives to the gradient.
 PrsmSu:  requested number of processors reduced to:  30 ShMem   1 Linda.
 D1PCM: PCM CHGder 1st derivatives, ID1Alg=3 FixD1E=F DoIter=F DoCFld=F I1PDM=0.
 GePol: Maximum number of non-zero 1st derivatives   =     198
 CoulSu:  requested number of processors reduced to:  29 ShMem   1 Linda.
 CoulSu:  requested number of processors reduced to:  30 ShMem   1 Linda.
 Leave Link  701 at Mon Feb 22 20:58:31 2021, MaxMem=   104857600 cpu:              14.1 elap:               0.5
 (Enter /sw/arch/RedHatEnterpriseServer7/EB_production/2019/software/Gaussian/g16.c01/l702.exe)
 L702 exits ... SP integral derivatives will be done elsewhere.
 Leave Link  702 at Mon Feb 22 20:58:31 2021, MaxMem=   104857600 cpu:               0.6 elap:               0.0
 (Enter /sw/arch/RedHatEnterpriseServer7/EB_production/2019/software/Gaussian/g16.c01/l703.exe)
 Integral derivatives from FoFJK, PRISM(SPDF).
 Compute integral first derivatives, UseDBF=F ICtDFT=           0.
 Calling FoFJK, ICntrl=      2527 FMM=F ISym2X=0 I1Cent= 0 IOpClX= 0 NMat=1 NMatS=1 NMatT=0.
 FoFJK:  IHMeth= 1 ICntrl=    2527 DoSepK=F KAlg= 0 I1Cent=           0 FoldK=F
 IRaf=         0 NMat=       1 IRICut=       1 DoRegI=T DoRafI=F ISym2E= 0 IDoP0=0 IntGTp=1.
 FoFCou: FMM=F IPFlag=           0 FMFlag=      100000 FMFlg1=         800
         NFxFlg=           0 DoJE=F BraDBF=F KetDBF=F FulRan=T
         wScrn=  0.000000 ICntrl=      2527 IOpCl=  0 I1Cent=           0 NGrid=           0
         NMat0=    1 NMatS0=      1 NMatT0=    0 NMatD0=    1 NMtDS0=    0 NMtDT0=    0
 Symmetry not used in FoFCou.
 Leave Link  703 at Mon Feb 22 20:58:32 2021, MaxMem=   104857600 cpu:              16.3 elap:               0.5
 (Enter /sw/arch/RedHatEnterpriseServer7/EB_production/2019/software/Gaussian/g16.c01/l716.exe)
 Dipole        =-5.68295396D-01-9.90091714D-01-8.72488376D-02
 ***** Axes restored to original set *****
 -------------------------------------------------------------------
 Center     Atomic                   Forces (Hartrees/Bohr)
 Number     Number              X              Y              Z
 -------------------------------------------------------------------
      1        6          -0.000092875   -0.000639719   -0.003322179
      2        6           0.000275037    0.001492904    0.003371979
      3        8           0.001227745   -0.000652427    0.000326768
      4        6           0.000700604   -0.000572136   -0.002441194
      5        8          -0.000390508    0.000600340    0.002926301
      6        1           0.000347148   -0.000156883   -0.000245632
      7        1          -0.000082881   -0.000367692    0.000630114
      8        1           0.000380941   -0.000485684    0.001101512
      9        1           0.000386407   -0.001118922   -0.001679489
     10        1          -0.000157077    0.000334095    0.000351226
     11        1          -0.001439419    0.001416567   -0.000289677
     12        1          -0.001649830    0.000425993   -0.001305614
     13        1           0.000494709   -0.000276438    0.000575882
 -------------------------------------------------------------------
 Cartesian Forces:  Max     0.003371979 RMS     0.001232746
 Leave Link  716 at Mon Feb 22 20:58:32 2021, MaxMem=   104857600 cpu:               0.7 elap:               0.0
 (Enter /sw/arch/RedHatEnterpriseServer7/EB_production/2019/software/Gaussian/g16.c01/l103.exe)

 GradGradGradGradGradGradGradGradGradGradGradGradGradGradGradGradGradGrad
 Berny optimization.
 Using GEDIIS/GDIIS optimizer.
 FormGI is forming the generalized inverse of G from B-inverse, IUseBI=4.
 Internal  Forces:  Max     0.003293685 RMS     0.001002717
 Search for a local minimum.
 Step number   2 out of a maximum of   66
 All quantities printed in internal units (Hartrees-Bohrs-Radians)
 RMS Force = .10027D-02 SwitMx=.10000D-02 MixMth= 1
 Mixed Optimization -- RFO/linear search
 Update second derivatives using D2CorX and points    1    2
 DE= -3.36D-03 DEPred=-4.19D-03 R= 8.01D-01
 TightC=F SS=  1.41D+00  RLast= 2.60D-01 DXNew= 5.0454D-01 7.8060D-01
 Trust test= 8.01D-01 RLast= 2.60D-01 DXMaxT set to 5.05D-01
 ITU=  1  0
 Use linear search instead of GDIIS.
     Eigenvalues ---    0.00229   0.00231   0.01329   0.01381   0.04529
     Eigenvalues ---    0.05024   0.05184   0.05461   0.05629   0.06145
     Eigenvalues ---    0.07054   0.11917   0.13687   0.15822   0.16000
     Eigenvalues ---    0.16000   0.16000   0.16100   0.17005   0.19971
     Eigenvalues ---    0.22454   0.27567   0.28721   0.33424   0.34444
     Eigenvalues ---    0.34587   0.34608   0.34654   0.34760   0.41127
     Eigenvalues ---    0.42950   0.51069   0.51343
 RFO step:  Lambda=-5.72103815D-04 EMin= 2.28539867D-03
 Quartic linear search produced a step of -0.11670.
 Iteration  1 RMS(Cart)=  0.06253711 RMS(Int)=  0.00225012
 Iteration  2 RMS(Cart)=  0.00272826 RMS(Int)=  0.00005105
 Iteration  3 RMS(Cart)=  0.00000337 RMS(Int)=  0.00005099
 Iteration  4 RMS(Cart)=  0.00000000 RMS(Int)=  0.00005099
 ITry= 1 IFail=0 DXMaxC= 1.83D-01 DCOld= 1.00D+10 DXMaxT= 5.05D-01 DXLimC= 3.00D+00 Rises=F
 Variable       Old X    -DE/DX   Delta X   Delta X   Delta X     New X
                                 (Linear)    (Quad)   (Total)
    R1        2.90187  -0.00132   0.00245  -0.00723  -0.00478   2.89709
    R2        2.08009  -0.00016  -0.00204   0.00215   0.00011   2.08020
    R3        2.07843   0.00055  -0.00178   0.00363   0.00185   2.08028
    R4        2.07748   0.00062  -0.00200   0.00407   0.00207   2.07955
    R5        2.73072  -0.00031  -0.00390   0.00423   0.00033   2.73105
    R6        2.86837   0.00279   0.00661   0.00048   0.00708   2.87545
    R7        2.09200   0.00062  -0.00293   0.00527   0.00234   2.09434
    R8        1.84155  -0.00033   0.00123  -0.00211  -0.00088   1.84066
    R9        2.72988  -0.00329  -0.00466  -0.00105  -0.00571   2.72417
   R10        2.08731   0.00068  -0.00276   0.00518   0.00243   2.08973
   R11        2.09066   0.00044  -0.00319   0.00513   0.00194   2.09259
   R12        1.84043  -0.00056   0.00146  -0.00279  -0.00133   1.83910
    A1        1.94270  -0.00044  -0.00194  -0.00021  -0.00215   1.94055
    A2        1.92206   0.00049   0.00080   0.00190   0.00270   1.92476
    A3        1.91517   0.00147   0.00067   0.00724   0.00790   1.92307
    A4        1.89995  -0.00005  -0.00006  -0.00029  -0.00035   1.89960
    A5        1.88681  -0.00060   0.00068  -0.00462  -0.00394   1.88287
    A6        1.89622  -0.00092  -0.00013  -0.00429  -0.00443   1.89178
    A7        1.94815  -0.00154  -0.00437  -0.00388  -0.00814   1.94001
    A8        1.92524   0.00147   0.00384   0.00496   0.00876   1.93401
    A9        1.90425   0.00019  -0.00091   0.00474   0.00389   1.90814
   A10        1.87464   0.00047   0.00390  -0.00218   0.00169   1.87633
   A11        1.92794  -0.00035  -0.00453  -0.00669  -0.01111   1.91682
   A12        1.88245  -0.00019   0.00205   0.00320   0.00519   1.88764
   A13        1.87683  -0.00057  -0.00488   0.00308  -0.00179   1.87503
   A14        1.90630   0.00155   0.00343   0.00151   0.00492   1.91122
   A15        1.87325   0.00143   0.00564   0.00571   0.01137   1.88462
   A16        1.89193   0.00102   0.00363   0.00518   0.00881   1.90074
[...]
      3          8           0        1.913130   -3.534379   -0.078459
      4          6           0        1.076722   -1.373832    0.509762
      5          8           0        0.818646   -0.994806   -0.856226
      6          1           0        3.076997   -1.582111    2.469231
      7          1           0        1.933404   -2.952500    2.599870
      8          1           0        3.598773   -3.221865    2.020910
      9          1           0        3.103910   -1.807800   -0.018683
     10          1           0        2.698996   -4.109951   -0.075958
     11          1           0        1.284428   -0.484454    1.133253
     12          1           0        0.212029   -1.909850    0.946252
     13          1           0        0.021435   -0.436534   -0.857944
 ---------------------------------------------------------------------
                    Distance matrix (angstroms):
                    1          2          3          4          5
     1  C    0.000000
     2  C    1.530193   0.000000
     3  O    2.457945   1.448894   0.000000
     4  C    2.517122   1.520192   2.390303   0.000000
     5  O    3.770323   2.416665   2.872673   1.440898   0.000000
     6  H    1.100714   2.183934   3.414186   2.807846   4.062479
     7  H    1.101023   2.175858   2.740884   2.755839   4.125512
     8  H    1.100512   2.173134   2.710426   3.472685   4.578953
     9  H    2.169758   1.107869   2.098239   2.139410   2.566100
    10  H    2.613512   1.971517   0.974102   3.234376   3.721379
    11  H    2.654976   2.143936   3.341490   1.105837   2.106047
    12  H    2.814838   2.147302   2.565711   1.107038   2.110502
    13  H    4.467271   3.253107   3.712512   1.965394   0.973250
                    6          7          8          9         10
     6  H    0.000000
     7  H    1.789647   0.000000
     8  H    1.778211   1.783594   0.000000
     9  H    2.498274   3.088242   2.530693   0.000000
    10  H    3.607055   3.014280   2.448500   2.338190   0.000000
    11  H    2.490581   2.943363   3.692905   2.527591   4.075221
    12  H    3.261122   2.604746   3.787652   3.050327   3.474243
    13  H    4.660354   4.684248   5.370588   3.476548   4.612464
                   11         12         13
    11  H    0.000000
    12  H    1.793534   0.000000
    13  H    2.358455   2.337115   0.000000
 Stoichiometry    C3H8O2
 Framework group  C1[X(C3H8O2)]
 Deg. of freedom    33
 Full point group                 C1      NOp   1
 Largest Abelian subgroup         C1      NOp   1
 Largest concise Abelian subgroup C1      NOp   1
                         Standard orientation:                         
 ---------------------------------------------------------------------
 Center     Atomic      Atomic             Coordinates (Angstroms)
 Number     Number       Type             X           Y           Z
 ---------------------------------------------------------------------
      1          6           0       -1.699093   -0.771341   -0.009090
      2          6           0       -0.441847    0.043565   -0.320137
      3          8           0       -0.538164    1.382458    0.225191
      4          6           0        0.794946   -0.600665    0.285085
      5          8           0        1.972639    0.059183   -0.218726
      6          1           0       -1.644732   -1.773847   -0.460309
      7          1           0       -1.829333   -0.879537    1.078836
      8          1           0       -2.590384   -0.268642   -0.414086
      9          1           0       -0.296163    0.098986   -1.416985
     10          1           0       -1.312397    1.807358   -0.185780
     11          1           0        0.797938   -1.673083    0.015296
     12          1           0        0.731951   -0.519911    1.387375
     13          1           0        2.743282   -0.353800    0.208789
 ---------------------------------------------------------------------
 Rotational constants (GHZ):           8.1715104           3.5073725           2.6979579
 Standard basis: TZVP (5D, 7F)
 There are   148 symmetry adapted cartesian basis functions of A   symmetry.
 There are   143 symmetry adapted basis functions of A   symmetry.
   143 basis functions,   239 primitive gaussians,   148 cartesian basis functions
    21 alpha electrons       21 beta electrons
       nuclear repulsion energy       192.0798001637 Hartrees.
 NAtoms=   13 NActive=   13 NUniq=   13 SFac= 1.00D+00 NAtFMM=   60 NAOKFM=F Big=F
 Integral buffers will be    131072 words long.
 Raffenetti 2 integral format.
 Two-electron integral symmetry is turned on.
 Warning! Using old PCM defaults because the COSMOthermo output has been requested.
 These settings can be overridden by following keywords.
 ------------------------------------------------------------------------------
 Polarizable Continuum Model (PCM)
 =================================
 Model                : C-PCM.
 Atomic radii         : Klamt.
 XCosmo               : -1.000 (infinite dielectric limit)
 Polarization charges : Electronic and nuclear charges.
 Charge compensation  : Type 3 (Electronic density weighted correction).
 Solution method      : On-the-fly selection.
 Cavity type          : VdW (van der Waals Surface) (Alpha=1.000).
 Cavity algorithm     : GePol (No added spheres)
                        Default sphere list used, NSphG=   13.
                        Tesserae with average area of 0.200 Ang**2.
                        Smoothing algorithm: None.
                        Polarization charges: point-like.
                        Self-potential: constant (ISelfS= 1).
                        Self-field    : global E.n sum rule (ISelfD= 3).
 Solvent              : Water, Eps=  78.355300 Eps(inf)=   1.777849
 ------------------------------------------------------------------------------
 Spheres list:
 ISph  on   Nord     Re0    Alpha      Xe            Ye            Ze
    1   C      1    2.0000  1.000     -1.699093     -0.771341     -0.009090
    2   C      2    2.0000  1.000     -0.441847      0.043565     -0.320137
    3   O      3    1.7200  1.000     -0.538164      1.382458      0.225191
    4   C      4    2.0000  1.000      0.794946     -0.600665      0.285085
    5   O      5    1.7200  1.000      1.972639      0.059183     -0.218726
    6   H      6    1.3000  1.000     -1.644732     -1.773847     -0.460309
    7   H      7    1.3000  1.000     -1.829333     -0.879537      1.078836
    8   H      8    1.3000  1.000     -2.590384     -0.268642     -0.414086
    9   H      9    1.3000  1.000     -0.296163      0.098986     -1.416985
   10   H     10    1.3000  1.000     -1.312397      1.807358     -0.185780
   11   H     11    1.3000  1.000      0.797938     -1.673083      0.015296
   12   H     12    1.3000  1.000      0.731951     -0.519911      1.387375
   13   H     13    1.3000  1.000      2.743282     -0.353800      0.208789
 ------------------------------------------------------------------------------
 One-electron integrals computed using PRISM.
 PrsmSu:  requested number of processors reduced to:  30 ShMem   1 Linda.
 NBasis=   143 RedAO= T EigKep=  3.71D-04  NBF=   143
 NBsUse=   143 1.00D-06 EigRej= -1.00D+00 NBFU=   143
 Initial guess from the checkpoint file:  "DNIAPMSPPWPWGF-UHFFFAOYSA-N.chk"
 B after Tr=    -0.000000    0.000000   -0.000000
         Rot=    1.000000    0.000000   -0.000000   -0.000000 Ang=   0.00 deg.
 Requested convergence on RMS density matrix=1.00D-08 within 128 cycles.
 Requested convergence on MAX density matrix=1.00D-06.
 Requested convergence on             energy=1.00D-06.
 No special actions if energy rises.
 Inv3:  Mode=1 IEnd=     2213643.
 Iteration    1 A*A^-1 deviation from unit magnitude is 3.55D-15 for    400.
 Iteration    1 A*A^-1 deviation from orthogonality  is 3.33D-15 for    650    379.
 Iteration    1 A^-1*A deviation from unit magnitude is 3.55D-15 for    400.
 Iteration    1 A^-1*A deviation from orthogonality  is 1.33D-15 for    400    399.
 Error on nuclear    polarization charges =  0.01087
 Error on electronic polarization charges = -0.03652
 SCF Done:  E(RB-P86) =  -269.686235632     A.U. after   10 cycles
            NFock= 10  Conv=0.42D-08     -V/T= 2.0047
 --------------------------------------------------------------------
 Variational C-PCM results
 =========================
 <psi(f)|   H    |psi(f)>                     (a.u.) =    -269.663809
 <psi(f)|H+V(f)/2|psi(f)>                     (a.u.) =    -269.686236
 Total free energy in solution:
 - with all non electrostatic terms           (a.u.) =    -269.678073
 --------------------------------------------------------------------
 (Polarized solute)-Solvent               (kcal/mol) =     -14.07
 --------------------------------------------------------------------
 Cavitation energy                        (kcal/mol) =      15.89
 Dispersion energy                        (kcal/mol) =     -11.85
 Repulsion energy                         (kcal/mol) =       1.08
 Total non electrostatic                  (kcal/mol) =       5.12
 --------------------------------------------------------------------
 Partition over spheres:
 Sphere  on Atom  Surface  Charge   GEl     GCav    GDR
    1      C1      17.39   0.019   -0.05    2.04   -1.16
    2      C2       5.30  -0.007   -0.24    0.62   -0.09
    3      O3      15.62   0.205   -4.42    1.94   -1.31
    4      C4      11.29  -0.011   -0.33    1.33   -0.53
    5      O5      16.17   0.205   -4.34    2.01   -1.39
    6      H6       6.54  -0.028   -0.25    0.92   -0.71
    7      H7       6.55  -0.023   -0.12    0.92   -0.71
    8      H8       6.54  -0.029   -0.30    0.92   -0.70
    9      H9       6.63  -0.027   -0.08    0.94   -0.85
   10      H10      8.33  -0.119   -1.71    1.18   -0.87
   11      H11      6.53  -0.032   -0.30    0.92   -0.74
   12      H12      6.62  -0.028   -0.10    0.93   -0.75
   13      H13      8.55  -0.126   -1.82    1.21   -0.95
 --------------------------------------------------------------------
 - cavitation energy not included in the total energy.
 - dispersion energy not included in the total energy.
 - repulsion  energy not included in the total energy.
 After PCM corrections, the energy is  -269.686235632     a.u.
 --------------------------------------------------------------------
 Writing COSMO formatted file "DNIAPMSPPWPWGF-UHFFFAOYSA-N.cosmo"
 Recomputed dielectric energy= -0.022546 old= -0.022427 diff=-1.19D-04

 **********************************************************************

            Population analysis using the SCF Density.

 **********************************************************************

 Orbital symmetries:
       Occupied  (A) (A) (A) (A) (A) (A) (A) (A) (A) (A) (A) (A)
                 (A) (A) (A) (A) (A) (A) (A) (A) (A)
       Virtual   (A) (A) (A) (A) (A) (A) (A) (A) (A) (A) (A) (A)
                 (A) (A) (A) (A) (A) (A) (A) (A) (A) (A) (A) (A)
                 (A) (A) (A) (A) (A) (A) (A) (A) (A) (A) (A) (A)
                 (A) (A) (A) (A) (A) (A) (A) (A) (A) (A) (A) (A)
                 (A) (A) (A) (A) (A) (A) (A) (A) (A) (A) (A) (A)
                 (A) (A) (A) (A) (A) (A) (A) (A) (A) (A) (A) (A)
                 (A) (A) (A) (A) (A) (A) (A) (A) (A) (A) (A) (A)
                 (A) (A) (A) (A) (A) (A) (A) (A) (A) (A) (A) (A)
                 (A) (A) (A) (A) (A) (A) (A) (A) (A) (A) (A) (A)
                 (A) (A) (A) (A) (A) (A) (A) (A) (A) (A) (A) (A)
                 (A) (A)
 The electronic state is 1-A.
 Alpha  occ. eigenvalues --  -18.77140 -18.76976  -9.94901  -9.94044  -9.88734
 Alpha  occ. eigenvalues --   -0.94253  -0.92609  -0.70161  -0.61681  -0.53004
 Alpha  occ. eigenvalues --   -0.47150  -0.46238  -0.39896  -0.38218  -0.37235
 Alpha  occ. eigenvalues --   -0.33665  -0.33218  -0.31237  -0.28436  -0.23957
 Alpha  occ. eigenvalues --   -0.23173
 Alpha virt. eigenvalues --    0.01970   0.02925   0.05423   0.07741   0.08670
 Alpha virt. eigenvalues --    0.09681   0.10584   0.12032   0.13483   0.14805
 Alpha virt. eigenvalues --    0.16010   0.16552   0.20761   0.22697   0.25965
 Alpha virt. eigenvalues --    0.27231   0.29543   0.30502   0.31110   0.32746
 Alpha virt. eigenvalues --    0.35412   0.37381   0.38492   0.40078   0.41034
 Alpha virt. eigenvalues --    0.42894   0.43544   0.44121   0.45324   0.46700
 Alpha virt. eigenvalues --    0.49168   0.51558   0.51819   0.53364   0.55382
 Alpha virt. eigenvalues --    0.57970   0.60610   0.71408   0.82352   0.84579
 Alpha virt. eigenvalues --    1.09873   1.11296   1.19701   1.22249   1.22594
 Alpha virt. eigenvalues --    1.23207   1.24780   1.27047   1.29285   1.31090
 Alpha virt. eigenvalues --    1.33163   1.37131   1.38426   1.38941   1.42667
 Alpha virt. eigenvalues --    1.43911   1.47167   1.51653   1.52439   1.57099
 Alpha virt. eigenvalues --    1.59592   1.64509   1.69449   1.71324   1.72264
 Alpha virt. eigenvalues --    1.73923   1.75378   1.78904   1.81599   1.87111
 Alpha virt. eigenvalues --    1.91546   1.94384   1.97834   1.99684   2.02972
 Alpha virt. eigenvalues --    2.11453   2.13295   2.18565   2.19938   2.21666
 Alpha virt. eigenvalues --    2.24960   2.29150   2.35571   2.39941   2.44561
 Alpha virt. eigenvalues --    2.48165   2.49981   2.53705   2.54813   2.56369
 Alpha virt. eigenvalues --    2.57970   2.59937   2.61397   2.62051   2.63411
 Alpha virt. eigenvalues --    2.72473   2.82013   2.84042   2.85156   2.88658
 Alpha virt. eigenvalues --    2.91468   2.95864   2.96752   3.05622   3.06843
 Alpha virt. eigenvalues --    3.08033   3.13245   3.14066   3.25375   3.26883
 Alpha virt. eigenvalues --    3.27624   3.31114   3.35111   3.83300   3.88342
 Alpha virt. eigenvalues --    4.17654   4.18223  21.58270  21.70498  21.78078
 Alpha virt. eigenvalues --   43.08000  43.13195
          Condensed to atoms (all electrons):
               1          2          3          4          5          6
     1  C    5.237812   0.185622  -0.037069  -0.026553   0.012338   0.368199
     2  C    0.185622   5.375941   0.233956   0.101457  -0.097892  -0.030896
     3  O   -0.037069   0.233956   8.051583  -0.075706   0.001109   0.008999
     4  C   -0.026553   0.101457  -0.075706   5.163481   0.305119  -0.001660
     5  O    0.012338  -0.097892   0.001109   0.305119   8.004304  -0.000382
     6  H    0.368199  -0.030896   0.008999  -0.001660  -0.000382   0.549926
     7  H    0.378520  -0.020171  -0.000150  -0.018374  -0.000259  -0.023879
     8  H    0.400029  -0.038190  -0.003734   0.013231  -0.000298  -0.019712
     9  H   -0.059291   0.397480  -0.055797  -0.067768   0.010871   0.001057
    10  H   -0.006487  -0.034696   0.305449   0.012911  -0.000419   0.000558
    11  H    0.019590  -0.051636   0.007085   0.394878  -0.053430   0.002209
    12  H   -0.016424  -0.023924  -0.000672   0.381349  -0.050233   0.000776
    13  H   -0.001858   0.014226  -0.000601  -0.036236   0.303294   0.000006
               7          8          9         10         11         12
     1  C    0.378520   0.400029  -0.059291  -0.006487   0.019590  -0.016424
     2  C   -0.020171  -0.038190   0.397480  -0.034696  -0.051636  -0.023924
     3  O   -0.000150  -0.003734  -0.055797   0.305449   0.007085  -0.000672
     4  C   -0.018374   0.013231  -0.067768   0.012911   0.394878   0.381349
     5  O   -0.000259  -0.000298   0.010871  -0.000419  -0.053430  -0.050233
     6  H   -0.023879  -0.019712   0.001057   0.000558   0.002209   0.000776
     7  H    0.555717  -0.028191   0.011230  -0.001309  -0.002003   0.009359
     8  H   -0.028191   0.521918  -0.008797   0.004777  -0.000273  -0.000919
     9  H    0.011230  -0.008797   0.631086  -0.006466  -0.010205   0.016121
    10  H   -0.001309   0.004777  -0.006466   0.416313  -0.000695  -0.000541
    11  H   -0.002003  -0.000273  -0.010205  -0.000695   0.614735  -0.055237
    12  H    0.009359  -0.000919   0.016121  -0.000541  -0.055237   0.613735
    13  H    0.000020   0.000038  -0.000477   0.000095  -0.003743  -0.004482
              13
     1  C   -0.001858
     2  C    0.014226
     3  O   -0.000601
     4  C   -0.036236
     5  O    0.303294
     6  H    0.000006
     7  H    0.000020
     8  H    0.000038
     9  H   -0.000477
    10  H    0.000095
    11  H   -0.003743
    12  H   -0.004482
    13  H    0.415000
 Mulliken charges:
               1
     1  C   -0.454427
     2  C   -0.011278
     3  O   -0.434452
     4  C   -0.146129
     5  O   -0.434123
     6  H    0.144797
     7  H    0.139490
     8  H    0.160121
     9  H    0.140957
    10  H    0.310510
    11  H    0.138725
    12  H    0.131090
    13  H    0.314718
 Sum of Mulliken charges =  -0.00000
 Mulliken charges with hydrogens summed into heavy atoms:
               1
     1  C   -0.010018
     2  C    0.129679
     3  O   -0.123943
     4  C    0.123686
     5  O   -0.119404
 Electronic spatial extent (au):  <R**2>=            488.2217
 Charge=             -0.0000 electrons
 Dipole moment (field-independent basis, Debye):
    X=             -1.4716    Y=             -2.6497    Z=             -0.0726  Tot=              3.0318
 Quadrupole moment (field-independent basis, Debye-Ang):
   XX=            -25.8243   YY=            -31.7283   ZZ=            -32.4484
   XY=             -5.8565   XZ=              4.6116   YZ=             -2.1827
 Traceless Quadrupole moment (field-independent basis, Debye-Ang):
   XX=              4.1760   YY=             -1.7280   ZZ=             -2.4481
   XY=             -5.8565   XZ=              4.6116   YZ=             -2.1827
 Octapole moment (field-independent basis, Debye-Ang**2):
  XXX=             17.6900  YYY=              4.2785  ZZZ=              0.5176  XYY=             -3.7529
  XXY=             -0.7439  XXZ=              5.2781  XZZ=              1.0335  YZZ=              0.6518
  YYZ=             -3.6760  XYZ=              1.2190
 Hexadecapole moment (field-independent basis, Debye-Ang**3):
 XXXX=           -306.3851 YYYY=           -159.2041 ZZZZ=            -65.2714 XXXY=            -34.6375
 XXXZ=             21.0596 YYYX=            -19.6857 YYYZ=             -1.9921 ZZZX=              1.4522
 ZZZY=             -1.7878 XXYY=            -81.7998 XXZZ=            -76.6458 YYZZ=            -41.1544
 XXYZ=             -3.8165 YYXZ=              3.6992 ZZXY=             -1.5958
 N-N= 1.920798001637D+02 E-N=-1.016330556229D+03  KE= 2.684253017247D+02
 Unable to Open any file for archive entry.
 1\1\GINC-TCN1681\SP\RBP86\TZVP\C3H8O2\ELENAA\22-Feb-2021\0\\# BP86/TZV
 P SCRF=COSMORS geom=CHECKPOINT guess=CHECKPOINT\\COSMO-file for #DNIAP
 MSPPWPWGF-UHFFFAOYSA-N\\0,1\C,0,2.7496682457,-2.5220939465,1.999273718
 7\C,0,2.289782615,-2.2887533767,0.5585979234\O,0,1.9131295245,-3.53437
 93387,-0.0784592401\C,0,1.0767217112,-1.3738321487,0.5097617845\O,0,0.
 8186461389,-0.9948056233,-0.8562257593\H,0,3.0769971029,-1.5821109947,
 2.4692305975\H,0,1.9334040705,-2.952499571,2.5998702952\H,0,3.59877322
 57,-3.2218648319,2.0209100422\H,0,3.1039101887,-1.8078002052,-0.018682
 7651\H,0,2.6989958341,-4.109951078,-0.0759580216\H,0,1.2844279038,-0.4
 844539659,1.133252685\H,0,0.2120287587,-1.9098504289,0.946252274\H,0,0
 .0214346802,-0.4365344904,-0.8579435344\\Version=ES64L-G16RevC.01\Stat
 e=1-A\HF=-269.6862356\RMSD=4.201e-09\Dipole=0.3453118,0.4464049,1.0508
 376\Quadrupole=3.1145686,1.0418107,-4.1563793,-5.1588521,-0.051393,0.0
 450936\PG=C01 [X(C3H8O2)]\\@
 The archive entry for this job was punched.


 YE HAVE SOWN MUCH, AND BRING IN LITTLE.
 YE EAT, BUT YE HAVE NOT ENOUGH.
 YE DRINK, BUT YE ARE NOT FILLED WITH DRINK.
 YE CLOTHE YOU, BUT THERE IS NONE WARM.
 AND HE THAT EARNETH WAGES EARNETH WAGES TO PUT
 IT INTO A BAG WITH HOLES.
                                     HAGGAI I,6
 Job cpu time:       0 days  0 hours  2 minutes 35.8 seconds.
 Elapsed time:       0 days  0 hours  0 minutes  5.2 seconds.
 File lengths (MBytes):  RWF=     23 Int=      0 D2E=      0 Chk=      4 Scr=      1
 Normal termination of Gaussian 16 at Mon Feb 22 20:59:26 2021.
