 Entering Gaussian System, Link 0=g16
 Input=DSSYKIVIOFKYAU-UHFFFAOYSA-N.gjf
 Output=DSSYKIVIOFKYAU-UHFFFAOYSA-N.log
 Initial command:
 /sw/arch/RedHatEnterpriseServer7/EB_production/2019/software/Gaussian/g16.c01/l1.exe "/scratch-local/elenaa.9715197/Gau-27020.inp" -scrdir="/scratch-local/elenaa.9715197/"
 Entering Link 1 = /sw/arch/RedHatEnterpriseServer7/EB_production/2019/software/Gaussian/g16.c01/l1.exe PID=     27021.
  
 Copyright (c) 1988-2019, Gaussian, Inc.  All Rights Reserved.
  
 This is part of the Gaussian(R) 16 program.  It is based on
 the Gaussian(R) 09 system (copyright 2009, Gaussian, Inc.),
 the Gaussian(R) 03 system (copyright 2003, Gaussian, Inc.),
 the Gaussian(R) 98 system (copyright 1998, Gaussian, Inc.),
 the Gaussian(R) 94 system (copyright 1995, Gaussian, Inc.),
 the Gaussian 92(TM) system (copyright 1992, Gaussian, Inc.),
 the Gaussian 90(TM) system (copyright 1990, Gaussian, Inc.),
 the Gaussian 88(TM) system (copyright 1988, Gaussian, Inc.),
 the Gaussian 86(TM) system (copyright 1986, Carnegie Mellon
 University), and the Gaussian 82(TM) system (copyright 1983,
 Carnegie Mellon University). Gaussian is a federally registered
 trademark of Gaussian, Inc.
  
 This software contains proprietary and confidential information,
 including trade secrets, belonging to Gaussian, Inc.
  
 This software is provided under written license and may be
 used, copied, transmitted, or stored only in accord with that
 written license.
  
 The following legend is applicable only to US Government
 contracts under FAR:
  
                    RESTRICTED RIGHTS LEGEND
  
 Use, reproduction and disclosure by the US Government is
 subject to restrictions as set forth in subparagraphs (a)
 and (c) of the Commercial Computer Software - Restricted
 Rights clause in FAR 52.227-19.
  
 Gaussian, Inc.
 340 Quinnipiac St., Bldg. 40, Wallingford CT 06492
  
  
 ---------------------------------------------------------------
 Warning -- This program may not be used in any manner that
 competes with the business of Gaussian, Inc. or will provide
 assistance to any competitor of Gaussian, Inc.  The licensee
 of this program is prohibited from giving any competitor of
 Gaussian, Inc. access to this program.  By using this program,
 the user acknowledges that Gaussian, Inc. is engaged in the
 business of creating and licensing software in the field of
 computational chemistry and represents and warrants to the
 licensee that it is not a competitor of Gaussian, Inc. and that
 it will not use this program in any manner prohibited above.
 ---------------------------------------------------------------
  

 Cite this work as:
 Gaussian 16, Revision C.01,
 M. J. Frisch, G. W. Trucks, H. B. Schlegel, G. E. Scuseria, 
 M. A. Robb, J. R. Cheeseman, G. Scalmani, V. Barone, 
 G. A. Petersson, H. Nakatsuji, X. Li, M. Caricato, A. V. Marenich, 
 J. Bloino, B. G. Janesko, R. Gomperts, B. Mennucci, H. P. Hratchian, 
 J. V. Ortiz, A. F. Izmaylov, J. L. Sonnenberg, D. Williams-Young, 
 F. Ding, F. Lipparini, F. Egidi, J. Goings, B. Peng, A. Petrone, 
 T. Henderson, D. Ranasinghe, V. G. Zakrzewski, J. Gao, N. Rega, 
 G. Zheng, W. Liang, M. Hada, M. Ehara, K. Toyota, R. Fukuda, 
 J. Hasegawa, M. Ishida, T. Nakajima, Y. Honda, O. Kitao, H. Nakai, 
 T. Vreven, K. Throssell, J. A. Montgomery, Jr., J. E. Peralta, 
 F. Ogliaro, M. J. Bearpark, J. J. Heyd, E. N. Brothers, K. N. Kudin, 
 V. N. Staroverov, T. A. Keith, R. Kobayashi, J. Normand, 
 K. Raghavachari, A. P. Rendell, J. C. Burant, S. S. Iyengar, 
 J. Tomasi, M. Cossi, J. M. Millam, M. Klene, C. Adamo, R. Cammi, 
 J. W. Ochterski, R. L. Martin, K. Morokuma, O. Farkas, 
 J. B. Foresman, and D. J. Fox, Gaussian, Inc., Wallingford CT, 2019.
 
 ******************************************
 Gaussian 16:  ES64L-G16RevC.01  3-Jul-2019
                22-Feb-2021 
 ******************************************
 %chk=DSSYKIVIOFKYAU-UHFFFAOYSA-N.chk
 %NProcShared=32
 Will use up to   32 processors via shared memory.
 -------------------------------------------------------------
 #P BP86/TZVP EmpiricalDispersion=GD3 SCRF=(Solvent=Water) Opt
 -------------------------------------------------------------
 1/18=20,19=15,26=3,38=1/1,3;
 2/9=110,12=2,17=6,18=5,40=1/2;
 3/5=19,7=101,11=2,25=1,30=1,70=2201,71=1,72=1,74=404,124=31/1,2,3;
 4//1;
 5/5=2,38=5,53=1/2;
 6/7=2,8=2,9=2,10=2,28=1/1;
 7//1,2,3,16;
 1/18=20,19=15,26=3/3(2);
 2/9=110/2;
 99//99;
 2/9=110/2;
 3/5=19,7=101,11=2,25=1,30=1,70=2205,71=1,72=1,74=404,124=31/1,2,3;
 4/5=5,16=3,69=1/1;
 5/5=2,38=5,53=1/2;
 7//1,2,3,16;
 1/18=20,19=15,26=3/3(-5);
 2/9=110/2;
 6/7=2,8=2,9=2,10=2,19=2,28=1/1;
 99/9=1/99;
 Leave Link    1 at Mon Feb 22 20:58:20 2021, MaxMem=           0 cpu:               1.8 elap:               0.1
 (Enter /sw/arch/RedHatEnterpriseServer7/EB_production/2019/software/Gaussian/g16.c01/l101.exe)
 -------------------------------------
 Particle #DSSYKIVIOFKYAU-UHFFFAOYSA-N
 -------------------------------------
 Symbolic Z-matrix:
 Charge =  0 Multiplicity = 1
 C                    -0.17727  -2.51357   0.38847 
 C                    -0.94051  -1.22159  -0.01755 
 C                    -1.68671  -1.32865  -1.39353 
 C                    -2.67975  -0.13312  -1.34098 
 C                    -2.31566   0.50158   0.03965 
 C                    -0.926     1.19976  -0.10564 
 C                    -0.08324  -0.00544  -0.12395 
 O                     1.1676    0.01587  -0.18493 
 C                    -2.04052  -0.72059   0.98102 
 C                    -3.27465  -1.67415   1.21117 
 C                    -1.54125  -0.34356   2.43143 
 H                     0.57536  -2.75781  -0.36469 
 H                     0.32469  -2.37678   1.34872 
 H                    -0.86677  -3.35515   0.4727 
 H                    -0.9983   -1.23983  -2.24047 
 H                    -2.22183  -2.27578  -1.49644 
 H                    -2.52712   0.56067  -2.17212 
 H                    -3.72092  -0.46255  -1.36963 
 H                    -3.08987   1.18074   0.40683 
 H                    -0.82431   1.77129  -1.03228 
 H                    -0.69731   1.84349   0.74719 
 H                    -2.9786   -2.5476    1.79448 
 H                    -4.05681  -1.14689   1.76087 
 H                    -3.72372  -2.05205   0.29706 
 H                    -2.28484   0.27853   2.93291 
 H                    -0.59902   0.20264   2.44218 
 H                    -1.3822   -1.24118   3.03262 
 
 ITRead=  0  0  0  0  0  0  0  0  0  0  0  0  0  0  0  0  0  0  0  0
 ITRead=  0  0  0  0  0  0  0
 MicOpt= -1 -1 -1 -1 -1 -1 -1 -1 -1 -1 -1 -1 -1 -1 -1 -1 -1 -1 -1 -1
 MicOpt= -1 -1 -1 -1 -1 -1 -1
 NAtoms=     27 NQM=       27 NQMF=       0 NMMI=      0 NMMIF=      0
                NMic=       0 NMicF=      0.
                    Isotopes and Nuclear Properties:
 (Nuclear quadrupole moments (NQMom) in fm**2, nuclear magnetic moments (NMagM)
  in nuclear magnetons)

  Atom         1           2           3           4           5           6           7           8           9          10
 IAtWgt=          12          12          12          12          12          12          12          16          12          12
 AtmWgt=  12.0000000  12.0000000  12.0000000  12.0000000  12.0000000  12.0000000  12.0000000  15.9949146  12.0000000  12.0000000
 NucSpn=           0           0           0           0           0           0           0           0           0           0
 AtZEff=  -0.0000000  -0.0000000  -0.0000000  -0.0000000  -0.0000000  -0.0000000  -0.0000000  -0.0000000  -0.0000000  -0.0000000
 NQMom=    0.0000000   0.0000000   0.0000000   0.0000000   0.0000000   0.0000000   0.0000000   0.0000000   0.0000000   0.0000000
 NMagM=    0.0000000   0.0000000   0.0000000   0.0000000   0.0000000   0.0000000   0.0000000   0.0000000   0.0000000   0.0000000
 AtZNuc=   6.0000000   6.0000000   6.0000000   6.0000000   6.0000000   6.0000000   6.0000000   8.0000000   6.0000000   6.0000000

  Atom        11          12          13          14          15          16          17          18          19          20
 IAtWgt=          12           1           1           1           1           1           1           1           1           1
 AtmWgt=  12.0000000   1.0078250   1.0078250   1.0078250   1.0078250   1.0078250   1.0078250   1.0078250   1.0078250   1.0078250
 NucSpn=           0           1           1           1           1           1           1           1           1           1
 AtZEff=  -0.0000000  -0.0000000  -0.0000000  -0.0000000  -0.0000000  -0.0000000  -0.0000000  -0.0000000  -0.0000000  -0.0000000
 NQMom=    0.0000000   0.0000000   0.0000000   0.0000000   0.0000000   0.0000000   0.0000000   0.0000000   0.0000000   0.0000000
 NMagM=    0.0000000   2.7928460   2.7928460   2.7928460   2.7928460   2.7928460   2.7928460   2.7928460   2.7928460   2.7928460
 AtZNuc=   6.0000000   1.0000000   1.0000000   1.0000000   1.0000000   1.0000000   1.0000000   1.0000000   1.0000000   1.0000000

  Atom        21          22          23          24          25          26          27
 IAtWgt=           1           1           1           1           1           1           1
 AtmWgt=   1.0078250   1.0078250   1.0078250   1.0078250   1.0078250   1.0078250   1.0078250
 NucSpn=           1           1           1           1           1           1           1
 AtZEff=  -0.0000000  -0.0000000  -0.0000000  -0.0000000  -0.0000000  -0.0000000  -0.0000000
 NQMom=    0.0000000   0.0000000   0.0000000   0.0000000   0.0000000   0.0000000   0.0000000
 NMagM=    2.7928460   2.7928460   2.7928460   2.7928460   2.7928460   2.7928460   2.7928460
 AtZNuc=   1.0000000   1.0000000   1.0000000   1.0000000   1.0000000   1.0000000   1.0000000
 Leave Link  101 at Mon Feb 22 20:58:20 2021, MaxMem=   104857600 cpu:               3.0 elap:               0.1
 (Enter /sw/arch/RedHatEnterpriseServer7/EB_production/2019/software/Gaussian/g16.c01/l103.exe)

 GradGradGradGradGradGradGradGradGradGradGradGradGradGradGradGradGradGrad
 Berny optimization.
 Initialization pass.
                           ----------------------------
                           !    Initial Parameters    !
                           ! (Angstroms and Degrees)  !
 --------------------------                            --------------------------
 ! Name  Definition              Value          Derivative Info.                !
 --------------------------------------------------------------------------------
 ! R1    R(1,2)                  1.5545         estimate D2E/DX2                !
 ! R2    R(1,12)                 1.0924         estimate D2E/DX2                !
 ! R3    R(1,13)                 1.0921         estimate D2E/DX2                !
 ! R4    R(1,14)                 1.0912         estimate D2E/DX2                !
 ! R5    R(2,3)                  1.5689         estimate D2E/DX2                !
 ! R6    R(2,7)                  1.4917         estimate D2E/DX2                !
 ! R7    R(2,9)                  1.5679         estimate D2E/DX2                !
 ! R8    R(3,4)                  1.5551         estimate D2E/DX2                !
 ! R9    R(3,15)                 1.095          estimate D2E/DX2                !
 ! R10   R(3,16)                 1.0927         estimate D2E/DX2                !
 ! R11   R(4,5)                  1.5625         estimate D2E/DX2                !
 ! R12   R(4,17)                 1.0934         estimate D2E/DX2                !
 ! R13   R(4,18)                 1.0924         estimate D2E/DX2                !
 ! R14   R(5,6)                  1.562          estimate D2E/DX2                !
 ! R15   R(5,9)                  1.567          estimate D2E/DX2                !
 ! R16   R(5,19)                 1.0934         estimate D2E/DX2                !
 ! R17   R(6,7)                  1.4707         estimate D2E/DX2                !
 ! R18   R(6,20)                 1.0935         estimate D2E/DX2                !
 ! R19   R(6,21)                 1.0927         estimate D2E/DX2                !
 ! R20   R(7,8)                  1.2525         estimate D2E/DX2                !
 ! R21   R(9,10)                 1.5765         estimate D2E/DX2                !
 ! R22   R(9,11)                 1.5796         estimate D2E/DX2                !
 ! R23   R(10,22)                1.0912         estimate D2E/DX2                !
 ! R24   R(10,23)                1.0918         estimate D2E/DX2                !
 ! R25   R(10,24)                1.0863         estimate D2E/DX2                !
 ! R26   R(11,25)                1.0915         estimate D2E/DX2                !
 ! R27   R(11,26)                1.0891         estimate D2E/DX2                !
 ! R28   R(11,27)                1.092          estimate D2E/DX2                !
 ! A1    A(2,1,12)             110.1213         estimate D2E/DX2                !
 ! A2    A(2,1,13)             110.5611         estimate D2E/DX2                !
 ! A3    A(2,1,14)             110.5424         estimate D2E/DX2                !
 ! A4    A(12,1,13)            108.5141         estimate D2E/DX2                !
 ! A5    A(12,1,14)            108.4283         estimate D2E/DX2                !
 ! A6    A(13,1,14)            108.611          estimate D2E/DX2                !
 ! A7    A(1,2,3)              113.9449         estimate D2E/DX2                !
 ! A8    A(1,2,7)              114.4589         estimate D2E/DX2                !
 ! A9    A(1,2,9)              116.3399         estimate D2E/DX2                !
 ! A10   A(3,2,7)              105.4501         estimate D2E/DX2                !
 ! A11   A(3,2,9)              104.2816         estimate D2E/DX2                !
 ! A12   A(7,2,9)              100.8427         estimate D2E/DX2                !
 ! A13   A(2,3,4)              102.8042         estimate D2E/DX2                !
 ! A14   A(2,3,15)             111.9488         estimate D2E/DX2                !
 ! A15   A(2,3,16)             112.0031         estimate D2E/DX2                !
 ! A16   A(4,3,15)             111.4221         estimate D2E/DX2                !
 ! A17   A(4,3,16)             110.9059         estimate D2E/DX2                !
 ! A18   A(15,3,16)            107.7783         estimate D2E/DX2                !
 ! A19   A(3,4,5)              101.1481         estimate D2E/DX2                !
 ! A20   A(3,4,17)             111.9014         estimate D2E/DX2                !
 ! A21   A(3,4,18)             112.0802         estimate D2E/DX2                !
 ! A22   A(5,4,17)             112.4199         estimate D2E/DX2                !
 ! A23   A(5,4,18)             111.5766         estimate D2E/DX2                !
 ! A24   A(17,4,18)            107.7261         estimate D2E/DX2                !
 ! A25   A(4,5,6)              107.8595         estimate D2E/DX2                !
 ! A26   A(4,5,9)              104.768          estimate D2E/DX2                !
 ! A27   A(4,5,19)             112.5843         estimate D2E/DX2                !
 ! A28   A(6,5,9)              104.3761         estimate D2E/DX2                !
 ! A29   A(6,5,19)             112.5547         estimate D2E/DX2                !
 ! A30   A(9,5,19)             114.0193         estimate D2E/DX2                !
 ! A31   A(5,6,7)               98.3187         estimate D2E/DX2                !
 ! A32   A(5,6,20)             113.2785         estimate D2E/DX2                !
 ! A33   A(5,6,21)             112.1438         estimate D2E/DX2                !
 ! A34   A(7,6,20)             111.375          estimate D2E/DX2                !
 ! A35   A(7,6,21)             111.8724         estimate D2E/DX2                !
 ! A36   A(20,6,21)            109.5131         estimate D2E/DX2                !
 ! A37   A(2,7,6)              109.7475         estimate D2E/DX2                !
 ! A38   A(2,7,8)              126.2465         estimate D2E/DX2                !
 ! A39   A(6,7,8)              123.981          estimate D2E/DX2                !
 ! A40   A(2,9,5)               89.4156         estimate D2E/DX2                !
 ! A41   A(2,9,10)             116.6756         estimate D2E/DX2                !
 ! A42   A(2,9,11)             116.061          estimate D2E/DX2                !
 ! A43   A(5,9,10)             114.9609         estimate D2E/DX2                !
 ! A44   A(5,9,11)             114.8942         estimate D2E/DX2                !
 ! A45   A(10,9,11)            104.9371         estimate D2E/DX2                !
 ! A46   A(9,10,22)            110.475          estimate D2E/DX2                !
 ! A47   A(9,10,23)            110.0126         estimate D2E/DX2                !
 ! A48   A(9,10,24)            114.2793         estimate D2E/DX2                !
 ! A49   A(22,10,23)           108.1665         estimate D2E/DX2                !
 ! A50   A(22,10,24)           106.4698         estimate D2E/DX2                !
 ! A51   A(23,10,24)           107.1891         estimate D2E/DX2                !
 ! A52   A(9,11,25)            110.0337         estimate D2E/DX2                !
 ! A53   A(9,11,26)            113.7159         estimate D2E/DX2                !
 ! A54   A(9,11,27)            110.8151         estimate D2E/DX2                !
 ! A55   A(25,11,26)           107.3975         estimate D2E/DX2                !
 ! A56   A(25,11,27)           108.347          estimate D2E/DX2                !
 ! A57   A(26,11,27)           106.3073         estimate D2E/DX2                !
 ! D1    D(12,1,2,3)            59.7859         estimate D2E/DX2                !
 ! D2    D(12,1,2,7)           -61.6951         estimate D2E/DX2                !
 ! D3    D(12,1,2,9)          -178.8115         estimate D2E/DX2                !
 ! D4    D(13,1,2,3)           179.6941         estimate D2E/DX2                !
 ! D5    D(13,1,2,7)            58.2132         estimate D2E/DX2                !
 ! D6    D(13,1,2,9)           -58.9033         estimate D2E/DX2                !
 ! D7    D(14,1,2,3)           -60.0036         estimate D2E/DX2                !
 ! D8    D(14,1,2,7)           178.5154         estimate D2E/DX2                !
 ! D9    D(14,1,2,9)            61.399          estimate D2E/DX2                !
 ! D10   D(1,2,3,4)            163.3207         estimate D2E/DX2                !
 ! D11   D(1,2,3,15)           -76.9827         estimate D2E/DX2                !
 ! D12   D(1,2,3,16)            44.2087         estimate D2E/DX2                !
 ! D13   D(7,2,3,4)            -70.3268         estimate D2E/DX2                !
 ! D14   D(7,2,3,15)            49.3698         estimate D2E/DX2                !
 ! D15   D(7,2,3,16)           170.5612         estimate D2E/DX2                !
 ! D16   D(9,2,3,4)             35.4414         estimate D2E/DX2                !
 ! D17   D(9,2,3,15)           155.138          estimate D2E/DX2                !
 ! D18   D(9,2,3,16)           -83.6706         estimate D2E/DX2                !
 ! D19   D(1,2,7,6)           -162.987          estimate D2E/DX2                !
 ! D20   D(1,2,7,8)             15.2458         estimate D2E/DX2                !
 ! D21   D(3,2,7,6)             70.9762         estimate D2E/DX2                !
 ! D22   D(3,2,7,8)           -110.791          estimate D2E/DX2                !
 ! D23   D(9,2,7,6)            -37.2956         estimate D2E/DX2                !
 ! D24   D(9,2,7,8)            140.9371         estimate D2E/DX2                !
 ! D25   D(1,2,9,5)            178.5185         estimate D2E/DX2                !
 ! D26   D(1,2,9,10)           -63.6311         estimate D2E/DX2                !
 ! D27   D(1,2,9,11)            60.8974         estimate D2E/DX2                !
 ! D28   D(3,2,9,5)            -55.0866         estimate D2E/DX2                !
 ! D29   D(3,2,9,10)            62.7639         estimate D2E/DX2                !
 ! D30   D(3,2,9,11)          -172.7076         estimate D2E/DX2                !
 ! D31   D(7,2,9,5)             54.1001         estimate D2E/DX2                !
 ! D32   D(7,2,9,10)           171.9506         estimate D2E/DX2                !
 ! D33   D(7,2,9,11)           -63.521          estimate D2E/DX2                !
 ! D34   D(2,3,4,5)              1.7374         estimate D2E/DX2                !
 ! D35   D(2,3,4,17)           121.6177         estimate D2E/DX2                !
 ! D36   D(2,3,4,18)          -117.2373         estimate D2E/DX2                !
 ! D37   D(15,3,4,5)          -118.3237         estimate D2E/DX2                !
 ! D38   D(15,3,4,17)            1.5565         estimate D2E/DX2                !
 ! D39   D(15,3,4,18)          122.7016         estimate D2E/DX2                !
 ! D40   D(16,3,4,5)           121.6118         estimate D2E/DX2                !
 ! D41   D(16,3,4,17)         -118.508          estimate D2E/DX2                !
 ! D42   D(16,3,4,18)            2.6371         estimate D2E/DX2                !
 ! D43   D(3,4,5,6)             72.1056         estimate D2E/DX2                !
 ! D44   D(3,4,5,9)            -38.67           estimate D2E/DX2                !
 ! D45   D(3,4,5,19)          -163.1111         estimate D2E/DX2                !
 ! D46   D(17,4,5,6)           -47.4044         estimate D2E/DX2                !
 ! D47   D(17,4,5,9)          -158.1799         estimate D2E/DX2                !
 ! D48   D(17,4,5,19)           77.379          estimate D2E/DX2                !
 ! D49   D(18,4,5,6)          -168.5581         estimate D2E/DX2                !
 ! D50   D(18,4,5,9)            80.6663         estimate D2E/DX2                !
 ! D51   D(18,4,5,19)          -43.7747         estimate D2E/DX2                !
 ! D52   D(4,5,6,7)            -74.3089         estimate D2E/DX2                !
 ! D53   D(4,5,6,20)            43.3298         estimate D2E/DX2                !
 ! D54   D(4,5,6,21)           167.9169         estimate D2E/DX2                !
 ! D55   D(9,5,6,7)             36.7332         estimate D2E/DX2                !
 ! D56   D(9,5,6,20)           154.372          estimate D2E/DX2                !
 ! D57   D(9,5,6,21)           -81.0409         estimate D2E/DX2                !
 ! D58   D(19,5,6,7)           160.89           estimate D2E/DX2                !
 ! D59   D(19,5,6,20)          -81.4713         estimate D2E/DX2                !
 ! D60   D(19,5,6,21)           43.1158         estimate D2E/DX2                !
 ! D61   D(4,5,9,2)             57.0106         estimate D2E/DX2                !
 ! D62   D(4,5,9,10)           -62.3608         estimate D2E/DX2                !
 ! D63   D(4,5,9,11)           175.6712         estimate D2E/DX2                !
 ! D64   D(6,5,9,2)            -56.2542         estimate D2E/DX2                !
 ! D65   D(6,5,9,10)          -175.6256         estimate D2E/DX2                !
 ! D66   D(6,5,9,11)            62.4063         estimate D2E/DX2                !
 ! D67   D(19,5,9,2)          -179.4652         estimate D2E/DX2                !
 ! D68   D(19,5,9,10)           61.1634         estimate D2E/DX2                !
 ! D69   D(19,5,9,11)          -60.8047         estimate D2E/DX2                !
 ! D70   D(5,6,7,2)              0.6864         estimate D2E/DX2                !
 ! D71   D(5,6,7,8)           -177.5949         estimate D2E/DX2                !
 ! D72   D(20,6,7,2)          -118.4004         estimate D2E/DX2                !
 ! D73   D(20,6,7,8)            63.3184         estimate D2E/DX2                !
 ! D74   D(21,6,7,2)           118.6678         estimate D2E/DX2                !
 ! D75   D(21,6,7,8)           -59.6134         estimate D2E/DX2                !
 ! D76   D(2,9,10,22)           71.7105         estimate D2E/DX2                !
 ! D77   D(2,9,10,23)         -168.9366         estimate D2E/DX2                !
 ! D78   D(2,9,10,24)          -48.3174         estimate D2E/DX2                !
 ! D79   D(5,9,10,22)          174.4942         estimate D2E/DX2                !
 ! D80   D(5,9,10,23)          -66.1529         estimate D2E/DX2                !
 ! D81   D(5,9,10,24)           54.4663         estimate D2E/DX2                !
 ! D82   D(11,9,10,22)         -58.2967         estimate D2E/DX2                !
 ! D83   D(11,9,10,23)          61.0562         estimate D2E/DX2                !
 ! D84   D(11,9,10,24)        -178.3245         estimate D2E/DX2                !
 ! D85   D(2,9,11,25)          161.8978         estimate D2E/DX2                !
 ! D86   D(2,9,11,26)           41.3806         estimate D2E/DX2                !
 ! D87   D(2,9,11,27)          -78.2965         estimate D2E/DX2                !
 ! D88   D(5,9,11,25)           59.5155         estimate D2E/DX2                !
 ! D89   D(5,9,11,26)          -61.0016         estimate D2E/DX2                !
 ! D90   D(5,9,11,27)          179.3213         estimate D2E/DX2                !
 ! D91   D(10,9,11,25)         -67.7344         estimate D2E/DX2                !
 ! D92   D(10,9,11,26)         171.7484         estimate D2E/DX2                !
 ! D93   D(10,9,11,27)          52.0713         estimate D2E/DX2                !
 --------------------------------------------------------------------------------
 Trust Radius=3.00D-01 FncErr=1.00D-07 GrdErr=1.00D-06 EigMax=2.50D+02 EigMin=1.00D-04
 Number of steps in this run=    162 maximum allowed number of steps=    162.
 GradGradGradGradGradGradGradGradGradGradGradGradGradGradGradGradGradGrad

 Leave Link  103 at Mon Feb 22 20:58:20 2021, MaxMem=   104857600 cpu:               0.4 elap:               0.0
 (Enter /sw/arch/RedHatEnterpriseServer7/EB_production/2019/software/Gaussian/g16.c01/l202.exe)
                          Input orientation:                          
 ---------------------------------------------------------------------
 Center     Atomic      Atomic             Coordinates (Angstroms)
 Number     Number       Type             X           Y           Z
 ---------------------------------------------------------------------
      1          6           0       -0.177270   -2.513570    0.388470
      2          6           0       -0.940510   -1.221590   -0.017550
      3          6           0       -1.686710   -1.328650   -1.393530
      4          6           0       -2.679750   -0.133120   -1.340980
      5          6           0       -2.315660    0.501580    0.039650
      6          6           0       -0.926000    1.199760   -0.105640
      7          6           0       -0.083240   -0.005440   -0.123950
      8          8           0        1.167600    0.015870   -0.184930
      9          6           0       -2.040520   -0.720590    0.981020
     10          6           0       -3.274650   -1.674150    1.211170
     11          6           0       -1.541250   -0.343560    2.431430
     12          1           0        0.575360   -2.757810   -0.364690
     13          1           0        0.324690   -2.376780    1.348720
     14          1           0       -0.866770   -3.355150    0.472700
     15          1           0       -0.998300   -1.239830   -2.240470
     16          1           0       -2.221830   -2.275780   -1.496440
     17          1           0       -2.527120    0.560670   -2.172120
     18          1           0       -3.720920   -0.462550   -1.369630
     19          1           0       -3.089870    1.180740    0.406830
     20          1           0       -0.824310    1.771290   -1.032280
     21          1           0       -0.697310    1.843490    0.747190
     22          1           0       -2.978600   -2.547600    1.794480
     23          1           0       -4.056810   -1.146890    1.760870
     24          1           0       -3.723720   -2.052050    0.297060
     25          1           0       -2.284840    0.278530    2.932910
     26          1           0       -0.599020    0.202640    2.442180
     27          1           0       -1.382200   -1.241180    3.032620
 ---------------------------------------------------------------------
                    Distance matrix (angstroms):
                    1          2          3          4          5
     1  C    0.000000
     2  C    1.554542   0.000000
     3  C    2.618772   1.568948   0.000000
     4  C    3.862635   2.441555   1.555050   0.000000
     5  C    3.712885   2.205363   2.408179   1.562544   0.000000
     6  C    3.820152   2.422995   2.937720   2.525524   1.561960
     7  C    2.561666   1.491728   2.435946   2.870423   2.295111
     8  O    2.921563   2.450194   3.378688   4.020044   3.524124
     9  C    2.652846   1.567854   2.476571   2.478996   1.567029
    10  C    3.312888   2.676336   3.070079   3.040090   2.650646
    11  C    3.277662   2.670080   3.952452   3.946080   2.652279
    12  H    1.092408   2.185941   2.866700   4.293935   4.375513
    13  H    1.092133   2.191321   3.558685   4.614667   4.119474
    14  H    1.091220   2.190402   2.874338   4.117986   4.142606
    15  H    3.034441   2.223746   1.095036   2.204805   3.157039
    16  H    2.790995   2.222659   1.092703   2.196554   3.175233
    17  H    4.639975   3.214958   2.209530   1.093359   2.222641
    18  H    4.455901   3.183542   2.211043   1.092419   2.211419
    19  H    4.704413   3.251313   3.392225   2.224695   1.093380
    20  H    4.560397   3.162358   3.237879   2.676701   2.232784
    21  H    4.402623   3.168389   3.952729   3.492493   2.218196
    22  H    3.134561   3.032419   3.649415   3.968644   3.580002
    23  H    4.336142   3.588828   3.949766   3.541962   2.951551
    24  H    3.577522   2.921455   2.744232   2.730447   2.927442
    25  H    4.325719   3.572506   4.653909   4.311791   2.902009
    26  H    3.431238   2.862747   4.270900   4.330643   2.967890
    27  H    3.172123   3.082047   4.437475   4.694658   3.586981
                    6          7          8          9         10
     6  C    0.000000
     7  C    1.470744   0.000000
     8  O    2.406459   1.252507   0.000000
     9  C    2.471989   2.358674   3.491969   0.000000
    10  C    3.938211   3.840864   4.953670   1.576491   0.000000
    11  C    3.032671   2.961433   3.783173   1.579592   2.502834
    12  H    4.240701   2.840291   2.841894   3.578272   4.298864
    13  H    4.058451   2.821067   2.964347   2.910736   3.669858
    14  H    4.591861   3.491485   3.991856   2.928649   3.028033
    15  H    3.242580   2.615475   3.239313   3.425468   4.157430
    16  H    3.961424   3.407600   4.296505   2.930750   2.966739
    17  H    2.691163   3.238523   4.230448   3.438124   4.123090
    18  H    3.488914   3.872129   5.052725   2.901014   2.885769
    19  H    2.223808   3.275450   4.453443   2.246305   2.971785
    20  H    1.093457   2.128619   2.786971   3.426662   4.786261
    21  H    1.092706   2.134130   2.772532   2.904031   4.385402
    22  H    4.676145   4.304191   5.261218   2.208999   1.091243
    23  H    4.335043   4.543645   5.694963   2.203480   1.091763
    24  H    4.308558   4.197494   5.332318   2.252498   1.086310
    25  H    3.453679   3.777840   4.659320   2.206311   2.785152
    26  H    2.755458   2.625709   3.171362   2.250614   3.492381
    27  H    4.001872   3.630191   4.293516   2.216633   2.662050
                   11         12         13         14         15
    11  C    0.000000
    12  H    4.257573   0.000000
    13  H    2.964452   1.773074   0.000000
    14  H    3.655300   1.771377   1.773188   0.000000
    15  H    4.787979   2.880837   3.990644   3.442843   0.000000
    16  H    4.429992   3.055730   3.819673   2.622735   1.767427
    17  H    4.793980   4.889222   5.399791   5.008541   2.362999
    18  H    4.383284   4.973544   5.236474   4.461781   2.962294
    19  H    2.969970   5.435194   5.020192   5.051813   4.152351
    20  H    4.121150   4.787223   4.918927   5.342954   3.249129
    21  H    2.886535   4.901829   4.383720   5.208639   4.303902
    22  H    2.707300   4.163753   3.337605   2.618982   4.681097
    23  H    2.724524   5.345098   4.569468   4.088050   5.037246
    24  H    3.498235   4.406597   4.195362   3.145009   3.811387
    25  H    1.091515   5.317356   4.045983   4.611636   5.542965
    26  H    1.089150   4.245227   2.949967   4.075342   4.916030
    27  H    1.091993   4.204037   2.653032   3.359721   5.287046
                   16         17         18         19         20
    16  H    0.000000
    17  H    2.931756   0.000000
    18  H    2.356089   1.765256   0.000000
    19  H    4.040230   2.711486   2.500887   0.000000
    20  H    4.306656   2.380000   3.673445   2.748190   0.000000
    21  H    4.932182   3.676439   4.352122   2.505878   1.785457
    22  H    3.387734   5.059555   3.861355   3.979758   5.593241
    23  H    3.905331   4.552376   3.221983   2.861164   5.173637
    24  H    2.349973   3.788800   2.303123   3.296171   4.979122
    25  H    5.113474   5.118558   4.596017   2.800560   4.481541
    26  H    4.928367   5.013733   4.971784   3.362092   3.818807
    27  H    4.720991   5.625551   5.045362   3.959369   5.090150
                   21         22         23         24         25
    21  H    0.000000
    22  H    5.057941   0.000000
    23  H    4.610440   1.767952   0.000000
    24  H    4.953484   1.744431   1.752998   0.000000
    25  H    3.121974   3.124794   2.558394   3.801274   0.000000
    26  H    2.361152   3.694014   3.773821   4.410093   1.757431
    27  H    3.899674   2.405871   2.963069   3.691005   1.770373
                   26         27
    26  H    0.000000
    27  H    1.745453   0.000000
 Stoichiometry    C10H16O
 Framework group  C1[X(C10H16O)]
 Deg. of freedom    75
 Full point group                 C1      NOp   1
 Largest Abelian subgroup         C1      NOp   1
 Largest concise Abelian subgroup C1      NOp   1
                         Standard orientation:                         
 ---------------------------------------------------------------------
 Center     Atomic      Atomic             Coordinates (Angstroms)
 Number     Number       Type             X           Y           Z
 ---------------------------------------------------------------------
      1          6           0       -0.431295   -1.682873    1.427058
      2          6           0       -0.274199   -0.357060    0.630729
      3          6           0       -0.093588    0.911757    1.535760
      4          6           0        0.463999    1.968473    0.540456
      5          6           0        0.472945    1.152971   -0.792368
      6          6           0       -1.008249    0.975338   -1.255217
      7          6           0       -1.417516   -0.040612   -0.273671
      8          8           0       -2.552238   -0.570152   -0.245958
      9          6           0        0.925904   -0.288177   -0.375837
     10          6           0        2.373627   -0.378058    0.241691
     11          6           0        0.914439   -1.352193   -1.543249
     12          1           0       -1.306338   -1.628397    2.078738
     13          1           0       -0.558378   -2.526836    0.745638
     14          1           0        0.448936   -1.864431    2.045921
     15          1           0       -1.041296    1.238400    1.976506
     16          1           0        0.610829    0.735317    2.352255
     17          1           0       -0.176129    2.853041    0.483797
     18          1           0        1.467742    2.301286    0.814531
     19          1           0        1.100417    1.611893   -1.561231
     20          1           0       -1.603938    1.887029   -1.157111
     21          1           0       -1.077643    0.602516   -2.280006
     22          1           0        2.576297   -1.390917    0.593618
     23          1           0        3.118933   -0.125086   -0.514927
     24          1           0        2.539599    0.281329    1.088882
     25          1           0        1.580810   -1.033000   -2.346660
     26          1           0       -0.070090   -1.511809   -1.980824
     27          1           0        1.251750   -2.326518   -1.183582
 ---------------------------------------------------------------------
 Rotational constants (GHZ):           1.4186996           1.1582197           1.0767510
 Leave Link  202 at Mon Feb 22 20:58:20 2021, MaxMem=   104857600 cpu:               0.7 elap:               0.1
 (Enter /sw/arch/RedHatEnterpriseServer7/EB_production/2019/software/Gaussian/g16.c01/l301.exe)
 Standard basis: TZVP (5D, 7F)
 Ernie: Thresh=  0.10000D-02 Tol=  0.10000D-05 Strict=F.
 There are   316 symmetry adapted cartesian basis functions of A   symmetry.
 There are   305 symmetry adapted basis functions of A   symmetry.
   305 basis functions,   513 primitive gaussians,   316 cartesian basis functions
    42 alpha electrons       42 beta electrons
       nuclear repulsion energy       681.6996144538 Hartrees.
 IExCor=  404 DFT=T Ex=B Corr=P86 ExCW=0 ScaHFX=  0.000000
 ScaDFX=  1.000000  1.000000  1.000000  1.000000 ScalE2=  1.000000  1.000000
 IRadAn=      5 IRanWt=     -1 IRanGd=            0 ICorTp=0 IEmpDi=131
 NAtoms=   27 NActive=   27 NUniq=   27 SFac= 1.00D+00 NAtFMM=   60 NAOKFM=F Big=F
 Integral buffers will be    131072 words long.
 Raffenetti 2 integral format.
 Two-electron integral symmetry is turned on.
 R6Disp:  Grimme-D3 Dispersion energy=       -0.0339643137 Hartrees.
 Nuclear repulsion after empirical dispersion term =      681.6656501401 Hartrees.
 ------------------------------------------------------------------------------
 Polarizable Continuum Model (PCM)
 =================================
 Model                : PCM.
 Atomic radii         : UFF (Universal Force Field).
 Polarization charges : Total charges.
 Charge compensation  : None.
 Solution method      : On-the-fly selection.
 Cavity type          : Scaled VdW (van der Waals Surface) (Alpha=1.100).
 Cavity algorithm     : GePol (No added spheres)
                        Default sphere list used, NSphG=   27.
                        Lebedev-Laikov grids with approx.  5.0 points / Ang**2.
                        Smoothing algorithm: York/Karplus (Gamma=1.0000).
                        Polarization charges: spherical gaussians, with
                                              point-specific exponents (IZeta= 3).
                        Self-potential: point-specific (ISelfS= 7).
                        Self-field    : sphere-specific E.n sum rule (ISelfD= 2).
 1st derivatives      : Analytical E(r).r(x)/FMM algorithm (CHGder, D1EAlg=3).
                        Cavity 1st derivative terms included.
 Solvent              : Water, Eps=  78.355300 Eps(inf)=   1.777849
 ------------------------------------------------------------------------------
 GePol: Number of generator spheres                  =      27
 GePol: Total number of spheres                      =      27
 GePol: Number of exposed spheres                    =      27 (100.00%)
 GePol: Number of points                             =    1749
 GePol: Average weight of points                     =       0.13
 GePol: Minimum weight of points                     =   0.13D-11
 GePol: Maximum weight of points                     =    0.20577
 GePol: Number of points with low weight             =     131
 GePol: Fraction of low-weight points (<1% of avg)   =       7.49%
 GePol: Cavity surface area                          =    229.161 Ang**2
 GePol: Cavity volume                                =    246.175 Ang**3
 Leave Link  301 at Mon Feb 22 20:58:20 2021, MaxMem=   104857600 cpu:               1.8 elap:               0.1
 (Enter /sw/arch/RedHatEnterpriseServer7/EB_production/2019/software/Gaussian/g16.c01/l302.exe)
 NPDir=0 NMtPBC=     1 NCelOv=     1 NCel=       1 NClECP=     1 NCelD=      1
         NCelK=      1 NCelE2=     1 NClLst=     1 CellRange=     0.0.
 One-electron integrals computed using PRISM.
 One-electron integral symmetry used in STVInt
 PrsmSu:  requested number of processors reduced to:  27 ShMem   1 Linda.
 NBasis=   305 RedAO= T EigKep=  3.79D-05  NBF=   305
 NBsUse=   305 1.00D-06 EigRej= -1.00D+00 NBFU=   305
 Precomputing XC quadrature grid using
 IXCGrd= 4 IRadAn=           5 IRanWt=          -1 IRanGd=           0 AccXCQ= 0.00D+00.
 Generated NRdTot=       0 NPtTot=           0 NUsed=           0 NTot=          32
 NSgBfM=   315   315   315   315   315 MxSgAt=    27 MxSgA2=    27.
 Leave Link  302 at Mon Feb 22 20:58:21 2021, MaxMem=   104857600 cpu:               8.2 elap:               0.3
 (Enter /sw/arch/RedHatEnterpriseServer7/EB_production/2019/software/Gaussian/g16.c01/l303.exe)
 DipDrv:  MaxL=1.
 Leave Link  303 at Mon Feb 22 20:58:21 2021, MaxMem=   104857600 cpu:               3.0 elap:               0.1
 (Enter /sw/arch/RedHatEnterpriseServer7/EB_production/2019/software/Gaussian/g16.c01/l401.exe)
 ExpMin= 9.52D-02 ExpMax= 2.70D+04 ExpMxC= 9.22D+02 IAcc=3 IRadAn=         5 AccDes= 0.00D+00
 Harris functional with IExCor=  404 and IRadAn=       5 diagonalized for initial guess.
 HarFok:  IExCor=  404 AccDes= 0.00D+00 IRadAn=         5 IDoV= 1 UseB2=F ITyADJ=14
 ICtDFT=  3500011 ScaDFX=  1.000000  1.000000  1.000000  1.000000
 FoFCou: FMM=F IPFlag=           0 FMFlag=      100000 FMFlg1=           0
         NFxFlg=           0 DoJE=T BraDBF=F KetDBF=T FulRan=T
         wScrn=  0.000000 ICntrl=       500 IOpCl=  0 I1Cent=   200000004 NGrid=           0
         NMat0=    1 NMatS0=      1 NMatT0=    0 NMatD0=    1 NMtDS0=    0 NMtDT0=    0
 Petite list used in FoFCou.
 Harris En= -466.355396837508    
 JPrj=0 DoOrth=F DoCkMO=F.
 Leave Link  401 at Mon Feb 22 20:58:22 2021, MaxMem=   104857600 cpu:              18.9 elap:               0.6
 (Enter /sw/arch/RedHatEnterpriseServer7/EB_production/2019/software/Gaussian/g16.c01/l502.exe)
 Integral symmetry usage will be decided dynamically.
 Closed shell SCF:
 Using DIIS extrapolation, IDIIS=  1040.
 NGot=   104857600 LenX=   104643788 LenY=   104543491
 Requested convergence on RMS density matrix=1.00D-08 within 128 cycles.
 Requested convergence on MAX density matrix=1.00D-06.
 Requested convergence on             energy=1.00D-06.
 No special actions if energy rises.
 Fock matrices will be formed incrementally for  20 cycles.

 Cycle   1  Pass 1  IDiag  1:
 FoFJK:  IHMeth= 1 ICntrl=     500 DoSepK=F KAlg= 0 I1Cent=           0 FoldK=F
 IRaf= 950000000 NMat=       1 IRICut=       1 DoRegI=T DoRafI=F ISym2E= 0 IDoP0=0 IntGTp=1.
 FoFCou: FMM=F IPFlag=           0 FMFlag=      100000 FMFlg1=           0
         NFxFlg=           0 DoJE=T BraDBF=F KetDBF=F FulRan=T
         wScrn=  0.000000 ICntrl=       500 IOpCl=  0 I1Cent=           0 NGrid=           0
         NMat0=    1 NMatS0=      1 NMatT0=    0 NMatD0=    1 NMtDS0=    0 NMtDT0=    0
 Symmetry not used in FoFCou.
 Inv3:  Mode=1 IEnd=     9177003.
 Iteration    1 A*A^-1 deviation from unit magnitude is 3.00D-15 for    597.
 Iteration    1 A*A^-1 deviation from orthogonality  is 2.78D-15 for   1492    212.
 Iteration    1 A^-1*A deviation from unit magnitude is 3.33D-15 for   1124.
 Iteration    1 A^-1*A deviation from orthogonality  is 1.17D-11 for   1511   1487.
 E= -465.764351683489    
 DIIS: error= 3.15D-02 at cycle   1 NSaved=   1.
 NSaved= 1 IEnMin= 1 EnMin= -465.764351683489     IErMin= 1 ErrMin= 3.15D-02
 ErrMax= 3.15D-02  0.00D+00 EMaxC= 1.00D-01 BMatC= 3.35D-01 BMatP= 3.35D-01
 IDIUse=3 WtCom= 6.85D-01 WtEn= 3.15D-01
 Coeff-Com:  0.100D+01
 Coeff-En:   0.100D+01
 Coeff:      0.100D+01
 Gap=     0.068 Goal=   None    Shift=    0.000
 GapD=    0.068 DampG=0.500 DampE=0.500 DampFc=0.2500 IDamp=-1.
 Damping current iteration by 2.50D-01
 RMSDP=1.48D-02 MaxDP=1.21D+00              OVMax= 2.33D-01

 Cycle   2  Pass 1  IDiag  1:
 RMSU=  3.66D-03    CP:  1.04D+00
 E= -465.887534706321     Delta-E=       -0.123183022832 Rises=F Damp=T
 DIIS: error= 1.29D-02 at cycle   2 NSaved=   2.
 NSaved= 2 IEnMin= 2 EnMin= -465.887534706321     IErMin= 2 ErrMin= 1.29D-02
 ErrMax= 1.29D-02  0.00D+00 EMaxC= 1.00D-01 BMatC= 5.48D-02 BMatP= 3.35D-01
 IDIUse=3 WtCom= 8.71D-01 WtEn= 1.29D-01
 Coeff-Com: -0.504D+00 0.150D+01
 Coeff-En:   0.000D+00 0.100D+01
 Coeff:     -0.439D+00 0.144D+01
 Gap=     0.139 Goal=   None    Shift=    0.000
 RMSDP=2.00D-03 MaxDP=1.60D-01 DE=-1.23D-01 OVMax= 1.86D-01

 Cycle   3  Pass 1  IDiag  1:
 RMSU=  1.71D-03    CP:  1.02D+00  7.25D-01
 E= -466.060423607205     Delta-E=       -0.172888900883 Rises=F Damp=F
 DIIS: error= 2.17D-02 at cycle   3 NSaved=   3.
 NSaved= 3 IEnMin= 3 EnMin= -466.060423607205     IErMin= 2 ErrMin= 1.29D-02
 ErrMax= 2.17D-02  0.00D+00 EMaxC= 1.00D-01 BMatC= 4.39D-02 BMatP= 5.48D-02
 IDIUse=3 WtCom= 7.83D-01 WtEn= 2.17D-01
 Coeff-Com: -0.335D+00 0.952D+00 0.382D+00
 Coeff-En:   0.000D+00 0.000D+00 0.100D+01
 Coeff:     -0.262D+00 0.745D+00 0.517D+00
 Gap=     0.126 Goal=   None    Shift=    0.000
 RMSDP=2.45D-03 MaxDP=2.29D-01 DE=-1.73D-01 OVMax= 9.57D-02

 Cycle   4  Pass 1  IDiag  1:
 RMSU=  1.25D-03    CP:  1.07D+00  1.26D+00  6.75D-01
 E= -466.065886454371     Delta-E=       -0.005462847166 Rises=F Damp=F
 DIIS: error= 2.09D-02 at cycle   4 NSaved=   4.
 NSaved= 4 IEnMin= 4 EnMin= -466.065886454371     IErMin= 2 ErrMin= 1.29D-02
 ErrMax= 2.09D-02  0.00D+00 EMaxC= 1.00D-01 BMatC= 3.94D-02 BMatP= 4.39D-02
 IDIUse=3 WtCom= 7.91D-01 WtEn= 2.09D-01
 Coeff-Com: -0.600D-01 0.225D+00 0.437D+00 0.398D+00
 Coeff-En:   0.000D+00 0.000D+00 0.471D+00 0.529D+00
 Coeff:     -0.475D-01 0.178D+00 0.444D+00 0.425D+00
 Gap=     0.137 Goal=   None    Shift=    0.000
 RMSDP=1.82D-03 MaxDP=1.70D-01 DE=-5.46D-03 OVMax= 5.46D-02

 Cycle   5  Pass 1  IDiag  1:
 RMSU=  4.57D-04    CP:  1.03D+00  8.61D-01  7.68D-01  3.12D-01
 E= -466.095679705734     Delta-E=       -0.029793251364 Rises=F Damp=F
 DIIS: error= 1.69D-03 at cycle   5 NSaved=   5.
 NSaved= 5 IEnMin= 5 EnMin= -466.095679705734     IErMin= 5 ErrMin= 1.69D-03
 ErrMax= 1.69D-03  0.00D+00 EMaxC= 1.00D-01 BMatC= 1.05D-03 BMatP= 3.94D-02
 IDIUse=3 WtCom= 9.83D-01 WtEn= 1.69D-02
 Coeff-Com: -0.162D-01 0.692D-01 0.246D+00 0.264D+00 0.436D+00
 Coeff-En:   0.000D+00 0.000D+00 0.000D+00 0.000D+00 0.100D+01
 Coeff:     -0.159D-01 0.681D-01 0.242D+00 0.260D+00 0.446D+00
 Gap=     0.136 Goal=   None    Shift=    0.000
 RMSDP=2.65D-04 MaxDP=1.38D-02 DE=-2.98D-02 OVMax= 6.65D-03

 Cycle   6  Pass 1  IDiag  1:
 RMSU=  8.99D-05    CP:  1.03D+00  8.96D-01  7.81D-01  4.04D-01  6.35D-01
 E= -466.096571330872     Delta-E=       -0.000891625138 Rises=F Damp=F
 DIIS: error= 4.57D-04 at cycle   6 NSaved=   6.
 NSaved= 6 IEnMin= 6 EnMin= -466.096571330872     IErMin= 6 ErrMin= 4.57D-04
 ErrMax= 4.57D-04  0.00D+00 EMaxC= 1.00D-01 BMatC= 7.28D-05 BMatP= 1.05D-03
 IDIUse=3 WtCom= 9.95D-01 WtEn= 4.57D-03
 Coeff-Com: -0.293D-03 0.398D-02 0.586D-01 0.696D-01 0.250D+00 0.618D+00
 Coeff-En:   0.000D+00 0.000D+00 0.000D+00 0.000D+00 0.522D-01 0.948D+00
 Coeff:     -0.291D-03 0.397D-02 0.583D-01 0.693D-01 0.249D+00 0.620D+00
 Gap=     0.136 Goal=   None    Shift=    0.000
 RMSDP=4.10D-05 MaxDP=2.21D-03 DE=-8.92D-04 OVMax= 1.55D-03

 Cycle   7  Pass 1  IDiag  1:
 RMSU=  2.45D-05    CP:  1.03D+00  9.00D-01  7.86D-01  4.00D-01  6.41D-01
                    CP:  7.03D-01
 E= -466.096638962657     Delta-E=       -0.000067631785 Rises=F Damp=F
 DIIS: error= 4.77D-05 at cycle   7 NSaved=   7.
 NSaved= 7 IEnMin= 7 EnMin= -466.096638962657     IErMin= 7 ErrMin= 4.77D-05
 ErrMax= 4.77D-05  0.00D+00 EMaxC= 1.00D-01 BMatC= 1.04D-06 BMatP= 7.28D-05
 IDIUse=1 WtCom= 1.00D+00 WtEn= 0.00D+00
 Coeff-Com: -0.157D-03 0.643D-03 0.128D-01 0.142D-01 0.706D-01 0.212D+00
 Coeff-Com:  0.690D+00
 Coeff:     -0.157D-03 0.643D-03 0.128D-01 0.142D-01 0.706D-01 0.212D+00
 Coeff:      0.690D+00
 Gap=     0.136 Goal=   None    Shift=    0.000
 RMSDP=1.31D-05 MaxDP=6.80D-04 DE=-6.76D-05 OVMax= 2.45D-04

 Cycle   8  Pass 1  IDiag  1:
 RMSU=  7.64D-06    CP:  1.03D+00  8.98D-01  7.86D-01  4.00D-01  6.49D-01
                    CP:  7.04D-01  7.45D-01
 E= -466.096639555158     Delta-E=       -0.000000592501 Rises=F Damp=F
 DIIS: error= 2.72D-05 at cycle   8 NSaved=   8.
 NSaved= 8 IEnMin= 8 EnMin= -466.096639555158     IErMin= 8 ErrMin= 2.72D-05
 ErrMax= 2.72D-05  0.00D+00 EMaxC= 1.00D-01 BMatC= 3.59D-07 BMatP= 1.04D-06
 IDIUse=1 WtCom= 1.00D+00 WtEn= 0.00D+00
 Coeff-Com: -0.345D-04-0.433D-04 0.193D-02 0.123D-02 0.177D-01 0.651D-01
 Coeff-Com:  0.411D+00 0.503D+00
 Coeff:     -0.345D-04-0.433D-04 0.193D-02 0.123D-02 0.177D-01 0.651D-01
 Coeff:      0.411D+00 0.503D+00
 Gap=     0.136 Goal=   None    Shift=    0.000
 RMSDP=4.20D-06 MaxDP=1.53D-04 DE=-5.93D-07 OVMax= 1.06D-04

 Cycle   9  Pass 1  IDiag  1:
 RMSU=  1.94D-06    CP:  1.03D+00  8.99D-01  7.86D-01  4.00D-01  6.51D-01
                    CP:  7.17D-01  7.92D-01  6.66D-01
 E= -466.096639855944     Delta-E=       -0.000000300786 Rises=F Damp=F
 DIIS: error= 6.62D-06 at cycle   9 NSaved=   9.
 NSaved= 9 IEnMin= 9 EnMin= -466.096639855944     IErMin= 9 ErrMin= 6.62D-06
 ErrMax= 6.62D-06  0.00D+00 EMaxC= 1.00D-01 BMatC= 1.31D-08 BMatP= 3.59D-07
 IDIUse=1 WtCom= 1.00D+00 WtEn= 0.00D+00
 Coeff-Com:  0.514D-05-0.483D-04 0.178D-03-0.356D-03 0.368D-02 0.153D-01
 Coeff-Com:  0.139D+00 0.229D+00 0.613D+00
 Coeff:      0.514D-05-0.483D-04 0.178D-03-0.356D-03 0.368D-02 0.153D-01
 Coeff:      0.139D+00 0.229D+00 0.613D+00
 Gap=     0.136 Goal=   None    Shift=    0.000
 RMSDP=8.85D-07 MaxDP=4.35D-05 DE=-3.01D-07 OVMax= 2.40D-05

 Cycle  10  Pass 1  IDiag  1:
 RMSU=  4.74D-07    CP:  1.03D+00  8.99D-01  7.86D-01  3.99D-01  6.50D-01
                    CP:  7.17D-01  8.09D-01  6.66D-01  7.35D-01
 E= -466.096639865659     Delta-E=       -0.000000009715 Rises=F Damp=F
 DIIS: error= 1.61D-06 at cycle  10 NSaved=  10.
 NSaved=10 IEnMin=10 EnMin= -466.096639865659     IErMin=10 ErrMin= 1.61D-06
 ErrMax= 1.61D-06  0.00D+00 EMaxC= 1.00D-01 BMatC= 9.95D-10 BMatP= 1.31D-08
 IDIUse=1 WtCom= 1.00D+00 WtEn= 0.00D+00
 Coeff-Com:  0.115D-04-0.269D-04 0.215D-04-0.215D-03 0.861D-03 0.371D-02
 Coeff-Com:  0.429D-01 0.812D-01 0.300D+00 0.571D+00
 Coeff:      0.115D-04-0.269D-04 0.215D-04-0.215D-03 0.861D-03 0.371D-02
 Coeff:      0.429D-01 0.812D-01 0.300D+00 0.571D+00
 Gap=     0.136 Goal=   None    Shift=    0.000
 RMSDP=2.04D-07 MaxDP=1.21D-05 DE=-9.71D-09 OVMax= 6.55D-06

 Cycle  11  Pass 1  IDiag  1:
 RMSU=  1.42D-07    CP:  1.03D+00  8.99D-01  7.86D-01  3.99D-01  6.50D-01
                    CP:  7.16D-01  8.10D-01  6.66D-01  7.37D-01  8.33D-01
 E= -466.096639865323     Delta-E=        0.000000000336 Rises=F Damp=F
 DIIS: error= 7.79D-07 at cycle  11 NSaved=  11.
 NSaved=11 IEnMin=10 EnMin= -466.096639865659     IErMin=11 ErrMin= 7.79D-07
 ErrMax= 7.79D-07  0.00D+00 EMaxC= 1.00D-01 BMatC= 1.39D-10 BMatP= 9.95D-10
 IDIUse=1 WtCom= 1.00D+00 WtEn= 0.00D+00
 Coeff-Com:  0.789D-05-0.122D-04-0.181D-05-0.663D-04 0.319D-04 0.147D-03
 Coeff-Com:  0.569D-02 0.153D-01 0.861D-01 0.322D+00 0.571D+00
 Coeff:      0.789D-05-0.122D-04-0.181D-05-0.663D-04 0.319D-04 0.147D-03
 Coeff:      0.569D-02 0.153D-01 0.861D-01 0.322D+00 0.571D+00
 Gap=     0.136 Goal=   None    Shift=    0.000
 RMSDP=8.48D-08 MaxDP=4.81D-06 DE= 3.36D-10 OVMax= 2.01D-06

 Cycle  12  Pass 1  IDiag  1:
 RMSU=  3.35D-08    CP:  1.03D+00  8.99D-01  7.86D-01  3.99D-01  6.50D-01
                    CP:  7.16D-01  8.09D-01  6.71D-01  7.55D-01  8.27D-01
                    CP:  6.21D-01
 E= -466.096639865472     Delta-E=       -0.000000000148 Rises=F Damp=F
 DIIS: error= 1.24D-07 at cycle  12 NSaved=  12.
 NSaved=12 IEnMin=10 EnMin= -466.096639865659     IErMin=12 ErrMin= 1.24D-07
 ErrMax= 1.24D-07  0.00D+00 EMaxC= 1.00D-01 BMatC= 2.79D-12 BMatP= 1.39D-10
 IDIUse=1 WtCom= 1.00D+00 WtEn= 0.00D+00
 Coeff-Com:  0.241D-05-0.357D-05-0.127D-05-0.184D-04-0.176D-04-0.553D-04
 Coeff-Com:  0.917D-03 0.360D-02 0.254D-01 0.113D+00 0.232D+00 0.625D+00
 Coeff:      0.241D-05-0.357D-05-0.127D-05-0.184D-04-0.176D-04-0.553D-04
 Coeff:      0.917D-03 0.360D-02 0.254D-01 0.113D+00 0.232D+00 0.625D+00
 Gap=     0.136 Goal=   None    Shift=    0.000
 RMSDP=1.34D-08 MaxDP=3.95D-07 DE=-1.48D-10 OVMax= 5.10D-07

 Cycle  13  Pass 1  IDiag  1:
 RMSU=  7.50D-09    CP:  1.03D+00  8.99D-01  7.86D-01  3.99D-01  6.50D-01
                    CP:  7.16D-01  8.09D-01  6.71D-01  7.55D-01  8.36D-01
                    CP:  6.55D-01  7.56D-01
 E= -466.096639865469     Delta-E=        0.000000000002 Rises=F Damp=F
 DIIS: error= 4.04D-08 at cycle  13 NSaved=  13.
 NSaved=13 IEnMin=10 EnMin= -466.096639865659     IErMin=13 ErrMin= 4.04D-08
 ErrMax= 4.04D-08  0.00D+00 EMaxC= 1.00D-01 BMatC= 7.34D-13 BMatP= 2.79D-12
 IDIUse=1 WtCom= 1.00D+00 WtEn= 0.00D+00
 Coeff-Com:  0.524D-06-0.837D-06-0.944D-06-0.429D-05-0.143D-04-0.453D-04
 Coeff-Com: -0.308D-04 0.623D-03 0.658D-02 0.354D-01 0.822D-01 0.378D+00
 Coeff-Com:  0.497D+00
 Coeff:      0.524D-06-0.837D-06-0.944D-06-0.429D-05-0.143D-04-0.453D-04
 Coeff:     -0.308D-04 0.623D-03 0.658D-02 0.354D-01 0.822D-01 0.378D+00
 Coeff:      0.497D+00
 Gap=     0.136 Goal=   None    Shift=    0.000
 RMSDP=5.70D-09 MaxDP=3.07D-07 DE= 2.05D-12 OVMax= 2.19D-07

 Error on total polarization charges =  0.01437
 SCF Done:  E(RB-P86) =  -466.096639865     A.U. after   13 cycles
            NFock= 13  Conv=0.57D-08     -V/T= 2.0052
 KE= 4.637068966333D+02 PE=-2.446170571283D+03 EE= 8.347013846444D+02
 Leave Link  502 at Mon Feb 22 20:58:45 2021, MaxMem=   104857600 cpu:             731.2 elap:              23.2
 (Enter /sw/arch/RedHatEnterpriseServer7/EB_production/2019/software/Gaussian/g16.c01/l601.exe)
 Copying SCF densities to generalized density rwf, IOpCl= 0 IROHF=0.

 **********************************************************************

            Population analysis using the SCF Density.

 **********************************************************************

 Orbital symmetries:
       Occupied  (A) (A) (A) (A) (A) (A) (A) (A) (A) (A) (A) (A)
                 (A) (A) (A) (A) (A) (A) (A) (A) (A) (A) (A) (A)
                 (A) (A) (A) (A) (A) (A) (A) (A) (A) (A) (A) (A)
                 (A) (A) (A) (A) (A) (A)
       Virtual   (A) (A) (A) (A) (A) (A) (A) (A) (A) (A) (A) (A)
                 (A) (A) (A) (A) (A) (A) (A) (A) (A) (A) (A) (A)
                 (A) (A) (A) (A) (A) (A) (A) (A) (A) (A) (A) (A)
                 (A) (A) (A) (A) (A) (A) (A) (A) (A) (A) (A) (A)
                 (A) (A) (A) (A) (A) (A) (A) (A) (A) (A) (A) (A)
                 (A) (A) (A) (A) (A) (A) (A) (A) (A) (A) (A) (A)
                 (A) (A) (A) (A) (A) (A) (A) (A) (A) (A) (A) (A)
                 (A) (A) (A) (A) (A) (A) (A) (A) (A) (A) (A) (A)
                 (A) (A) (A) (A) (A) (A) (A) (A) (A) (A) (A) (A)
                 (A) (A) (A) (A) (A) (A) (A) (A) (A) (A) (A) (A)
                 (A) (A) (A) (A) (A) (A) (A) (A) (A) (A) (A) (A)
                 (A) (A) (A) (A) (A) (A) (A) (A) (A) (A) (A) (A)
                 (A) (A) (A) (A) (A) (A) (A) (A) (A) (A) (A) (A)
                 (A) (A) (A) (A) (A) (A) (A) (A) (A) (A) (A) (A)
                 (A) (A) (A) (A) (A) (A) (A) (A) (A) (A) (A) (A)
                 (A) (A) (A) (A) (A) (A) (A) (A) (A) (A) (A) (A)
                 (A) (A) (A) (A) (A) (A) (A) (A) (A) (A) (A) (A)
                 (A) (A) (A) (A) (A) (A) (A) (A) (A) (A) (A) (A)
                 (A) (A) (A) (A) (A) (A) (A) (A) (A) (A) (A) (A)
                 (A) (A) (A) (A) (A) (A) (A) (A) (A) (A) (A) (A)
                 (A) (A) (A) (A) (A) (A) (A) (A) (A) (A) (A) (A)
                 (A) (A) (A) (A) (A) (A) (A) (A) (A) (A) (A)
 The electronic state is 1-A.
 Alpha  occ. eigenvalues --  -18.76197  -9.98103  -9.92578  -9.91907  -9.90818
 Alpha  occ. eigenvalues --   -9.90362  -9.90134  -9.89576  -9.89039  -9.88850
 Alpha  occ. eigenvalues --   -9.88678  -0.94531  -0.81548  -0.69806  -0.69298
 Alpha  occ. eigenvalues --   -0.67426  -0.61740  -0.60380  -0.58803  -0.53005
 Alpha  occ. eigenvalues --   -0.48899  -0.45295  -0.44252  -0.43394  -0.42358
 Alpha  occ. eigenvalues --   -0.39726  -0.37910  -0.37263  -0.36703  -0.35476
 Alpha  occ. eigenvalues --   -0.35335  -0.34323  -0.33849  -0.33259  -0.31807
 Alpha  occ. eigenvalues --   -0.30438  -0.29972  -0.29776  -0.28684  -0.27624
 Alpha  occ. eigenvalues --   -0.26302  -0.20969
 Alpha virt. eigenvalues --   -0.07401   0.01345   0.03862   0.04435   0.04734
 Alpha virt. eigenvalues --    0.05833   0.07093   0.07956   0.08176   0.09089
 Alpha virt. eigenvalues --    0.09339   0.09853   0.10304   0.11174   0.11270
 Alpha virt. eigenvalues --    0.11459   0.12593   0.12881   0.13978   0.14503
 Alpha virt. eigenvalues --    0.14806   0.15796   0.16201   0.16739   0.18064
 Alpha virt. eigenvalues --    0.18776   0.19581   0.20217   0.20522   0.21332
 Alpha virt. eigenvalues --    0.22854   0.23539   0.25509   0.26629   0.26963
 Alpha virt. eigenvalues --    0.27977   0.29397   0.29740   0.30635   0.32735
 Alpha virt. eigenvalues --    0.33521   0.33982   0.34920   0.36022   0.36760
 Alpha virt. eigenvalues --    0.37178   0.37379   0.38480   0.38672   0.39375
 Alpha virt. eigenvalues --    0.39903   0.40253   0.40777   0.41178   0.42009
 Alpha virt. eigenvalues --    0.42422   0.42466   0.42912   0.43927   0.44488
 Alpha virt. eigenvalues --    0.44608   0.45167   0.45259   0.46116   0.46273
 Alpha virt. eigenvalues --    0.47847   0.48127   0.48903   0.49177   0.49963
 Alpha virt. eigenvalues --    0.50983   0.51503   0.52769   0.53440   0.54834
 Alpha virt. eigenvalues --    0.56813   0.59794   0.63587   0.64234   0.65734
 Alpha virt. eigenvalues --    0.67248   0.69183   0.71560   0.73292   0.73560
 Alpha virt. eigenvalues --    0.76419   0.78435   0.81029   0.90999   1.04782
 Alpha virt. eigenvalues --    1.08918   1.13879   1.16704   1.18782   1.20042
 Alpha virt. eigenvalues --    1.21616   1.22485   1.22863   1.23419   1.24350
 Alpha virt. eigenvalues --    1.25748   1.26328   1.27211   1.27840   1.28701
 Alpha virt. eigenvalues --    1.29038   1.29803   1.31044   1.31938   1.33279
 Alpha virt. eigenvalues --    1.33965   1.34689   1.35349   1.36063   1.37984
 Alpha virt. eigenvalues --    1.39233   1.40789   1.41999   1.42693   1.42903
 Alpha virt. eigenvalues --    1.44425   1.45799   1.46074   1.48210   1.49516
 Alpha virt. eigenvalues --    1.50901   1.51108   1.52580   1.52765   1.55790
 Alpha virt. eigenvalues --    1.57373   1.58289   1.59205   1.60391   1.61265
 Alpha virt. eigenvalues --    1.63426   1.63473   1.64500   1.65596   1.66159
 Alpha virt. eigenvalues --    1.67284   1.68156   1.70165   1.71464   1.72306
 Alpha virt. eigenvalues --    1.73192   1.74157   1.74459   1.75253   1.76207
 Alpha virt. eigenvalues --    1.77503   1.77765   1.79430   1.80276   1.81469
 Alpha virt. eigenvalues --    1.82957   1.84779   1.85896   1.87224   1.89256
 Alpha virt. eigenvalues --    1.91705   1.94147   1.96150   1.96372   1.99908
 Alpha virt. eigenvalues --    2.01736   2.03672   2.04769   2.06169   2.07214
 Alpha virt. eigenvalues --    2.09375   2.11423   2.12870   2.14049   2.18861
 Alpha virt. eigenvalues --    2.21645   2.22270   2.23770   2.24121   2.25546
 Alpha virt. eigenvalues --    2.27006   2.28084   2.29990   2.31124   2.31222
 Alpha virt. eigenvalues --    2.32836   2.34581   2.35864   2.37758   2.38553
 Alpha virt. eigenvalues --    2.39227   2.39857   2.41943   2.44508   2.47314
 Alpha virt. eigenvalues --    2.49284   2.50773   2.51556   2.53109   2.53689
 Alpha virt. eigenvalues --    2.56198   2.57267   2.58788   2.58981   2.60334
 Alpha virt. eigenvalues --    2.60612   2.61406   2.61739   2.63806   2.64851
 Alpha virt. eigenvalues --    2.65860   2.67041   2.68241   2.70227   2.72186
 Alpha virt. eigenvalues --    2.74099   2.75043   2.80401   2.81255   2.83514
 Alpha virt. eigenvalues --    2.84732   2.87171   2.91977   2.94958   3.00293
 Alpha virt. eigenvalues --    3.04563   3.05981   3.08627   3.08875   3.09820
 Alpha virt. eigenvalues --    3.12989   3.17094   3.18436   3.20848   3.23286
 Alpha virt. eigenvalues --    3.25535   3.27583   3.28823   3.29524   3.30557
 Alpha virt. eigenvalues --    3.31304   3.32648   3.35329   3.37173   3.38557
 Alpha virt. eigenvalues --    3.39763   3.41056   3.42080   3.43879   3.48532
 Alpha virt. eigenvalues --    3.49832   4.15966  21.81344  21.85373  21.86561
 Alpha virt. eigenvalues --   21.89726  21.91262  21.94452  21.99286  22.02535
 Alpha virt. eigenvalues --   22.09465  22.24265  43.22943
          Condensed to atoms (all electrons):
               1          2          3          4          5          6
     1  C    5.093967   0.205092  -0.053309   0.015901   0.020840   0.023452
     2  C    0.205092   7.226573   0.273975  -0.116065   0.232102  -0.528510
     3  C   -0.053309   0.273975   5.421147   0.198291  -0.055523   0.002691
     4  C    0.015901  -0.116065   0.198291   5.311940   0.130630  -0.022983
     5  C    0.020840   0.232102  -0.055523   0.130630   6.313444  -0.126229
     6  C    0.023452  -0.528510   0.002691  -0.022983  -0.126229   5.760469
     7  C   -0.085339  -0.344154  -0.086256   0.043888  -0.232749   0.414994
     8  O    0.020142  -0.176391  -0.013479   0.002526   0.019101  -0.133700
     9  C   -0.088299  -0.626360  -0.129897   0.015570  -0.389698   0.124897
    10  C    0.003038   0.002073  -0.014653  -0.006163  -0.030867  -0.001723
    11  C    0.001935  -0.075904   0.014008   0.013095  -0.055682   0.001568
    12  H    0.414427  -0.049769  -0.011583   0.001284  -0.005387   0.002220
    13  H    0.415615  -0.030455   0.012286  -0.001491   0.002485  -0.000357
    14  H    0.411701  -0.038940  -0.012014   0.000500   0.000298   0.000609
    15  H   -0.001270  -0.042140   0.366625  -0.001792  -0.015902   0.006079
    16  H   -0.009824  -0.054225   0.434402  -0.046611   0.016260  -0.004750
    17  H   -0.000978  -0.014415  -0.009826   0.372226  -0.012890  -0.007207
    18  H   -0.000628  -0.000798  -0.037746   0.432676  -0.060533   0.010063
    19  H   -0.000468   0.008705   0.010608  -0.011846   0.342595   0.006709
    20  H   -0.000756   0.008005   0.006351  -0.013359   0.007137   0.359432
    21  H   -0.000686   0.014217  -0.001362   0.006770  -0.039216   0.388315
    22  H    0.000963  -0.015109   0.000186  -0.001716   0.014907  -0.000908
    23  H   -0.000362   0.014500  -0.001943   0.001647  -0.015826   0.001268
    24  H    0.000265  -0.012924   0.004678   0.005224  -0.013387   0.000020
    25  H   -0.000026   0.016663  -0.000971   0.000772  -0.016553   0.004672
    26  H   -0.000462  -0.008950  -0.000472  -0.000727  -0.010226   0.000575
    27  H   -0.000268  -0.007373   0.000947  -0.001261   0.017080  -0.002706
               7          8          9         10         11         12
     1  C   -0.085339   0.020142  -0.088299   0.003038   0.001935   0.414427
     2  C   -0.344154  -0.176391  -0.626360   0.002073  -0.075904  -0.049769
     3  C   -0.086256  -0.013479  -0.129897  -0.014653   0.014008  -0.011583
     4  C    0.043888   0.002526   0.015570  -0.006163   0.013095   0.001284
     5  C   -0.232749   0.019101  -0.389698  -0.030867  -0.055682  -0.005387
     6  C    0.414994  -0.133700   0.124897  -0.001723   0.001568   0.002220
     7  C    5.523424   0.705106   0.128777  -0.017151   0.018518  -0.011064
     8  O    0.705106   7.859784   0.003205  -0.001316   0.001381   0.008786
     9  C    0.128777   0.003205   6.954571   0.189355   0.257625   0.021346
    10  C   -0.017151  -0.001316   0.189355   5.170871  -0.111225  -0.000629
    11  C    0.018518   0.001381   0.257625  -0.111225   5.131039  -0.000475
    12  H   -0.011064   0.008786   0.021346  -0.000629  -0.000475   0.532753
    13  H   -0.013414   0.001833  -0.019512  -0.001526   0.004456  -0.024004
    14  H    0.019394   0.000986  -0.011321   0.000267  -0.001272  -0.024944
    15  H    0.009138   0.003985   0.021109   0.000184  -0.000283   0.003654
    16  H    0.007278  -0.000511  -0.003217   0.005346  -0.000701  -0.001011
    17  H    0.003468  -0.000278   0.009472   0.000569  -0.000408  -0.000060
    18  H   -0.000385   0.000051   0.008292   0.001897  -0.000438   0.000019
    19  H    0.001688  -0.000342  -0.013330  -0.002918  -0.002227   0.000029
    20  H   -0.024850   0.002562  -0.000440  -0.000150   0.000540  -0.000070
    21  H   -0.033220   0.001876   0.007338   0.000267   0.000581  -0.000044
    22  H    0.001427   0.000020  -0.036580   0.415769  -0.010957  -0.000145
    23  H    0.000042   0.000011  -0.033600   0.407850  -0.006145   0.000031
    24  H    0.000095   0.000017  -0.023048   0.394388   0.012106  -0.000000
    25  H   -0.003961  -0.000018  -0.033309  -0.007066   0.407374   0.000030
    26  H    0.008817  -0.000544  -0.021800   0.012549   0.387790  -0.000048
    27  H   -0.002156   0.000028  -0.046052  -0.009200   0.418764  -0.000150
              13         14         15         16         17         18
     1  C    0.415615   0.411701  -0.001270  -0.009824  -0.000978  -0.000628
     2  C   -0.030455  -0.038940  -0.042140  -0.054225  -0.014415  -0.000798
     3  C    0.012286  -0.012014   0.366625   0.434402  -0.009826  -0.037746
     4  C   -0.001491   0.000500  -0.001792  -0.046611   0.372226   0.432676
     5  C    0.002485   0.000298  -0.015902   0.016260  -0.012890  -0.060533
     6  C   -0.000357   0.000609   0.006079  -0.004750  -0.007207   0.010063
     7  C   -0.013414   0.019394   0.009138   0.007278   0.003468  -0.000385
     8  O    0.001833   0.000986   0.003985  -0.000511  -0.000278   0.000051
     9  C   -0.019512  -0.011321   0.021109  -0.003217   0.009472   0.008292
    10  C   -0.001526   0.000267   0.000184   0.005346   0.000569   0.001897
    11  C    0.004456  -0.001272  -0.000283  -0.000701  -0.000408  -0.000438
    12  H   -0.024004  -0.024944   0.003654  -0.001011  -0.000060   0.000019
    13  H    0.532120  -0.025426  -0.000283   0.000028   0.000032   0.000021
    14  H   -0.025426   0.526353   0.000089   0.002747   0.000013  -0.000069
    15  H   -0.000283   0.000089   0.508215  -0.012339  -0.009357   0.003474
    16  H    0.000028   0.002747  -0.012339   0.477941   0.003719  -0.005636
    17  H    0.000032   0.000013  -0.009357   0.003719   0.517224  -0.013473
    18  H    0.000021  -0.000069   0.003474  -0.005636  -0.013473   0.492274
    19  H    0.000010   0.000031  -0.000554  -0.000147   0.002319  -0.006550
    20  H   -0.000003   0.000007  -0.001117   0.000147   0.002850  -0.000178
    21  H    0.000010   0.000004  -0.000103   0.000072   0.000157  -0.000158
    22  H    0.000320   0.000654  -0.000078   0.000213   0.000028   0.000012
    23  H   -0.000025   0.000076   0.000027  -0.000218  -0.000112   0.000225
    24  H    0.000020   0.000133   0.000213  -0.000894   0.000173  -0.001076
    25  H    0.000005  -0.000045   0.000016   0.000007  -0.000008   0.000019
    26  H    0.000014   0.000000  -0.000028   0.000010  -0.000001   0.000006
    27  H    0.000039   0.000318  -0.000011   0.000047   0.000017   0.000006
              19         20         21         22         23         24
     1  C   -0.000468  -0.000756  -0.000686   0.000963  -0.000362   0.000265
     2  C    0.008705   0.008005   0.014217  -0.015109   0.014500  -0.012924
     3  C    0.010608   0.006351  -0.001362   0.000186  -0.001943   0.004678
     4  C   -0.011846  -0.013359   0.006770  -0.001716   0.001647   0.005224
     5  C    0.342595   0.007137  -0.039216   0.014907  -0.015826  -0.013387
     6  C    0.006709   0.359432   0.388315  -0.000908   0.001268   0.000020
     7  C    0.001688  -0.024850  -0.033220   0.001427   0.000042   0.000095
     8  O   -0.000342   0.002562   0.001876   0.000020   0.000011   0.000017
     9  C   -0.013330  -0.000440   0.007338  -0.036580  -0.033600  -0.023048
    10  C   -0.002918  -0.000150   0.000267   0.415769   0.407850   0.394388
    11  C   -0.002227   0.000540   0.000581  -0.010957  -0.006145   0.012106
    12  H    0.000029  -0.000070  -0.000044  -0.000145   0.000031  -0.000000
    13  H    0.000010  -0.000003   0.000010   0.000320  -0.000025   0.000020
    14  H    0.000031   0.000007   0.000004   0.000654   0.000076   0.000133
    15  H   -0.000554  -0.001117  -0.000103  -0.000078   0.000027   0.000213
    16  H   -0.000147   0.000147   0.000072   0.000213  -0.000218  -0.000894
    17  H    0.002319   0.002850   0.000157   0.000028  -0.000112   0.000173
    18  H   -0.006550  -0.000178  -0.000158   0.000012   0.000225  -0.001076
    19  H    0.491924  -0.000545  -0.003562  -0.000235   0.002543   0.000097
    20  H   -0.000545   0.469481  -0.000432   0.000012  -0.000005  -0.000026
    21  H   -0.003562  -0.000432   0.455977   0.000012  -0.000063  -0.000000
    22  H   -0.000235   0.000012   0.000012   0.523987  -0.026584  -0.024574
    23  H    0.002543  -0.000005  -0.000063  -0.026584   0.522431  -0.022853
    24  H    0.000097  -0.000026  -0.000000  -0.024574  -0.022853   0.532779
    25  H    0.002455  -0.000111  -0.000209   0.000020   0.003716  -0.000126
    26  H    0.000122   0.000406  -0.001371   0.000051  -0.000048  -0.000358
    27  H   -0.000222   0.000023   0.000167   0.004244  -0.000445   0.000119
              25         26         27
     1  C   -0.000026  -0.000462  -0.000268
     2  C    0.016663  -0.008950  -0.007373
     3  C   -0.000971  -0.000472   0.000947
     4  C    0.000772  -0.000727  -0.001261
     5  C   -0.016553  -0.010226   0.017080
     6  C    0.004672   0.000575  -0.002706
     7  C   -0.003961   0.008817  -0.002156
     8  O   -0.000018  -0.000544   0.000028
     9  C   -0.033309  -0.021800  -0.046052
    10  C   -0.007066   0.012549  -0.009200
    11  C    0.407374   0.387790   0.418764
    12  H    0.000030  -0.000048  -0.000150
    13  H    0.000005   0.000014   0.000039
    14  H   -0.000045   0.000000   0.000318
    15  H    0.000016  -0.000028  -0.000011
    16  H    0.000007   0.000010   0.000047
    17  H   -0.000008  -0.000001   0.000017
    18  H    0.000019   0.000006   0.000006
    19  H    0.002455   0.000122  -0.000222
    20  H   -0.000111   0.000406   0.000023
    21  H   -0.000209  -0.001371   0.000167
    22  H    0.000020   0.000051   0.004244
    23  H    0.003716  -0.000048  -0.000445
    24  H   -0.000126  -0.000358   0.000119
    25  H    0.518494  -0.021793  -0.025790
    26  H   -0.021793   0.532808  -0.024436
    27  H   -0.025790  -0.024436   0.521882
 Mulliken charges:
               1
     1  C   -0.384666
     2  C    0.140577
     3  C   -0.317161
     4  C   -0.328926
     5  C   -0.036212
     6  C   -0.278960
     7  C   -0.031356
     8  O   -0.304823
     9  C   -0.265095
    10  C   -0.399836
    11  C   -0.405064
    12  H    0.144803
    13  H    0.147201
    14  H    0.149853
    15  H    0.162446
    16  H    0.191868
    17  H    0.156747
    18  H    0.178631
    19  H    0.173112
    20  H    0.185091
    21  H    0.204665
    22  H    0.154062
    23  H    0.153863
    24  H    0.148938
    25  H    0.155744
    26  H    0.148113
    27  H    0.156387
 Sum of Mulliken charges =  -0.00000
 Mulliken charges with hydrogens summed into heavy atoms:
               1
     1  C    0.057191
     2  C    0.140577
     3  C    0.037152
     4  C    0.006452
     5  C    0.136900
     6  C    0.110797
     7  C   -0.031356
     8  O   -0.304823
     9  C   -0.265095
    10  C    0.057027
    11  C    0.055180
 Electronic spatial extent (au):  <R**2>=           1505.8713
 Charge=             -0.0000 electrons
 Dipole moment (field-independent basis, Debye):
    X=              4.2586    Y=              1.8613    Z=             -0.0599  Tot=              4.6480
 Quadrupole moment (field-independent basis, Debye-Ang):
   XX=            -79.9827   YY=            -67.4089   ZZ=            -65.8350
   XY=             -5.0174   XZ=             -0.4155   YZ=              0.0736
 Traceless Quadrupole moment (field-independent basis, Debye-Ang):
   XX=             -8.9072   YY=              3.6666   ZZ=              5.2406
   XY=             -5.0174   XZ=             -0.4155   YZ=              0.0736
 Octapole moment (field-independent basis, Debye-Ang**2):
  XXX=             33.8495  YYY=              1.8218  ZZZ=             -4.0030  XYY=             -1.5198
  XXY=             12.2092  XXZ=              3.0547  XZZ=             -1.5003  YZZ=              1.4545
  YYZ=             -0.5593  XYZ=              0.8036
 Hexadecapole moment (field-independent basis, Debye-Ang**3):
 XXXX=           -923.5339 YYYY=           -657.0812 ZZZZ=           -558.4751 XXXY=            -23.1397
 XXXZ=            -13.3219 YYYX=            -10.2094 YYYZ=              1.9193 ZZZX=              5.3123
 ZZZY=              0.2743 XXYY=           -246.4148 XXZZ=           -223.6073 YYZZ=           -208.2485
 XXYZ=             -1.9307 YYXZ=              4.7124 ZZXY=              0.8198
 N-N= 6.816656501401D+02 E-N=-2.446170569803D+03  KE= 4.637068966333D+02
 No NMR shielding tensors so no spin-rotation constants.
 Leave Link  601 at Mon Feb 22 20:58:46 2021, MaxMem=   104857600 cpu:               8.5 elap:               0.3
 (Enter /sw/arch/RedHatEnterpriseServer7/EB_production/2019/software/Gaussian/g16.c01/l701.exe)
 ... and contract with generalized density number  0.
 Compute integral first derivatives.
 R6Disp: Adding Grimme-D3 dispersion energy 1st derivatives to the gradient.
 PrsmSu:  requested number of processors reduced to:  28 ShMem   1 Linda.
 D1PCM: PCM CHGder 1st derivatives, ID1Alg=3 FixD1E=F DoIter=F DoCFld=F I1PDM=0.
 GePol: Maximum number of non-zero 1st derivatives   =     216
 CoulSu:  requested number of processors reduced to:  29 ShMem   1 Linda.
 CoulSu:  requested number of processors reduced to:  29 ShMem   1 Linda.
 Leave Link  701 at Mon Feb 22 20:58:47 2021, MaxMem=   104857600 cpu:              31.6 elap:               1.1
 (Enter /sw/arch/RedHatEnterpriseServer7/EB_production/2019/software/Gaussian/g16.c01/l702.exe)
 L702 exits ... SP integral derivatives will be done elsewhere.
 Leave Link  702 at Mon Feb 22 20:58:47 2021, MaxMem=   104857600 cpu:               0.7 elap:               0.1
 (Enter /sw/arch/RedHatEnterpriseServer7/EB_production/2019/software/Gaussian/g16.c01/l703.exe)
 Integral derivatives from FoFJK, PRISM(SPDF).
 Compute integral first derivatives, UseDBF=F ICtDFT=           0.
 Calling FoFJK, ICntrl=      2527 FMM=F ISym2X=0 I1Cent= 0 IOpClX= 0 NMat=1 NMatS=1 NMatT=0.
 FoFJK:  IHMeth= 1 ICntrl=    2527 DoSepK=F KAlg= 0 I1Cent=           0 FoldK=F
 IRaf=         0 NMat=       1 IRICut=       1 DoRegI=T DoRafI=F ISym2E= 0 IDoP0=0 IntGTp=1.
 FoFCou: FMM=F IPFlag=           0 FMFlag=      100000 FMFlg1=         800
         NFxFlg=           0 DoJE=F BraDBF=F KetDBF=F FulRan=T
         wScrn=  0.000000 ICntrl=      2527 IOpCl=  0 I1Cent=           0 NGrid=           0
         NMat0=    1 NMatS0=      1 NMatT0=    0 NMatD0=    1 NMtDS0=    0 NMtDT0=    0
 Symmetry not used in FoFCou.
 Leave Link  703 at Mon Feb 22 20:58:51 2021, MaxMem=   104857600 cpu:             125.8 elap:               4.0
 (Enter /sw/arch/RedHatEnterpriseServer7/EB_production/2019/software/Gaussian/g16.c01/l716.exe)
 Dipole        = 1.67547602D+00 7.32304480D-01-2.35820417D-02
 ***** Axes restored to original set *****
 -------------------------------------------------------------------
 Center     Atomic                   Forces (Hartrees/Bohr)
 Number     Number              X              Y              Z
 -------------------------------------------------------------------
      1        6          -0.006745193    0.015968613   -0.006953955
      2        6           0.007301892   -0.048252374    0.013441430
      3        6          -0.002713378    0.008852321    0.002068050
      4        6           0.006521956    0.000298023    0.011350097
      5        6          -0.021738705    0.019269165    0.000670238
      6        6          -0.030849430   -0.002386258    0.001605228
      7        6           0.063700913   -0.002056403   -0.000976269
      8        8          -0.025479259   -0.005272747   -0.000218603
      9        6          -0.010523601    0.002860680    0.004576106
     10        6           0.016550986    0.010002915   -0.008828775
     11        6          -0.000019368   -0.002340302   -0.021133141
     12        1           0.003834240   -0.001314124   -0.002569748
     13        1           0.002611935    0.000829324    0.003857164
     14        1          -0.004308951   -0.003065813   -0.000014220
     15        1           0.003764555   -0.002041199   -0.000694357
     16        1           0.001679029   -0.005551512    0.003129066
     17        1          -0.000211660    0.004122370   -0.001065869
     18        1          -0.003508911   -0.001076195    0.000580008
     19        1          -0.003498390    0.002979623    0.001734566
     20        1           0.000845017    0.003882429   -0.002185142
     21        1           0.003015841    0.002837934    0.002311869
     22        1           0.003241322   -0.003135937    0.004065043
     23        1          -0.002198357    0.004213848    0.003424131
     24        1          -0.001854279   -0.000897514   -0.008620623
     25        1          -0.004928373    0.002127288    0.001261173
     26        1           0.006282789    0.004314584   -0.001792473
     27        1          -0.000772618   -0.005168738    0.000979006
 -------------------------------------------------------------------
 Cartesian Forces:  Max     0.063700913 RMS     0.011793129
 Leave Link  716 at Mon Feb 22 20:58:51 2021, MaxMem=   104857600 cpu:               0.7 elap:               0.1
 (Enter /sw/arch/RedHatEnterpriseServer7/EB_production/2019/software/Gaussian/g16.c01/l103.exe)

 GradGradGradGradGradGradGradGradGradGradGradGradGradGradGradGradGradGrad
 Berny optimization.
 FormGI is forming the generalized inverse of G from B-inverse, IUseBI=4.
 Internal  Forces:  Max     0.029274724 RMS     0.005310059
 Search for a local minimum.
 Step number   1 out of a maximum of  162
 All quantities printed in internal units (Hartrees-Bohrs-Radians)
 RMS Force = .53101D-02 SwitMx=.10000D-02 MixMth= 1
 Mixed Optimization -- RFO/linear search
 Second derivative matrix not updated -- first step.
 ITU=  0
     Eigenvalues ---    0.00230   0.00230   0.00230   0.00399   0.01009
     Eigenvalues ---    0.01069   0.01893   0.02416   0.03064   0.03484
     Eigenvalues ---    0.03778   0.04100   0.04333   0.04501   0.04730
     Eigenvalues ---    0.05118   0.05157   0.05179   0.05295   0.05485
     Eigenvalues ---    0.05513   0.05517   0.05570   0.05702   0.05961
     Eigenvalues ---    0.06442   0.06690   0.06849   0.07731   0.07897
     Eigenvalues ---    0.08068   0.08583   0.09321   0.10234   0.11620
     Eigenvalues ---    0.12908   0.16000   0.16000   0.16000   0.16000
     Eigenvalues ---    0.16000   0.16000   0.16000   0.16000   0.16000
     Eigenvalues ---    0.17545   0.21304   0.22529   0.24640   0.24979
     Eigenvalues ---    0.25281   0.25319   0.25516   0.25920   0.26487
     Eigenvalues ---    0.27269   0.31049   0.33121   0.34237   0.34416
     Eigenvalues ---    0.34425   0.34427   0.34502   0.34502   0.34535
     Eigenvalues ---    0.34536   0.34567   0.34583   0.34610   0.34638
     Eigenvalues ---    0.34669   0.34672   0.34911   0.35243   0.82317
 RFO step:  Lambda=-2.06161012D-02 EMin= 2.30000000D-03
 Linear search not attempted -- first point.
 Iteration  1 RMS(Cart)=  0.04301665 RMS(Int)=  0.00076119
 Iteration  2 RMS(Cart)=  0.00088252 RMS(Int)=  0.00041516
 Iteration  3 RMS(Cart)=  0.00000049 RMS(Int)=  0.00041516
 ITry= 1 IFail=0 DXMaxC= 1.74D-01 DCOld= 1.00D+10 DXMaxT= 3.00D-01 DXLimC= 3.00D+00 Rises=F
 Variable       Old X    -DE/DX   Delta X   Delta X   Delta X     New X
                                 (Linear)    (Quad)   (Total)
    R1        2.93766  -0.01407   0.00000  -0.04796  -0.04796   2.88970
    R2        2.06435   0.00471   0.00000   0.01286   0.01286   2.07722
    R3        2.06383   0.00470   0.00000   0.01282   0.01282   2.07665
    R4        2.06211   0.00508   0.00000   0.01384   0.01384   2.07595
    R5        2.96488  -0.00415   0.00000  -0.01641  -0.01666   2.94822
    R6        2.81896   0.01356   0.00000   0.03780   0.03778   2.85674
    R7        2.96281   0.00344   0.00000   0.00677   0.00750   2.97031
    R8        2.93862   0.01039   0.00000   0.03409   0.03370   2.97232
[...]
                 (A) (A) (A) (A) (A) (A) (A) (A) (A) (A) (A) (A)
                 (A) (A) (A) (A) (A) (A) (A) (A) (A) (A) (A) (A)
                 (A) (A) (A) (A) (A) (A) (A) (A) (A) (A) (A) (A)
                 (A) (A) (A) (A) (A) (A) (A) (A) (A) (A) (A) (A)
                 (A) (A) (A) (A) (A) (A) (A) (A) (A) (A) (A) (A)
                 (A) (A) (A) (A) (A) (A) (A) (A) (A) (A) (A) (A)
                 (A) (A) (A) (A) (A) (A) (A) (A) (A) (A) (A) (A)
                 (A) (A) (A) (A) (A) (A) (A) (A) (A) (A) (A)
 The electronic state is 1-A.
 Alpha  occ. eigenvalues --  -18.76742  -9.98359  -9.91386  -9.91254  -9.90272
 Alpha  occ. eigenvalues --   -9.89944  -9.89874  -9.89184  -9.88535  -9.88323
 Alpha  occ. eigenvalues --   -9.88182  -0.96114  -0.80830  -0.69508  -0.69088
 Alpha  occ. eigenvalues --   -0.66685  -0.61118  -0.60126  -0.57428  -0.52370
 Alpha  occ. eigenvalues --   -0.48307  -0.44956  -0.43587  -0.42996  -0.42127
 Alpha  occ. eigenvalues --   -0.39667  -0.37673  -0.36641  -0.35826  -0.35291
 Alpha  occ. eigenvalues --   -0.34834  -0.34253  -0.33389  -0.32620  -0.32054
 Alpha  occ. eigenvalues --   -0.30189  -0.29973  -0.29225  -0.28159  -0.27259
 Alpha  occ. eigenvalues --   -0.25951  -0.20844
 Alpha virt. eigenvalues --   -0.06486   0.01786   0.04400   0.04845   0.05309
 Alpha virt. eigenvalues --    0.06171   0.07367   0.08394   0.08862   0.09393
 Alpha virt. eigenvalues --    0.09663   0.10042   0.10830   0.11432   0.11691
 Alpha virt. eigenvalues --    0.11981   0.13165   0.13203   0.14263   0.14856
 Alpha virt. eigenvalues --    0.15287   0.16568   0.16850   0.17303   0.18429
 Alpha virt. eigenvalues --    0.19228   0.19862   0.20542   0.21050   0.21754
 Alpha virt. eigenvalues --    0.23520   0.24898   0.26265   0.26948   0.27501
 Alpha virt. eigenvalues --    0.28410   0.29744   0.30376   0.31615   0.33117
 Alpha virt. eigenvalues --    0.33906   0.34530   0.34830   0.36076   0.36917
 Alpha virt. eigenvalues --    0.37133   0.37651   0.39038   0.39260   0.39598
 Alpha virt. eigenvalues --    0.40017   0.40656   0.41319   0.41583   0.42236
 Alpha virt. eigenvalues --    0.42624   0.42827   0.43520   0.44201   0.44581
 Alpha virt. eigenvalues --    0.44887   0.45665   0.45866   0.46404   0.46878
 Alpha virt. eigenvalues --    0.48044   0.48596   0.49479   0.49853   0.50397
 Alpha virt. eigenvalues --    0.51339   0.52062   0.53439   0.54131   0.55222
 Alpha virt. eigenvalues --    0.57350   0.60635   0.63870   0.64821   0.65853
 Alpha virt. eigenvalues --    0.68297   0.70033   0.72097   0.73162   0.73965
 Alpha virt. eigenvalues --    0.76686   0.78450   0.80802   0.89833   1.05586
 Alpha virt. eigenvalues --    1.08493   1.15301   1.17663   1.19919   1.21077
 Alpha virt. eigenvalues --    1.22530   1.23088   1.23875   1.24416   1.25087
 Alpha virt. eigenvalues --    1.26861   1.27247   1.27854   1.28423   1.29505
 Alpha virt. eigenvalues --    1.30126   1.30459   1.31406   1.32485   1.34106
 Alpha virt. eigenvalues --    1.35343   1.35982   1.36393   1.36609   1.38111
 Alpha virt. eigenvalues --    1.39972   1.40830   1.41790   1.43486   1.43645
 Alpha virt. eigenvalues --    1.44897   1.46044   1.47556   1.49034   1.50133
 Alpha virt. eigenvalues --    1.51053   1.51408   1.52483   1.54436   1.56821
 Alpha virt. eigenvalues --    1.58364   1.59357   1.60893   1.61255   1.62357
 Alpha virt. eigenvalues --    1.63884   1.64604   1.65177   1.66530   1.67292
 Alpha virt. eigenvalues --    1.67856   1.68736   1.70735   1.71661   1.72505
 Alpha virt. eigenvalues --    1.73901   1.74163   1.74915   1.75916   1.77027
 Alpha virt. eigenvalues --    1.77801   1.78336   1.79202   1.80184   1.83141
 Alpha virt. eigenvalues --    1.84018   1.84681   1.86956   1.88633   1.91159
 Alpha virt. eigenvalues --    1.91620   1.94122   1.96585   1.98535   2.00383
 Alpha virt. eigenvalues --    2.02572   2.05599   2.05864   2.06389   2.08726
 Alpha virt. eigenvalues --    2.10950   2.11508   2.13318   2.15890   2.19062
 Alpha virt. eigenvalues --    2.19881   2.21131   2.22936   2.24184   2.26247
 Alpha virt. eigenvalues --    2.26449   2.27447   2.29769   2.31119   2.31179
 Alpha virt. eigenvalues --    2.31878   2.34373   2.37529   2.38731   2.38780
 Alpha virt. eigenvalues --    2.39973   2.40866   2.41928   2.45050   2.48086
 Alpha virt. eigenvalues --    2.49994   2.51485   2.52189   2.53315   2.53974
 Alpha virt. eigenvalues --    2.56550   2.58371   2.58621   2.59803   2.60989
 Alpha virt. eigenvalues --    2.62329   2.62735   2.63860   2.64457   2.64793
 Alpha virt. eigenvalues --    2.66031   2.67670   2.67879   2.70610   2.72963
 Alpha virt. eigenvalues --    2.74139   2.75392   2.80303   2.81259   2.84091
 Alpha virt. eigenvalues --    2.84929   2.88849   2.92891   2.97071   3.01055
 Alpha virt. eigenvalues --    3.05446   3.07267   3.08974   3.10300   3.11597
 Alpha virt. eigenvalues --    3.13231   3.16446   3.17838   3.18562   3.22987
 Alpha virt. eigenvalues --    3.26343   3.27533   3.28250   3.29282   3.29911
 Alpha virt. eigenvalues --    3.30486   3.32909   3.36877   3.38642   3.39695
 Alpha virt. eigenvalues --    3.42278   3.43714   3.43954   3.45069   3.49169
 Alpha virt. eigenvalues --    3.50173   4.19444  21.83516  21.84643  21.87320
 Alpha virt. eigenvalues --   21.87501  21.90153  21.97120  22.01170  22.03244
 Alpha virt. eigenvalues --   22.14072  22.23481  43.21148
          Condensed to atoms (all electrons):
               1          2          3          4          5          6
     1  C    5.166371   0.184810  -0.067903   0.014234   0.020101   0.028220
     2  C    0.184810   7.177939   0.257157  -0.121186   0.264387  -0.448657
     3  C   -0.067903   0.257157   5.495230   0.182995  -0.024238   0.004920
     4  C    0.014234  -0.121186   0.182995   5.360878   0.109418  -0.047864
     5  C    0.020101   0.264387  -0.024238   0.109418   6.261402  -0.094178
     6  C    0.028220  -0.448657   0.004920  -0.047864  -0.094178   5.803102
     7  C   -0.100036  -0.214981  -0.097701   0.055509  -0.204437   0.370637
     8  O    0.023498  -0.171694  -0.016203   0.003087   0.015420  -0.119377
     9  C   -0.095690  -0.587114  -0.173509   0.012614  -0.397357   0.068499
    10  C   -0.000185  -0.028028  -0.012074  -0.008765  -0.053967  -0.000878
    11  C   -0.003178  -0.120315   0.021112   0.016476  -0.069553   0.000719
    12  H    0.423076  -0.056604  -0.014387   0.001499  -0.005155   0.002594
    13  H    0.415535  -0.037013   0.013903  -0.001591   0.002932  -0.000260
    14  H    0.413563  -0.036232  -0.011753   0.000483   0.000984  -0.000060
    15  H   -0.000986  -0.040565   0.360242   0.003333  -0.017678   0.006337
    16  H   -0.010973  -0.062057   0.436673  -0.042939   0.012948  -0.005316
    17  H   -0.000921  -0.013261  -0.005054   0.366910  -0.014060  -0.007815
    18  H   -0.000570  -0.000284  -0.038788   0.434860  -0.062664   0.012011
    19  H   -0.000255   0.006118   0.009962  -0.011855   0.354985   0.004663
    20  H   -0.000936   0.003763   0.005733  -0.013093   0.003846   0.355181
    21  H   -0.001074   0.009141  -0.001108   0.008466  -0.037501   0.377590
    22  H    0.001242  -0.014173  -0.000794  -0.001807   0.017157  -0.001274
    23  H   -0.000093   0.018731  -0.002619   0.001447  -0.012972   0.001267
    24  H   -0.000175  -0.016231   0.005893   0.005972  -0.018163   0.000125
    25  H    0.000252   0.020983  -0.001424   0.000898  -0.014854   0.004187
    26  H   -0.001213  -0.016719  -0.000690  -0.000540  -0.016431   0.001336
    27  H   -0.000344  -0.006743   0.001138  -0.001756   0.020126  -0.003587
               7          8          9         10         11         12
     1  C   -0.100036   0.023498  -0.095690  -0.000185  -0.003178   0.423076
     2  C   -0.214981  -0.171694  -0.587114  -0.028028  -0.120315  -0.056604
     3  C   -0.097701  -0.016203  -0.173509  -0.012074   0.021112  -0.014387
     4  C    0.055509   0.003087   0.012614  -0.008765   0.016476   0.001499
     5  C   -0.204437   0.015420  -0.397357  -0.053967  -0.069553  -0.005155
     6  C    0.370637  -0.119377   0.068499  -0.000878   0.000719   0.002594
     7  C    5.378901   0.685977   0.090915  -0.009015   0.022738  -0.013548
     8  O    0.685977   7.873243   0.005811  -0.001562   0.001574   0.010009
     9  C    0.090915   0.005811   7.038112   0.187089   0.260128   0.022041
    10  C   -0.009015  -0.001562   0.187089   5.229598  -0.113168  -0.000941
    11  C    0.022738   0.001574   0.260128  -0.113168   5.185066  -0.000505
    12  H   -0.013548   0.010009   0.022041  -0.000941  -0.000505   0.528220
    13  H   -0.010737   0.001198  -0.019765  -0.001679   0.005055  -0.026343
    14  H    0.015876   0.000510  -0.014234   0.002135  -0.001354  -0.024914
    15  H    0.007818   0.004571   0.022667   0.000203  -0.000498   0.004131
    16  H    0.009042  -0.000518  -0.001692   0.006649  -0.000873  -0.001027
    17  H    0.001784  -0.000284   0.011956   0.000985  -0.000525  -0.000059
    18  H   -0.000714   0.000047   0.006378   0.002044  -0.000613   0.000022
    19  H    0.001803  -0.000221  -0.013852  -0.004082  -0.001121   0.000019
    20  H   -0.020759   0.003759   0.004827  -0.000078   0.000768  -0.000078
    21  H   -0.023121   0.002658   0.007598   0.000115   0.000030  -0.000048
    22  H    0.001003   0.000017  -0.042785   0.417183  -0.012276  -0.000144
    23  H   -0.000235   0.000014  -0.042966   0.407713  -0.007627   0.000039
    24  H   -0.000153   0.000019  -0.019998   0.398127   0.012879   0.000001
    25  H   -0.003837  -0.000013  -0.042340  -0.007561   0.406938   0.000037
    26  H    0.013025  -0.001069  -0.013609   0.013394   0.389761  -0.000058
    27  H   -0.003208   0.000025  -0.051610  -0.010715   0.419229  -0.000160
              13         14         15         16         17         18
     1  C    0.415535   0.413563  -0.000986  -0.010973  -0.000921  -0.000570
     2  C   -0.037013  -0.036232  -0.040565  -0.062057  -0.013261  -0.000284
     3  C    0.013903  -0.011753   0.360242   0.436673  -0.005054  -0.038788
     4  C   -0.001591   0.000483   0.003333  -0.042939   0.366910   0.434860
     5  C    0.002932   0.000984  -0.017678   0.012948  -0.014060  -0.062664
     6  C   -0.000260  -0.000060   0.006337  -0.005316  -0.007815   0.012011
     7  C   -0.010737   0.015876   0.007818   0.009042   0.001784  -0.000714
     8  O    0.001198   0.000510   0.004571  -0.000518  -0.000284   0.000047
     9  C   -0.019765  -0.014234   0.022667  -0.001692   0.011956   0.006378
    10  C   -0.001679   0.002135   0.000203   0.006649   0.000985   0.002044
    11  C    0.005055  -0.001354  -0.000498  -0.000873  -0.000525  -0.000613
    12  H   -0.026343  -0.024914   0.004131  -0.001027  -0.000059   0.000022
    13  H    0.526454  -0.023422  -0.000366   0.000018   0.000031   0.000018
    14  H   -0.023422   0.515835  -0.000036   0.003518   0.000012  -0.000075
    15  H   -0.000366  -0.000036   0.503293  -0.011894  -0.007988   0.003028
    16  H    0.000018   0.003518  -0.011894   0.472923   0.003014  -0.004930
    17  H    0.000031   0.000012  -0.007988   0.003014   0.515567  -0.013473
    18  H    0.000018  -0.000075   0.003028  -0.004930  -0.013473   0.487162
    19  H    0.000007   0.000016  -0.000445  -0.000200   0.001852  -0.005841
    20  H   -0.000002   0.000013  -0.001080   0.000150   0.003212  -0.000192
    21  H    0.000017   0.000012  -0.000111   0.000070   0.000139  -0.000177
    22  H    0.000378   0.000716  -0.000104   0.000408   0.000040   0.000011
    23  H   -0.000050   0.000019   0.000043  -0.000266  -0.000148   0.000391
    24  H    0.000033   0.000073   0.000281  -0.001325   0.000289  -0.001744
    25  H   -0.000062  -0.000059   0.000025   0.000007  -0.000012   0.000030
    26  H   -0.000003   0.000011  -0.000029   0.000005  -0.000017   0.000009
    27  H    0.000550   0.000395  -0.000020   0.000087   0.000026   0.000002
              19         20         21         22         23         24
     1  C   -0.000255  -0.000936  -0.001074   0.001242  -0.000093  -0.000175
     2  C    0.006118   0.003763   0.009141  -0.014173   0.018731  -0.016231
     3  C    0.009962   0.005733  -0.001108  -0.000794  -0.002619   0.005893
     4  C   -0.011855  -0.013093   0.008466  -0.001807   0.001447   0.005972
     5  C    0.354985   0.003846  -0.037501   0.017157  -0.012972  -0.018163
     6  C    0.004663   0.355181   0.377590  -0.001274   0.001267   0.000125
     7  C    0.001803  -0.020759  -0.023121   0.001003  -0.000235  -0.000153
     8  O   -0.000221   0.003759   0.002658   0.000017   0.000014   0.000019
     9  C   -0.013852   0.004827   0.007598  -0.042785  -0.042966  -0.019998
    10  C   -0.004082  -0.000078   0.000115   0.417183   0.407713   0.398127
    11  C   -0.001121   0.000768   0.000030  -0.012276  -0.007627   0.012879
    12  H    0.000019  -0.000078  -0.000048  -0.000144   0.000039   0.000001
    13  H    0.000007  -0.000002   0.000017   0.000378  -0.000050   0.000033
    14  H    0.000016   0.000013   0.000012   0.000716   0.000019   0.000073
    15  H   -0.000445  -0.001080  -0.000111  -0.000104   0.000043   0.000281
    16  H   -0.000200   0.000150   0.000070   0.000408  -0.000266  -0.001325
    17  H    0.001852   0.003212   0.000139   0.000040  -0.000148   0.000289
    18  H   -0.005841  -0.000192  -0.000177   0.000011   0.000391  -0.001744
    19  H    0.474697  -0.000448  -0.003590  -0.000217   0.002629   0.000087
    20  H   -0.000448   0.471642  -0.001698   0.000017  -0.000010  -0.000040
    21  H   -0.003590  -0.001698   0.455600   0.000017  -0.000057  -0.000002
    22  H   -0.000217   0.000017   0.000017   0.524464  -0.025936  -0.023563
    23  H    0.002629  -0.000010  -0.000057  -0.025936   0.524141  -0.022106
    24  H    0.000087  -0.000040  -0.000002  -0.023563  -0.022106   0.523098
    25  H    0.002135  -0.000124  -0.000086  -0.000102   0.004448  -0.000094
    26  H    0.000045   0.000569  -0.001996   0.000087  -0.000106  -0.000368
    27  H   -0.000213   0.000032   0.000248   0.004861  -0.000221   0.000057
              25         26         27
     1  C    0.000252  -0.001213  -0.000344
     2  C    0.020983  -0.016719  -0.006743
     3  C   -0.001424  -0.000690   0.001138
     4  C    0.000898  -0.000540  -0.001756
     5  C   -0.014854  -0.016431   0.020126
     6  C    0.004187   0.001336  -0.003587
     7  C   -0.003837   0.013025  -0.003208
     8  O   -0.000013  -0.001069   0.000025
     9  C   -0.042340  -0.013609  -0.051610
    10  C   -0.007561   0.013394  -0.010715
    11  C    0.406938   0.389761   0.419229
    12  H    0.000037  -0.000058  -0.000160
    13  H   -0.000062  -0.000003   0.000550
    14  H   -0.000059   0.000011   0.000395
    15  H    0.000025  -0.000029  -0.000020
    16  H    0.000007   0.000005   0.000087
    17  H   -0.000012  -0.000017   0.000026
    18  H    0.000030   0.000009   0.000002
    19  H    0.002135   0.000045  -0.000213
    20  H   -0.000124   0.000569   0.000032
    21  H   -0.000086  -0.001996   0.000248
    22  H   -0.000102   0.000087   0.004861
    23  H    0.004448  -0.000106  -0.000221
    24  H   -0.000094  -0.000368   0.000057
    25  H    0.522457  -0.021201  -0.026032
    26  H   -0.021201   0.524843  -0.023690
    27  H   -0.026032  -0.023690   0.524413
 Mulliken charges:
               1
     1  C   -0.406369
     2  C    0.048829
     3  C   -0.326713
     4  C   -0.327682
     5  C   -0.040497
     6  C   -0.312122
     7  C    0.047455
     8  O   -0.320497
     9  C   -0.222117
    10  C   -0.412535
    11  C   -0.410867
    12  H    0.152285
    13  H    0.155163
    14  H    0.157967
    15  H    0.165828
    16  H    0.198498
    17  H    0.157802
    18  H    0.184052
    19  H    0.183322
    20  H    0.185028
    21  H    0.208866
    22  H    0.155578
    23  H    0.154532
    24  H    0.157029
    25  H    0.155404
    26  H    0.154653
    27  H    0.157110
 Sum of Mulliken charges =  -0.00000
 Mulliken charges with hydrogens summed into heavy atoms:
               1
     1  C    0.059046
     2  C    0.048829
     3  C    0.037613
     4  C    0.014172
     5  C    0.142825
     6  C    0.081772
     7  C    0.047455
     8  O   -0.320497
     9  C   -0.222117
    10  C    0.054603
    11  C    0.056301
 Electronic spatial extent (au):  <R**2>=           1491.0663
 Charge=             -0.0000 electrons
 Dipole moment (field-independent basis, Debye):
    X=              4.3950    Y=              1.4053    Z=              0.2046  Tot=              4.6188
 Quadrupole moment (field-independent basis, Debye-Ang):
   XX=            -81.2564   YY=            -66.9044   ZZ=            -66.1104
   XY=             -3.3132   XZ=             -1.0977   YZ=             -0.6825
 Traceless Quadrupole moment (field-independent basis, Debye-Ang):
   XX=             -9.8327   YY=              4.5193   ZZ=              5.3133
   XY=             -3.3132   XZ=             -1.0977   YZ=             -0.6825
 Octapole moment (field-independent basis, Debye-Ang**2):
  XXX=             35.5268  YYY=              1.9953  ZZZ=             -2.4959  XYY=             -2.7031
  XXY=              9.1875  XXZ=              4.3543  XZZ=             -1.7020  YZZ=              1.5538
  YYZ=             -0.8753  XYZ=             -0.2038
 Hexadecapole moment (field-independent basis, Debye-Ang**3):
 XXXX=           -930.3698 YYYY=           -653.3951 ZZZZ=           -555.9596 XXXY=            -11.3637
 XXXZ=            -17.4542 YYYX=             -9.7354 YYYZ=              0.4872 ZZZX=              5.9291
 ZZZY=             -6.1358 XXYY=           -243.7610 XXZZ=           -221.1459 YYZZ=           -206.5527
 XXYZ=             -2.1481 YYXZ=              2.2722 ZZXY=              1.7268
 N-N= 6.842397472226D+02 E-N=-2.451189202688D+03  KE= 4.636637205457D+02
 Unable to Open any file for archive entry.
 1\1\GINC-TCN1638\SP\RBP86\TZVP\C10H16O1\ELENAA\22-Feb-2021\0\\# BP86/T
 ZVP SCRF=COSMORS geom=CHECKPOINT guess=CHECKPOINT\\COSMO-file for #DSS
 YKIVIOFKYAU-UHFFFAOYSA-N\\0,1\C,0,-0.2057048061,-2.5341754003,0.417578
 2268\C,0,-0.9322167527,-1.2635094634,0.0275770348\C,0,-1.6753384991,-1
 .3157277546,-1.3555294233\C,0,-2.6853965092,-0.1274512817,-1.302209543
 5\C,0,-2.362620463,0.5307349659,0.0619574274\C,0,-0.9752230891,1.19171
 7598,-0.0886967061\C,0,-0.043729644,-0.0266141686,-0.1205189152\O,0,1.
 1729506507,-0.0079400432,-0.2574398717\C,0,-2.0530354518,-0.7022199597
 ,0.9772201356\C,0,-3.2451971645,-1.6521867847,1.1613533081\C,0,-1.5262
 152774,-0.3305654922,2.3748011673\H,0,0.5661202548,-2.7832247335,-0.32
 62276257\H,0,0.2927824887,-2.4231084975,1.3923469911\H,0,-0.9071460063
 ,-3.3795411516,0.4800969469\H,0,-0.9672106844,-1.2448101919,-2.1941569
 26\H,0,-2.1824788112,-2.287668514,-1.4450173023\H,0,-2.5469358119,0.57
 9451706,-2.1328171819\H,0,-3.7252316445,-0.4798415299,-1.3450986185\H,
 0,-3.1436819482,1.201530526,0.4446607235\H,0,-0.8583807067,1.793321527
 3,-1.0031278951\H,0,-0.7038222126,1.8363424963,0.7610772109\H,0,-2.946
 1996132,-2.5319667619,1.7517204063\H,0,-4.0478226933,-1.1373778225,1.7
 13086612\H,0,-3.6699036903,-2.015652632,0.2168676108\H,0,-2.287790398,
 0.2393298152,2.9293808868\H,0,-0.6058554002,0.2706447887,2.3542796812\
 H,0,-1.3042461166,-1.2412112402,2.9519256396\\Version=ES64L-G16RevC.01
 \State=1-A\HF=-466.0782631\RMSD=6.528e-09\Dipole=-1.8042575,-0.0997245
 ,0.1917753\Quadrupole=-7.4368751,4.0316349,3.4052402,-1.6861456,1.6235
 274,0.3190628\PG=C01 [X(C10H16O1)]\\@
 The archive entry for this job was punched.


 NOTHING PUZZLES ME MORE THAN TIME AND SPACE; AND YET NOTHING TROUBLES ME LESS
                                                          -- CHARLES LAMB (1810)
 Job cpu time:       0 days  0 hours  9 minutes 33.6 seconds.
 Elapsed time:       0 days  0 hours  0 minutes 18.5 seconds.
 File lengths (MBytes):  RWF=     72 Int=      0 D2E=      0 Chk=     11 Scr=      1
 Normal termination of Gaussian 16 at Mon Feb 22 21:02:14 2021.
