 Entering Gaussian System, Link 0=g16
 Input=FBEVECUEMUUFKM-UHFFFAOYSA-M.gjf
 Output=FBEVECUEMUUFKM-UHFFFAOYSA-M.log
 Initial command:
 /sw/arch/RedHatEnterpriseServer7/EB_production/2020/software/Gaussian/g16.c01/l1.exe "/scratch-local/elenaa.10684691/Gau-32495.inp" -scrdir="/scratch-local/elenaa.10684691/"
 Entering Link 1 = /sw/arch/RedHatEnterpriseServer7/EB_production/2020/software/Gaussian/g16.c01/l1.exe PID=     32496.
  
 Copyright (c) 1988-2019, Gaussian, Inc.  All Rights Reserved.
  
 This is part of the Gaussian(R) 16 program.  It is based on
 the Gaussian(R) 09 system (copyright 2009, Gaussian, Inc.),
 the Gaussian(R) 03 system (copyright 2003, Gaussian, Inc.),
 the Gaussian(R) 98 system (copyright 1998, Gaussian, Inc.),
 the Gaussian(R) 94 system (copyright 1995, Gaussian, Inc.),
 the Gaussian 92(TM) system (copyright 1992, Gaussian, Inc.),
 the Gaussian 90(TM) system (copyright 1990, Gaussian, Inc.),
 the Gaussian 88(TM) system (copyright 1988, Gaussian, Inc.),
 the Gaussian 86(TM) system (copyright 1986, Carnegie Mellon
 University), and the Gaussian 82(TM) system (copyright 1983,
 Carnegie Mellon University). Gaussian is a federally registered
 trademark of Gaussian, Inc.
  
 This software contains proprietary and confidential information,
 including trade secrets, belonging to Gaussian, Inc.
  
 This software is provided under written license and may be
 used, copied, transmitted, or stored only in accord with that
 written license.
  
 The following legend is applicable only to US Government
 contracts under FAR:
  
                    RESTRICTED RIGHTS LEGEND
  
 Use, reproduction and disclosure by the US Government is
 subject to restrictions as set forth in subparagraphs (a)
 and (c) of the Commercial Computer Software - Restricted
 Rights clause in FAR 52.227-19.
  
 Gaussian, Inc.
 340 Quinnipiac St., Bldg. 40, Wallingford CT 06492
  
  
 ---------------------------------------------------------------
 Warning -- This program may not be used in any manner that
 competes with the business of Gaussian, Inc. or will provide
 assistance to any competitor of Gaussian, Inc.  The licensee
 of this program is prohibited from giving any competitor of
 Gaussian, Inc. access to this program.  By using this program,
 the user acknowledges that Gaussian, Inc. is engaged in the
 business of creating and licensing software in the field of
 computational chemistry and represents and warrants to the
 licensee that it is not a competitor of Gaussian, Inc. and that
 it will not use this program in any manner prohibited above.
 ---------------------------------------------------------------
  

 Cite this work as:
 Gaussian 16, Revision C.01,
 M. J. Frisch, G. W. Trucks, H. B. Schlegel, G. E. Scuseria, 
 M. A. Robb, J. R. Cheeseman, G. Scalmani, V. Barone, 
 G. A. Petersson, H. Nakatsuji, X. Li, M. Caricato, A. V. Marenich, 
 J. Bloino, B. G. Janesko, R. Gomperts, B. Mennucci, H. P. Hratchian, 
 J. V. Ortiz, A. F. Izmaylov, J. L. Sonnenberg, D. Williams-Young, 
 F. Ding, F. Lipparini, F. Egidi, J. Goings, B. Peng, A. Petrone, 
 T. Henderson, D. Ranasinghe, V. G. Zakrzewski, J. Gao, N. Rega, 
 G. Zheng, W. Liang, M. Hada, M. Ehara, K. Toyota, R. Fukuda, 
 J. Hasegawa, M. Ishida, T. Nakajima, Y. Honda, O. Kitao, H. Nakai, 
 T. Vreven, K. Throssell, J. A. Montgomery, Jr., J. E. Peralta, 
 F. Ogliaro, M. J. Bearpark, J. J. Heyd, E. N. Brothers, K. N. Kudin, 
 V. N. Staroverov, T. A. Keith, R. Kobayashi, J. Normand, 
 K. Raghavachari, A. P. Rendell, J. C. Burant, S. S. Iyengar, 
 J. Tomasi, M. Cossi, J. M. Millam, M. Klene, C. Adamo, R. Cammi, 
 J. W. Ochterski, R. L. Martin, K. Morokuma, O. Farkas, 
 J. B. Foresman, and D. J. Fox, Gaussian, Inc., Wallingford CT, 2019.
 
 ******************************************
 Gaussian 16:  ES64L-G16RevC.01  3-Jul-2019
                21-Aug-2021 
 ******************************************
 %chk=FBEVECUEMUUFKM-UHFFFAOYSA-M.chk
 %NProcShared=24
 Will use up to   24 processors via shared memory.
 -------------------------------------------------------------
 #P BP86/TZVP EmpiricalDispersion=GD3 SCRF=(Solvent=Water) Opt
 -------------------------------------------------------------
 1/18=20,19=15,26=3,38=1/1,3;
 2/9=110,12=2,17=6,18=5,40=1/2;
 3/5=19,7=101,11=2,25=1,30=1,70=2201,71=1,72=1,74=404,124=31/1,2,3;
 4//1;
 5/5=2,38=5,53=1/2;
 6/7=2,8=2,9=2,10=2,28=1/1;
 7//1,2,3,16;
 1/18=20,19=15,26=3/3(2);
 2/9=110/2;
 99//99;
 2/9=110/2;
 3/5=19,7=101,11=2,25=1,30=1,70=2205,71=1,72=1,74=404,124=31/1,2,3;
 4/5=5,16=3,69=1/1;
 5/5=2,38=5,53=1/2;
 7//1,2,3,16;
 1/18=20,19=15,26=3/3(-5);
 2/9=110/2;
 6/7=2,8=2,9=2,10=2,19=2,28=1/1;
 99/9=1/99;
 Leave Link    1 at Sat Aug 21 09:31:10 2021, MaxMem=           0 cpu:               2.8 elap:               0.2
 (Enter /sw/arch/RedHatEnterpriseServer7/EB_production/2020/software/Gaussian/g16.c01/l101.exe)
 -------------------------------------
 Particle #FBEVECUEMUUFKM-UHFFFAOYSA-M
 -------------------------------------
 Symbolic Z-matrix:
 Charge =  0 Multiplicity = 1
 C                     1.30596   0.04874   3.77123 
 C                     1.5411   -0.02077   2.26442 
 C                     0.32275  -0.6448    1.53451 
 N                     0.30027  -0.44705   0.0458 
 C                    -0.76946  -1.25025  -0.65216 
 C                    -2.25951  -0.87254  -0.44766 
 C                    -2.86174  -1.29014   0.89754 
 C                     1.62628  -0.83331  -0.57064 
 C                     2.07618  -2.29907  -0.38559 
 C                     3.46683  -2.52007  -0.97726 
 C                     0.11895   1.01914  -0.3107 
 C                    -0.75101   1.89641   0.63522 
 C                    -1.07171   3.24304  -0.00933 
 Cl                    0.24271   0.05928  -3.76595 
 H                     1.10435  -0.96564   4.17685 
 H                     2.20872   0.45915   4.27091 
 H                     0.44433   0.71273   3.99653 
 H                     1.76073   1.0011    1.89608 
 H                     2.44541  -0.6421    2.09345 
 H                     0.31839  -1.70389   1.79335 
 H                    -0.59699  -0.25417   1.99975 
 H                    -0.67548  -2.31762  -0.44566 
 H                    -0.6092   -1.18676  -1.75393 
 H                    -2.8256   -1.43641  -1.22228 
 H                    -2.47099   0.187    -0.68323 
 H                    -2.74083  -0.49949   1.66144 
 H                    -2.41719  -2.2383    1.26197 
 H                    -3.95463  -1.4481    0.77715 
 H                     1.60768  -0.62994  -1.66751 
 H                     2.44595  -0.18733  -0.1839 
 H                     2.12785  -2.56288   0.68857 
 H                     1.38438  -2.98838  -0.90978 
 H                     3.46785  -2.28374  -2.06277 
 H                     3.76262  -3.58241  -0.8459 
 H                     4.21354  -1.8794   -0.46133 
 H                    -0.27692   1.11331  -1.3486 
 H                     1.09865   1.54931  -0.35318 
 H                    -0.20641   2.10266   1.57912 
 H                    -1.70563   1.42018   0.91131 
 H                    -0.13475   3.78205  -0.26561 
 H                    -1.67451   3.09515  -0.93061 
 H                    -1.65703   3.86625   0.69945 
 
 Add virtual bond connecting atoms H23        and Cl14       Dist= 4.75D+00.
 Add virtual bond connecting atoms H29        and Cl14       Dist= 4.91D+00.
 ITRead=  0  0  0  0  0  0  0  0  0  0  0  0  0  0  0  0  0  0  0  0
 ITRead=  0  0  0  0  0  0  0  0  0  0  0  0  0  0  0  0  0  0  0  0
 ITRead=  0  0
 MicOpt= -1 -1 -1 -1 -1 -1 -1 -1 -1 -1 -1 -1 -1 -1 -1 -1 -1 -1 -1 -1
 MicOpt= -1 -1 -1 -1 -1 -1 -1 -1 -1 -1 -1 -1 -1 -1 -1 -1 -1 -1 -1 -1
 MicOpt= -1 -1
 NAtoms=     42 NQM=       42 NQMF=       0 NMMI=      0 NMMIF=      0
                NMic=       0 NMicF=      0.
                    Isotopes and Nuclear Properties:
 (Nuclear quadrupole moments (NQMom) in fm**2, nuclear magnetic moments (NMagM)
  in nuclear magnetons)

  Atom         1           2           3           4           5           6           7           8           9          10
 IAtWgt=          12          12          12          14          12          12          12          12          12          12
 AtmWgt=  12.0000000  12.0000000  12.0000000  14.0030740  12.0000000  12.0000000  12.0000000  12.0000000  12.0000000  12.0000000
 NucSpn=           0           0           0           2           0           0           0           0           0           0
 AtZEff=  -0.0000000  -0.0000000  -0.0000000  -0.0000000  -0.0000000  -0.0000000  -0.0000000  -0.0000000  -0.0000000  -0.0000000
 NQMom=    0.0000000   0.0000000   0.0000000   2.0440000   0.0000000   0.0000000   0.0000000   0.0000000   0.0000000   0.0000000
 NMagM=    0.0000000   0.0000000   0.0000000   0.4037610   0.0000000   0.0000000   0.0000000   0.0000000   0.0000000   0.0000000
 AtZNuc=   6.0000000   6.0000000   6.0000000   7.0000000   6.0000000   6.0000000   6.0000000   6.0000000   6.0000000   6.0000000

  Atom        11          12          13          14          15          16          17          18          19          20
 IAtWgt=          12          12          12          35           1           1           1           1           1           1
 AtmWgt=  12.0000000  12.0000000  12.0000000  34.9688527   1.0078250   1.0078250   1.0078250   1.0078250   1.0078250   1.0078250
 NucSpn=           0           0           0           3           1           1           1           1           1           1
 AtZEff=  -0.0000000  -0.0000000  -0.0000000  -0.0000000  -0.0000000  -0.0000000  -0.0000000  -0.0000000  -0.0000000  -0.0000000
 NQMom=    0.0000000   0.0000000   0.0000000  -8.1650000   0.0000000   0.0000000   0.0000000   0.0000000   0.0000000   0.0000000
 NMagM=    0.0000000   0.0000000   0.0000000   0.8218740   2.7928460   2.7928460   2.7928460   2.7928460   2.7928460   2.7928460
 AtZNuc=   6.0000000   6.0000000   6.0000000  17.0000000   1.0000000   1.0000000   1.0000000   1.0000000   1.0000000   1.0000000

  Atom        21          22          23          24          25          26          27          28          29          30
 IAtWgt=           1           1           1           1           1           1           1           1           1           1
 AtmWgt=   1.0078250   1.0078250   1.0078250   1.0078250   1.0078250   1.0078250   1.0078250   1.0078250   1.0078250   1.0078250
 NucSpn=           1           1           1           1           1           1           1           1           1           1
 AtZEff=  -0.0000000  -0.0000000  -0.0000000  -0.0000000  -0.0000000  -0.0000000  -0.0000000  -0.0000000  -0.0000000  -0.0000000
 NQMom=    0.0000000   0.0000000   0.0000000   0.0000000   0.0000000   0.0000000   0.0000000   0.0000000   0.0000000   0.0000000
 NMagM=    2.7928460   2.7928460   2.7928460   2.7928460   2.7928460   2.7928460   2.7928460   2.7928460   2.7928460   2.7928460
 AtZNuc=   1.0000000   1.0000000   1.0000000   1.0000000   1.0000000   1.0000000   1.0000000   1.0000000   1.0000000   1.0000000

  Atom        31          32          33          34          35          36          37          38          39          40
 IAtWgt=           1           1           1           1           1           1           1           1           1           1
 AtmWgt=   1.0078250   1.0078250   1.0078250   1.0078250   1.0078250   1.0078250   1.0078250   1.0078250   1.0078250   1.0078250
 NucSpn=           1           1           1           1           1           1           1           1           1           1
 AtZEff=  -0.0000000  -0.0000000  -0.0000000  -0.0000000  -0.0000000  -0.0000000  -0.0000000  -0.0000000  -0.0000000  -0.0000000
 NQMom=    0.0000000   0.0000000   0.0000000   0.0000000   0.0000000   0.0000000   0.0000000   0.0000000   0.0000000   0.0000000
 NMagM=    2.7928460   2.7928460   2.7928460   2.7928460   2.7928460   2.7928460   2.7928460   2.7928460   2.7928460   2.7928460
 AtZNuc=   1.0000000   1.0000000   1.0000000   1.0000000   1.0000000   1.0000000   1.0000000   1.0000000   1.0000000   1.0000000

  Atom        41          42
 IAtWgt=           1           1
 AtmWgt=   1.0078250   1.0078250
 NucSpn=           1           1
 AtZEff=  -0.0000000  -0.0000000
 NQMom=    0.0000000   0.0000000
 NMagM=    2.7928460   2.7928460
 AtZNuc=   1.0000000   1.0000000
 Leave Link  101 at Sat Aug 21 09:31:10 2021, MaxMem=   104857600 cpu:               2.0 elap:               0.1
 (Enter /sw/arch/RedHatEnterpriseServer7/EB_production/2020/software/Gaussian/g16.c01/l103.exe)

 GradGradGradGradGradGradGradGradGradGradGradGradGradGradGradGradGradGrad
 Berny optimization.
 Initialization pass.
                           ----------------------------
                           !    Initial Parameters    !
                           ! (Angstroms and Degrees)  !
 --------------------------                            --------------------------
 ! Name  Definition              Value          Derivative Info.                !
 --------------------------------------------------------------------------------
 ! R1    R(1,2)                  1.5266         estimate D2E/DX2                !
 ! R2    R(1,15)                 1.1109         estimate D2E/DX2                !
 ! R3    R(1,16)                 1.1104         estimate D2E/DX2                !
 ! R4    R(1,17)                 1.1109         estimate D2E/DX2                !
 ! R5    R(2,3)                  1.5513         estimate D2E/DX2                !
 ! R6    R(2,18)                 1.1082         estimate D2E/DX2                !
 ! R7    R(2,19)                 1.1104         estimate D2E/DX2                !
 ! R8    R(3,4)                  1.502          estimate D2E/DX2                !
 ! R9    R(3,20)                 1.0903         estimate D2E/DX2                !
 ! R10   R(3,21)                 1.1023         estimate D2E/DX2                !
 ! R11   R(4,5)                  1.5088         estimate D2E/DX2                !
 ! R12   R(4,8)                  1.5125         estimate D2E/DX2                !
 ! R13   R(4,11)                 1.5198         estimate D2E/DX2                !
 ! R14   R(5,6)                  1.5507         estimate D2E/DX2                !
 ! R15   R(5,22)                 1.0912         estimate D2E/DX2                !
 ! R16   R(5,23)                 1.1152         estimate D2E/DX2                !
 ! R17   R(6,7)                  1.5319         estimate D2E/DX2                !
 ! R18   R(6,24)                 1.1129         estimate D2E/DX2                !
 ! R19   R(6,25)                 1.1058         estimate D2E/DX2                !
 ! R20   R(7,26)                 1.106          estimate D2E/DX2                !
 ! R21   R(7,27)                 1.1088         estimate D2E/DX2                !
 ! R22   R(7,28)                 1.1108         estimate D2E/DX2                !
 ! R23   R(8,9)                  1.5444         estimate D2E/DX2                !
 ! R24   R(8,29)                 1.1157         estimate D2E/DX2                !
 ! R25   R(8,30)                 1.113          estimate D2E/DX2                !
 ! R26   R(9,10)                 1.5274         estimate D2E/DX2                !
 ! R27   R(9,31)                 1.1073         estimate D2E/DX2                !
 ! R28   R(9,32)                 1.1084         estimate D2E/DX2                !
 ! R29   R(10,33)                1.1109         estimate D2E/DX2                !
 ! R30   R(10,34)                1.1105         estimate D2E/DX2                !
 ! R31   R(10,35)                1.111          estimate D2E/DX2                !
 ! R32   R(11,12)                1.556          estimate D2E/DX2                !
 ! R33   R(11,36)                1.1148         estimate D2E/DX2                !
 ! R34   R(11,37)                1.1148         estimate D2E/DX2                !
 ! R35   R(12,13)                1.527          estimate D2E/DX2                !
 ! R36   R(12,38)                1.1091         estimate D2E/DX2                !
 ! R37   R(12,39)                1.102          estimate D2E/DX2                !
 ! R38   R(13,40)                1.1109         estimate D2E/DX2                !
 ! R39   R(13,41)                1.1109         estimate D2E/DX2                !
 ! R40   R(13,42)                1.1106         estimate D2E/DX2                !
 ! R41   R(14,23)                2.5153         estimate D2E/DX2                !
 ! R42   R(14,29)                2.5965         estimate D2E/DX2                !
 ! A1    A(2,1,15)             110.289          estimate D2E/DX2                !
 ! A2    A(2,1,16)             109.6179         estimate D2E/DX2                !
 ! A3    A(2,1,17)             110.2955         estimate D2E/DX2                !
 ! A4    A(15,1,16)            108.706          estimate D2E/DX2                !
 ! A5    A(15,1,17)            109.3272         estimate D2E/DX2                !
 ! A6    A(16,1,17)            108.5659         estimate D2E/DX2                !
 ! A7    A(1,2,3)              111.2077         estimate D2E/DX2                !
 ! A8    A(1,2,18)             108.4573         estimate D2E/DX2                !
 ! A9    A(1,2,19)             107.6302         estimate D2E/DX2                !
 ! A10   A(3,2,18)             111.7275         estimate D2E/DX2                !
 ! A11   A(3,2,19)             110.0027         estimate D2E/DX2                !
 ! A12   A(18,2,19)            107.6603         estimate D2E/DX2                !
 ! A13   A(2,3,4)              115.1603         estimate D2E/DX2                !
 ! A14   A(2,3,20)             106.3911         estimate D2E/DX2                !
 ! A15   A(2,3,21)             108.3109         estimate D2E/DX2                !
 ! A16   A(4,3,20)             111.2939         estimate D2E/DX2                !
 ! A17   A(4,3,21)             111.0517         estimate D2E/DX2                !
 ! A18   A(20,3,21)            103.9292         estimate D2E/DX2                !
 ! A19   A(3,4,5)              113.5171         estimate D2E/DX2                !
 ! A20   A(3,4,8)              110.9303         estimate D2E/DX2                !
 ! A21   A(3,4,11)             111.1807         estimate D2E/DX2                !
 ! A22   A(5,4,8)              107.2833         estimate D2E/DX2                !
 ! A23   A(5,4,11)             108.6916         estimate D2E/DX2                !
 ! A24   A(8,4,11)             104.7961         estimate D2E/DX2                !
 ! A25   A(4,5,6)              119.3784         estimate D2E/DX2                !
 ! A26   A(4,5,22)             111.8453         estimate D2E/DX2                !
 ! A27   A(4,5,23)             108.9551         estimate D2E/DX2                !
 ! A28   A(6,5,22)             107.2203         estimate D2E/DX2                !
 ! A29   A(6,5,23)             104.7443         estimate D2E/DX2                !
 ! A30   A(22,5,23)            103.3132         estimate D2E/DX2                !
 ! A31   A(5,6,7)              115.2871         estimate D2E/DX2                !
 ! A32   A(5,6,24)             105.8771         estimate D2E/DX2                !
 ! A33   A(5,6,25)             112.895          estimate D2E/DX2                !
 ! A34   A(7,6,24)             105.8506         estimate D2E/DX2                !
 ! A35   A(7,6,25)             111.9062         estimate D2E/DX2                !
 ! A36   A(24,6,25)            103.882          estimate D2E/DX2                !
 ! A37   A(6,7,26)             111.6324         estimate D2E/DX2                !
 ! A38   A(6,7,27)             111.3531         estimate D2E/DX2                !
 ! A39   A(6,7,28)             109.2922         estimate D2E/DX2                !
 ! A40   A(26,7,27)            109.9053         estimate D2E/DX2                !
 ! A41   A(26,7,28)            106.5029         estimate D2E/DX2                !
 ! A42   A(27,7,28)            107.9684         estimate D2E/DX2                !
 ! A43   A(4,8,9)              116.6768         estimate D2E/DX2                !
 ! A44   A(4,8,29)             109.8473         estimate D2E/DX2                !
 ! A45   A(4,8,30)             110.8444         estimate D2E/DX2                !
 ! A46   A(9,8,29)             107.1968         estimate D2E/DX2                !
 ! A47   A(9,8,30)             107.1387         estimate D2E/DX2                !
 ! A48   A(29,8,30)            104.3647         estimate D2E/DX2                !
 ! A49   A(8,9,10)             110.8639         estimate D2E/DX2                !
 ! A50   A(8,9,31)             110.8516         estimate D2E/DX2                !
 ! A51   A(8,9,32)             110.5944         estimate D2E/DX2                !
 ! A52   A(10,9,31)            107.3882         estimate D2E/DX2                !
 ! A53   A(10,9,32)            107.1631         estimate D2E/DX2                !
 ! A54   A(31,9,32)            109.8612         estimate D2E/DX2                !
 ! A55   A(9,10,33)            110.4007         estimate D2E/DX2                !
 ! A56   A(9,10,34)            109.5786         estimate D2E/DX2                !
 ! A57   A(9,10,35)            110.4033         estimate D2E/DX2                !
 ! A58   A(33,10,34)           108.5918         estimate D2E/DX2                !
 ! A59   A(33,10,35)           109.2979         estimate D2E/DX2                !
 ! A60   A(34,10,35)           108.5235         estimate D2E/DX2                !
 ! A61   A(4,11,12)            117.9059         estimate D2E/DX2                !
 ! A62   A(4,11,36)            110.0136         estimate D2E/DX2                !
 ! A63   A(4,11,37)            111.279          estimate D2E/DX2                !
 ! A64   A(12,11,36)           108.6514         estimate D2E/DX2                !
 ! A65   A(12,11,37)           104.2641         estimate D2E/DX2                !
 ! A66   A(36,11,37)           103.6756         estimate D2E/DX2                !
 ! A67   A(11,12,13)           110.9785         estimate D2E/DX2                !
 ! A68   A(11,12,38)           110.3454         estimate D2E/DX2                !
 ! A69   A(11,12,39)           113.1409         estimate D2E/DX2                !
 ! A70   A(13,12,38)           107.3591         estimate D2E/DX2                !
 ! A71   A(13,12,39)           107.7548         estimate D2E/DX2                !
 ! A72   A(38,12,39)           107.0088         estimate D2E/DX2                !
 ! A73   A(12,13,40)           110.373          estimate D2E/DX2                !
 ! A74   A(12,13,41)           110.2809         estimate D2E/DX2                !
 ! A75   A(12,13,42)           109.6441         estimate D2E/DX2                !
 ! A76   A(40,13,41)           109.3269         estimate D2E/DX2                !
 ! A77   A(40,13,42)           108.6316         estimate D2E/DX2                !
 ! A78   A(41,13,42)           108.5425         estimate D2E/DX2                !
 ! A79   A(23,14,29)            53.1347         estimate D2E/DX2                !
 ! A80   A(5,23,14)            150.1331         estimate D2E/DX2                !
 ! A81   A(8,29,14)            148.3959         estimate D2E/DX2                !
 ! D1    D(15,1,2,3)            57.9921         estimate D2E/DX2                !
 ! D2    D(15,1,2,18)         -178.7691         estimate D2E/DX2                !
 ! D3    D(15,1,2,19)          -62.5593         estimate D2E/DX2                !
 ! D4    D(16,1,2,3)           177.6468         estimate D2E/DX2                !
 ! D5    D(16,1,2,18)          -59.1144         estimate D2E/DX2                !
 ! D6    D(16,1,2,19)           57.0953         estimate D2E/DX2                !
 ! D7    D(17,1,2,3)           -62.8673         estimate D2E/DX2                !
 ! D8    D(17,1,2,18)           60.3715         estimate D2E/DX2                !
 ! D9    D(17,1,2,19)          176.5812         estimate D2E/DX2                !
 ! D10   D(1,2,3,4)            165.3033         estimate D2E/DX2                !
 ! D11   D(1,2,3,20)           -70.8908         estimate D2E/DX2                !
 ! D12   D(1,2,3,21)            40.3104         estimate D2E/DX2                !
 ! D13   D(18,2,3,4)            43.9575         estimate D2E/DX2                !
 ! D14   D(18,2,3,20)          167.7634         estimate D2E/DX2                !
 ! D15   D(18,2,3,21)          -81.0353         estimate D2E/DX2                !
 ! D16   D(19,2,3,4)           -75.5543         estimate D2E/DX2                !
 ! D17   D(19,2,3,20)           48.2516         estimate D2E/DX2                !
 ! D18   D(19,2,3,21)          159.4528         estimate D2E/DX2                !
 ! D19   D(2,3,4,5)            170.6624         estimate D2E/DX2                !
 ! D20   D(2,3,4,8)             49.7761         estimate D2E/DX2                !
 ! D21   D(2,3,4,11)           -66.4191         estimate D2E/DX2                !
 ! D22   D(20,3,4,5)            49.4847         estimate D2E/DX2                !
 ! D23   D(20,3,4,8)           -71.4016         estimate D2E/DX2                !
 ! D24   D(20,3,4,11)          172.4032         estimate D2E/DX2                !
 ! D25   D(21,3,4,5)           -65.7835         estimate D2E/DX2                !
 ! D26   D(21,3,4,8)           173.3302         estimate D2E/DX2                !
 ! D27   D(21,3,4,11)           57.135          estimate D2E/DX2                !
 ! D28   D(3,4,5,6)             69.4857         estimate D2E/DX2                !
 ! D29   D(3,4,5,22)           -56.7928         estimate D2E/DX2                !
 ! D30   D(3,4,5,23)          -170.3709         estimate D2E/DX2                !
 ! D31   D(8,4,5,6)           -167.598          estimate D2E/DX2                !
 ! D32   D(8,4,5,22)            66.1235         estimate D2E/DX2                !
 ! D33   D(8,4,5,23)           -47.4546         estimate D2E/DX2                !
 ! D34   D(11,4,5,6)           -54.7919         estimate D2E/DX2                !
 ! D35   D(11,4,5,22)          178.9296         estimate D2E/DX2                !
 ! D36   D(11,4,5,23)           65.3515         estimate D2E/DX2                !
 ! D37   D(3,4,8,9)             60.6976         estimate D2E/DX2                !
 ! D38   D(3,4,8,29)          -177.0853         estimate D2E/DX2                !
 ! D39   D(3,4,8,30)           -62.2718         estimate D2E/DX2                !
 ! D40   D(5,4,8,9)            -63.8032         estimate D2E/DX2                !
 ! D41   D(5,4,8,29)            58.4139         estimate D2E/DX2                !
 ! D42   D(5,4,8,30)           173.2274         estimate D2E/DX2                !
 ! D43   D(11,4,8,9)          -179.2279         estimate D2E/DX2                !
 ! D44   D(11,4,8,29)          -57.0108         estimate D2E/DX2                !
 ! D45   D(11,4,8,30)           57.8027         estimate D2E/DX2                !
 ! D46   D(3,4,11,12)          -33.2582         estimate D2E/DX2                !
 ! D47   D(3,4,11,36)         -158.5719         estimate D2E/DX2                !
 ! D48   D(3,4,11,37)           87.1046         estimate D2E/DX2                !
 ! D49   D(5,4,11,12)           92.3932         estimate D2E/DX2                !
 ! D50   D(5,4,11,36)          -32.9206         estimate D2E/DX2                !
 ! D51   D(5,4,11,37)         -147.244          estimate D2E/DX2                !
 ! D52   D(8,4,11,12)         -153.1657         estimate D2E/DX2                !
 ! D53   D(8,4,11,36)           81.5205         estimate D2E/DX2                !
 ! D54   D(8,4,11,37)          -32.8029         estimate D2E/DX2                !
 ! D55   D(4,5,6,7)            -75.902          estimate D2E/DX2                !
 ! D56   D(4,5,6,24)           167.4554         estimate D2E/DX2                !
 ! D57   D(4,5,6,25)            54.4456         estimate D2E/DX2                !
 ! D58   D(22,5,6,7)            52.5271         estimate D2E/DX2                !
 ! D59   D(22,5,6,24)          -64.1156         estimate D2E/DX2                !
 ! D60   D(22,5,6,25)         -177.1253         estimate D2E/DX2                !
 ! D61   D(23,5,6,7)           161.8479         estimate D2E/DX2                !
 ! D62   D(23,5,6,24)           45.2052         estimate D2E/DX2                !
 ! D63   D(23,5,6,25)          -67.8045         estimate D2E/DX2                !
 ! D64   D(4,5,23,14)          -28.0924         estimate D2E/DX2                !
 ! D65   D(6,5,23,14)          100.7183         estimate D2E/DX2                !
 ! D66   D(22,5,23,14)        -147.1426         estimate D2E/DX2                !
 ! D67   D(5,6,7,26)            90.1835         estimate D2E/DX2                !
 ! D68   D(5,6,7,27)           -33.0671         estimate D2E/DX2                !
 ! D69   D(5,6,7,28)          -152.2623         estimate D2E/DX2                !
 ! D70   D(24,6,7,26)         -153.1588         estimate D2E/DX2                !
 ! D71   D(24,6,7,27)           83.5906         estimate D2E/DX2                !
 ! D72   D(24,6,7,28)          -35.6046         estimate D2E/DX2                !
 ! D73   D(25,6,7,26)          -40.6399         estimate D2E/DX2                !
 ! D74   D(25,6,7,27)         -163.8905         estimate D2E/DX2                !
 ! D75   D(25,6,7,28)           76.9143         estimate D2E/DX2                !
 ! D76   D(4,8,9,10)          -176.281          estimate D2E/DX2                !
 ! D77   D(4,8,9,31)           -57.1109         estimate D2E/DX2                !
 ! D78   D(4,8,9,32)            64.9959         estimate D2E/DX2                !
 ! D79   D(29,8,9,10)           60.1293         estimate D2E/DX2                !
 ! D80   D(29,8,9,31)          179.2994         estimate D2E/DX2                !
 ! D81   D(29,8,9,32)          -58.5938         estimate D2E/DX2                !
 ! D82   D(30,8,9,10)          -51.4144         estimate D2E/DX2                !
 ! D83   D(30,8,9,31)           67.7557         estimate D2E/DX2                !
 ! D84   D(30,8,9,32)         -170.1376         estimate D2E/DX2                !
 ! D85   D(4,8,29,14)           -7.7141         estimate D2E/DX2                !
 ! D86   D(9,8,29,14)          119.9737         estimate D2E/DX2                !
 ! D87   D(30,8,29,14)        -126.5924         estimate D2E/DX2                !
 ! D88   D(8,9,10,33)          -59.6258         estimate D2E/DX2                !
 ! D89   D(8,9,10,34)         -179.184          estimate D2E/DX2                !
 ! D90   D(8,9,10,35)           61.3405         estimate D2E/DX2                !
 ! D91   D(31,9,10,33)         179.141          estimate D2E/DX2                !
 ! D92   D(31,9,10,34)          59.5828         estimate D2E/DX2                !
 ! D93   D(31,9,10,35)         -59.8928         estimate D2E/DX2                !
 ! D94   D(32,9,10,33)          61.1508         estimate D2E/DX2                !
 ! D95   D(32,9,10,34)         -58.4074         estimate D2E/DX2                !
 ! D96   D(32,9,10,35)        -177.883          estimate D2E/DX2                !
 ! D97   D(4,11,12,13)        -168.067          estimate D2E/DX2                !
 ! D98   D(4,11,12,38)          73.0526         estimate D2E/DX2                !
 ! D99   D(4,11,12,39)         -46.7991         estimate D2E/DX2                !
 ! D100  D(36,11,12,13)        -42.0868         estimate D2E/DX2                !
 ! D101  D(36,11,12,38)       -160.9672         estimate D2E/DX2                !
 ! D102  D(36,11,12,39)         79.181          estimate D2E/DX2                !
 ! D103  D(37,11,12,13)         67.99           estimate D2E/DX2                !
 ! D104  D(37,11,12,38)        -50.8904         estimate D2E/DX2                !
 ! D105  D(37,11,12,39)       -170.7422         estimate D2E/DX2                !
 ! D106  D(11,12,13,40)        -58.0741         estimate D2E/DX2                !
 ! D107  D(11,12,13,41)         62.8301         estimate D2E/DX2                !
 ! D108  D(11,12,13,42)       -177.7055         estimate D2E/DX2                !
 ! D109  D(38,12,13,40)         62.589          estimate D2E/DX2                !
 ! D110  D(38,12,13,41)       -176.5068         estimate D2E/DX2                !
 ! D111  D(38,12,13,42)        -57.0424         estimate D2E/DX2                !
 ! D112  D(39,12,13,40)        177.5434         estimate D2E/DX2                !
 ! D113  D(39,12,13,41)        -61.5524         estimate D2E/DX2                !
 ! D114  D(39,12,13,42)         57.912          estimate D2E/DX2                !
 ! D115  D(29,14,23,5)          56.8632         estimate D2E/DX2                !
 ! D116  D(23,14,29,8)         -30.808          estimate D2E/DX2                !
 --------------------------------------------------------------------------------
 Trust Radius=3.00D-01 FncErr=1.00D-07 GrdErr=1.00D-06 EigMax=2.50D+02 EigMin=1.00D-04
 Number of steps in this run=    249 maximum allowed number of steps=    252.
 GradGradGradGradGradGradGradGradGradGradGradGradGradGradGradGradGradGrad

 Leave Link  103 at Sat Aug 21 09:31:11 2021, MaxMem=   104857600 cpu:               0.4 elap:               0.1
 (Enter /sw/arch/RedHatEnterpriseServer7/EB_production/2020/software/Gaussian/g16.c01/l202.exe)
                          Input orientation:                          
 ---------------------------------------------------------------------
 Center     Atomic      Atomic             Coordinates (Angstroms)
 Number     Number       Type             X           Y           Z
 ---------------------------------------------------------------------
      1          6           0        1.305956    0.048744    3.771233
      2          6           0        1.541095   -0.020767    2.264416
      3          6           0        0.322746   -0.644799    1.534513
      4          7           0        0.300266   -0.447048    0.045797
      5          6           0       -0.769460   -1.250247   -0.652156
      6          6           0       -2.259508   -0.872536   -0.447658
      7          6           0       -2.861738   -1.290143    0.897540
      8          6           0        1.626283   -0.833311   -0.570637
      9          6           0        2.076184   -2.299072   -0.385587
     10          6           0        3.466825   -2.520069   -0.977262
     11          6           0        0.118951    1.019140   -0.310697
     12          6           0       -0.751012    1.896409    0.635219
     13          6           0       -1.071706    3.243044   -0.009332
     14         17           0        0.242708    0.059278   -3.765946
     15          1           0        1.104349   -0.965636    4.176851
     16          1           0        2.208715    0.459151    4.270907
     17          1           0        0.444332    0.712727    3.996533
     18          1           0        1.760734    1.001105    1.896077
     19          1           0        2.445410   -0.642104    2.093453
     20          1           0        0.318392   -1.703886    1.793351
     21          1           0       -0.596992   -0.254166    1.999753
     22          1           0       -0.675481   -2.317624   -0.445656
     23          1           0       -0.609202   -1.186758   -1.753928
     24          1           0       -2.825602   -1.436413   -1.222278
     25          1           0       -2.470987    0.187002   -0.683229
     26          1           0       -2.740834   -0.499493    1.661435
     27          1           0       -2.417190   -2.238302    1.261965
     28          1           0       -3.954627   -1.448095    0.777147
     29          1           0        1.607678   -0.629939   -1.667508
     30          1           0        2.445949   -0.187330   -0.183903
     31          1           0        2.127845   -2.562879    0.688565
     32          1           0        1.384382   -2.988379   -0.909784
     33          1           0        3.467854   -2.283744   -2.062765
     34          1           0        3.762619   -3.582407   -0.845901
     35          1           0        4.213537   -1.879401   -0.461326
     36          1           0       -0.276919    1.113307   -1.348601
     37          1           0        1.098655    1.549307   -0.353178
     38          1           0       -0.206413    2.102663    1.579119
     39          1           0       -1.705631    1.420175    0.911308
     40          1           0       -0.134752    3.782045   -0.265605
     41          1           0       -1.674508    3.095149   -0.930611
     42          1           0       -1.657029    3.866253    0.699449
 ---------------------------------------------------------------------
                    Distance matrix (angstroms):
                    1          2          3          4          5
     1  C    0.000000
     2  C    1.526637   0.000000
     3  C    2.539807   1.551305   0.000000
     4  N    3.890514   2.577526   1.501961   0.000000
     5  C    5.055799   3.918760   2.518135   1.508834   0.000000
     6  C    5.600030   4.746097   3.263266   2.641398   1.550719
     7  C    5.236449   4.781695   3.311064   3.381500   2.603992
     8  C    4.442124   2.950425   2.483224   1.512452   2.433118
     9  C    4.835767   3.535465   3.081874   2.601917   3.044468
    10  C    5.815184   4.523651   4.439694   3.920607   4.434439
    11  C    4.360367   3.120113   2.492995   1.519760   2.460891
    12  C    4.180857   3.403469   2.901624   2.635222   3.399870
    13  C    5.490856   4.759109   4.409453   3.937274   4.549092
    14  Cl   7.611812   6.169075   5.347616   3.845656   3.526334
    15  H    1.110918   2.177368   2.774129   4.240412   5.187627
    16  H    1.110442   2.168420   3.501919   4.723868   6.002343
    17  H    1.110869   2.177414   2.814108   4.119969   5.190074
    18  H    2.151749   1.108214   2.215296   2.766523   4.238391
    19  H    2.142562   1.110438   2.195022   2.971966   4.271252
    20  H    2.821172   2.133025   1.090267   2.152653   2.714722
    21  H    2.617462   2.167011   1.102252   2.158754   2.838053
    22  H    5.225700   4.187273   2.777745   2.166255   1.091223
    23  H    5.976763   4.704296   3.460649   2.147862   1.115175
    24  H    6.649106   5.764471   4.258949   3.515382   2.141826
    25  H    5.841802   4.982829   3.662679   2.934849   2.227520
    26  H    4.596555   4.350595   3.069649   3.444028   3.130918
    27  H    5.038732   4.646546   3.181318   3.474510   2.712034
    28  H    6.235288   5.869599   4.417557   4.431826   3.496761
    29  H    5.489221   3.979391   3.450248   2.162912   2.658290
    30  H    4.122914   2.615487   2.769517   2.173516   3.418758
    31  H    4.122974   3.047936   2.766413   2.868787   3.451798
    32  H    5.580519   4.348198   3.548806   2.923492   2.779660
    33  H    6.644534   5.249568   5.051560   4.225293   4.583968
    34  H    6.366976   5.224416   5.111618   4.755364   5.100612
    35  H    5.485100   4.245720   4.543773   4.197916   5.026182
    36  H    5.463652   4.200618   3.429706   2.170759   2.512771
    37  H    4.393794   3.084264   2.996584   2.186787   3.378867
    38  H    3.363214   2.834144   2.798311   3.018083   4.066647
    39  H    4.373746   3.801111   2.960881   2.873892   3.232954
    40  H    5.684121   4.865270   4.800695   4.262797   5.086869
    41  H    6.345950   5.500657   4.904393   4.171362   4.447372
    42  H    5.726125   5.271247   4.996642   4.781509   5.365928
                    6          7          8          9         10
     6  C    0.000000
     7  C    1.531873   0.000000
     8  C    3.887934   4.744109   0.000000
     9  C    4.564765   5.200714   1.544380   0.000000
    10  C    5.982118   6.714038   2.529445   1.527351   0.000000
    11  C    3.042082   3.959436   2.402331   3.853168   4.917171
    12  C    3.333952   3.831200   3.815363   5.161118   6.316290
    13  C    4.305926   4.957461   4.920455   6.384812   7.399231
    14  Cl   4.259155   5.762519   3.594579   4.511129   4.982442
    15  H    5.719291   5.156455   4.777925   4.851634   5.878983
    16  H    6.633496   6.336334   5.044822   5.413714   6.164566
    17  H    5.438257   4.954326   4.964502   5.562090   6.657708
    18  H    5.016570   5.254916   3.076985   4.024508   4.854430
    19  H    5.352252   5.478684   2.793726   3.004582   3.741568
    20  H    3.515513   3.329698   2.838471   2.862141   4.272597
    21  H    3.022608   2.723453   3.447501   4.125210   5.523725
    22  H    2.144161   2.763985   2.741701   2.752383   4.181183
    23  H    2.128048   3.480645   2.553918   3.212615   4.358317
    24  H    1.112859   2.125166   4.539565   5.046953   6.389756
    25  H    1.105820   2.198516   4.223901   5.190946   6.532404
    26  H    2.195247   1.106020   4.915820   5.534659   7.041341
    27  H    2.193853   1.108798   4.656405   4.786286   6.301997
    28  H    2.169065   1.110788   5.774170   6.200548   7.700976
    29  H    4.062267   5.195288   1.115721   2.156113   2.739609
    30  H    4.762394   5.527862   1.112972   2.153336   2.667073
    31  H    4.837058   5.153588   2.197398   1.107278   2.137681
    32  H    4.238902   4.917312   2.194961   1.108385   2.135518
    33  H    6.115779   7.057931   2.778774   2.179428   1.110931
    34  H    6.615740   7.223307   3.492453   2.168617   1.110546
    35  H    6.550899   7.228642   2.792872   2.179481   1.110956
    36  H    2.947190   4.183660   2.831383   4.255446   5.230194
    37  H    4.141438   5.031052   2.450010   3.970722   4.749477
    38  H    4.144253   4.361930   4.074330   5.333441   6.434082
    39  H    2.722148   2.946625   4.286725   5.460482   6.771006
    40  H    5.119849   5.875070   4.949323   6.471678   7.293453
    41  H    4.039554   4.897187   5.143695   6.592599   7.613551
    42  H    4.912734   5.298961   5.871896   7.288718   8.357652
                   11         12         13         14         15
    11  C    0.000000
    12  C    1.556019   0.000000
    13  C    2.540518   1.526996   0.000000
    14  Cl   3.588231   4.871631   5.096685   0.000000
    15  H    5.004841   4.916993   6.322368   8.054868   0.000000
    16  H    5.066734   4.903460   6.068910   8.283483   1.805128
    17  H    4.330357   3.758774   4.974719   7.792543   1.812468
    18  H    2.750569   2.949610   4.084065   5.937167   3.082344
    19  H    3.735248   4.334467   5.646785   6.298920   2.498733
    20  H    3.446979   3.930270   5.445563   5.832689   2.616068
    21  H    2.733507   2.551597   4.061066   5.834949   2.853157
    22  H    3.432686   4.351100   5.591816   4.185339   5.134514
    23  H    2.734796   3.903082   4.783374   2.515268   6.177321
    24  H    3.940953   4.343031   5.142442   4.256978   6.694531
    25  H    2.745726   2.760198   3.428049   4.108966   6.142636
    26  H    3.791295   3.279155   4.425385   6.218538   4.618446
    27  H    4.417715   4.501644   5.785471   6.134641   4.745258
    28  H    4.885150   4.633465   5.562065   6.366278   6.114245
    29  H    2.603211   4.153120   4.992859   2.596461   5.875591
    30  H    2.624227   3.903010   4.916486   4.212615   4.628372
    31  H    4.226706   5.308099   6.665803   5.502011   3.970752
    32  H    4.245048   5.550504   6.758241   4.330046   5.481219
    33  H    5.019356   6.523161   7.441074   4.334991   6.801204
    34  H    5.893810   7.251483   8.405791   5.846222   6.256351
    35  H    5.018950   6.332922   7.374112   5.517833   5.658154
    36  H    1.114821   2.184847   2.638391   2.687852   6.063046
    37  H    1.114765   2.125718   2.774426   3.820971   5.181325
    38  H    2.202564   1.109088   2.138312   5.739935   4.228566
    39  H    2.232314   1.101963   2.138291   5.246406   4.924617
    40  H    2.774895   2.178734   1.110892   5.123852   6.619008
    41  H    2.812579   2.177532   1.110855   4.575080   7.092122
    42  H    3.504362   2.169165   1.110569   6.167804   6.562369
                   16         17         18         19         20
    16  H    0.000000
    17  H    1.803505   0.000000
    18  H    2.476735   2.495594   0.000000
    19  H    2.451549   3.075970   1.791054   0.000000
    20  H    3.793459   3.272597   3.067227   2.396174   0.000000
    21  H    3.679532   2.450789   2.673074   3.068466   1.726910
    22  H    6.186682   5.492727   4.736330   4.358257   2.525393
    23  H    6.851884   6.147014   4.870922   4.942635   3.702842
    24  H    7.688471   6.522826   6.058062   6.277624   4.364660
    25  H    6.820347   5.538560   5.022255   5.706868   4.182050
    26  H    5.676828   4.131276   4.750891   5.206160   3.290415
    27  H    6.142392   4.937078   5.324557   5.184988   2.837495
    28  H    7.336943   5.863825   6.317906   6.583522   4.399635
    29  H    6.067300   5.936117   3.922100   3.853151   3.846188
    30  H    4.507721   4.721506   2.491629   2.322320   3.276580
    31  H    4.687470   4.950400   3.780851   2.400820   2.287475
    32  H    6.277304   6.217220   4.891879   3.956036   3.176979
    33  H    7.016003   7.405107   5.420048   4.584160   5.012482
    34  H    6.703024   7.273814   5.703908   4.361218   4.728339
    35  H    5.646429   6.387374   4.457679   3.344260   4.504057
    36  H    6.179415   5.408431   3.833087   4.726550   4.261788
    37  H    4.878815   4.477498   2.407908   3.549934   3.974879
    38  H    3.972367   2.863439   2.276743   3.851032   3.848523
    39  H    5.247149   3.826413   3.627820   4.783472   3.825497
    40  H    6.092077   5.284115   3.999920   5.638749   5.877081
    41  H    7.005976   5.868745   4.916917   6.331331   5.867057
    42  H    6.269580   5.023068   4.617585   6.252882   6.010437
                   21         22         23         24         25
    21  H    0.000000
    22  H    3.200632   0.000000
    23  H    3.867816   1.730557   0.000000
    24  H    4.092175   2.450040   2.292904   0.000000
    25  H    3.302254   3.090863   2.549482   1.746941   0.000000
    26  H    2.184194   3.465706   4.084225   3.033283   2.457955
    27  H    2.791818   2.440453   3.670174   2.642213   3.109465
    28  H    3.767485   3.606123   4.203154   2.296200   2.647155
    29  H    4.295414   3.090957   2.287372   4.527980   4.274542
    30  H    3.745973   3.788138   3.577399   5.516129   4.956381
    31  H    3.804485   3.034014   3.918023   5.427420   5.531087
    32  H    4.457260   2.215482   2.816522   4.497801   4.999824
    33  H    6.094769   4.447855   4.233337   6.405621   6.578567
    34  H    6.179089   4.632127   5.067195   6.939136   7.286477
    35  H    5.642649   4.908644   5.040772   7.093995   7.000152
    36  H    3.630965   3.570077   2.359025   3.607328   2.472791
    37  H    3.415262   4.255498   3.516380   5.006960   3.834991
    38  H    2.425722   4.884534   4.700184   5.218528   3.730452
    39  H    2.284121   4.107761   3.886096   3.737194   2.156162
    40  H    4.651506   6.126236   5.208571   5.948798   4.307753
    41  H    4.578863   5.525518   4.488592   4.684564   3.025375
    42  H    4.448856   6.365142   5.714011   5.759936   4.013878
                   26         27         28         29         30
    26  H    0.000000
    27  H    1.813223   0.000000
    28  H    1.776261   1.795324   0.000000
    29  H    5.477995   5.231463   6.130657   0.000000
    30  H    5.514112   5.472398   6.593976   1.760592   0.000000
    31  H    5.376623   4.592546   6.184420   3.091587   2.550612
    32  H    5.461056   4.441966   5.807170   2.487217   3.082159
    33  H    7.456609   6.759411   7.991035   2.520229   2.994890
    34  H    7.621417   6.666315   8.169789   3.746448   3.701136
    35  H    7.400915   6.860400   8.272771   3.131538   2.462607
    36  H    4.210976   4.757005   4.960355   2.586951   3.234531
    37  H    4.795615   5.414410   5.983119   2.595319   2.204487
    38  H    3.633357   4.881813   5.224955   4.615044   3.922670
    39  H    2.306396   3.743492   3.647322   4.672395   4.584667
    40  H    5.369983   6.617218   6.559965   4.946413   4.735254
    41  H    4.558202   5.814178   5.362504   5.019168   5.320752
    42  H    4.599977   6.177367   5.790275   6.039581   5.834919
                   31         32         33         34         35
    31  H    0.000000
    32  H    1.813424   0.000000
    33  H    3.073005   2.483290   0.000000
    34  H    2.463028   2.452134   1.803932   0.000000
    35  H    2.477802   3.071655   1.812221   1.803179   0.000000
    36  H    4.842239   4.447056   5.106203   6.214524   5.468798
    37  H    4.365150   4.580616   4.819551   5.802928   4.633597
    38  H    5.292365   5.885913   6.782634   7.345336   6.289373
    39  H    5.532619   5.683301   7.023466   7.616782   6.914324
    40  H    6.803517   6.968599   7.280271   8.352329   7.141281
    41  H    7.006633   6.809299   7.527161   8.611578   7.722399
    42  H    7.460505   7.669797   8.468572   9.340408   8.295992
                   36         37         38         39         40
    36  H    0.000000
    37  H    1.753045   0.000000
    38  H    3.091171   2.396493   0.000000
    39  H    2.691203   3.078899   1.777475   0.000000
    40  H    2.883618   2.552270   2.495689   3.071028   0.000000
    41  H    2.460827   3.226994   3.072308   2.489814   1.812431
    42  H    3.698368   3.751007   2.447112   2.455717   1.804369
                   41         42
    41  H    0.000000
    42  H    1.803331   0.000000
 Stoichiometry    C12H28ClN
 Framework group  C1[X(C12H28ClN)]
 Deg. of freedom   120
 Full point group                 C1      NOp   1
 Largest Abelian subgroup         C1      NOp   1
 Largest concise Abelian subgroup C1      NOp   1
                         Standard orientation:                         
 ---------------------------------------------------------------------
 Center     Atomic      Atomic             Coordinates (Angstroms)
 Number     Number       Type             X           Y           Z
 ---------------------------------------------------------------------
      1          6           0       -3.684792    1.573422   -0.549194
      2          6           0       -2.177673    1.452371   -0.760281
      3          6           0       -1.508820    0.673906    0.402981
      4          7           0       -0.108691    0.201754    0.133540
      5          6           0        0.585865   -0.350257    1.353973
      6          6           0        0.107945   -1.696329    1.957638
      7          6           0       -1.193320   -1.626989    2.762956
      8          6           0        0.748048    1.328138   -0.400094
      9          6           0        0.928094    2.557049    0.517769
     10          6           0        1.735996    3.646645   -0.184280
     11          6           0       -0.086042   -0.854281   -0.959139
     12          6           0       -1.300075   -1.822156   -1.061780
     13          6           0       -0.992776   -2.987002   -2.000086
     14         17           0        3.476230   -1.007158   -0.556342
     15          1           0       -3.899114    2.081790    0.415050
     16          1           0       -4.129905    2.170222   -1.373079
     17          1           0       -4.155601    0.567260   -0.546954
     18          1           0       -1.998565    0.962600   -1.738127
     19          1           0       -1.762414    2.480653   -0.817462
     20          1           0       -1.544885    1.329941    1.273038
     21          1           0       -2.164561   -0.168219    0.678279
     22          1           0        0.615615    0.376252    2.167647
     23          1           0        1.663010   -0.512765    1.115299
     24          1           0        0.896685   -2.003000    2.680340
     25          1           0        0.091986   -2.518065    1.217818
     26          1           0       -2.078391   -1.803543    2.123614
     27          1           0       -1.293236   -0.654281    3.285727
     28          1           0       -1.193191   -2.430039    3.530393
     29          1           0        1.767637    0.945975   -0.643452
     30          1           0        0.353198    1.699763   -1.372049
     31          1           0       -0.052672    2.994381    0.787779
     32          1           0        1.482442    2.279541    1.436575
     33          1           0        2.740530    3.263966   -0.464702
     34          1           0        1.865040    4.512725    0.498776
     35          1           0        1.207027    3.993259   -1.097667
     36          1           0        0.847249   -1.459565   -0.885477
     37          1           0       -0.019390   -0.389107   -1.970016
     38          1           0       -2.183106   -1.290979   -1.471882
     39          1           0       -1.600788   -2.244312   -0.089320
     40          1           0       -0.726452   -2.609824   -3.010477
     41          1           0       -0.151474   -3.592095   -1.599997
     42          1           0       -1.886458   -3.640239   -2.089401
 ---------------------------------------------------------------------
 Rotational constants (GHZ):           0.4749224           0.4123165           0.3145812
 Leave Link  202 at Sat Aug 21 09:31:12 2021, MaxMem=   104857600 cpu:               0.9 elap:               0.1
 (Enter /sw/arch/RedHatEnterpriseServer7/EB_production/2020/software/Gaussian/g16.c01/l301.exe)
 Standard basis: TZVP (5D, 7F)
 Ernie: Thresh=  0.10000D-02 Tol=  0.10000D-05 Strict=F.
 There are   451 symmetry adapted cartesian basis functions of A   symmetry.
 There are   437 symmetry adapted basis functions of A   symmetry.
   437 basis functions,   726 primitive gaussians,   451 cartesian basis functions
    62 alpha electrons       62 beta electrons
       nuclear repulsion energy      1138.0733620126 Hartrees.
 IExCor=  404 DFT=T Ex=B Corr=P86 ExCW=0 ScaHFX=  0.000000
 ScaDFX=  1.000000  1.000000  1.000000  1.000000 ScalE2=  1.000000  1.000000
 IRadAn=      5 IRanWt=     -1 IRanGd=            0 ICorTp=0 IEmpDi=131
 NAtoms=   42 NActive=   42 NUniq=   42 SFac= 1.00D+00 NAtFMM=   60 NAOKFM=F Big=F
 Integral buffers will be    131072 words long.
 Raffenetti 2 integral format.
 Two-electron integral symmetry is turned on.
 R6Disp:  Grimme-D3 Dispersion energy=       -0.0575050697 Hartrees.
 Nuclear repulsion after empirical dispersion term =     1138.0158569429 Hartrees.
 ------------------------------------------------------------------------------
 Polarizable Continuum Model (PCM)
 =================================
 Model                : PCM.
 Atomic radii         : UFF (Universal Force Field).
 Polarization charges : Total charges.
 Charge compensation  : None.
 Solution method      : On-the-fly selection.
 Cavity type          : Scaled VdW (van der Waals Surface) (Alpha=1.100).
 Cavity algorithm     : GePol (No added spheres)
                        Default sphere list used, NSphG=   42.
                        Lebedev-Laikov grids with approx.  5.0 points / Ang**2.
                        Smoothing algorithm: York/Karplus (Gamma=1.0000).
                        Polarization charges: spherical gaussians, with
                                              point-specific exponents (IZeta= 3).
                        Self-potential: point-specific (ISelfS= 7).
                        Self-field    : sphere-specific E.n sum rule (ISelfD= 2).
 1st derivatives      : Analytical E(r).r(x)/FMM algorithm (CHGder, D1EAlg=3).
                        Cavity 1st derivative terms included.
 Solvent              : Water, Eps=  78.355300 Eps(inf)=   1.777849
 ------------------------------------------------------------------------------
 GePol: Number of generator spheres                  =      42
 GePol: Total number of spheres                      =      42
 GePol: Number of exposed spheres                    =      41 ( 97.62%)
 GePol: Number of points                             =    2533
 GePol: Average weight of points                     =       0.14
 GePol: Minimum weight of points                     =   0.95D-09
 GePol: Maximum weight of points                     =    0.21616
 GePol: Number of points with low weight             =     165
 GePol: Fraction of low-weight points (<1% of avg)   =       6.51%
 GePol: Cavity surface area                          =    345.474 Ang**2
 GePol: Cavity volume                                =    380.915 Ang**3
 Leave Link  301 at Sat Aug 21 09:31:12 2021, MaxMem=   104857600 cpu:               1.3 elap:               0.1
 (Enter /sw/arch/RedHatEnterpriseServer7/EB_production/2020/software/Gaussian/g16.c01/l302.exe)
 NPDir=0 NMtPBC=     1 NCelOv=     1 NCel=       1 NClECP=     1 NCelD=      1
         NCelK=      1 NCelE2=     1 NClLst=     1 CellRange=     0.0.
 One-electron integrals computed using PRISM.
 One-electron integral symmetry used in STVInt
 NBasis=   437 RedAO= T EigKep=  1.35D-04  NBF=   437
 NBsUse=   437 1.00D-06 EigRej= -1.00D+00 NBFU=   437
 Precomputing XC quadrature grid using
 IXCGrd= 4 IRadAn=           5 IRanWt=          -1 IRanGd=           0 AccXCQ= 0.00D+00.
 Generated NRdTot=       0 NPtTot=           0 NUsed=           0 NTot=          32
 NSgBfM=   444   444   444   444   444 MxSgAt=    42 MxSgA2=    42.
 Leave Link  302 at Sat Aug 21 09:31:13 2021, MaxMem=   104857600 cpu:              10.5 elap:               0.5
 (Enter /sw/arch/RedHatEnterpriseServer7/EB_production/2020/software/Gaussian/g16.c01/l303.exe)
 DipDrv:  MaxL=1.
 Leave Link  303 at Sat Aug 21 09:31:13 2021, MaxMem=   104857600 cpu:               1.7 elap:               0.1
 (Enter /sw/arch/RedHatEnterpriseServer7/EB_production/2020/software/Gaussian/g16.c01/l401.exe)
 ExpMin= 9.52D-02 ExpMax= 6.95D+04 ExpMxC= 2.37D+03 IAcc=3 IRadAn=         5 AccDes= 0.00D+00
 Harris functional with IExCor=  404 and IRadAn=       5 diagonalized for initial guess.
 HarFok:  IExCor=  404 AccDes= 0.00D+00 IRadAn=         5 IDoV= 1 UseB2=F ITyADJ=14
 ICtDFT=  3500011 ScaDFX=  1.000000  1.000000  1.000000  1.000000
 FoFCou: FMM=F IPFlag=           0 FMFlag=      100000 FMFlg1=           0
         NFxFlg=           0 DoJE=T BraDBF=F KetDBF=T FulRan=T
         wScrn=  0.000000 ICntrl=       500 IOpCl=  0 I1Cent=   200000004 NGrid=           0
         NMat0=    1 NMatS0=      1 NMatT0=    0 NMatD0=    1 NMtDS0=    0 NMtDT0=    0
 Petite list used in FoFCou.
 Harris En= -989.634424011647    
 JPrj=0 DoOrth=F DoCkMO=F.
 Leave Link  401 at Sat Aug 21 09:31:14 2021, MaxMem=   104857600 cpu:              36.4 elap:               1.6
 (Enter /sw/arch/RedHatEnterpriseServer7/EB_production/2020/software/Gaussian/g16.c01/l502.exe)
 Integral symmetry usage will be decided dynamically.
 Closed shell SCF:
 Using DIIS extrapolation, IDIIS=  1040.
 NGot=   104857600 LenX=   104434158 LenY=   104230306
 Requested convergence on RMS density matrix=1.00D-08 within 128 cycles.
 Requested convergence on MAX density matrix=1.00D-06.
 Requested convergence on             energy=1.00D-06.
 No special actions if energy rises.
 Fock matrices will be formed incrementally for  20 cycles.

 Cycle   1  Pass 1  IDiag  1:
 FoFJK:  IHMeth= 1 ICntrl=     500 DoSepK=F KAlg= 0 I1Cent=           0 FoldK=F
 IRaf= 880000000 NMat=       1 IRICut=       1 DoRegI=T DoRafI=F ISym2E= 0 IDoP0=0 IntGTp=1.
 FoFCou: FMM=F IPFlag=           0 FMFlag=      100000 FMFlg1=           0
         NFxFlg=           0 DoJE=T BraDBF=F KetDBF=F FulRan=T
         wScrn=  0.000000 ICntrl=       500 IOpCl=  0 I1Cent=           0 NGrid=           0
         NMat0=    1 NMatS0=      1 NMatT0=    0 NMatD0=    1 NMtDS0=    0 NMtDT0=    0
 Symmetry not used in FoFCou.
 Inv3:  Mode=1 IEnd=    19248267.
 Iteration    1 A*A^-1 deviation from unit magnitude is 3.77D-15 for    573.
 Iteration    1 A*A^-1 deviation from orthogonality  is 1.67D-15 for   1997    922.
 Iteration    1 A^-1*A deviation from unit magnitude is 3.77D-15 for    573.
 Iteration    1 A^-1*A deviation from orthogonality  is 2.08D-15 for   2157    218.
 E= -988.901023146464    
 DIIS: error= 2.24D-02 at cycle   1 NSaved=   1.
 NSaved= 1 IEnMin= 1 EnMin= -988.901023146464     IErMin= 1 ErrMin= 2.24D-02
 ErrMax= 2.24D-02  0.00D+00 EMaxC= 1.00D-01 BMatC= 4.57D-01 BMatP= 4.57D-01
 IDIUse=3 WtCom= 7.76D-01 WtEn= 2.24D-01
 Coeff-Com:  0.100D+01
 Coeff-En:   0.100D+01
 Coeff:      0.100D+01
 Gap=     0.188 Goal=   None    Shift=    0.000
 GapD=    0.188 DampG=1.000 DampE=0.500 DampFc=0.5000 IDamp=-1.
 Damping current iteration by 5.00D-01
 RMSDP=3.54D-03 MaxDP=2.02D-01              OVMax= 1.94D-01

 Cycle   2  Pass 1  IDiag  1:
 RMSU=  1.76D-03    CP:  9.85D-01
 E= -989.022303325072     Delta-E=       -0.121280178608 Rises=F Damp=T
 DIIS: error= 1.24D-02 at cycle   2 NSaved=   2.
 NSaved= 2 IEnMin= 2 EnMin= -989.022303325072     IErMin= 2 ErrMin= 1.24D-02
 ErrMax= 1.24D-02  0.00D+00 EMaxC= 1.00D-01 BMatC= 6.65D-02 BMatP= 4.57D-01
 IDIUse=3 WtCom= 8.76D-01 WtEn= 1.24D-01
 Coeff-Com:  0.231D+00 0.769D+00
 Coeff-En:   0.363D+00 0.637D+00
 Coeff:      0.247D+00 0.753D+00
 Gap=     0.200 Goal=   None    Shift=    0.000
 RMSDP=8.41D-04 MaxDP=4.21D-02 DE=-1.21D-01 OVMax= 1.29D-01

 Cycle   3  Pass 1  IDiag  1:
 RMSU=  7.48D-04    CP:  9.88D-01  7.83D-01
 E= -989.341087190233     Delta-E=       -0.318783865161 Rises=F Damp=F
 DIIS: error= 8.40D-03 at cycle   3 NSaved=   3.
 NSaved= 3 IEnMin= 3 EnMin= -989.341087190233     IErMin= 3 ErrMin= 8.40D-03
 ErrMax= 8.40D-03  0.00D+00 EMaxC= 1.00D-01 BMatC= 2.08D-02 BMatP= 6.65D-02
 IDIUse=3 WtCom= 9.16D-01 WtEn= 8.40D-02
 Coeff-Com:  0.863D-01 0.363D+00 0.551D+00
 Coeff-En:   0.000D+00 0.000D+00 0.100D+01
 Coeff:      0.791D-01 0.332D+00 0.589D+00
 Gap=     0.202 Goal=   None    Shift=    0.000
 RMSDP=4.96D-04 MaxDP=2.94D-02 DE=-3.19D-01 OVMax= 3.14D-02

 Cycle   4  Pass 1  IDiag  1:
 RMSU=  3.91D-04    CP:  9.94D-01  8.00D-01  6.04D-01
 E= -989.349935551680     Delta-E=       -0.008848361447 Rises=F Damp=F
 DIIS: error= 5.69D-03 at cycle   4 NSaved=   4.
 NSaved= 4 IEnMin= 4 EnMin= -989.349935551680     IErMin= 4 ErrMin= 5.69D-03
 ErrMax= 5.69D-03  0.00D+00 EMaxC= 1.00D-01 BMatC= 1.01D-02 BMatP= 2.08D-02
 IDIUse=3 WtCom= 9.43D-01 WtEn= 5.69D-02
 Coeff-Com:  0.184D-01 0.853D-01 0.405D+00 0.492D+00
 Coeff-En:   0.000D+00 0.000D+00 0.366D+00 0.634D+00
 Coeff:      0.174D-01 0.804D-01 0.402D+00 0.500D+00
 Gap=     0.204 Goal=   None    Shift=    0.000
 RMSDP=2.72D-04 MaxDP=2.01D-02 DE=-8.85D-03 OVMax= 1.38D-02

 Cycle   5  Pass 1  IDiag  1:
 RMSU=  1.23D-04    CP:  9.90D-01  7.70D-01  6.79D-01  4.21D-01
 E= -989.358726279745     Delta-E=       -0.008790728065 Rises=F Damp=F
 DIIS: error= 5.77D-04 at cycle   5 NSaved=   5.
 NSaved= 5 IEnMin= 5 EnMin= -989.358726279745     IErMin= 5 ErrMin= 5.77D-04
 ErrMax= 5.77D-04  0.00D+00 EMaxC= 1.00D-01 BMatC= 1.68D-04 BMatP= 1.01D-02
 IDIUse=3 WtCom= 9.94D-01 WtEn= 5.77D-03
 Coeff-Com:  0.513D-02 0.215D-01 0.146D+00 0.223D+00 0.604D+00
 Coeff-En:   0.000D+00 0.000D+00 0.000D+00 0.000D+00 0.100D+01
 Coeff:      0.510D-02 0.214D-01 0.145D+00 0.222D+00 0.606D+00
 Gap=     0.200 Goal=   None    Shift=    0.000
 RMSDP=6.82D-05 MaxDP=4.03D-03 DE=-8.79D-03 OVMax= 2.78D-03

 Cycle   6  Pass 1  IDiag  1:
 RMSU=  3.02D-05    CP:  9.90D-01  7.81D-01  7.15D-01  4.83D-01  6.37D-01
 E= -989.358877491410     Delta-E=       -0.000151211664 Rises=F Damp=F
 DIIS: error= 3.41D-04 at cycle   6 NSaved=   6.
 NSaved= 6 IEnMin= 6 EnMin= -989.358877491410     IErMin= 6 ErrMin= 3.41D-04
 ErrMax= 3.41D-04  0.00D+00 EMaxC= 1.00D-01 BMatC= 1.69D-05 BMatP= 1.68D-04
 IDIUse=3 WtCom= 9.97D-01 WtEn= 3.41D-03
 Coeff-Com:  0.123D-02 0.473D-02 0.512D-01 0.881D-01 0.320D+00 0.535D+00
 Coeff-En:   0.000D+00 0.000D+00 0.000D+00 0.000D+00 0.000D+00 0.100D+01
 Coeff:      0.122D-02 0.471D-02 0.510D-01 0.878D-01 0.319D+00 0.536D+00
 Gap=     0.201 Goal=   None    Shift=    0.000
 RMSDP=1.64D-05 MaxDP=1.18D-03 DE=-1.51D-04 OVMax= 1.03D-03

 Cycle   7  Pass 1  IDiag  1:
 RMSU=  8.49D-06    CP:  9.90D-01  7.79D-01  7.06D-01  4.87D-01  6.90D-01
                    CP:  6.86D-01
 E= -989.358892376963     Delta-E=       -0.000014885554 Rises=F Damp=F
 DIIS: error= 2.57D-05 at cycle   7 NSaved=   7.
 NSaved= 7 IEnMin= 7 EnMin= -989.358892376963     IErMin= 7 ErrMin= 2.57D-05
 ErrMax= 2.57D-05  0.00D+00 EMaxC= 1.00D-01 BMatC= 8.11D-07 BMatP= 1.69D-05
 IDIUse=1 WtCom= 1.00D+00 WtEn= 0.00D+00
 Coeff-Com:  0.297D-03 0.909D-03 0.143D-01 0.262D-01 0.106D+00 0.259D+00
 Coeff-Com:  0.594D+00
 Coeff:      0.297D-03 0.909D-03 0.143D-01 0.262D-01 0.106D+00 0.259D+00
 Coeff:      0.594D+00
 Gap=     0.201 Goal=   None    Shift=    0.000
 RMSDP=2.44D-06 MaxDP=7.49D-05 DE=-1.49D-05 OVMax= 1.20D-04

 Cycle   8  Pass 1  IDiag  1:
 RMSU=  1.88D-06    CP:  9.90D-01  7.79D-01  7.06D-01  4.87D-01  6.93D-01
                    CP:  7.03D-01  8.32D-01
 E= -989.358893148091     Delta-E=       -0.000000771128 Rises=F Damp=F
 DIIS: error= 1.62D-05 at cycle   8 NSaved=   8.
 NSaved= 8 IEnMin= 8 EnMin= -989.358893148091     IErMin= 8 ErrMin= 1.62D-05
 ErrMax= 1.62D-05  0.00D+00 EMaxC= 1.00D-01 BMatC= 6.64D-08 BMatP= 8.11D-07
 IDIUse=1 WtCom= 1.00D+00 WtEn= 0.00D+00
 Coeff-Com:  0.702D-04 0.751D-04 0.249D-02 0.489D-02 0.228D-01 0.821D-01
 Coeff-Com:  0.295D+00 0.593D+00
 Coeff:      0.702D-04 0.751D-04 0.249D-02 0.489D-02 0.228D-01 0.821D-01
 Coeff:      0.295D+00 0.593D+00
 Gap=     0.201 Goal=   None    Shift=    0.000
 RMSDP=1.07D-06 MaxDP=7.45D-05 DE=-7.71D-07 OVMax= 7.07D-05

 Cycle   9  Pass 1  IDiag  1:
 RMSU=  6.84D-07    CP:  9.90D-01  7.79D-01  7.07D-01  4.87D-01  6.93D-01
                    CP:  7.13D-01  7.97D-01  7.10D-01
 E= -989.358893188022     Delta-E=       -0.000000039931 Rises=F Damp=F
 DIIS: error= 6.46D-06 at cycle   9 NSaved=   9.
 NSaved= 9 IEnMin= 9 EnMin= -989.358893188022     IErMin= 9 ErrMin= 6.46D-06
 ErrMax= 6.46D-06  0.00D+00 EMaxC= 1.00D-01 BMatC= 7.35D-09 BMatP= 6.64D-08
 IDIUse=1 WtCom= 1.00D+00 WtEn= 0.00D+00
 Coeff-Com:  0.142D-04-0.402D-04 0.325D-03 0.753D-03 0.442D-02 0.225D-01
 Coeff-Com:  0.106D+00 0.322D+00 0.544D+00
 Coeff:      0.142D-04-0.402D-04 0.325D-03 0.753D-03 0.442D-02 0.225D-01
 Coeff:      0.106D+00 0.322D+00 0.544D+00
 Gap=     0.201 Goal=   None    Shift=    0.000
 RMSDP=3.84D-07 MaxDP=1.97D-05 DE=-3.99D-08 OVMax= 1.77D-05

 Cycle  10  Pass 1  IDiag  1:
 RMSU=  1.47D-07    CP:  9.90D-01  7.79D-01  7.07D-01  4.87D-01  6.92D-01
                    CP:  7.14D-01  8.19D-01  7.18D-01  5.94D-01
 E= -989.358893192247     Delta-E=       -0.000000004225 Rises=F Damp=F
 DIIS: error= 5.62D-07 at cycle  10 NSaved=  10.
 NSaved=10 IEnMin=10 EnMin= -989.358893192247     IErMin=10 ErrMin= 5.62D-07
 ErrMax= 5.62D-07  0.00D+00 EMaxC= 1.00D-01 BMatC= 1.48D-10 BMatP= 7.35D-09
 IDIUse=1 WtCom= 1.00D+00 WtEn= 0.00D+00
 Coeff-Com:  0.325D-05-0.160D-04 0.174D-04 0.647D-04 0.605D-03 0.358D-02
 Coeff-Com:  0.236D-01 0.920D-01 0.185D+00 0.695D+00
 Coeff:      0.325D-05-0.160D-04 0.174D-04 0.647D-04 0.605D-03 0.358D-02
 Coeff:      0.236D-01 0.920D-01 0.185D+00 0.695D+00
 Gap=     0.201 Goal=   None    Shift=    0.000
 RMSDP=6.46D-08 MaxDP=2.70D-06 DE=-4.23D-09 OVMax= 2.78D-06

 Cycle  11  Pass 1  IDiag  1:
 RMSU=  3.39D-08    CP:  9.90D-01  7.79D-01  7.07D-01  4.87D-01  6.93D-01
                    CP:  7.14D-01  8.21D-01  7.26D-01  6.12D-01  8.01D-01
 E= -989.358893192352     Delta-E=       -0.000000000105 Rises=F Damp=F
 DIIS: error= 2.00D-07 at cycle  11 NSaved=  11.
 NSaved=11 IEnMin=11 EnMin= -989.358893192352     IErMin=11 ErrMin= 2.00D-07
 ErrMax= 2.00D-07  0.00D+00 EMaxC= 1.00D-01 BMatC= 4.69D-11 BMatP= 1.48D-10
 IDIUse=1 WtCom= 1.00D+00 WtEn= 0.00D+00
 Coeff-Com:  0.103D-05-0.687D-05-0.208D-04-0.293D-04 0.892D-05 0.482D-03
 Coeff-Com:  0.693D-02 0.337D-01 0.708D-01 0.411D+00 0.477D+00
 Coeff:      0.103D-05-0.687D-05-0.208D-04-0.293D-04 0.892D-05 0.482D-03
 Coeff:      0.693D-02 0.337D-01 0.708D-01 0.411D+00 0.477D+00
 Gap=     0.201 Goal=   None    Shift=    0.000
 RMSDP=1.73D-08 MaxDP=7.19D-07 DE=-1.05D-10 OVMax= 1.07D-06

 Cycle  12  Pass 1  IDiag  1:
 RMSU=  8.68D-09    CP:  9.90D-01  7.79D-01  7.07D-01  4.87D-01  6.93D-01
                    CP:  7.14D-01  8.21D-01  7.29D-01  6.17D-01  8.22D-01
                    CP:  6.58D-01
 E= -989.358893192395     Delta-E=       -0.000000000043 Rises=F Damp=F
 DIIS: error= 5.06D-08 at cycle  12 NSaved=  12.
 NSaved=12 IEnMin=12 EnMin= -989.358893192395     IErMin=12 ErrMin= 5.06D-08
 ErrMax= 5.06D-08  0.00D+00 EMaxC= 1.00D-01 BMatC= 6.46D-13 BMatP= 4.69D-11
 IDIUse=1 WtCom= 1.00D+00 WtEn= 0.00D+00
 Coeff-Com:  0.137D-06-0.166D-05-0.718D-05-0.120D-04-0.166D-04-0.784D-05
 Coeff-Com:  0.135D-02 0.783D-02 0.167D-01 0.121D+00 0.181D+00 0.673D+00
 Coeff:      0.137D-06-0.166D-05-0.718D-05-0.120D-04-0.166D-04-0.784D-05
 Coeff:      0.135D-02 0.783D-02 0.167D-01 0.121D+00 0.181D+00 0.673D+00
 Gap=     0.201 Goal=   None    Shift=    0.000
 RMSDP=4.77D-09 MaxDP=2.23D-07 DE=-4.25D-11 OVMax= 1.90D-07

 Error on total polarization charges =  0.02041
 SCF Done:  E(RB-P86) =  -989.358893192     A.U. after   12 cycles
            NFock= 12  Conv=0.48D-08     -V/T= 2.0047
 KE= 9.846884482850D+02 PE=-4.592955420238D+03 EE= 1.480892221818D+03
 Leave Link  502 at Sat Aug 21 09:32:17 2021, MaxMem=   104857600 cpu:            1471.3 elap:              62.1
 (Enter /sw/arch/RedHatEnterpriseServer7/EB_production/2020/software/Gaussian/g16.c01/l601.exe)
 Copying SCF densities to generalized density rwf, IOpCl= 0 IROHF=0.

 **********************************************************************

            Population analysis using the SCF Density.

 **********************************************************************

 Orbital symmetries:
       Occupied  (A) (A) (A) (A) (A) (A) (A) (A) (A) (A) (A) (A)
                 (A) (A) (A) (A) (A) (A) (A) (A) (A) (A) (A) (A)
                 (A) (A) (A) (A) (A) (A) (A) (A) (A) (A) (A) (A)
                 (A) (A) (A) (A) (A) (A) (A) (A) (A) (A) (A) (A)
                 (A) (A) (A) (A) (A) (A) (A) (A) (A) (A) (A) (A)
                 (A) (A)
       Virtual   (A) (A) (A) (A) (A) (A) (A) (A) (A) (A) (A) (A)
                 (A) (A) (A) (A) (A) (A) (A) (A) (A) (A) (A) (A)
                 (A) (A) (A) (A) (A) (A) (A) (A) (A) (A) (A) (A)
                 (A) (A) (A) (A) (A) (A) (A) (A) (A) (A) (A) (A)
                 (A) (A) (A) (A) (A) (A) (A) (A) (A) (A) (A) (A)
                 (A) (A) (A) (A) (A) (A) (A) (A) (A) (A) (A) (A)
                 (A) (A) (A) (A) (A) (A) (A) (A) (A) (A) (A) (A)
                 (A) (A) (A) (A) (A) (A) (A) (A) (A) (A) (A) (A)
                 (A) (A) (A) (A) (A) (A) (A) (A) (A) (A) (A) (A)
                 (A) (A) (A) (A) (A) (A) (A) (A) (A) (A) (A) (A)
                 (A) (A) (A) (A) (A) (A) (A) (A) (A) (A) (A) (A)
                 (A) (A) (A) (A) (A) (A) (A) (A) (A) (A) (A) (A)
                 (A) (A) (A) (A) (A) (A) (A) (A) (A) (A) (A) (A)
                 (A) (A) (A) (A) (A) (A) (A) (A) (A) (A) (A) (A)
                 (A) (A) (A) (A) (A) (A) (A) (A) (A) (A) (A) (A)
                 (A) (A) (A) (A) (A) (A) (A) (A) (A) (A) (A) (A)
                 (A) (A) (A) (A) (A) (A) (A) (A) (A) (A) (A) (A)
                 (A) (A) (A) (A) (A) (A) (A) (A) (A) (A) (A) (A)
                 (A) (A) (A) (A) (A) (A) (A) (A) (A) (A) (A) (A)
                 (A) (A) (A) (A) (A) (A) (A) (A) (A) (A) (A) (A)
                 (A) (A) (A) (A) (A) (A) (A) (A) (A) (A) (A) (A)
                 (A) (A) (A) (A) (A) (A) (A) (A) (A) (A) (A) (A)
                 (A) (A) (A) (A) (A) (A) (A) (A) (A) (A) (A) (A)
                 (A) (A) (A) (A) (A) (A) (A) (A) (A) (A) (A) (A)
                 (A) (A) (A) (A) (A) (A) (A) (A) (A) (A) (A) (A)
                 (A) (A) (A) (A) (A) (A) (A) (A) (A) (A) (A) (A)
                 (A) (A) (A) (A) (A) (A) (A) (A) (A) (A) (A) (A)
                 (A) (A) (A) (A) (A) (A) (A) (A) (A) (A) (A) (A)
                 (A) (A) (A) (A) (A) (A) (A) (A) (A) (A) (A) (A)
                 (A) (A) (A) (A) (A) (A) (A) (A) (A) (A) (A) (A)
                 (A) (A) (A) (A) (A) (A) (A) (A) (A) (A) (A) (A)
                 (A) (A) (A)
 The electronic state is 1-A.
 Alpha  occ. eigenvalues -- -100.63799 -14.14226  -9.95848  -9.95526  -9.95190
 Alpha  occ. eigenvalues --   -9.94934  -9.91791  -9.91495  -9.91481  -9.91322
 Alpha  occ. eigenvalues --   -9.90054  -9.89914  -9.89859  -9.89655  -9.07663
 Alpha  occ. eigenvalues --   -6.89483  -6.89480  -6.89467  -0.94476  -0.74188
 Alpha  occ. eigenvalues --   -0.73990  -0.73133  -0.71454  -0.66062  -0.65125
 Alpha  occ. eigenvalues --   -0.64204  -0.62688  -0.59263  -0.56510  -0.54665
 Alpha  occ. eigenvalues --   -0.53823  -0.52908  -0.49685  -0.48146  -0.46681
 Alpha  occ. eigenvalues --   -0.44106  -0.42178  -0.41723  -0.40516  -0.39951
 Alpha  occ. eigenvalues --   -0.38908  -0.37674  -0.37642  -0.37150  -0.35643
 Alpha  occ. eigenvalues --   -0.35034  -0.34760  -0.34686  -0.33912  -0.32879
 Alpha  occ. eigenvalues --   -0.32495  -0.31745  -0.31522  -0.30991  -0.30806
 Alpha  occ. eigenvalues --   -0.30477  -0.30426  -0.30041  -0.29788  -0.20656
 Alpha  occ. eigenvalues --   -0.20615  -0.20325
 Alpha virt. eigenvalues --   -0.00247   0.01388   0.01681   0.02459   0.02850
 Alpha virt. eigenvalues --    0.03911   0.04310   0.04844   0.05731   0.05915
 Alpha virt. eigenvalues --    0.06216   0.06816   0.07774   0.07917   0.08429
 Alpha virt. eigenvalues --    0.08609   0.08939   0.09408   0.09875   0.10232
 Alpha virt. eigenvalues --    0.10405   0.10731   0.11198   0.11500   0.11841
 Alpha virt. eigenvalues --    0.12197   0.12538   0.13086   0.13459   0.13842
 Alpha virt. eigenvalues --    0.14036   0.14228   0.14995   0.15525   0.16199
 Alpha virt. eigenvalues --    0.16974   0.17780   0.17897   0.18509   0.19313
 Alpha virt. eigenvalues --    0.20039   0.20553   0.21628   0.21931   0.22274
 Alpha virt. eigenvalues --    0.22835   0.23970   0.24436   0.25047   0.25613
 Alpha virt. eigenvalues --    0.26198   0.27042   0.28273   0.29181   0.29269
 Alpha virt. eigenvalues --    0.30257   0.30592   0.32029   0.32197   0.34009
 Alpha virt. eigenvalues --    0.34583   0.34948   0.35728   0.36315   0.36624
 Alpha virt. eigenvalues --    0.36835   0.37574   0.38061   0.38381   0.38960
 Alpha virt. eigenvalues --    0.39154   0.39599   0.39898   0.40012   0.40466
 Alpha virt. eigenvalues --    0.40942   0.41144   0.41635   0.41763   0.42025
 Alpha virt. eigenvalues --    0.42808   0.42955   0.43044   0.43902   0.43974
 Alpha virt. eigenvalues --    0.44315   0.44741   0.44982   0.45162   0.46169
 Alpha virt. eigenvalues --    0.46258   0.46483   0.46896   0.47673   0.47757
 Alpha virt. eigenvalues --    0.48186   0.48809   0.49062   0.49968   0.50261
 Alpha virt. eigenvalues --    0.50606   0.51403   0.52237   0.52728   0.52996
 Alpha virt. eigenvalues --    0.55664   0.56319   0.56784   0.57272   0.58701
 Alpha virt. eigenvalues --    0.59889   0.60742   0.61809   0.62811   0.64073
 Alpha virt. eigenvalues --    0.66576   0.68091   0.69193   0.71117   0.72471
 Alpha virt. eigenvalues --    0.74383   0.77258   0.79748   0.81729   0.81906
 Alpha virt. eigenvalues --    0.83815   0.89433   0.90583   0.93935   1.02819
 Alpha virt. eigenvalues --    1.03840   1.09339   1.10684   1.13249   1.14437
 Alpha virt. eigenvalues --    1.15413   1.16366   1.18181   1.20006   1.20369
 Alpha virt. eigenvalues --    1.20840   1.20994   1.21375   1.22338   1.22593
 Alpha virt. eigenvalues --    1.23123   1.23932   1.24564   1.24910   1.25642
 Alpha virt. eigenvalues --    1.26254   1.27045   1.27667   1.28013   1.28568
 Alpha virt. eigenvalues --    1.28882   1.30266   1.30712   1.31495   1.31808
 Alpha virt. eigenvalues --    1.32423   1.33254   1.33994   1.34753   1.35426
 Alpha virt. eigenvalues --    1.36019   1.36904   1.37298   1.38018   1.38766
 Alpha virt. eigenvalues --    1.39284   1.40272   1.40590   1.42186   1.43502
 Alpha virt. eigenvalues --    1.44613   1.44763   1.45916   1.46716   1.47197
 Alpha virt. eigenvalues --    1.47954   1.48711   1.49938   1.50246   1.51304
 Alpha virt. eigenvalues --    1.53142   1.53832   1.56043   1.57226   1.57726
 Alpha virt. eigenvalues --    1.58412   1.59095   1.60111   1.60940   1.61735
 Alpha virt. eigenvalues --    1.62520   1.63652   1.64882   1.65657   1.66475
 Alpha virt. eigenvalues --    1.66775   1.67748   1.68544   1.68850   1.69572
 Alpha virt. eigenvalues --    1.70243   1.70900   1.71144   1.71753   1.71895
 Alpha virt. eigenvalues --    1.72020   1.72495   1.72996   1.73390   1.73613
 Alpha virt. eigenvalues --    1.73893   1.74189   1.74701   1.75459   1.76385
 Alpha virt. eigenvalues --    1.77024   1.77215   1.77449   1.78458   1.79283
 Alpha virt. eigenvalues --    1.79584   1.79705   1.81094   1.82292   1.83220
 Alpha virt. eigenvalues --    1.83714   1.84746   1.85712   1.86865   1.87399
 Alpha virt. eigenvalues --    1.88756   1.89342   1.92014   1.93012   1.94064
 Alpha virt. eigenvalues --    1.96191   1.96957   2.00318   2.02804   2.04271
 Alpha virt. eigenvalues --    2.04613   2.05839   2.09640   2.10127   2.11217
 Alpha virt. eigenvalues --    2.11843   2.13216   2.13915   2.14699   2.15647
 Alpha virt. eigenvalues --    2.16911   2.17238   2.18085   2.19283   2.21032
 Alpha virt. eigenvalues --    2.21485   2.21951   2.22781   2.23567   2.25481
 Alpha virt. eigenvalues --    2.27661   2.28148   2.29117   2.30172   2.30538
 Alpha virt. eigenvalues --    2.30812   2.32272   2.33232   2.33965   2.34521
 Alpha virt. eigenvalues --    2.35763   2.37032   2.37945   2.38680   2.40131
 Alpha virt. eigenvalues --    2.40828   2.41726   2.43335   2.44862   2.46114
 Alpha virt. eigenvalues --    2.46556   2.47662   2.50068   2.50287   2.50956
 Alpha virt. eigenvalues --    2.52098   2.52771   2.52958   2.54698   2.55017
 Alpha virt. eigenvalues --    2.55632   2.56174   2.56845   2.57295   2.57551
 Alpha virt. eigenvalues --    2.58472   2.59133   2.59234   2.60925   2.61404
 Alpha virt. eigenvalues --    2.63050   2.63185   2.64043   2.65084   2.68211
 Alpha virt. eigenvalues --    2.69743   2.71340   2.73325   2.74585   2.76915
 Alpha virt. eigenvalues --    2.78025   2.80262   2.81192   2.83168   2.84630
 Alpha virt. eigenvalues --    2.87688   2.90025   2.91693   2.94463   2.98682
 Alpha virt. eigenvalues --    3.00481   3.02755   3.04704   3.07264   3.09375
 Alpha virt. eigenvalues --    3.11441   3.13283   3.15444   3.16263   3.20571
 Alpha virt. eigenvalues --    3.20681   3.21627   3.22356   3.22676   3.23523
 Alpha virt. eigenvalues --    3.24666   3.27200   3.27822   3.28019   3.28590
 Alpha virt. eigenvalues --    3.30108   3.31019   3.31559   3.32058   3.33653
 Alpha virt. eigenvalues --    3.34162   3.34197   3.35542   3.36684   3.37778
 Alpha virt. eigenvalues --    3.39400   3.39857   3.41804   3.64209   3.64869
 Alpha virt. eigenvalues --    3.66802  21.71626  21.72805  21.73701  21.77550
 Alpha virt. eigenvalues --   21.80040  21.82053  21.84147  21.84588  21.89317
 Alpha virt. eigenvalues --   21.92978  21.94379  21.96999  24.30260  31.80471
          Condensed to atoms (all electrons):
               1          2          3          4          5          6
     1  C    5.046105   0.234506  -0.028222   0.007694  -0.001668  -0.000154
     2  C    0.234506   5.351698   0.024311  -0.005095   0.019051   0.001463
     3  C   -0.028222   0.024311   5.829997   0.133503  -0.119410  -0.021431
     4  N    0.007694  -0.005095   0.133503   6.656784   0.180481  -0.028631
     5  C   -0.001668   0.019051  -0.119410   0.180481   5.614782   0.197147
     6  C   -0.000154   0.001463  -0.021431  -0.028631   0.197147   5.266658
     7  C    0.000444  -0.001475   0.012737  -0.002269  -0.053835   0.208075
     8  C   -0.000387  -0.004201  -0.077413   0.167948  -0.118022   0.012995
     9  C    0.000945  -0.021240   0.010765  -0.021648   0.007439   0.001077
    10  C   -0.000156   0.002607  -0.006156   0.010436  -0.000903   0.000027
    11  C   -0.007513   0.034778  -0.132095   0.161579  -0.077753   0.003008
    12  C    0.002974  -0.023994   0.010609  -0.012714  -0.018845   0.009837
    13  C   -0.000170   0.001049  -0.002186   0.008540   0.000003  -0.001516
[...]
    29  H   -0.000036   0.044069  -0.000004   0.000001   0.000005  -0.000184
    30  H    0.000020   0.000177   0.000094  -0.000002  -0.000102   0.002197
    31  H   -0.000001   0.000013  -0.000136  -0.000001   0.000027   0.000008
    32  H   -0.000001   0.000769  -0.000001   0.000000   0.000001  -0.000004
    33  H    0.000000   0.002882  -0.000000  -0.000000  -0.000000  -0.000005
    34  H    0.000000   0.000023  -0.000000  -0.000000  -0.000000   0.000001
    35  H   -0.000000   0.000058   0.000003   0.000001   0.000000   0.000024
    36  H   -0.000490   0.033624   0.000005  -0.000000  -0.000010   0.000479
    37  H    0.001594   0.000068  -0.000042   0.000010   0.000109  -0.005280
    38  H   -0.029600  -0.000049   0.000114  -0.000034  -0.000022   0.003078
    39  H   -0.017842  -0.000101  -0.000014   0.000004   0.000028  -0.000101
    40  H    0.418443   0.000027  -0.000000   0.000000   0.000002  -0.000130
    41  H    0.406166   0.001287  -0.000000  -0.000000   0.000001   0.000034
    42  H    0.397486   0.000011  -0.000000  -0.000000   0.000002   0.000004
              19         20         21         22         23         24
     1  C   -0.022719   0.000440   0.000138  -0.000039   0.000056   0.000001
     2  C    0.404149  -0.025770  -0.029886   0.000424  -0.001161   0.000107
     3  C   -0.033859   0.398097   0.395189  -0.013715   0.011509  -0.000381
     4  N   -0.011106  -0.022516  -0.027743  -0.023985  -0.028432   0.009592
     5  C   -0.001444   0.002709  -0.004192   0.398572   0.363050  -0.052537
     6  C    0.000020  -0.003498   0.002348  -0.020721  -0.045034   0.414136
     7  C   -0.000051   0.000628  -0.002796  -0.005845   0.010181  -0.030509
     8  C    0.027129  -0.021806   0.014289  -0.018441   0.013317  -0.000202
     9  C   -0.006755   0.000755   0.000599   0.001862  -0.011913   0.000183
    10  C    0.000364   0.000059   0.000016   0.000252   0.000382  -0.000001
    11  C   -0.008884   0.013609  -0.026419   0.012327  -0.018906  -0.002798
    12  C    0.001263   0.000040  -0.003695  -0.000327   0.001281   0.001849
    13  C   -0.000085   0.000024   0.000582   0.000042  -0.000035  -0.000035
    14  Cl  -0.000000   0.000010  -0.000007   0.000261   0.049524   0.001628
    15  H   -0.006462   0.002571  -0.001376   0.000004  -0.000001  -0.000000
    16  H   -0.002519  -0.000329   0.000230  -0.000000  -0.000001   0.000000
    17  H    0.006481   0.000093   0.002834   0.000008  -0.000001  -0.000000
    18  H   -0.026823   0.003364  -0.001544  -0.000031   0.000024  -0.000000
    19  H    0.508648  -0.004029   0.003713   0.000079  -0.000048  -0.000002
    20  H   -0.004029   0.449085  -0.014934   0.003554   0.000545  -0.000060
    21  H    0.003713  -0.014934   0.472027   0.000357  -0.000474   0.000065
    22  H    0.000079   0.003554   0.000357   0.463703  -0.012739  -0.001305
    23  H   -0.000048   0.000545  -0.000474  -0.012739   0.507753  -0.002372
    24  H   -0.000002  -0.000060   0.000065  -0.001305  -0.002372   0.519923
    25  H    0.000004   0.000189   0.000150   0.005019  -0.001733  -0.026371
    26  H   -0.000013  -0.000422   0.002619   0.000614  -0.000458   0.006655
    27  H    0.000002   0.000668  -0.000261   0.002161   0.000113  -0.004971
    28  H    0.000001  -0.000044   0.000491  -0.000078  -0.000398  -0.005816
    29  H    0.000424  -0.000248  -0.000158   0.001458  -0.002547  -0.000141
    30  H   -0.007769   0.001375  -0.000218  -0.000286   0.001288   0.000021
    31  H    0.003386  -0.004460   0.000737   0.001111   0.000660  -0.000006
    32  H    0.000096   0.000900  -0.000115  -0.005367  -0.000546   0.000091
    33  H    0.000064  -0.000061   0.000006   0.000074   0.000232  -0.000000
    34  H    0.000021  -0.000002   0.000001   0.000008  -0.000016   0.000000
    35  H   -0.000200   0.000113  -0.000014  -0.000070  -0.000027   0.000000
    36  H   -0.000019  -0.000132  -0.000269   0.000471  -0.000696  -0.000027
    37  H    0.000904  -0.000402   0.001787  -0.000270   0.000217   0.000027
    38  H    0.000227   0.000539  -0.008463   0.000024  -0.000010  -0.000068
    39  H   -0.000011  -0.000298   0.002884   0.000025   0.000175   0.000707
    40  H   -0.000002  -0.000007   0.000124   0.000001   0.000002   0.000004
    41  H    0.000001   0.000006  -0.000163  -0.000001  -0.000078  -0.000038
    42  H    0.000001   0.000000  -0.000055   0.000000  -0.000003   0.000001
              25         26         27         28         29         30
     1  C   -0.000014   0.000340  -0.000092  -0.000007  -0.000037   0.000174
     2  C   -0.000091   0.001422  -0.000100  -0.000010  -0.000169   0.005214
     3  C   -0.002327  -0.002850  -0.004293   0.000773   0.013768  -0.028147
     4  N   -0.014995   0.005415  -0.002516  -0.000168  -0.026180  -0.020453
     5  C   -0.040089  -0.022413   0.011297   0.011147  -0.025694   0.011211
     6  C    0.411707  -0.017100  -0.052638  -0.034459   0.001771  -0.000499
     7  C   -0.035534   0.398158   0.410614   0.393293  -0.000443   0.000064
     8  C   -0.001868  -0.000265  -0.000384   0.000045   0.369014   0.407867
     9  C   -0.000002   0.000028  -0.000038   0.000009  -0.033050  -0.029602
    10  C   -0.000000  -0.000000  -0.000001   0.000000  -0.001250   0.000022
    11  C    0.029612  -0.005094   0.001757   0.000458   0.001398  -0.011650
    12  C   -0.024109   0.007234  -0.001030  -0.000030   0.001508   0.000470
    13  C    0.001594   0.000261  -0.000004  -0.000025  -0.000036   0.000020
    14  Cl   0.002825   0.000001  -0.000007  -0.000000   0.044069   0.000177
    15  H    0.000001   0.000010   0.000004   0.000001  -0.000004   0.000094
    16  H   -0.000000   0.000006  -0.000001  -0.000000   0.000001  -0.000002
    17  H    0.000000   0.000060   0.000009   0.000003   0.000005  -0.000102
    18  H   -0.000023   0.000036  -0.000006  -0.000000  -0.000184   0.002197
    19  H    0.000004  -0.000013   0.000002   0.000001   0.000424  -0.007769
    20  H    0.000189  -0.000422   0.000668  -0.000044  -0.000248   0.001375
    21  H    0.000150   0.002619  -0.000261   0.000491  -0.000158  -0.000218
    22  H    0.005019   0.000614   0.002161  -0.000078   0.001458  -0.000286
    23  H   -0.001733  -0.000458   0.000113  -0.000398  -0.002547   0.001288
    24  H   -0.026371   0.006655  -0.004971  -0.005816  -0.000141   0.000021
    25  H    0.523668  -0.007926   0.006609  -0.000815  -0.000021  -0.000015
    26  H   -0.007926   0.548482  -0.033479  -0.021643   0.000006   0.000004
    27  H    0.006609  -0.033479   0.537590  -0.021745   0.000018   0.000000
    28  H   -0.000815  -0.021643  -0.021745   0.520303   0.000002  -0.000001
    29  H   -0.000021   0.000006   0.000018   0.000002   0.496112  -0.012388
    30  H   -0.000015   0.000004   0.000000  -0.000001  -0.012388   0.452685
    31  H   -0.000003  -0.000006   0.000006   0.000000   0.004307  -0.000864
    32  H   -0.000028  -0.000004   0.000006  -0.000002  -0.002389   0.003285
    33  H   -0.000001   0.000000   0.000000   0.000000   0.004081   0.000067
    34  H   -0.000000   0.000000  -0.000000  -0.000000  -0.000191  -0.000073
    35  H   -0.000000   0.000000  -0.000000   0.000000   0.000331   0.003263
    36  H   -0.001142   0.000190  -0.000078  -0.000033   0.000613   0.000162
    37  H   -0.000012  -0.000056   0.000016   0.000001  -0.001758   0.003927
    38  H    0.001203  -0.000507   0.000056  -0.000005   0.000016   0.000073
    39  H   -0.001288  -0.002631   0.001069  -0.000059   0.000046  -0.000046
    40  H   -0.000049  -0.000014   0.000000   0.000001   0.000016  -0.000020
    41  H    0.000873   0.000008  -0.000000  -0.000003  -0.000052   0.000007
    42  H   -0.000066   0.000032  -0.000001   0.000003  -0.000001  -0.000000
              31         32         33         34         35         36
     1  C    0.000680  -0.000059   0.000008   0.000000  -0.000070   0.000015
     2  C   -0.010415   0.001231  -0.000125  -0.000080   0.000945  -0.000275
     3  C    0.031118  -0.010027   0.000654   0.000111  -0.001599   0.012501
     4  N   -0.008781  -0.006070   0.000089  -0.000467  -0.000074  -0.027795
     5  C   -0.011221   0.017203  -0.001050   0.000102   0.000519   0.002132
     6  C   -0.000215   0.000447  -0.000031   0.000001   0.000008  -0.009701
     7  C   -0.000016   0.000204  -0.000002   0.000000   0.000000   0.001923
     8  C   -0.047179  -0.046233  -0.009360   0.012998  -0.007081  -0.013772
     9  C    0.416687   0.417784  -0.038016  -0.040734  -0.041687  -0.000052
    10  C   -0.029520  -0.023898   0.401418   0.396900   0.412205   0.000101
    11  C   -0.000319  -0.001385   0.000168   0.000037  -0.000072   0.358366
    12  C   -0.000073   0.000008  -0.000002  -0.000002   0.000002  -0.014528
    13  C   -0.000001  -0.000001   0.000000   0.000000  -0.000000  -0.000490
    14  Cl   0.000013   0.000769   0.002882   0.000023   0.000058   0.033624
    15  H   -0.000136  -0.000001  -0.000000  -0.000000   0.000003   0.000005
    16  H   -0.000001   0.000000  -0.000000  -0.000000   0.000001  -0.000000
    17  H    0.000027   0.000001  -0.000000  -0.000000   0.000000  -0.000010
    18  H    0.000008  -0.000004  -0.000005   0.000001   0.000024   0.000479
    19  H    0.003386   0.000096   0.000064   0.000021  -0.000200  -0.000019
    20  H   -0.004460   0.000900  -0.000061  -0.000002   0.000113  -0.000132
    21  H    0.000737  -0.000115   0.000006   0.000001  -0.000014  -0.000269
    22  H    0.001111  -0.005367   0.000074   0.000008  -0.000070   0.000471
    23  H    0.000660  -0.000546   0.000232  -0.000016  -0.000027  -0.000696
    24  H   -0.000006   0.000091  -0.000000   0.000000   0.000000  -0.000027
    25  H   -0.000003  -0.000028  -0.000001  -0.000000  -0.000000  -0.001142
    26  H   -0.000006  -0.000004   0.000000   0.000000   0.000000   0.000190
    27  H    0.000006   0.000006   0.000000  -0.000000  -0.000000  -0.000078
    28  H    0.000000  -0.000002   0.000000  -0.000000   0.000000  -0.000033
    29  H    0.004307  -0.002389   0.004081  -0.000191   0.000331   0.000613
    30  H   -0.000864   0.003285   0.000067  -0.000073   0.003263   0.000162
    31  H    0.515916  -0.024417   0.006851  -0.002080  -0.006622  -0.000050
    32  H   -0.024417   0.505359  -0.005563  -0.002483   0.006493   0.000045
    33  H    0.006851  -0.005563   0.549380  -0.022555  -0.031743  -0.000092
    34  H   -0.002080  -0.002483  -0.022555   0.522633  -0.023236  -0.000002
    35  H   -0.006622   0.006493  -0.031743  -0.023236   0.542719  -0.000002
    36  H   -0.000050   0.000045  -0.000092  -0.000002  -0.000002   0.499784
    37  H    0.000055  -0.000023   0.000053   0.000002  -0.000033  -0.017395
    38  H   -0.000007   0.000002   0.000000  -0.000000   0.000000   0.004305
    39  H    0.000010  -0.000009   0.000000   0.000000  -0.000000  -0.004596
    40  H    0.000000  -0.000000  -0.000000  -0.000000  -0.000000  -0.000995
    41  H   -0.000000  -0.000000  -0.000000  -0.000000  -0.000000   0.005477
    42  H   -0.000000  -0.000000  -0.000000  -0.000000  -0.000000   0.000047
              37         38         39         40         41         42
     1  C   -0.000301   0.000241  -0.000140  -0.000022   0.000005   0.000001
     2  C    0.002457  -0.009775   0.002741   0.000569  -0.000163  -0.000037
     3  C   -0.020675   0.030444  -0.018966  -0.001212   0.000714   0.000187
     4  N   -0.024609  -0.014030   0.001157   0.000410  -0.000552  -0.000443
     5  C    0.005277   0.000330  -0.006205   0.000010   0.000296  -0.000084
     6  C    0.001798  -0.002977   0.026567   0.000153  -0.000845   0.000098
     7  C   -0.000440   0.000896  -0.017139  -0.000056   0.000236  -0.000009
     8  C    0.009056  -0.002757  -0.000076   0.000033   0.000013   0.000033
     9  C    0.001208  -0.000002  -0.000004  -0.000004   0.000001  -0.000002
    10  C    0.000046  -0.000006  -0.000001   0.000000   0.000000   0.000000
    11  C    0.403633  -0.039957  -0.049812  -0.009377  -0.009584   0.012976
    12  C   -0.040710   0.412951   0.419959  -0.043000  -0.036566  -0.040203
    13  C    0.001594  -0.029600  -0.017842   0.418443   0.406166   0.397486
    14  Cl   0.000068  -0.000049  -0.000101   0.000027   0.001287   0.000011
    15  H   -0.000042   0.000114  -0.000014  -0.000000  -0.000000  -0.000000
    16  H    0.000010  -0.000034   0.000004   0.000000  -0.000000  -0.000000
    17  H    0.000109  -0.000022   0.000028   0.000002   0.000001   0.000002
    18  H   -0.005280   0.003078  -0.000101  -0.000130   0.000034   0.000004
    19  H    0.000904   0.000227  -0.000011  -0.000002   0.000001   0.000001
    20  H   -0.000402   0.000539  -0.000298  -0.000007   0.000006   0.000000
    21  H    0.001787  -0.008463   0.002884   0.000124  -0.000163  -0.000055
    22  H   -0.000270   0.000024   0.000025   0.000001  -0.000001   0.000000
    23  H    0.000217  -0.000010   0.000175   0.000002  -0.000078  -0.000003
    24  H    0.000027  -0.000068   0.000707   0.000004  -0.000038   0.000001
    25  H   -0.000012   0.001203  -0.001288  -0.000049   0.000873  -0.000066
    26  H   -0.000056  -0.000507  -0.002631  -0.000014   0.000008   0.000032
    27  H    0.000016   0.000056   0.001069   0.000000  -0.000000  -0.000001
    28  H    0.000001  -0.000005  -0.000059   0.000001  -0.000003   0.000003
    29  H   -0.001758   0.000016   0.000046   0.000016  -0.000052  -0.000001
    30  H    0.003927   0.000073  -0.000046  -0.000020   0.000007  -0.000000
    31  H    0.000055  -0.000007   0.000010   0.000000  -0.000000  -0.000000
    32  H   -0.000023   0.000002  -0.000009  -0.000000  -0.000000  -0.000000
    33  H    0.000053   0.000000   0.000000  -0.000000  -0.000000  -0.000000
    34  H    0.000002  -0.000000   0.000000  -0.000000  -0.000000  -0.000000
    35  H   -0.000033   0.000000  -0.000000  -0.000000  -0.000000  -0.000000
    36  H   -0.017395   0.004305  -0.004596  -0.000995   0.005477   0.000047
    37  H    0.463483  -0.005113   0.004925   0.004566  -0.000403  -0.000328
    38  H   -0.005113   0.520329  -0.031747  -0.007875   0.006881  -0.002140
    39  H    0.004925  -0.031747   0.518839   0.007268  -0.006834  -0.002921
    40  H    0.004566  -0.007875   0.007268   0.540967  -0.031800  -0.023597
    41  H   -0.000403   0.006881  -0.006834  -0.031800   0.541362  -0.022246
    42  H   -0.000328  -0.002140  -0.002921  -0.023597  -0.022246   0.522591
 Mulliken charges:
               1
     1  C   -0.448127
     2  C   -0.224216
     3  C   -0.318314
     4  N   -0.120749
     5  C   -0.205168
     6  C   -0.306393
     7  C   -0.417316
     8  C   -0.263458
     9  C   -0.211097
    10  C   -0.448718
    11  C   -0.260065
    12  C   -0.225178
    13  C   -0.449315
    14  Cl  -0.883038
    15  H    0.145501
    16  H    0.159161
    17  H    0.147888
    18  H    0.177854
    19  H    0.175824
    20  H    0.219644
    21  H    0.221596
    22  H    0.210812
    23  H    0.167320
    24  H    0.172650
    25  H    0.175070
    26  H    0.143301
    27  H    0.149650
    28  H    0.158810
    29  H    0.167977
    30  H    0.218467
    31  H    0.164821
    32  H    0.174700
    33  H    0.142578
    34  H    0.159083
    35  H    0.145847
    36  H    0.171908
    37  H    0.212631
    38  H    0.173433
    39  H    0.174437
    40  H    0.145563
    41  H    0.145961
    42  H    0.158663
 Sum of Mulliken charges =  -0.00000
 Mulliken charges with hydrogens summed into heavy atoms:
               1
     1  C    0.004423
     2  C    0.129462
     3  C    0.122926
     4  N   -0.120749
     5  C    0.172964
     6  C    0.041327
     7  C    0.034445
     8  C    0.122986
     9  C    0.128424
    10  C   -0.001209
    11  C    0.124474
    12  C    0.122692
    13  C    0.000872
    14  Cl  -0.883038
 Electronic spatial extent (au):  <R**2>=           4334.9473
 Charge=             -0.0000 electrons
 Dipole moment (field-independent basis, Debye):
    X=            -17.2772    Y=              3.7028    Z=              2.4594  Tot=             17.8398
 Quadrupole moment (field-independent basis, Debye-Ang):
   XX=           -152.6250   YY=            -92.4038   ZZ=            -94.3601
   XY=             10.4078   XZ=              9.0975   YZ=             -1.3803
 Traceless Quadrupole moment (field-independent basis, Debye-Ang):
   XX=            -39.4954   YY=             20.7258   ZZ=             18.7695
   XY=             10.4078   XZ=              9.0975   YZ=             -1.3803
 Octapole moment (field-independent basis, Debye-Ang**2):
  XXX=           -246.5143  YYY=             11.9065  ZZZ=              9.8403  XYY=            -17.5551
  XXY=             43.8378  XXZ=             25.1336  XZZ=            -11.8545  YZZ=             -0.1257
  YYZ=              4.4593  XYZ=             -5.5131
 Hexadecapole moment (field-independent basis, Debye-Ang**3):
 XXXX=          -3459.2399 YYYY=          -2179.1804 ZZZZ=          -1085.0247 XXXY=            142.2847
 XXXZ=            120.5784 YYYX=             28.2637 YYYZ=              4.1135 ZZZX=             24.9228
 ZZZY=            -13.4903 XXYY=           -834.1597 XXZZ=           -643.0117 YYZZ=           -541.1708
 XXYZ=            -17.5994 YYXZ=             16.6612 ZZXY=              0.2373
 N-N= 1.135189994909D+03 E-N=-4.587215665357D+03  KE= 9.849734702708D+02
 Unable to Open any file for archive entry.
 1\1\GINC-TCN1550\SP\RBP86\TZVP\C12H28Cl1N1\ELENAA\21-Aug-2021\0\\# BP8
 6/TZVP SCRF=COSMORS geom=CHECKPOINT guess=CHECKPOINT\\COSMO-file for #
 FBEVECUEMUUFKM-UHFFFAOYSA-M\\0,1\C,0,1.3244945281,-0.0878132489,3.8076
 682319\C,0,1.5246566164,0.0162756531,2.2890787161\C,0,0.3506036858,-0.
 6401006224,1.5659227469\N,0,0.3092980074,-0.4237654116,0.0603536157\C,
 0,-0.7689670936,-1.3131927436,-0.5886435476\C,0,-2.2460650857,-0.95537
 31981,-0.4289779241\C,0,-2.8921839374,-1.1627734079,0.9466886442\C,0,1
 .6488288828,-0.8180482914,-0.5870090923\C,0,2.0884914521,-2.2665847878
 ,-0.3983105212\C,0,3.4762241582,-2.4591790816,-1.0293673696\C,0,0.0992
 830942,1.0536695795,-0.3123116111\C,0,-0.8533785307,1.8740726106,0.555
 1566268\C,0,-0.9964667293,3.2789981674,-0.0503241021\Cl,0,0.1045860422
 ,-0.0489423042,-3.8416116106\H,0,1.2331090714,-1.1379825657,4.12505513
 38\H,0,2.1788320261,0.3526638361,4.340345422\H,0,0.4145479734,0.443728
 5358,4.125912539\H,0,1.6153005769,1.0748555333,1.9998984265\H,0,2.4691
 661793,-0.4737726292,2.009243134\H,0,0.3573186872,-1.7265520213,1.7233
 234569\H,0,-0.5990134127,-0.264214021,1.9593092185\H,0,-0.5874077797,-
 2.3238731071,-0.200966183\H,0,-0.5201456783,-1.2823947518,-1.660610463
 7\H,0,-2.7405167649,-1.6319286285,-1.1469715953\H,0,-2.4430290446,0.05
 50059684,-0.8174971757\H,0,-2.6036979303,-0.3932998653,1.6770023379\H,
 0,-2.6201878582,-2.1429573652,1.3675220721\H,0,-3.987657701,-1.1250994
 367,0.858374765\H,0,1.5248170246,-0.5788446937,-1.6555813902\H,0,2.400
 0479403,-0.1369300212,-0.1668475628\H,0,2.1336359364,-2.5286326953,0.6
 703079996\H,0,1.3753395196,-2.9553530357,-0.8735961467\H,0,3.459004305
 7,-2.219853557,-2.1036901811\H,0,3.8079222521,-3.5012023606,-0.9195090
 013\H,0,4.2257715235,-1.8118846611,-0.5485807288\H,0,-0.212644813,1.03
 3288824,-1.3684350912\H,0,1.0954729645,1.5152371342,-0.278362615\H,0,-
 0.4662558004,1.9594345301,1.5817032023\H,0,-1.8434589179,1.4072438949,
 0.6247492803\H,0,-0.0212650021,3.7855928633,-0.1172910369\H,0,-1.42501
 1634,3.2321293297,-1.0630483458\H,0,-1.6575250543,3.8993033571,0.57101
 03254\\Version=ES64L-G16RevC.01\State=1-A\HF=-989.3290316\RMSD=9.029e-
 10\Dipole=0.3255379,-0.6427484,6.9816593\Quadrupole=15.9934158,15.4379
 819,-31.4313977,-0.8403401,-0.2717459,3.4749932\PG=C01 [X(C12H28Cl1N1)
 ]\\@
 The archive entry for this job was punched.


 THOSE WITH THE GOLD MAKE THE RULES.

             -- PETER'S GOLDEN RULE
 Job cpu time:       0 days  0 hours 22 minutes 13.2 seconds.
 Elapsed time:       0 days  0 hours  0 minutes 56.6 seconds.
 File lengths (MBytes):  RWF=    150 Int=      0 D2E=      0 Chk=     20 Scr=      1
 Normal termination of Gaussian 16 at Sat Aug 21 09:47:46 2021.
