 Entering Gaussian System, Link 0=g16
 Input=FBUKVWPVBMHYJY-UHFFFAOYSA-N.gjf
 Output=FBUKVWPVBMHYJY-UHFFFAOYSA-N.log
 Initial command:
 /sw/arch/RedHatEnterpriseServer7/EB_production/2019/software/Gaussian/g16.c01/l1.exe "/scratch-local/elenaa.9715203/Gau-6331.inp" -scrdir="/scratch-local/elenaa.9715203/"
 Entering Link 1 = /sw/arch/RedHatEnterpriseServer7/EB_production/2019/software/Gaussian/g16.c01/l1.exe PID=      6332.
  
 Copyright (c) 1988-2019, Gaussian, Inc.  All Rights Reserved.
  
 This is part of the Gaussian(R) 16 program.  It is based on
 the Gaussian(R) 09 system (copyright 2009, Gaussian, Inc.),
 the Gaussian(R) 03 system (copyright 2003, Gaussian, Inc.),
 the Gaussian(R) 98 system (copyright 1998, Gaussian, Inc.),
 the Gaussian(R) 94 system (copyright 1995, Gaussian, Inc.),
 the Gaussian 92(TM) system (copyright 1992, Gaussian, Inc.),
 the Gaussian 90(TM) system (copyright 1990, Gaussian, Inc.),
 the Gaussian 88(TM) system (copyright 1988, Gaussian, Inc.),
 the Gaussian 86(TM) system (copyright 1986, Carnegie Mellon
 University), and the Gaussian 82(TM) system (copyright 1983,
 Carnegie Mellon University). Gaussian is a federally registered
 trademark of Gaussian, Inc.
  
 This software contains proprietary and confidential information,
 including trade secrets, belonging to Gaussian, Inc.
  
 This software is provided under written license and may be
 used, copied, transmitted, or stored only in accord with that
 written license.
  
 The following legend is applicable only to US Government
 contracts under FAR:
  
                    RESTRICTED RIGHTS LEGEND
  
 Use, reproduction and disclosure by the US Government is
 subject to restrictions as set forth in subparagraphs (a)
 and (c) of the Commercial Computer Software - Restricted
 Rights clause in FAR 52.227-19.
  
 Gaussian, Inc.
 340 Quinnipiac St., Bldg. 40, Wallingford CT 06492
  
  
 ---------------------------------------------------------------
 Warning -- This program may not be used in any manner that
 competes with the business of Gaussian, Inc. or will provide
 assistance to any competitor of Gaussian, Inc.  The licensee
 of this program is prohibited from giving any competitor of
 Gaussian, Inc. access to this program.  By using this program,
 the user acknowledges that Gaussian, Inc. is engaged in the
 business of creating and licensing software in the field of
 computational chemistry and represents and warrants to the
 licensee that it is not a competitor of Gaussian, Inc. and that
 it will not use this program in any manner prohibited above.
 ---------------------------------------------------------------
  

 Cite this work as:
 Gaussian 16, Revision C.01,
 M. J. Frisch, G. W. Trucks, H. B. Schlegel, G. E. Scuseria, 
 M. A. Robb, J. R. Cheeseman, G. Scalmani, V. Barone, 
 G. A. Petersson, H. Nakatsuji, X. Li, M. Caricato, A. V. Marenich, 
 J. Bloino, B. G. Janesko, R. Gomperts, B. Mennucci, H. P. Hratchian, 
 J. V. Ortiz, A. F. Izmaylov, J. L. Sonnenberg, D. Williams-Young, 
 F. Ding, F. Lipparini, F. Egidi, J. Goings, B. Peng, A. Petrone, 
 T. Henderson, D. Ranasinghe, V. G. Zakrzewski, J. Gao, N. Rega, 
 G. Zheng, W. Liang, M. Hada, M. Ehara, K. Toyota, R. Fukuda, 
 J. Hasegawa, M. Ishida, T. Nakajima, Y. Honda, O. Kitao, H. Nakai, 
 T. Vreven, K. Throssell, J. A. Montgomery, Jr., J. E. Peralta, 
 F. Ogliaro, M. J. Bearpark, J. J. Heyd, E. N. Brothers, K. N. Kudin, 
 V. N. Staroverov, T. A. Keith, R. Kobayashi, J. Normand, 
 K. Raghavachari, A. P. Rendell, J. C. Burant, S. S. Iyengar, 
 J. Tomasi, M. Cossi, J. M. Millam, M. Klene, C. Adamo, R. Cammi, 
 J. W. Ochterski, R. L. Martin, K. Morokuma, O. Farkas, 
 J. B. Foresman, and D. J. Fox, Gaussian, Inc., Wallingford CT, 2019.
 
 ******************************************
 Gaussian 16:  ES64L-G16RevC.01  3-Jul-2019
                22-Feb-2021 
 ******************************************
 %chk=FBUKVWPVBMHYJY-UHFFFAOYSA-N.chk
 %NProcShared=32
 Will use up to   32 processors via shared memory.
 -------------------------------------------------------------
 #P BP86/TZVP EmpiricalDispersion=GD3 SCRF=(Solvent=Water) Opt
 -------------------------------------------------------------
 1/18=20,19=15,26=3,38=1/1,3;
 2/9=110,12=2,17=6,18=5,40=1/2;
 3/5=19,7=101,11=2,25=1,30=1,70=2201,71=1,72=1,74=404,124=31/1,2,3;
 4//1;
 5/5=2,38=5,53=1/2;
 6/7=2,8=2,9=2,10=2,28=1/1;
 7//1,2,3,16;
 1/18=20,19=15,26=3/3(2);
 2/9=110/2;
 99//99;
 2/9=110/2;
 3/5=19,7=101,11=2,25=1,30=1,70=2205,71=1,72=1,74=404,124=31/1,2,3;
 4/5=5,16=3,69=1/1;
 5/5=2,38=5,53=1/2;
 7//1,2,3,16;
 1/18=20,19=15,26=3/3(-5);
 2/9=110/2;
 6/7=2,8=2,9=2,10=2,19=2,28=1/1;
 99/9=1/99;
 Leave Link    1 at Mon Feb 22 21:00:18 2021, MaxMem=           0 cpu:               1.7 elap:               0.1
 (Enter /sw/arch/RedHatEnterpriseServer7/EB_production/2019/software/Gaussian/g16.c01/l101.exe)
 -------------------------------------
 Particle #FBUKVWPVBMHYJY-UHFFFAOYSA-N
 -------------------------------------
 Symbolic Z-matrix:
 Charge =  0 Multiplicity = 1
 C                    -8.73891  -1.46074   2.39206 
 C                    -7.2769   -1.04134   2.66883 
 C                    -6.56512  -0.4837    1.4091 
 C                    -5.09665  -0.05871   1.67613 
 C                    -4.40089   0.49757   0.40534 
 C                    -2.9323    0.9228    0.66749 
 C                    -2.23476   1.4748   -0.60396 
 C                    -0.76094   1.88802  -0.35114 
 C                    -0.11318   2.42351  -1.56448 
 O                     0.05773   1.7019   -2.57487 
 O                     0.30406   3.71046  -1.61356 
 H                    -8.77555  -2.24412   1.63282 
 H                    -9.32399  -0.60599   2.04774 
 H                    -9.194    -1.84464   3.30623 
 H                    -6.73184  -1.91296   3.03982 
 H                    -7.27851  -0.28054   3.45341 
 H                    -6.57409  -1.24969   0.62962 
 H                    -7.12159   0.38277   1.04305 
 H                    -4.53373  -0.92286   2.03978 
 H                    -5.08115   0.7088    2.45514 
 H                    -4.41513  -0.27037  -0.37307 
 H                    -4.96318   1.36123   0.03962 
 H                    -2.91904   1.6923    1.44381 
 H                    -2.37363   0.05814   1.03688 
 H                    -2.79114   2.34571  -0.9623 
 H                    -2.26483   0.70602  -1.38184 
 H                    -0.73204   2.64581   0.4371 
 H                    -0.18784   1.02348  -0.00927 
 H                     0.71916   4.06561  -2.42856 
 
 ITRead=  0  0  0  0  0  0  0  0  0  0  0  0  0  0  0  0  0  0  0  0
 ITRead=  0  0  0  0  0  0  0  0  0
 MicOpt= -1 -1 -1 -1 -1 -1 -1 -1 -1 -1 -1 -1 -1 -1 -1 -1 -1 -1 -1 -1
 MicOpt= -1 -1 -1 -1 -1 -1 -1 -1 -1
 NAtoms=     29 NQM=       29 NQMF=       0 NMMI=      0 NMMIF=      0
                NMic=       0 NMicF=      0.
                    Isotopes and Nuclear Properties:
 (Nuclear quadrupole moments (NQMom) in fm**2, nuclear magnetic moments (NMagM)
  in nuclear magnetons)

  Atom         1           2           3           4           5           6           7           8           9          10
 IAtWgt=          12          12          12          12          12          12          12          12          12          16
 AtmWgt=  12.0000000  12.0000000  12.0000000  12.0000000  12.0000000  12.0000000  12.0000000  12.0000000  12.0000000  15.9949146
 NucSpn=           0           0           0           0           0           0           0           0           0           0
 AtZEff=  -0.0000000  -0.0000000  -0.0000000  -0.0000000  -0.0000000  -0.0000000  -0.0000000  -0.0000000  -0.0000000  -0.0000000
 NQMom=    0.0000000   0.0000000   0.0000000   0.0000000   0.0000000   0.0000000   0.0000000   0.0000000   0.0000000   0.0000000
 NMagM=    0.0000000   0.0000000   0.0000000   0.0000000   0.0000000   0.0000000   0.0000000   0.0000000   0.0000000   0.0000000
 AtZNuc=   6.0000000   6.0000000   6.0000000   6.0000000   6.0000000   6.0000000   6.0000000   6.0000000   6.0000000   8.0000000

  Atom        11          12          13          14          15          16          17          18          19          20
 IAtWgt=          16           1           1           1           1           1           1           1           1           1
 AtmWgt=  15.9949146   1.0078250   1.0078250   1.0078250   1.0078250   1.0078250   1.0078250   1.0078250   1.0078250   1.0078250
 NucSpn=           0           1           1           1           1           1           1           1           1           1
 AtZEff=  -0.0000000  -0.0000000  -0.0000000  -0.0000000  -0.0000000  -0.0000000  -0.0000000  -0.0000000  -0.0000000  -0.0000000
 NQMom=    0.0000000   0.0000000   0.0000000   0.0000000   0.0000000   0.0000000   0.0000000   0.0000000   0.0000000   0.0000000
 NMagM=    0.0000000   2.7928460   2.7928460   2.7928460   2.7928460   2.7928460   2.7928460   2.7928460   2.7928460   2.7928460
 AtZNuc=   8.0000000   1.0000000   1.0000000   1.0000000   1.0000000   1.0000000   1.0000000   1.0000000   1.0000000   1.0000000

  Atom        21          22          23          24          25          26          27          28          29
 IAtWgt=           1           1           1           1           1           1           1           1           1
 AtmWgt=   1.0078250   1.0078250   1.0078250   1.0078250   1.0078250   1.0078250   1.0078250   1.0078250   1.0078250
 NucSpn=           1           1           1           1           1           1           1           1           1
 AtZEff=  -0.0000000  -0.0000000  -0.0000000  -0.0000000  -0.0000000  -0.0000000  -0.0000000  -0.0000000  -0.0000000
 NQMom=    0.0000000   0.0000000   0.0000000   0.0000000   0.0000000   0.0000000   0.0000000   0.0000000   0.0000000
 NMagM=    2.7928460   2.7928460   2.7928460   2.7928460   2.7928460   2.7928460   2.7928460   2.7928460   2.7928460
 AtZNuc=   1.0000000   1.0000000   1.0000000   1.0000000   1.0000000   1.0000000   1.0000000   1.0000000   1.0000000
 Leave Link  101 at Mon Feb 22 21:00:18 2021, MaxMem=   104857600 cpu:               2.7 elap:               0.1
 (Enter /sw/arch/RedHatEnterpriseServer7/EB_production/2019/software/Gaussian/g16.c01/l103.exe)

 GradGradGradGradGradGradGradGradGradGradGradGradGradGradGradGradGradGrad
 Berny optimization.
 Initialization pass.
                           ----------------------------
                           !    Initial Parameters    !
                           ! (Angstroms and Degrees)  !
 --------------------------                            --------------------------
 ! Name  Definition              Value          Derivative Info.                !
 --------------------------------------------------------------------------------
 ! R1    R(1,2)                  1.546          estimate D2E/DX2                !
 ! R2    R(1,12)                 1.0915         estimate D2E/DX2                !
 ! R3    R(1,13)                 1.0915         estimate D2E/DX2                !
 ! R4    R(1,14)                 1.091          estimate D2E/DX2                !
 ! R5    R(2,3)                  1.5506         estimate D2E/DX2                !
 ! R6    R(2,15)                 1.0929         estimate D2E/DX2                !
 ! R7    R(2,16)                 1.0929         estimate D2E/DX2                !
 ! R8    R(3,4)                  1.5519         estimate D2E/DX2                !
 ! R9    R(3,17)                 1.0929         estimate D2E/DX2                !
 ! R10   R(3,18)                 1.0929         estimate D2E/DX2                !
 ! R11   R(4,5)                  1.5519         estimate D2E/DX2                !
 ! R12   R(4,19)                 1.0936         estimate D2E/DX2                !
 ! R13   R(4,20)                 1.0937         estimate D2E/DX2                !
 ! R14   R(5,6)                  1.5512         estimate D2E/DX2                !
 ! R15   R(5,21)                 1.0936         estimate D2E/DX2                !
 ! R16   R(5,22)                 1.0935         estimate D2E/DX2                !
 ! R17   R(6,7)                  1.5517         estimate D2E/DX2                !
 ! R18   R(6,23)                 1.0932         estimate D2E/DX2                !
 ! R19   R(6,24)                 1.0937         estimate D2E/DX2                !
 ! R20   R(7,8)                  1.5514         estimate D2E/DX2                !
 ! R21   R(7,25)                 1.0938         estimate D2E/DX2                !
 ! R22   R(7,26)                 1.0941         estimate D2E/DX2                !
 ! R23   R(8,9)                  1.476          estimate D2E/DX2                !
 ! R24   R(8,27)                 1.0938         estimate D2E/DX2                !
 ! R25   R(8,28)                 1.0921         estimate D2E/DX2                !
 ! R26   R(9,10)                 1.2533         estimate D2E/DX2                !
 ! R27   R(9,11)                 1.3538         estimate D2E/DX2                !
 ! R28   R(11,29)                0.9812         estimate D2E/DX2                !
 ! A1    A(2,1,12)             110.5466         estimate D2E/DX2                !
 ! A2    A(2,1,13)             110.545          estimate D2E/DX2                !
 ! A3    A(2,1,14)             109.8734         estimate D2E/DX2                !
 ! A4    A(12,1,13)            108.9405         estimate D2E/DX2                !
 ! A5    A(12,1,14)            108.4393         estimate D2E/DX2                !
 ! A6    A(13,1,14)            108.4384         estimate D2E/DX2                !
 ! A7    A(1,2,3)              112.7192         estimate D2E/DX2                !
 ! A8    A(1,2,15)             108.4246         estimate D2E/DX2                !
 ! A9    A(1,2,16)             108.4205         estimate D2E/DX2                !
 ! A10   A(3,2,15)             109.4902         estimate D2E/DX2                !
 ! A11   A(3,2,16)             109.4842         estimate D2E/DX2                !
 ! A12   A(15,2,16)            108.1938         estimate D2E/DX2                !
 ! A13   A(2,3,4)              113.1442         estimate D2E/DX2                !
 ! A14   A(2,3,17)             108.8808         estimate D2E/DX2                !
 ! A15   A(2,3,18)             108.8741         estimate D2E/DX2                !
 ! A16   A(4,3,17)             108.81           estimate D2E/DX2                !
 ! A17   A(4,3,18)             108.8032         estimate D2E/DX2                !
 ! A18   A(17,3,18)            108.2166         estimate D2E/DX2                !
 ! A19   A(3,4,5)              112.4261         estimate D2E/DX2                !
 ! A20   A(3,4,19)             109.1418         estimate D2E/DX2                !
 ! A21   A(3,4,20)             109.1566         estimate D2E/DX2                !
 ! A22   A(5,4,19)             108.9518         estimate D2E/DX2                !
 ! A23   A(5,4,20)             108.9868         estimate D2E/DX2                !
 ! A24   A(19,4,20)            108.0826         estimate D2E/DX2                !
 ! A25   A(4,5,6)              112.6014         estimate D2E/DX2                !
 ! A26   A(4,5,21)             108.9849         estimate D2E/DX2                !
 ! A27   A(4,5,22)             109.052          estimate D2E/DX2                !
 ! A28   A(6,5,21)             108.9731         estimate D2E/DX2                !
 ! A29   A(6,5,22)             109.0758         estimate D2E/DX2                !
 ! A30   A(21,5,22)            108.0512         estimate D2E/DX2                !
 ! A31   A(5,6,7)              112.6203         estimate D2E/DX2                !
 ! A32   A(5,6,23)             108.9331         estimate D2E/DX2                !
 ! A33   A(5,6,24)             108.9021         estimate D2E/DX2                !
 ! A34   A(7,6,23)             109.0281         estimate D2E/DX2                !
 ! A35   A(7,6,24)             109.1688         estimate D2E/DX2                !
 ! A36   A(23,6,24)            108.087          estimate D2E/DX2                !
 ! A37   A(6,7,8)              112.847          estimate D2E/DX2                !
 ! A38   A(6,7,25)             108.8453         estimate D2E/DX2                !
 ! A39   A(6,7,26)             108.678          estimate D2E/DX2                !
 ! A40   A(8,7,25)             108.9375         estimate D2E/DX2                !
 ! A41   A(8,7,26)             109.2162         estimate D2E/DX2                !
 ! A42   A(25,7,26)            108.2141         estimate D2E/DX2                !
 ! A43   A(7,8,9)              112.3084         estimate D2E/DX2                !
 ! A44   A(7,8,27)             109.091          estimate D2E/DX2                !
 ! A45   A(7,8,28)             109.7965         estimate D2E/DX2                !
 ! A46   A(9,8,27)             109.2361         estimate D2E/DX2                !
 ! A47   A(9,8,28)             108.3142         estimate D2E/DX2                !
 ! A48   A(27,8,28)            107.9979         estimate D2E/DX2                !
 ! A49   A(8,9,10)             120.9089         estimate D2E/DX2                !
 ! A50   A(8,9,11)             120.6606         estimate D2E/DX2                !
 ! A51   A(10,9,11)            118.4295         estimate D2E/DX2                !
 ! A52   A(9,11,29)            120.3053         estimate D2E/DX2                !
 ! D1    D(12,1,2,3)            60.3628         estimate D2E/DX2                !
 ! D2    D(12,1,2,15)          -61.019          estimate D2E/DX2                !
 ! D3    D(12,1,2,16)         -178.2659         estimate D2E/DX2                !
 ! D4    D(13,1,2,3)           -60.3445         estimate D2E/DX2                !
 ! D5    D(13,1,2,15)          178.2737         estimate D2E/DX2                !
 ! D6    D(13,1,2,16)           61.0268         estimate D2E/DX2                !
 ! D7    D(14,1,2,3)          -179.9897         estimate D2E/DX2                !
 ! D8    D(14,1,2,15)           58.6284         estimate D2E/DX2                !
 ! D9    D(14,1,2,16)          -58.6184         estimate D2E/DX2                !
 ! D10   D(1,2,3,4)            179.9645         estimate D2E/DX2                !
 ! D11   D(1,2,3,17)           -58.9189         estimate D2E/DX2                !
 ! D12   D(1,2,3,18)            58.8614         estimate D2E/DX2                !
 ! D13   D(15,2,3,4)           -59.2609         estimate D2E/DX2                !
 ! D14   D(15,2,3,17)           61.8556         estimate D2E/DX2                !
 ! D15   D(15,2,3,18)          179.6359         estimate D2E/DX2                !
 ! D16   D(16,2,3,4)            59.1995         estimate D2E/DX2                !
 ! D17   D(16,2,3,17)         -179.6839         estimate D2E/DX2                !
 ! D18   D(16,2,3,18)          -61.9036         estimate D2E/DX2                !
 ! D19   D(2,3,4,5)           -179.9553         estimate D2E/DX2                !
 ! D20   D(2,3,4,19)            59.0369         estimate D2E/DX2                !
 ! D21   D(2,3,4,20)           -58.893          estimate D2E/DX2                !
 ! D22   D(17,3,4,5)            58.8881         estimate D2E/DX2                !
 ! D23   D(17,3,4,19)          -62.1196         estimate D2E/DX2                !
 ! D24   D(17,3,4,20)          179.9504         estimate D2E/DX2                !
 ! D25   D(18,3,4,5)           -58.8121         estimate D2E/DX2                !
 ! D26   D(18,3,4,19)         -179.8199         estimate D2E/DX2                !
 ! D27   D(18,3,4,20)           62.2502         estimate D2E/DX2                !
 ! D28   D(3,4,5,6)           -179.9617         estimate D2E/DX2                !
 ! D29   D(3,4,5,21)           -58.921          estimate D2E/DX2                !
 ! D30   D(3,4,5,22)            58.8211         estimate D2E/DX2                !
 ! D31   D(19,4,5,6)           -58.845          estimate D2E/DX2                !
 ! D32   D(19,4,5,21)           62.1957         estimate D2E/DX2                !
 ! D33   D(19,4,5,22)          179.9377         estimate D2E/DX2                !
 ! D34   D(20,4,5,6)            58.8788         estimate D2E/DX2                !
 ! D35   D(20,4,5,21)          179.9195         estimate D2E/DX2                !
 ! D36   D(20,4,5,22)          -62.3385         estimate D2E/DX2                !
 ! D37   D(4,5,6,7)            179.814          estimate D2E/DX2                !
 ! D38   D(4,5,6,23)           -59.0993         estimate D2E/DX2                !
 ! D39   D(4,5,6,24)            58.5709         estimate D2E/DX2                !
 ! D40   D(21,5,6,7)            58.7666         estimate D2E/DX2                !
 ! D41   D(21,5,6,23)          179.8532         estimate D2E/DX2                !
 ! D42   D(21,5,6,24)          -62.4765         estimate D2E/DX2                !
 ! D43   D(22,5,6,7)           -58.9823         estimate D2E/DX2                !
 ! D44   D(22,5,6,23)           62.1043         estimate D2E/DX2                !
 ! D45   D(22,5,6,24)          179.7746         estimate D2E/DX2                !
 ! D46   D(5,6,7,8)           -179.4047         estimate D2E/DX2                !
 ! D47   D(5,6,7,25)            59.5365         estimate D2E/DX2                !
 ! D48   D(5,6,7,26)           -58.11           estimate D2E/DX2                !
 ! D49   D(23,6,7,8)            59.5629         estimate D2E/DX2                !
 ! D50   D(23,6,7,25)          -61.4958         estimate D2E/DX2                !
 ! D51   D(23,6,7,26)         -179.1423         estimate D2E/DX2                !
 ! D52   D(24,6,7,8)           -58.3138         estimate D2E/DX2                !
 ! D53   D(24,6,7,25)         -179.3725         estimate D2E/DX2                !
 ! D54   D(24,6,7,26)           62.9809         estimate D2E/DX2                !
 ! D55   D(6,7,8,9)           -179.4368         estimate D2E/DX2                !
 ! D56   D(6,7,8,27)           -58.1818         estimate D2E/DX2                !
 ! D57   D(6,7,8,28)            59.9878         estimate D2E/DX2                !
 ! D58   D(25,7,8,9)           -58.4305         estimate D2E/DX2                !
 ! D59   D(25,7,8,27)           62.8245         estimate D2E/DX2                !
 ! D60   D(25,7,8,28)         -179.0059         estimate D2E/DX2                !
 ! D61   D(26,7,8,9)            59.5742         estimate D2E/DX2                !
 ! D62   D(26,7,8,27)         -179.1708         estimate D2E/DX2                !
 ! D63   D(26,7,8,28)          -61.0011         estimate D2E/DX2                !
 ! D64   D(7,8,9,10)           -63.8227         estimate D2E/DX2                !
 ! D65   D(7,8,9,11)           115.8119         estimate D2E/DX2                !
 ! D66   D(27,8,9,10)          175.0054         estimate D2E/DX2                !
 ! D67   D(27,8,9,11)           -5.3599         estimate D2E/DX2                !
 ! D68   D(28,8,9,10)           57.6047         estimate D2E/DX2                !
 ! D69   D(28,8,9,11)         -122.7606         estimate D2E/DX2                !
 ! D70   D(8,9,11,29)         -178.8764         estimate D2E/DX2                !
 ! D71   D(10,9,11,29)           0.7672         estimate D2E/DX2                !
 --------------------------------------------------------------------------------
 Trust Radius=3.00D-01 FncErr=1.00D-07 GrdErr=1.00D-06 EigMax=2.50D+02 EigMin=1.00D-04
 Number of steps in this run=    161 maximum allowed number of steps=    174.
 GradGradGradGradGradGradGradGradGradGradGradGradGradGradGradGradGradGrad

 Leave Link  103 at Mon Feb 22 21:00:18 2021, MaxMem=   104857600 cpu:               0.6 elap:               0.1
 (Enter /sw/arch/RedHatEnterpriseServer7/EB_production/2019/software/Gaussian/g16.c01/l202.exe)
                          Input orientation:                          
 ---------------------------------------------------------------------
 Center     Atomic      Atomic             Coordinates (Angstroms)
 Number     Number       Type             X           Y           Z
 ---------------------------------------------------------------------
      1          6           0       -8.738910   -1.460740    2.392060
      2          6           0       -7.276900   -1.041340    2.668830
      3          6           0       -6.565120   -0.483700    1.409100
      4          6           0       -5.096650   -0.058710    1.676130
      5          6           0       -4.400890    0.497570    0.405340
      6          6           0       -2.932300    0.922800    0.667490
      7          6           0       -2.234760    1.474800   -0.603960
      8          6           0       -0.760940    1.888020   -0.351140
      9          6           0       -0.113180    2.423510   -1.564480
     10          8           0        0.057730    1.701900   -2.574870
     11          8           0        0.304060    3.710460   -1.613560
     12          1           0       -8.775550   -2.244120    1.632820
     13          1           0       -9.323990   -0.605990    2.047740
     14          1           0       -9.194000   -1.844640    3.306230
     15          1           0       -6.731840   -1.912960    3.039820
     16          1           0       -7.278510   -0.280540    3.453410
     17          1           0       -6.574090   -1.249690    0.629620
     18          1           0       -7.121590    0.382770    1.043050
     19          1           0       -4.533730   -0.922860    2.039780
     20          1           0       -5.081150    0.708800    2.455140
     21          1           0       -4.415130   -0.270370   -0.373070
     22          1           0       -4.963180    1.361230    0.039620
     23          1           0       -2.919040    1.692300    1.443810
     24          1           0       -2.373630    0.058140    1.036880
     25          1           0       -2.791140    2.345710   -0.962300
     26          1           0       -2.264830    0.706020   -1.381840
     27          1           0       -0.732040    2.645810    0.437100
     28          1           0       -0.187840    1.023480   -0.009270
     29          1           0        0.719160    4.065610   -2.428560
 ---------------------------------------------------------------------
                    Distance matrix (angstroms):
                    1          2          3          4          5
     1  C    0.000000
     2  C    1.545953   0.000000
     3  C    2.578019   1.550649   0.000000
     4  C    3.967909   2.589306   1.551878   0.000000
     5  C    5.157563   3.970273   2.579596   1.551914   0.000000
     6  C    6.509387   5.170953   3.965553   2.581691   1.551225
     7  C    7.739347   6.516540   5.161410   3.967477   2.581818
     8  C    9.076747   7.756230   6.512450   5.167007   3.969238
     9  C   10.254015   9.013600   7.676039   6.441890   5.096459
    10  O   10.585535   9.424360   8.031874   6.909297   5.496486
    11  O   11.160717   9.919144   8.597272   7.361818   6.044433
    12  H    1.091546   2.183105   2.834630   4.279275   5.306715
    13  H    1.091546   2.183085   2.834463   4.278786   5.305868
    14  H    1.090960   2.174130   3.516002   4.757631   6.072480
    15  H    2.156948   1.092907   2.174817   2.823427   4.264325
    16  H    2.156874   1.092879   2.174719   2.822844   4.263436
    17  H    2.799497   2.166963   1.092891   2.167128   2.797502
    18  H    2.798943   2.166880   1.092896   2.167043   2.796795
    19  H    4.254052   2.816864   2.171903   1.093561   2.169484
    20  H    4.253245   2.816021   2.172193   1.093695   2.170035
    21  H    5.268586   4.247032   2.800731   2.169906   1.093552
    22  H    5.268171   4.247162   2.800974   2.170762   1.093540
    23  H    6.686683   5.288138   4.246184   2.803925   2.168336
    24  H    6.682836   5.283387   4.242726   2.799488   2.168346
    25  H    7.817721   6.691730   5.279396   4.249462   2.806663
    26  H    7.800698   6.676978   5.262820   4.237357   2.792887
    27  H    9.208452   7.836510   6.690548   5.281992   4.251635
    28  H    9.222718   7.854328   6.704705   5.301710   4.265943
    29  H   11.968041  10.770390   9.406625   8.226916   6.853963
                    6          7          8          9         10
     6  C    0.000000
     7  C    1.551725   0.000000
     8  C    2.585355   1.551391   0.000000
     9  C    3.896313   2.514707   1.475987   0.000000
    10  O    4.478859   3.031760   2.376938   1.253323   0.000000
    11  O    4.842341   3.530308   2.459516   1.353787   2.240337
    12  H    6.716012   7.849553   9.232803  10.346311  10.550003
    13  H    6.715355   7.849738   9.235829  10.347223  10.710348
    14  H    7.336931   8.645189   9.920968  11.153574  11.522144
    15  H    5.301508   6.706547   7.848421   9.154846   9.523141
    16  H    5.300841   6.706928   7.852132   9.156040   9.700033
    17  H    4.240729   5.270138   6.678310   7.749183   7.934839
    18  H    4.240617   5.271269   6.683368   7.751235   8.146906
    19  H    2.802538   4.245397   5.277451   6.612877   7.018965
    20  H    2.803399   4.248151   5.284882   6.616517   7.259155
    21  H    2.169148   2.802310   4.244082   5.213753   5.361366
    22  H    2.170464   2.805596   4.253119   5.217670   5.671080
    23  H    1.093151   2.170002   2.813814   4.178197   5.001104
    24  H    1.093708   2.172226   2.806391   4.179914   4.653837
    25  H    2.168136   1.093824   2.169034   2.745932   3.336305
    26  H    2.166163   1.094086   2.172821   2.759117   2.794527
    27  H    2.804102   2.170999   1.093802   2.106829   3.253716
    28  H    2.828463   2.178813   1.092130   2.093881   2.665119
    29  H    5.726774   4.332102   3.353844   2.033695   2.458866
                   11         12         13         14         15
    11  O    0.000000
    12  H   11.332931   0.000000
    13  H   11.168536   1.776630   0.000000
    14  H   12.053075   1.770589   1.770579   0.000000
    15  H   10.138081   2.503211   3.067839   2.477473   0.000000
    16  H    9.954779   3.067788   2.503161   2.477332   1.770508
    17  H    8.771767   2.615670   3.160279   3.792379   2.504771
    18  H    8.559870   3.159741   2.614883   3.791863   3.067470
    19  H    7.630122   4.461433   4.800735   4.916471   2.609993
    20  H    7.386797   4.800473   4.460531   4.915277   3.152817
    21  H    6.297347   5.189658   5.483600   6.233231   4.439940
    22  H    5.999642   5.483703   5.188368   6.232831   4.780134
    23  H    4.879432   7.059025   6.831563   7.440005   5.484760
    24  H    5.247313   6.829358   7.054815   7.435588   5.185653
    25  H    3.444843   7.975860   7.775024   8.762191   7.048571
    26  H    3.959741   7.757640   7.957080   8.746271   6.809134
    27  H    2.532230   9.488900   9.326841  10.000041   7.972085
    28  H    3.167897   9.333940   9.505562  10.016465   7.793816
    29  H    0.981155  12.101943  11.946797  12.887576  11.007447
                   16         17         18         19         20
    16  H    0.000000
    17  H    3.067450   0.000000
    18  H    2.504883   1.770764   0.000000
    19  H    3.153529   2.501687   3.065152   0.000000
    20  H    2.608396   3.065465   2.502736   1.770454   0.000000
    21  H    4.779226   2.574017   3.123606   2.502330   3.066126
    22  H    4.439609   3.124105   2.573517   3.066290   2.504859
    23  H    5.189949   4.762100   4.420057   3.130729   2.581624
    24  H    5.478336   4.418161   4.759049   2.575694   3.124978
    25  H    6.821450   5.456356   5.160170   4.767877   4.427473
    26  H    7.034908   5.142032   5.438079   4.416859   4.759630
    27  H    7.779326   7.024353   6.805503   5.454983   5.171001
    28  H    7.998014   6.808794   7.042356   5.183976   5.487880
    29  H   10.837404   9.528713   9.332349   8.511389   8.292303
                   21         22         23         24         25
    21  H    0.000000
    22  H    1.769969   0.000000
    23  H    3.064541   2.501972   0.000000
    24  H    2.502719   3.065671   1.770182   0.000000
    25  H    3.135030   2.586659   2.496531   3.066596   0.000000
    26  H    2.568023   3.119446   3.063501   2.506350   1.772456
    27  H    4.767141   4.439671   2.589520   3.122593   2.507643
    28  H    4.435806   4.787519   3.165156   2.608446   3.071438
    29  H    7.027567   6.759776   5.819308   6.134692   4.174947
                   26         27         28         29
    26  H    0.000000
    27  H    3.069328   0.000000
    28  H    2.509705   1.768433   0.000000
    29  H    4.613747   3.511954   3.991261   0.000000
 Stoichiometry    C9H18O2
 Framework group  C1[X(C9H18O2)]
 Deg. of freedom    81
 Full point group                 C1      NOp   1
 Largest Abelian subgroup         C1      NOp   1
 Largest concise Abelian subgroup C1      NOp   1
                         Standard orientation:                         
 ---------------------------------------------------------------------
 Center     Atomic      Atomic             Coordinates (Angstroms)
 Number     Number       Type             X           Y           Z
 ---------------------------------------------------------------------
      1          6           0       -6.056619    0.421637    0.289264
      2          6           0       -4.813268   -0.373544   -0.170883
      3          6           0       -3.481731    0.326630    0.204985
      4          6           0       -2.226801   -0.463895   -0.251684
      5          6           0       -0.904236    0.250777    0.133677
      6          6           0        0.352942   -0.535581   -0.321782
      7          6           0        1.675563    0.180893    0.059258
      8          6           0        2.936241   -0.593891   -0.406805
      9          6           0        4.187193    0.091117   -0.026782
     10          8           0        4.469819    1.220152   -0.491779
     11          8           0        5.053636   -0.484354    0.839733
     12          1           0       -6.073769    1.408886   -0.176050
     13          1           0       -6.054853    0.541308    1.374229
     14          1           0       -6.964513   -0.110897    0.002334
     15          1           0       -4.865613   -0.499450   -1.255251
     16          1           0       -4.846928   -1.364070    0.289671
     17          1           0       -3.460907    1.317512   -0.255590
     18          1           0       -3.442817    0.453237    1.289825
     19          1           0       -2.258519   -0.591010   -1.337369
     20          1           0       -2.241491   -1.456688    0.206917
     21          1           0       -0.888937    1.242879   -0.326057
     22          1           0       -0.871323    0.379740    1.219087
     23          1           0        0.338334   -1.526203    0.140208
     24          1           0        0.315130   -0.666423   -1.406978
     25          1           0        1.713042    0.298937    1.146047
     26          1           0        1.677364    1.177039   -0.393194
     27          1           0        2.924808   -1.594502    0.034840
     28          1           0        2.921873   -0.704375   -1.493237
     29          1           0        5.875766   -0.017161    1.101454
 ---------------------------------------------------------------------
 Rotational constants (GHZ):           5.1022946           0.2190745           0.2166565
 Leave Link  202 at Mon Feb 22 21:00:18 2021, MaxMem=   104857600 cpu:               1.1 elap:               0.1
 (Enter /sw/arch/RedHatEnterpriseServer7/EB_production/2019/software/Gaussian/g16.c01/l301.exe)
 Standard basis: TZVP (5D, 7F)
 Ernie: Thresh=  0.10000D-02 Tol=  0.10000D-05 Strict=F.
 There are   328 symmetry adapted cartesian basis functions of A   symmetry.
 There are   317 symmetry adapted basis functions of A   symmetry.
   317 basis functions,   529 primitive gaussians,   328 cartesian basis functions
    44 alpha electrons       44 beta electrons
       nuclear repulsion energy       583.8448416420 Hartrees.
 IExCor=  404 DFT=T Ex=B Corr=P86 ExCW=0 ScaHFX=  0.000000
 ScaDFX=  1.000000  1.000000  1.000000  1.000000 ScalE2=  1.000000  1.000000
 IRadAn=      5 IRanWt=     -1 IRanGd=            0 ICorTp=0 IEmpDi=131
 NAtoms=   29 NActive=   29 NUniq=   29 SFac= 1.00D+00 NAtFMM=   60 NAOKFM=F Big=F
 Integral buffers will be    131072 words long.
 Raffenetti 2 integral format.
 Two-electron integral symmetry is turned on.
 R6Disp:  Grimme-D3 Dispersion energy=       -0.0254818398 Hartrees.
 Nuclear repulsion after empirical dispersion term =      583.8193598022 Hartrees.
 ------------------------------------------------------------------------------
 Polarizable Continuum Model (PCM)
 =================================
 Model                : PCM.
 Atomic radii         : UFF (Universal Force Field).
 Polarization charges : Total charges.
 Charge compensation  : None.
 Solution method      : On-the-fly selection.
 Cavity type          : Scaled VdW (van der Waals Surface) (Alpha=1.100).
 Cavity algorithm     : GePol (No added spheres)
                        Default sphere list used, NSphG=   29.
                        Lebedev-Laikov grids with approx.  5.0 points / Ang**2.
                        Smoothing algorithm: York/Karplus (Gamma=1.0000).
                        Polarization charges: spherical gaussians, with
                                              point-specific exponents (IZeta= 3).
                        Self-potential: point-specific (ISelfS= 7).
                        Self-field    : sphere-specific E.n sum rule (ISelfD= 2).
 1st derivatives      : Analytical E(r).r(x)/FMM algorithm (CHGder, D1EAlg=3).
                        Cavity 1st derivative terms included.
 Solvent              : Water, Eps=  78.355300 Eps(inf)=   1.777849
 ------------------------------------------------------------------------------
 GePol: Number of generator spheres                  =      29
 GePol: Total number of spheres                      =      29
 GePol: Number of exposed spheres                    =      29 (100.00%)
 GePol: Number of points                             =    2172
 GePol: Average weight of points                     =       0.13
 GePol: Minimum weight of points                     =   0.20D-08
 GePol: Maximum weight of points                     =    0.20577
 GePol: Number of points with low weight             =     151
 GePol: Fraction of low-weight points (<1% of avg)   =       6.95%
 GePol: Cavity surface area                          =    283.420 Ang**2
 GePol: Cavity volume                                =    277.899 Ang**3
 Leave Link  301 at Mon Feb 22 21:00:18 2021, MaxMem=   104857600 cpu:               1.9 elap:               0.1
 (Enter /sw/arch/RedHatEnterpriseServer7/EB_production/2019/software/Gaussian/g16.c01/l302.exe)
 NPDir=0 NMtPBC=     1 NCelOv=     1 NCel=       1 NClECP=     1 NCelD=      1
         NCelK=      1 NCelE2=     1 NClLst=     1 CellRange=     0.0.
 One-electron integrals computed using PRISM.
 One-electron integral symmetry used in STVInt
 PrsmSu:  requested number of processors reduced to:  27 ShMem   1 Linda.
 NBasis=   317 RedAO= T EigKep=  7.16D-05  NBF=   317
 NBsUse=   317 1.00D-06 EigRej= -1.00D+00 NBFU=   317
 Precomputing XC quadrature grid using
 IXCGrd= 4 IRadAn=           5 IRanWt=          -1 IRanGd=           0 AccXCQ= 0.00D+00.
 Generated NRdTot=       0 NPtTot=           0 NUsed=           0 NTot=          32
 NSgBfM=   316   316   316   316   316 MxSgAt=    29 MxSgA2=    29.
 Leave Link  302 at Mon Feb 22 21:00:19 2021, MaxMem=   104857600 cpu:              11.7 elap:               0.4
 (Enter /sw/arch/RedHatEnterpriseServer7/EB_production/2019/software/Gaussian/g16.c01/l303.exe)
 DipDrv:  MaxL=1.
 Leave Link  303 at Mon Feb 22 21:00:19 2021, MaxMem=   104857600 cpu:               1.5 elap:               0.1
 (Enter /sw/arch/RedHatEnterpriseServer7/EB_production/2019/software/Gaussian/g16.c01/l401.exe)
 ExpMin= 9.52D-02 ExpMax= 2.70D+04 ExpMxC= 9.22D+02 IAcc=3 IRadAn=         5 AccDes= 0.00D+00
 Harris functional with IExCor=  404 and IRadAn=       5 diagonalized for initial guess.
 HarFok:  IExCor=  404 AccDes= 0.00D+00 IRadAn=         5 IDoV= 1 UseB2=F ITyADJ=14
 ICtDFT=  3500011 ScaDFX=  1.000000  1.000000  1.000000  1.000000
 FoFCou: FMM=F IPFlag=           0 FMFlag=      100000 FMFlg1=           0
         NFxFlg=           0 DoJE=T BraDBF=F KetDBF=T FulRan=T
         wScrn=  0.000000 ICntrl=       500 IOpCl=  0 I1Cent=   200000004 NGrid=           0
         NMat0=    1 NMatS0=      1 NMatT0=    0 NMatD0=    1 NMtDS0=    0 NMtDT0=    0
 Petite list used in FoFCou.
 Harris En= -504.767633231154    
 JPrj=0 DoOrth=F DoCkMO=F.
 Leave Link  401 at Mon Feb 22 21:00:20 2021, MaxMem=   104857600 cpu:              18.0 elap:               0.6
 (Enter /sw/arch/RedHatEnterpriseServer7/EB_production/2019/software/Gaussian/g16.c01/l502.exe)
 Integral symmetry usage will be decided dynamically.
 Closed shell SCF:
 Using DIIS extrapolation, IDIIS=  1040.
 NGot=   104857600 LenX=   104627748 LenY=   104519723
 Requested convergence on RMS density matrix=1.00D-08 within 128 cycles.
 Requested convergence on MAX density matrix=1.00D-06.
 Requested convergence on             energy=1.00D-06.
 No special actions if energy rises.
 Fock matrices will be formed incrementally for  20 cycles.

 Cycle   1  Pass 1  IDiag  1:
 FoFJK:  IHMeth= 1 ICntrl=     500 DoSepK=F KAlg= 0 I1Cent=           0 FoldK=F
 IRaf= 790000000 NMat=       1 IRICut=       1 DoRegI=T DoRafI=F ISym2E= 0 IDoP0=0 IntGTp=1.
 FoFCou: FMM=F IPFlag=           0 FMFlag=      100000 FMFlg1=           0
         NFxFlg=           0 DoJE=T BraDBF=F KetDBF=F FulRan=T
         wScrn=  0.000000 ICntrl=       500 IOpCl=  0 I1Cent=           0 NGrid=           0
         NMat0=    1 NMatS0=      1 NMatT0=    0 NMatD0=    1 NMtDS0=    0 NMtDT0=    0
 Symmetry not used in FoFCou.
 Inv3:  Mode=1 IEnd=    14152752.
 Iteration    1 A*A^-1 deviation from unit magnitude is 3.55D-15 for   1273.
 Iteration    1 A*A^-1 deviation from orthogonality  is 2.66D-15 for   2113    746.
 Iteration    1 A^-1*A deviation from unit magnitude is 3.11D-15 for   1835.
 Iteration    1 A^-1*A deviation from orthogonality  is 2.33D-15 for   2036   1000.
 E= -504.066119361815    
 DIIS: error= 3.04D-02 at cycle   1 NSaved=   1.
 NSaved= 1 IEnMin= 1 EnMin= -504.066119361815     IErMin= 1 ErrMin= 3.04D-02
 ErrMax= 3.04D-02  0.00D+00 EMaxC= 1.00D-01 BMatC= 4.14D-01 BMatP= 4.14D-01
 IDIUse=3 WtCom= 6.96D-01 WtEn= 3.04D-01
 Coeff-Com:  0.100D+01
 Coeff-En:   0.100D+01
 Coeff:      0.100D+01
 Gap=     0.063 Goal=   None    Shift=    0.000
 GapD=    0.063 DampG=0.500 DampE=0.500 DampFc=0.2500 IDamp=-1.
 Damping current iteration by 2.50D-01
 RMSDP=6.25D-03 MaxDP=4.72D-01              OVMax= 2.56D-01

 Cycle   2  Pass 1  IDiag  1:
 RMSU=  1.56D-03    CP:  9.88D-01
 E= -504.210668749453     Delta-E=       -0.144549387638 Rises=F Damp=T
 DIIS: error= 1.46D-02 at cycle   2 NSaved=   2.
 NSaved= 2 IEnMin= 2 EnMin= -504.210668749453     IErMin= 2 ErrMin= 1.46D-02
 ErrMax= 1.46D-02  0.00D+00 EMaxC= 1.00D-01 BMatC= 6.02D-02 BMatP= 4.14D-01
 IDIUse=3 WtCom= 8.54D-01 WtEn= 1.46D-01
 Coeff-Com: -0.413D+00 0.141D+01
 Coeff-En:   0.000D+00 0.100D+01
 Coeff:     -0.353D+00 0.135D+01
 Gap=     0.174 Goal=   None    Shift=    0.000
 RMSDP=1.29D-03 MaxDP=2.82D-02 DE=-1.45D-01 OVMax= 2.23D-01

 Cycle   3  Pass 1  IDiag  1:
 RMSU=  1.28D-03    CP:  9.75D-01  1.09D+00
 E= -504.389636870896     Delta-E=       -0.178968121442 Rises=F Damp=F
 DIIS: error= 2.63D-02 at cycle   3 NSaved=   3.
 NSaved= 3 IEnMin= 3 EnMin= -504.389636870896     IErMin= 2 ErrMin= 1.46D-02
 ErrMax= 2.63D-02  0.00D+00 EMaxC= 1.00D-01 BMatC= 9.61D-02 BMatP= 6.02D-02
 IDIUse=2 WtCom= 0.00D+00 WtEn= 1.00D+00
 Coeff-En:   0.000D+00 0.000D+00 0.100D+01
 Coeff:      0.000D+00 0.000D+00 0.100D+01
 Gap=     0.212 Goal=   None    Shift=    0.000
 RMSDP=3.41D-03 MaxDP=1.17D-01 DE=-1.79D-01 OVMax= 4.98D-01

 Cycle   4  Pass 1  IDiag  1:
 RMSU=  1.94D-03    CP:  9.89D-01  1.84D+00 -9.84D-01
 E= -503.697597013447     Delta-E=        0.692039857449 Rises=F Damp=F
 DIIS: error= 8.88D-02 at cycle   4 NSaved=   4.
 NSaved= 4 IEnMin= 3 EnMin= -504.389636870896     IErMin= 2 ErrMin= 1.46D-02
 ErrMax= 8.88D-02  0.00D+00 EMaxC= 1.00D-01 BMatC= 9.46D-01 BMatP= 6.02D-02
 IDIUse=2 WtCom= 0.00D+00 WtEn= 1.00D+00
 Coeff-En:   0.000D+00 0.000D+00 0.847D+00 0.153D+00
 Coeff:      0.000D+00 0.000D+00 0.847D+00 0.153D+00
 Gap=     0.134 Goal=   None    Shift=    0.000
 RMSDP=2.14D-03 MaxDP=1.07D-01 DE= 6.92D-01 OVMax= 2.67D-01

 Cycle   5  Pass 1  IDiag  1:
 RMSU=  4.85D-04    CP:  9.85D-01  1.15D+00  5.71D-02  3.95D-01
 E= -504.390589702446     Delta-E=       -0.692992688999 Rises=F Damp=F
 DIIS: error= 2.82D-02 at cycle   5 NSaved=   5.
 NSaved= 5 IEnMin= 5 EnMin= -504.390589702446     IErMin= 2 ErrMin= 1.46D-02
 ErrMax= 2.82D-02  0.00D+00 EMaxC= 1.00D-01 BMatC= 9.89D-02 BMatP= 6.02D-02
 IDIUse=2 WtCom= 0.00D+00 WtEn= 1.00D+00
 Coeff-En:   0.000D+00 0.000D+00 0.498D+00 0.000D+00 0.502D+00
 Coeff:      0.000D+00 0.000D+00 0.498D+00 0.000D+00 0.502D+00
 Gap=     0.178 Goal=   None    Shift=    0.000
 RMSDP=7.93D-04 MaxDP=3.02D-02 DE=-6.93D-01 OVMax= 1.18D-01

 Cycle   6  Pass 1  IDiag  1:
 RMSU=  1.36D-04    CP:  9.80D-01  1.03D+00  5.23D-01  1.67D-01  6.90D-01
 E= -504.467480993441     Delta-E=       -0.076891290995 Rises=F Damp=F
 DIIS: error= 2.34D-03 at cycle   6 NSaved=   6.
 NSaved= 6 IEnMin= 6 EnMin= -504.467480993441     IErMin= 6 ErrMin= 2.34D-03
 ErrMax= 2.34D-03  0.00D+00 EMaxC= 1.00D-01 BMatC= 6.04D-04 BMatP= 6.02D-02
 IDIUse=3 WtCom= 9.77D-01 WtEn= 2.34D-02
 Coeff-Com: -0.278D-01 0.474D-01 0.218D+00-0.388D-01 0.338D+00 0.463D+00
 Coeff-En:   0.000D+00 0.000D+00 0.000D+00 0.000D+00 0.000D+00 0.100D+01
 Coeff:     -0.271D-01 0.463D-01 0.213D+00-0.379D-01 0.331D+00 0.475D+00
 Gap=     0.179 Goal=   None    Shift=    0.000
 RMSDP=1.09D-04 MaxDP=5.07D-03 DE=-7.69D-02 OVMax= 1.27D-02

 Cycle   7  Pass 1  IDiag  1:
 RMSU=  5.65D-05    CP:  9.80D-01  1.07D+00  5.05D-01  1.91D-01  7.24D-01
                    CP:  6.67D-01
 E= -504.467817531646     Delta-E=       -0.000336538205 Rises=F Damp=F
 DIIS: error= 1.31D-03 at cycle   7 NSaved=   7.
 NSaved= 7 IEnMin= 7 EnMin= -504.467817531646     IErMin= 7 ErrMin= 1.31D-03
 ErrMax= 1.31D-03  0.00D+00 EMaxC= 1.00D-01 BMatC= 2.05D-04 BMatP= 6.04D-04
 IDIUse=3 WtCom= 9.87D-01 WtEn= 1.31D-02
 Coeff-Com: -0.637D-02 0.638D-02 0.535D-01-0.117D-01 0.863D-01 0.350D+00
 Coeff-Com:  0.522D+00
 Coeff-En:   0.000D+00 0.000D+00 0.000D+00 0.000D+00 0.000D+00 0.290D+00
 Coeff-En:   0.710D+00
 Coeff:     -0.629D-02 0.630D-02 0.528D-01-0.115D-01 0.852D-01 0.349D+00
 Coeff:      0.524D+00
 Gap=     0.179 Goal=   None    Shift=    0.000
 RMSDP=3.17D-05 MaxDP=1.32D-03 DE=-3.37D-04 OVMax= 3.73D-03

 Cycle   8  Pass 1  IDiag  1:
 RMSU=  1.74D-05    CP:  9.80D-01  1.06D+00  5.10D-01  1.87D-01  7.12D-01
                    CP:  7.10D-01  6.39D-01
 E= -504.467960335980     Delta-E=       -0.000142804334 Rises=F Damp=F
 DIIS: error= 2.50D-04 at cycle   8 NSaved=   8.
 NSaved= 8 IEnMin= 8 EnMin= -504.467960335980     IErMin= 8 ErrMin= 2.50D-04
 ErrMax= 2.50D-04  0.00D+00 EMaxC= 1.00D-01 BMatC= 1.26D-05 BMatP= 2.05D-04
 IDIUse=3 WtCom= 9.98D-01 WtEn= 2.50D-03
 Coeff-Com:  0.148D-02-0.412D-02 0.698D-02-0.475D-03 0.386D-02 0.153D+00
 Coeff-Com:  0.276D+00 0.563D+00
 Coeff-En:   0.000D+00 0.000D+00 0.000D+00 0.000D+00 0.000D+00 0.000D+00
 Coeff-En:   0.000D+00 0.100D+01
 Coeff:      0.147D-02-0.411D-02 0.696D-02-0.474D-03 0.385D-02 0.153D+00
 Coeff:      0.275D+00 0.564D+00
 Gap=     0.179 Goal=   None    Shift=    0.000
 RMSDP=1.31D-05 MaxDP=7.26D-04 DE=-1.43D-04 OVMax= 9.05D-04

 Cycle   9  Pass 1  IDiag  1:
 RMSU=  4.90D-06    CP:  9.80D-01  1.06D+00  5.14D-01  1.85D-01  7.09D-01
                    CP:  7.44D-01  6.38D-01  6.37D-01
 E= -504.467970449191     Delta-E=       -0.000010113210 Rises=F Damp=F
 DIIS: error= 4.93D-05 at cycle   9 NSaved=   9.
 NSaved= 9 IEnMin= 9 EnMin= -504.467970449191     IErMin= 9 ErrMin= 4.93D-05
 ErrMax= 4.93D-05  0.00D+00 EMaxC= 1.00D-01 BMatC= 2.51D-07 BMatP= 1.26D-05
 IDIUse=1 WtCom= 1.00D+00 WtEn= 0.00D+00
 Coeff-Com:  0.828D-03-0.148D-02 0.122D-02 0.395D-04-0.143D-02 0.440D-01
 Coeff-Com:  0.864D-01 0.224D+00 0.646D+00
 Coeff:      0.828D-03-0.148D-02 0.122D-02 0.395D-04-0.143D-02 0.440D-01
 Coeff:      0.864D-01 0.224D+00 0.646D+00
 Gap=     0.179 Goal=   None    Shift=    0.000
 RMSDP=1.78D-06 MaxDP=4.65D-05 DE=-1.01D-05 OVMax= 1.21D-04

 Cycle  10  Pass 1  IDiag  1:
 RMSU=  9.58D-07    CP:  9.80D-01  1.06D+00  5.14D-01  1.85D-01  7.09D-01
                    CP:  7.44D-01  6.45D-01  6.58D-01  7.19D-01
 E= -504.467970683883     Delta-E=       -0.000000234692 Rises=F Damp=F
 DIIS: error= 6.77D-06 at cycle  10 NSaved=  10.
 NSaved=10 IEnMin=10 EnMin= -504.467970683883     IErMin=10 ErrMin= 6.77D-06
 ErrMax= 6.77D-06  0.00D+00 EMaxC= 1.00D-01 BMatC= 2.61D-08 BMatP= 2.51D-07
 IDIUse=1 WtCom= 1.00D+00 WtEn= 0.00D+00
 Coeff-Com:  0.424D-03-0.634D-03 0.453D-03 0.243D-04-0.924D-03 0.174D-01
 Coeff-Com:  0.361D-01 0.999D-01 0.374D+00 0.474D+00
 Coeff:      0.424D-03-0.634D-03 0.453D-03 0.243D-04-0.924D-03 0.174D-01
 Coeff:      0.361D-01 0.999D-01 0.374D+00 0.474D+00
 Gap=     0.179 Goal=   None    Shift=    0.000
 RMSDP=4.39D-07 MaxDP=1.72D-05 DE=-2.35D-07 OVMax= 2.72D-05

 Cycle  11  Pass 1  IDiag  1:
 RMSU=  3.28D-07    CP:  9.80D-01  1.06D+00  5.14D-01  1.85D-01  7.09D-01
                    CP:  7.44D-01  6.46D-01  6.55D-01  7.22D-01  7.30D-01
 E= -504.467970701451     Delta-E=       -0.000000017567 Rises=F Damp=F
 DIIS: error= 1.32D-06 at cycle  11 NSaved=  11.
 NSaved=11 IEnMin=11 EnMin= -504.467970701451     IErMin=11 ErrMin= 1.32D-06
 ErrMax= 1.32D-06  0.00D+00 EMaxC= 1.00D-01 BMatC= 9.73D-10 BMatP= 2.61D-08
 IDIUse=1 WtCom= 1.00D+00 WtEn= 0.00D+00
 Coeff-Com:  0.113D-03-0.146D-03 0.643D-04 0.999D-05-0.231D-03 0.244D-02
 Coeff-Com:  0.568D-02 0.160D-01 0.853D-01 0.197D+00 0.694D+00
 Coeff:      0.113D-03-0.146D-03 0.643D-04 0.999D-05-0.231D-03 0.244D-02
 Coeff:      0.568D-02 0.160D-01 0.853D-01 0.197D+00 0.694D+00
 Gap=     0.179 Goal=   None    Shift=    0.000
 RMSDP=1.41D-07 MaxDP=4.19D-06 DE=-1.76D-08 OVMax= 4.76D-06

 Cycle  12  Pass 1  IDiag  1:
 RMSU=  7.08D-08    CP:  9.80D-01  1.06D+00  5.14D-01  1.85D-01  7.09D-01
                    CP:  7.44D-01  6.45D-01  6.56D-01  7.33D-01  7.28D-01
                    CP:  7.52D-01
 E= -504.467970702344     Delta-E=       -0.000000000893 Rises=F Damp=F
 DIIS: error= 2.44D-07 at cycle  12 NSaved=  12.
 NSaved=12 IEnMin=12 EnMin= -504.467970702344     IErMin=12 ErrMin= 2.44D-07
 ErrMax= 2.44D-07  0.00D+00 EMaxC= 1.00D-01 BMatC= 3.33D-11 BMatP= 9.73D-10
 IDIUse=1 WtCom= 1.00D+00 WtEn= 0.00D+00
 Coeff-Com:  0.318D-04-0.385D-04 0.142D-04 0.178D-05-0.515D-04 0.397D-03
 Coeff-Com:  0.108D-02 0.292D-02 0.214D-01 0.623D-01 0.281D+00 0.631D+00
 Coeff:      0.318D-04-0.385D-04 0.142D-04 0.178D-05-0.515D-04 0.397D-03
 Coeff:      0.108D-02 0.292D-02 0.214D-01 0.623D-01 0.281D+00 0.631D+00
 Gap=     0.179 Goal=   None    Shift=    0.000
 RMSDP=3.27D-08 MaxDP=1.20D-06 DE=-8.93D-10 OVMax= 1.33D-06

 Cycle  13  Pass 1  IDiag  1:
 RMSU=  1.89D-08    CP:  9.80D-01  1.06D+00  5.14D-01  1.85D-01  7.09D-01
                    CP:  7.44D-01  6.45D-01  6.56D-01  7.32D-01  7.36D-01
                    CP:  7.77D-01  7.15D-01
 E= -504.467970702370     Delta-E=       -0.000000000026 Rises=F Damp=F
 DIIS: error= 1.42D-07 at cycle  13 NSaved=  13.
 NSaved=13 IEnMin=13 EnMin= -504.467970702370     IErMin=13 ErrMin= 1.42D-07
 ErrMax= 1.42D-07  0.00D+00 EMaxC= 1.00D-01 BMatC= 7.11D-12 BMatP= 3.33D-11
 IDIUse=1 WtCom= 1.00D+00 WtEn= 0.00D+00
 Coeff-Com:  0.876D-05-0.939D-05 0.346D-05 0.136D-06-0.972D-05 0.212D-04
 Coeff-Com:  0.145D-03 0.351D-03 0.528D-02 0.194D-01 0.103D+00 0.361D+00
 Coeff-Com:  0.510D+00
 Coeff:      0.876D-05-0.939D-05 0.346D-05 0.136D-06-0.972D-05 0.212D-04
 Coeff:      0.145D-03 0.351D-03 0.528D-02 0.194D-01 0.103D+00 0.361D+00
 Coeff:      0.510D+00
 Gap=     0.179 Goal=   None    Shift=    0.000
 RMSDP=9.12D-09 MaxDP=2.63D-07 DE=-2.58D-11 OVMax= 5.00D-07

 Error on total polarization charges =  0.01623
 SCF Done:  E(RB-P86) =  -504.467970702     A.U. after   13 cycles
            NFock= 13  Conv=0.91D-08     -V/T= 2.0050
 KE= 5.019373508723D+02 PE=-2.342518502732D+03 EE= 7.522938213552D+02
 Leave Link  502 at Mon Feb 22 21:00:40 2021, MaxMem=   104857600 cpu:             634.1 elap:              20.4
 (Enter /sw/arch/RedHatEnterpriseServer7/EB_production/2019/software/Gaussian/g16.c01/l601.exe)
 Copying SCF densities to generalized density rwf, IOpCl= 0 IROHF=0.

 **********************************************************************

            Population analysis using the SCF Density.

 **********************************************************************

 Orbital symmetries:
       Occupied  (A) (A) (A) (A) (A) (A) (A) (A) (A) (A) (A) (A)
                 (A) (A) (A) (A) (A) (A) (A) (A) (A) (A) (A) (A)
                 (A) (A) (A) (A) (A) (A) (A) (A) (A) (A) (A) (A)
                 (A) (A) (A) (A) (A) (A) (A) (A)
       Virtual   (A) (A) (A) (A) (A) (A) (A) (A) (A) (A) (A) (A)
                 (A) (A) (A) (A) (A) (A) (A) (A) (A) (A) (A) (A)
                 (A) (A) (A) (A) (A) (A) (A) (A) (A) (A) (A) (A)
                 (A) (A) (A) (A) (A) (A) (A) (A) (A) (A) (A) (A)
                 (A) (A) (A) (A) (A) (A) (A) (A) (A) (A) (A) (A)
                 (A) (A) (A) (A) (A) (A) (A) (A) (A) (A) (A) (A)
                 (A) (A) (A) (A) (A) (A) (A) (A) (A) (A) (A) (A)
                 (A) (A) (A) (A) (A) (A) (A) (A) (A) (A) (A) (A)
                 (A) (A) (A) (A) (A) (A) (A) (A) (A) (A) (A) (A)
                 (A) (A) (A) (A) (A) (A) (A) (A) (A) (A) (A) (A)
                 (A) (A) (A) (A) (A) (A) (A) (A) (A) (A) (A) (A)
                 (A) (A) (A) (A) (A) (A) (A) (A) (A) (A) (A) (A)
                 (A) (A) (A) (A) (A) (A) (A) (A) (A) (A) (A) (A)
                 (A) (A) (A) (A) (A) (A) (A) (A) (A) (A) (A) (A)
                 (A) (A) (A) (A) (A) (A) (A) (A) (A) (A) (A) (A)
                 (A) (A) (A) (A) (A) (A) (A) (A) (A) (A) (A) (A)
                 (A) (A) (A) (A) (A) (A) (A) (A) (A) (A) (A) (A)
                 (A) (A) (A) (A) (A) (A) (A) (A) (A) (A) (A) (A)
                 (A) (A) (A) (A) (A) (A) (A) (A) (A) (A) (A) (A)
                 (A) (A) (A) (A) (A) (A) (A) (A) (A) (A) (A) (A)
                 (A) (A) (A) (A) (A) (A) (A) (A) (A) (A) (A) (A)
                 (A) (A) (A) (A) (A) (A) (A) (A) (A) (A) (A) (A)
                 (A) (A) (A) (A) (A) (A) (A) (A) (A)
 The electronic state is 1-A.
 Alpha  occ. eigenvalues --  -18.82219 -18.75744 -10.03529  -9.91679  -9.90576
 Alpha  occ. eigenvalues --   -9.89494  -9.89106  -9.88914  -9.88905  -9.88778
 Alpha  occ. eigenvalues --   -9.88093  -1.01623  -0.92171  -0.74369  -0.72429
 Alpha  occ. eigenvalues --   -0.69478  -0.65446  -0.60972  -0.57413  -0.54175
 Alpha  occ. eigenvalues --   -0.52243  -0.51674  -0.45522  -0.44112  -0.42834
 Alpha  occ. eigenvalues --   -0.42071  -0.41019  -0.39021  -0.38256  -0.36960
 Alpha  occ. eigenvalues --   -0.35843  -0.35199  -0.34056  -0.32624  -0.32339
 Alpha  occ. eigenvalues --   -0.31755  -0.30301  -0.29626  -0.29013  -0.28487
 Alpha  occ. eigenvalues --   -0.28441  -0.28249  -0.26794  -0.23517
 Alpha virt. eigenvalues --   -0.05569   0.01384   0.02176   0.03274   0.04920
 Alpha virt. eigenvalues --    0.05140   0.05356   0.06958   0.07302   0.07505
 Alpha virt. eigenvalues --    0.09755   0.10034   0.10662   0.10973   0.11468
 Alpha virt. eigenvalues --    0.11656   0.11802   0.11895   0.12554   0.13346
 Alpha virt. eigenvalues --    0.14278   0.14847   0.15498   0.16164   0.16712
 Alpha virt. eigenvalues --    0.17710   0.18359   0.19520   0.20515   0.22300
 Alpha virt. eigenvalues --    0.22802   0.24014   0.24240   0.25566   0.26064
 Alpha virt. eigenvalues --    0.26382   0.26984   0.28160   0.28483   0.28991
 Alpha virt. eigenvalues --    0.29548   0.30143   0.30909   0.32809   0.34732
 Alpha virt. eigenvalues --    0.35299   0.36005   0.36810   0.37697   0.37903
 Alpha virt. eigenvalues --    0.38408   0.39942   0.40116   0.40337   0.40427
 Alpha virt. eigenvalues --    0.41401   0.42555   0.42844   0.43399   0.43545
 Alpha virt. eigenvalues --    0.43819   0.44417   0.44942   0.45634   0.46080
 Alpha virt. eigenvalues --    0.46705   0.47140   0.47507   0.47916   0.48001
 Alpha virt. eigenvalues --    0.49016   0.49484   0.50284   0.50493   0.52728
 Alpha virt. eigenvalues --    0.53897   0.54611   0.55475   0.56761   0.57933
 Alpha virt. eigenvalues --    0.59572   0.61325   0.62061   0.64240   0.65697
 Alpha virt. eigenvalues --    0.67095   0.71141   0.71598   0.75060   0.78590
 Alpha virt. eigenvalues --    0.86954   1.05342   1.07337   1.09343   1.11215
 Alpha virt. eigenvalues --    1.15736   1.17032   1.18085   1.19053   1.19636
 Alpha virt. eigenvalues --    1.20000   1.20724   1.22430   1.22911   1.23850
 Alpha virt. eigenvalues --    1.24552   1.24576   1.26273   1.26671   1.28406
 Alpha virt. eigenvalues --    1.29000   1.29541   1.31474   1.31883   1.32440
 Alpha virt. eigenvalues --    1.33175   1.34494   1.34951   1.35973   1.36287
 Alpha virt. eigenvalues --    1.36633   1.38882   1.40258   1.40678   1.42709
 Alpha virt. eigenvalues --    1.44250   1.44617   1.45259   1.45956   1.47214
 Alpha virt. eigenvalues --    1.48046   1.48290   1.50342   1.51954   1.53372
 Alpha virt. eigenvalues --    1.54047   1.55026   1.56979   1.59176   1.60451
 Alpha virt. eigenvalues --    1.60706   1.63656   1.65820   1.66141   1.66494
 Alpha virt. eigenvalues --    1.67289   1.69882   1.72777   1.73114   1.73407
 Alpha virt. eigenvalues --    1.73983   1.75380   1.76184   1.76437   1.76922
 Alpha virt. eigenvalues --    1.77175   1.78035   1.78480   1.79642   1.79889
 Alpha virt. eigenvalues --    1.80353   1.81147   1.81853   1.82236   1.82378
 Alpha virt. eigenvalues --    1.86039   1.87768   1.90708   1.93724   1.96649
 Alpha virt. eigenvalues --    1.99679   2.00512   2.04816   2.08455   2.08984
 Alpha virt. eigenvalues --    2.11158   2.11848   2.12012   2.13452   2.14797
 Alpha virt. eigenvalues --    2.15856   2.16661   2.18065   2.19235   2.20075
 Alpha virt. eigenvalues --    2.24338   2.25375   2.28022   2.30291   2.31058
 Alpha virt. eigenvalues --    2.33028   2.35781   2.38002   2.39955   2.40879
 Alpha virt. eigenvalues --    2.45387   2.46693   2.47188   2.48088   2.48843
 Alpha virt. eigenvalues --    2.49394   2.50399   2.50872   2.51144   2.52348
 Alpha virt. eigenvalues --    2.52534   2.52892   2.53732   2.54350   2.54849
 Alpha virt. eigenvalues --    2.56170   2.56618   2.57626   2.58172   2.58400
 Alpha virt. eigenvalues --    2.60465   2.60784   2.61219   2.62001   2.63650
 Alpha virt. eigenvalues --    2.65221   2.66368   2.67337   2.67754   2.69334
 Alpha virt. eigenvalues --    2.70501   2.72470   2.75293   2.77633   2.80695
 Alpha virt. eigenvalues --    2.82055   2.88735   2.90555   2.94784   3.00933
 Alpha virt. eigenvalues --    3.02283   3.02679   3.06510   3.08566   3.11229
 Alpha virt. eigenvalues --    3.14474   3.16300   3.21861   3.24052   3.26265
 Alpha virt. eigenvalues --    3.27952   3.28778   3.29963   3.31385   3.32218
 Alpha virt. eigenvalues --    3.33052   3.34420   3.34754   3.35872   3.36555
 Alpha virt. eigenvalues --    3.42029   3.42619   3.44677   3.48820   3.83892
 Alpha virt. eigenvalues --    3.99993   4.17836  21.65976  21.74676  21.75992
 Alpha virt. eigenvalues --   21.78288  21.79964  21.81761  21.82863  21.84968
 Alpha virt. eigenvalues --   21.87755  43.04110  43.12083
          Condensed to atoms (all electrons):
               1          2          3          4          5          6
     1  C    5.068598   0.267805  -0.073755   0.019788  -0.001827   0.000128
     2  C    0.267805   5.137303   0.255588  -0.055861   0.016750  -0.001324
     3  C   -0.073755   0.255588   5.223579   0.238020  -0.049152   0.015502
     4  C    0.019788  -0.055861   0.238020   5.215583   0.218929  -0.036040
     5  C   -0.001827   0.016750  -0.049152   0.218929   5.238010   0.213999
     6  C    0.000128  -0.001324   0.015502  -0.036040   0.213999   5.248983
     7  C   -0.000006   0.000082  -0.001320   0.011074  -0.039712   0.217372
     8  C    0.000000  -0.000005   0.000096  -0.001303   0.015010  -0.027194
     9  C   -0.000000   0.000000  -0.000006  -0.000047  -0.000863  -0.006667
    10  O   -0.000000   0.000000  -0.000000  -0.000001   0.000088  -0.001538
    11  O   -0.000000  -0.000000   0.000000  -0.000001   0.000009  -0.001122
    12  H    0.407273  -0.041551  -0.006972  -0.000528  -0.000024  -0.000002
    13  H    0.407313  -0.041519  -0.007048  -0.000522  -0.000029  -0.000002
    14  H    0.400260  -0.044112   0.014325  -0.000944   0.000067  -0.000002
    15  H   -0.043800   0.416465  -0.044327  -0.007311  -0.000234  -0.000050
    16  H   -0.043837   0.416040  -0.043930  -0.007521  -0.000126  -0.000055
    17  H   -0.003214  -0.042729   0.414447  -0.045117  -0.004930  -0.000309
    18  H   -0.003197  -0.042171   0.413461  -0.043473  -0.006296  -0.000126
    19  H   -0.000296  -0.004233  -0.043712   0.419324  -0.047114  -0.003701
    20  H   -0.000296  -0.004824  -0.042251   0.413265  -0.041306  -0.006167
    21  H    0.000001  -0.000298  -0.003396  -0.046896   0.422565  -0.049227
    22  H   -0.000003  -0.000186  -0.004657  -0.040260   0.410658  -0.036533
    23  H   -0.000001  -0.000011  -0.000150  -0.004696  -0.039079   0.409667
    24  H   -0.000001  -0.000002  -0.000385  -0.002903  -0.047442   0.424499
    25  H    0.000000  -0.000002  -0.000022  -0.000803  -0.004168  -0.049102
    26  H    0.000000  -0.000001  -0.000024  -0.000344  -0.001744  -0.044014
    27  H   -0.000000  -0.000000  -0.000001  -0.000097   0.000148  -0.010329
    28  H    0.000000  -0.000000   0.000002  -0.000159   0.000355  -0.009132
    29  H   -0.000000   0.000000  -0.000000   0.000000  -0.000002   0.000077
               7          8          9         10         11         12
     1  C   -0.000006   0.000000  -0.000000  -0.000000  -0.000000   0.407273
     2  C    0.000082  -0.000005   0.000000   0.000000  -0.000000  -0.041551
     3  C   -0.001320   0.000096  -0.000006  -0.000000   0.000000  -0.006972
     4  C    0.011074  -0.001303  -0.000047  -0.000001  -0.000001  -0.000528
     5  C   -0.039712   0.015010  -0.000863   0.000088   0.000009  -0.000024
     6  C    0.217372  -0.027194  -0.006667  -0.001538  -0.001122  -0.000002
     7  C    5.246374   0.212896  -0.025231  -0.004099  -0.010721   0.000000
     8  C    0.212896   5.563620   0.051083  -0.129621  -0.112389  -0.000000
     9  C   -0.025231   0.051083   4.871050   0.600849   0.359873   0.000000
    10  O   -0.004099  -0.129621   0.600849   8.014681  -0.127591  -0.000000
    11  O   -0.010721  -0.112389   0.359873  -0.127591   7.872693  -0.000000
    12  H    0.000000  -0.000000   0.000000  -0.000000  -0.000000   0.563035
    13  H    0.000000  -0.000000  -0.000000   0.000000   0.000000  -0.030761
    14  H    0.000000  -0.000000   0.000000   0.000000  -0.000000  -0.025599
    15  H   -0.000001  -0.000000  -0.000000   0.000000   0.000000  -0.006805
    16  H    0.000001   0.000000   0.000000  -0.000000   0.000000   0.008702
    17  H    0.000002   0.000000   0.000000  -0.000000   0.000000   0.006008
    18  H   -0.000058  -0.000000  -0.000000   0.000000   0.000000  -0.000678
    19  H   -0.000534   0.000014  -0.000002   0.000000   0.000000   0.000086
    20  H    0.000204  -0.000011   0.000003  -0.000000   0.000000   0.000013
    21  H   -0.001654  -0.000482  -0.000075  -0.000051  -0.000001  -0.000021
    22  H   -0.007901  -0.000153  -0.000033   0.000013  -0.000004   0.000016
    23  H   -0.038202  -0.004986  -0.001071  -0.000022   0.000026  -0.000000
    24  H   -0.048081  -0.003447   0.000706   0.000145   0.000003   0.000000
    25  H    0.414209  -0.040581   0.007224  -0.001157   0.001513   0.000000
    26  H    0.404665  -0.043980  -0.007388   0.014608   0.001779  -0.000000
    27  H   -0.027627   0.344108  -0.017059   0.008849   0.013642  -0.000000
    28  H   -0.030138   0.407944  -0.019817  -0.004568   0.000146   0.000000
    29  H   -0.000368   0.016726  -0.022491   0.002266   0.288455   0.000000
              13         14         15         16         17         18
     1  C    0.407313   0.400260  -0.043800  -0.043837  -0.003214  -0.003197
     2  C   -0.041519  -0.044112   0.416465   0.416040  -0.042729  -0.042171
     3  C   -0.007048   0.014325  -0.044327  -0.043930   0.414447   0.413461
     4  C   -0.000522  -0.000944  -0.007311  -0.007521  -0.045117  -0.043473
     5  C   -0.000029   0.000067  -0.000234  -0.000126  -0.004930  -0.006296
     6  C   -0.000002  -0.000002  -0.000050  -0.000055  -0.000309  -0.000126
     7  C    0.000000   0.000000  -0.000001   0.000001   0.000002  -0.000058
     8  C   -0.000000  -0.000000  -0.000000   0.000000   0.000000  -0.000000
     9  C   -0.000000   0.000000  -0.000000   0.000000   0.000000  -0.000000
    10  O    0.000000   0.000000   0.000000  -0.000000  -0.000000   0.000000
    11  O    0.000000  -0.000000   0.000000   0.000000   0.000000   0.000000
    12  H   -0.030761  -0.025599  -0.006805   0.008702   0.006008  -0.000678
    13  H    0.563043  -0.025609   0.008696  -0.006804  -0.000674   0.006014
    14  H   -0.025609   0.547444  -0.002620  -0.002632  -0.000173  -0.000170
    15  H    0.008696  -0.002620   0.580685  -0.032995  -0.007049   0.008871
    16  H   -0.006804  -0.002632  -0.032995   0.580929   0.008881  -0.007074
    17  H   -0.000674  -0.000173  -0.007049   0.008881   0.581749  -0.035018
    18  H    0.006014  -0.000170   0.008871  -0.007074  -0.035018   0.581935
    19  H    0.000013   0.000010   0.005200  -0.000173  -0.006608   0.008615
    20  H    0.000085   0.000010  -0.000167   0.005271   0.008632  -0.006648
    21  H    0.000016  -0.000000   0.000154  -0.000034   0.004442   0.000101
    22  H   -0.000021  -0.000000  -0.000036   0.000152   0.000107   0.004508
    23  H    0.000000   0.000000   0.000024  -0.000034  -0.000058   0.000191
    24  H   -0.000000   0.000000  -0.000035   0.000024   0.000201  -0.000061
    25  H   -0.000000  -0.000000  -0.000000   0.000001   0.000029  -0.000042
    26  H    0.000000  -0.000000   0.000001  -0.000000  -0.000040   0.000030
    27  H    0.000000   0.000000   0.000000  -0.000000  -0.000000   0.000001
    28  H   -0.000000  -0.000000  -0.000000   0.000000   0.000001  -0.000000
    29  H    0.000000   0.000000  -0.000000  -0.000000  -0.000000   0.000000
              19         20         21         22         23         24
     1  C   -0.000296  -0.000296   0.000001  -0.000003  -0.000001  -0.000001
     2  C   -0.004233  -0.004824  -0.000298  -0.000186  -0.000011  -0.000002
     3  C   -0.043712  -0.042251  -0.003396  -0.004657  -0.000150  -0.000385
     4  C    0.419324   0.413265  -0.046896  -0.040260  -0.004696  -0.002903
     5  C   -0.047114  -0.041306   0.422565   0.410658  -0.039079  -0.047442
     6  C   -0.003701  -0.006167  -0.049227  -0.036533   0.409667   0.424499
     7  C   -0.000534   0.000204  -0.001654  -0.007901  -0.038202  -0.048081
     8  C    0.000014  -0.000011  -0.000482  -0.000153  -0.004986  -0.003447
     9  C   -0.000002   0.000003  -0.000075  -0.000033  -0.001071   0.000706
    10  O    0.000000  -0.000000  -0.000051   0.000013  -0.000022   0.000145
    11  O    0.000000   0.000000  -0.000001  -0.000004   0.000026   0.000003
    12  H    0.000086   0.000013  -0.000021   0.000016  -0.000000   0.000000
    13  H    0.000013   0.000085   0.000016  -0.000021   0.000000  -0.000000
    14  H    0.000010   0.000010  -0.000000  -0.000000   0.000000   0.000000
    15  H    0.005200  -0.000167   0.000154  -0.000036   0.000024  -0.000035
    16  H   -0.000173   0.005271  -0.000034   0.000152  -0.000034   0.000024
    17  H   -0.006608   0.008632   0.004442   0.000107  -0.000058   0.000201
    18  H    0.008615  -0.006648   0.000101   0.004508   0.000191  -0.000061
    19  H    0.576137  -0.033730  -0.005979   0.008218   0.000222   0.003889
    20  H   -0.033730   0.577456   0.008275  -0.006226   0.004194   0.000245
    21  H   -0.005979   0.008275   0.571926  -0.033241   0.008187  -0.005997
    22  H    0.008218  -0.006226  -0.033241   0.573321  -0.006501   0.008076
    23  H    0.000222   0.004194   0.008187  -0.006501   0.569116  -0.033073
    24  H    0.003889   0.000245  -0.005997   0.008076  -0.033073   0.565775
    25  H   -0.000061   0.000214   0.000233   0.003563  -0.005316   0.007334
    26  H    0.000203  -0.000063   0.003190   0.000147   0.007476  -0.005123
    27  H    0.000027  -0.000038  -0.000081   0.000169   0.003754   0.000302
    28  H   -0.000030   0.000025   0.000146  -0.000051   0.000149   0.003540
    29  H   -0.000000  -0.000000   0.000000  -0.000000   0.000003  -0.000002
              25         26         27         28         29
     1  C    0.000000   0.000000  -0.000000   0.000000  -0.000000
     2  C   -0.000002  -0.000001  -0.000000  -0.000000   0.000000
     3  C   -0.000022  -0.000024  -0.000001   0.000002  -0.000000
     4  C   -0.000803  -0.000344  -0.000097  -0.000159   0.000000
     5  C   -0.004168  -0.001744   0.000148   0.000355  -0.000002
     6  C   -0.049102  -0.044014  -0.010329  -0.009132   0.000077
     7  C    0.414209   0.404665  -0.027627  -0.030138  -0.000368
     8  C   -0.040581  -0.043980   0.344108   0.407944   0.016726
     9  C    0.007224  -0.007388  -0.017059  -0.019817  -0.022491
    10  O   -0.001157   0.014608   0.008849  -0.004568   0.002266
    11  O    0.001513   0.001779   0.013642   0.000146   0.288455
    12  H    0.000000  -0.000000  -0.000000   0.000000   0.000000
    13  H   -0.000000   0.000000   0.000000  -0.000000   0.000000
    14  H   -0.000000  -0.000000   0.000000  -0.000000   0.000000
    15  H   -0.000000   0.000001   0.000000  -0.000000  -0.000000
    16  H    0.000001  -0.000000  -0.000000   0.000000  -0.000000
    17  H    0.000029  -0.000040  -0.000000   0.000001  -0.000000
    18  H   -0.000042   0.000030   0.000001  -0.000000   0.000000
    19  H   -0.000061   0.000203   0.000027  -0.000030  -0.000000
    20  H    0.000214  -0.000063  -0.000038   0.000025  -0.000000
    21  H    0.000233   0.003190  -0.000081   0.000146   0.000000
    22  H    0.003563   0.000147   0.000169  -0.000051  -0.000000
    23  H   -0.005316   0.007476   0.003754   0.000149   0.000003
    24  H    0.007334  -0.005123   0.000302   0.003540  -0.000002
    25  H    0.548584  -0.024953  -0.004218   0.005968  -0.000169
    26  H   -0.024953   0.551089   0.008344  -0.003992  -0.000007
    27  H   -0.004218   0.008344   0.554303  -0.020306  -0.000720
    28  H    0.005968  -0.003992  -0.020306   0.490855  -0.000449
    29  H   -0.000169  -0.000007  -0.000720  -0.000449   0.383503
 Mulliken charges:
               1
     1  C   -0.400934
     2  C   -0.231204
     3  C   -0.253909
     4  C   -0.241158
     5  C   -0.252541
     6  C   -0.247594
     7  C   -0.271226
     8  C   -0.247344
     9  C    0.209964
    10  O   -0.372853
    11  O   -0.286310
    12  H    0.127808
    13  H    0.127808
    14  H    0.139746
    15  H    0.125335
    16  H    0.125215
    17  H    0.121418
    18  H    0.121286
    19  H    0.124216
    20  H    0.123835
    21  H    0.128195
    22  H    0.126858
    23  H    0.130190
    24  H    0.131812
    25  H    0.141723
    26  H    0.140142
    27  H    0.146829
    28  H    0.179513
    29  H    0.333179
 Sum of Mulliken charges =  -0.00000
 Mulliken charges with hydrogens summed into heavy atoms:
               1
     1  C   -0.005572
     2  C    0.019345
     3  C   -0.011205
     4  C    0.006893
     5  C    0.002512
     6  C    0.014409
     7  C    0.010639
     8  C    0.078999
     9  C    0.209964
    10  O   -0.372853
    11  O    0.046868
 Electronic spatial extent (au):  <R**2>=           4923.1532
 Charge=             -0.0000 electrons
 Dipole moment (field-independent basis, Debye):
    X=             -0.8627    Y=             -2.2230    Z=              1.0956  Tot=              2.6242
 Quadrupole moment (field-independent basis, Debye-Ang):
   XX=            -70.7158   YY=            -76.0806   ZZ=            -69.3961
   XY=             -7.9790   XZ=              7.9148   YZ=              2.2329
 Traceless Quadrupole moment (field-independent basis, Debye-Ang):
   XX=              1.3484   YY=             -4.0164   ZZ=              2.6680
   XY=             -7.9790   XZ=              7.9148   YZ=              2.2329
 Octapole moment (field-independent basis, Debye-Ang**2):
  XXX=            104.8996  YYY=             -4.4332  ZZZ=              2.5785  XYY=             -7.6658
  XXY=            -36.9314  XXZ=             47.1961  XZZ=             17.3633  YZZ=              0.0446
  YYZ=              2.0915  XYZ=             16.8556
 Hexadecapole moment (field-independent basis, Debye-Ang**3):
 XXXX=          -5570.0191 YYYY=           -270.4164 ZZZZ=           -183.3565 XXXY=            -84.9581
 XXXZ=            348.2762 YYYX=            -18.4659 YYYZ=             -6.4081 ZZZX=             19.1218
 ZZZY=              1.6782 XXYY=          -1173.2515 XXZZ=          -1005.0306 YYZZ=            -79.9142
 XXYZ=             56.2534 YYXZ=             12.0903 ZZXY=              1.7079
 N-N= 5.838193598022D+02 E-N=-2.342518497993D+03  KE= 5.019373508723D+02
 No NMR shielding tensors so no spin-rotation constants.
 Leave Link  601 at Mon Feb 22 21:00:41 2021, MaxMem=   104857600 cpu:               6.3 elap:               0.2
 (Enter /sw/arch/RedHatEnterpriseServer7/EB_production/2019/software/Gaussian/g16.c01/l701.exe)
 ... and contract with generalized density number  0.
 Compute integral first derivatives.
 R6Disp: Adding Grimme-D3 dispersion energy 1st derivatives to the gradient.
 PrsmSu:  requested number of processors reduced to:  28 ShMem   1 Linda.
 D1PCM: PCM CHGder 1st derivatives, ID1Alg=3 FixD1E=F DoIter=F DoCFld=F I1PDM=0.
 GePol: Maximum number of non-zero 1st derivatives   =     235
 CoulSu:  requested number of processors reduced to:  28 ShMem   1 Linda.
 CoulSu:  requested number of processors reduced to:  29 ShMem   1 Linda.
 Leave Link  701 at Mon Feb 22 21:00:42 2021, MaxMem=   104857600 cpu:              31.1 elap:               1.1
 (Enter /sw/arch/RedHatEnterpriseServer7/EB_production/2019/software/Gaussian/g16.c01/l702.exe)
 L702 exits ... SP integral derivatives will be done elsewhere.
 Leave Link  702 at Mon Feb 22 21:00:42 2021, MaxMem=   104857600 cpu:               0.7 elap:               0.0
 (Enter /sw/arch/RedHatEnterpriseServer7/EB_production/2019/software/Gaussian/g16.c01/l703.exe)
 Integral derivatives from FoFJK, PRISM(SPDF).
 Compute integral first derivatives, UseDBF=F ICtDFT=           0.
 Calling FoFJK, ICntrl=      2527 FMM=F ISym2X=0 I1Cent= 0 IOpClX= 0 NMat=1 NMatS=1 NMatT=0.
 FoFJK:  IHMeth= 1 ICntrl=    2527 DoSepK=F KAlg= 0 I1Cent=           0 FoldK=F
 IRaf=         0 NMat=       1 IRICut=       1 DoRegI=T DoRafI=F ISym2E= 0 IDoP0=0 IntGTp=1.
 FoFCou: FMM=F IPFlag=           0 FMFlag=      100000 FMFlg1=         800
         NFxFlg=           0 DoJE=F BraDBF=F KetDBF=F FulRan=T
         wScrn=  0.000000 ICntrl=      2527 IOpCl=  0 I1Cent=           0 NGrid=           0
         NMat0=    1 NMatS0=      1 NMatT0=    0 NMatD0=    1 NMtDS0=    0 NMtDT0=    0
 Symmetry not used in FoFCou.
 Leave Link  703 at Mon Feb 22 21:00:45 2021, MaxMem=   104857600 cpu:              87.1 elap:               2.8
 (Enter /sw/arch/RedHatEnterpriseServer7/EB_production/2019/software/Gaussian/g16.c01/l716.exe)
 Dipole        =-3.39422204D-01-8.74595276D-01 4.31036813D-01
 ***** Axes restored to original set *****
 -------------------------------------------------------------------
 Center     Atomic                   Forces (Hartrees/Bohr)
 Number     Number              X              Y              Z
 -------------------------------------------------------------------
      1        6           0.012450906    0.003325167    0.003315761
      2        6          -0.006886843    0.001381748   -0.014625519
      3        6           0.008637450   -0.001320400    0.016794038
      4        6          -0.007724956    0.001500219   -0.015728007
      5        6           0.008341616   -0.001023087    0.014418154
      6        6          -0.005112745    0.002124149   -0.013348098
      7        6           0.000013027   -0.004317162    0.009347757
      8        6          -0.011589872    0.013271654    0.016620313
      9        6           0.023675774   -0.020345572   -0.073982530
     10        8          -0.005926059    0.010352472    0.021993824
     11        8          -0.010023345    0.015874260    0.037157493
     12        1          -0.001523480   -0.003925700   -0.004600379
     13        1          -0.004134070    0.003865073   -0.002627012
     14        1          -0.004479558   -0.002568357    0.004203361
     15        1           0.005041709   -0.003386852    0.003395117
     16        1           0.002641188    0.003791860    0.005226770
     17        1          -0.001330447   -0.003600877   -0.006026385
     18        1          -0.004010148    0.004353745   -0.004006529
     19        1           0.003415213   -0.004166356    0.003664027
     20        1           0.000894910    0.003234507    0.005475769
     21        1          -0.001113956   -0.003338958   -0.005480566
     22        1          -0.003541272    0.004104227   -0.003532246
     23        1           0.001084270    0.003294891    0.005699437
     24        1           0.003726667   -0.003863432    0.003353070
     25        1          -0.002699152    0.003500516   -0.003212748
     26        1           0.000431242   -0.001480275   -0.004790614
     27        1           0.000113976    0.001756056    0.005390138
     28        1           0.003646885   -0.003925771    0.000108259
     29        1          -0.004018928   -0.018467743   -0.004202653
 -------------------------------------------------------------------
 Cartesian Forces:  Max     0.073982530 RMS     0.011822437
 Leave Link  716 at Mon Feb 22 21:00:45 2021, MaxMem=   104857600 cpu:               2.1 elap:               0.1
 (Enter /sw/arch/RedHatEnterpriseServer7/EB_production/2019/software/Gaussian/g16.c01/l103.exe)

 GradGradGradGradGradGradGradGradGradGradGradGradGradGradGradGradGradGrad
 Berny optimization.
 FormGI is forming the generalized inverse of G from B-inverse, IUseBI=4.
 GSVD:  received Info=                   1 from GESDD.
 Internal  Forces:  Max     0.034729642 RMS     0.005612997
 Search for a local minimum.
 Step number   1 out of a maximum of  161
 All quantities printed in internal units (Hartrees-Bohrs-Radians)
 RMS Force = .56130D-02 SwitMx=.10000D-02 MixMth= 1
 Mixed Optimization -- RFO/linear search
 Second derivative matrix not updated -- first step.
 ITU=  0
     Eigenvalues ---    0.00230   0.00230   0.00230   0.00230   0.00230
     Eigenvalues ---    0.00230   0.00230   0.01084   0.01377   0.02303
     Eigenvalues ---    0.03446   0.03472   0.03483   0.03487   0.03487
     Eigenvalues ---    0.03505   0.04241   0.04775   0.04779   0.04780
     Eigenvalues ---    0.04781   0.04781   0.04785   0.05441   0.05506
     Eigenvalues ---    0.05608   0.08174   0.08204   0.08206   0.08220
     Eigenvalues ---    0.08237   0.08285   0.09448   0.12102   0.12124
     Eigenvalues ---    0.12125   0.12133   0.12148   0.12184   0.12834
     Eigenvalues ---    0.16000   0.16000   0.16000   0.16000   0.21963
     Eigenvalues ---    0.21966   0.21968   0.21975   0.21979   0.21986
     Eigenvalues ---    0.21989   0.25000   0.25000   0.27489   0.27492
     Eigenvalues ---    0.27505   0.27533   0.27547   0.27596   0.27998
     Eigenvalues ---    0.34345   0.34374   0.34377   0.34388   0.34389
     Eigenvalues ---    0.34404   0.34405   0.34407   0.34451   0.34479
     Eigenvalues ---    0.34480   0.34481   0.34482   0.34568   0.34635
[...]
 Alpha virt. eigenvalues --    0.17696   0.18905   0.19361   0.21824   0.21994
 Alpha virt. eigenvalues --    0.22978   0.23277   0.25166   0.26063   0.26790
 Alpha virt. eigenvalues --    0.26924   0.27705   0.28255   0.28952   0.29323
 Alpha virt. eigenvalues --    0.30520   0.30652   0.31776   0.33714   0.35353
 Alpha virt. eigenvalues --    0.36461   0.36902   0.37202   0.37478   0.37928
 Alpha virt. eigenvalues --    0.38602   0.39213   0.39688   0.40393   0.41235
 Alpha virt. eigenvalues --    0.42566   0.42576   0.43009   0.43047   0.43868
 Alpha virt. eigenvalues --    0.44115   0.44583   0.44694   0.45838   0.46564
 Alpha virt. eigenvalues --    0.47173   0.47277   0.47379   0.48052   0.48901
 Alpha virt. eigenvalues --    0.49058   0.49652   0.49737   0.51357   0.52246
 Alpha virt. eigenvalues --    0.53085   0.55385   0.55830   0.57616   0.58704
 Alpha virt. eigenvalues --    0.60954   0.62008   0.63446   0.64639   0.68070
 Alpha virt. eigenvalues --    0.70246   0.70397   0.75660   0.75934   0.81101
 Alpha virt. eigenvalues --    0.91020   1.05539   1.08085   1.09801   1.10796
 Alpha virt. eigenvalues --    1.15694   1.17115   1.18600   1.19424   1.19801
 Alpha virt. eigenvalues --    1.19857   1.21045   1.23037   1.23376   1.24144
 Alpha virt. eigenvalues --    1.24642   1.25175   1.25273   1.27345   1.28674
 Alpha virt. eigenvalues --    1.29905   1.30577   1.30919   1.31936   1.32526
 Alpha virt. eigenvalues --    1.33440   1.33681   1.35633   1.35862   1.37562
 Alpha virt. eigenvalues --    1.37741   1.38392   1.38481   1.41651   1.42645
 Alpha virt. eigenvalues --    1.43548   1.44353   1.46285   1.47378   1.47610
 Alpha virt. eigenvalues --    1.48679   1.49673   1.50756   1.52080   1.53949
 Alpha virt. eigenvalues --    1.54303   1.54817   1.59113   1.60636   1.60805
 Alpha virt. eigenvalues --    1.62876   1.66216   1.66234   1.66402   1.67079
 Alpha virt. eigenvalues --    1.67443   1.69661   1.72188   1.72504   1.72566
 Alpha virt. eigenvalues --    1.73355   1.73718   1.75596   1.76042   1.76292
 Alpha virt. eigenvalues --    1.77075   1.78132   1.78932   1.79425   1.80607
 Alpha virt. eigenvalues --    1.80626   1.81215   1.81281   1.81815   1.82019
 Alpha virt. eigenvalues --    1.86616   1.86866   1.91601   1.94783   1.98211
 Alpha virt. eigenvalues --    2.01164   2.01654   2.05071   2.08028   2.09262
 Alpha virt. eigenvalues --    2.10448   2.11203   2.13648   2.13910   2.15039
 Alpha virt. eigenvalues --    2.16337   2.17933   2.19269   2.20421   2.22763
 Alpha virt. eigenvalues --    2.26002   2.26307   2.29999   2.31828   2.33511
 Alpha virt. eigenvalues --    2.33853   2.34572   2.38728   2.40023   2.43510
 Alpha virt. eigenvalues --    2.44513   2.44790   2.47257   2.47773   2.48007
 Alpha virt. eigenvalues --    2.48264   2.49381   2.50033   2.50748   2.51868
 Alpha virt. eigenvalues --    2.52585   2.52632   2.53424   2.54168   2.55499
 Alpha virt. eigenvalues --    2.55850   2.56764   2.57573   2.58843   2.59366
 Alpha virt. eigenvalues --    2.59878   2.60437   2.61093   2.61857   2.64530
 Alpha virt. eigenvalues --    2.65087   2.67135   2.67588   2.69533   2.69787
 Alpha virt. eigenvalues --    2.71436   2.73030   2.74241   2.80038   2.81382
 Alpha virt. eigenvalues --    2.82911   2.85506   2.91520   3.00877   3.01206
 Alpha virt. eigenvalues --    3.01786   3.02897   3.08177   3.10167   3.10922
 Alpha virt. eigenvalues --    3.15836   3.20424   3.22176   3.22849   3.24948
 Alpha virt. eigenvalues --    3.26027   3.27817   3.28285   3.28888   3.31980
 Alpha virt. eigenvalues --    3.32463   3.34375   3.34715   3.35747   3.36458
 Alpha virt. eigenvalues --    3.41775   3.43945   3.45327   3.51495   3.80219
 Alpha virt. eigenvalues --    4.08262   4.18535  21.68606  21.71501  21.73140
 Alpha virt. eigenvalues --   21.76190  21.78612  21.81743  21.83840  21.85967
 Alpha virt. eigenvalues --   21.88583  43.05867  43.16393
          Condensed to atoms (all electrons):
               1          2          3          4          5          6
     1  C    5.086215   0.265839  -0.073698   0.019195  -0.001775   0.000131
     2  C    0.265839   5.137672   0.253035  -0.056594   0.017541  -0.001354
     3  C   -0.073698   0.253035   5.243536   0.233180  -0.046090   0.015219
     4  C    0.019195  -0.056594   0.233180   5.227925   0.213949  -0.032495
     5  C   -0.001775   0.017541  -0.046090   0.213949   5.268964   0.182233
     6  C    0.000131  -0.001354   0.015219  -0.032495   0.182233   5.310586
     7  C   -0.000007   0.000120  -0.001426   0.012105  -0.023431   0.121761
     8  C    0.000000  -0.000004   0.000083  -0.000218   0.004583   0.023606
     9  C   -0.000000   0.000000  -0.000005   0.000048   0.000675  -0.006145
    10  O   -0.000000   0.000000  -0.000000   0.000001   0.000162  -0.000489
    11  O    0.000000  -0.000000   0.000000  -0.000000   0.000022  -0.000545
    12  H    0.407464  -0.042001  -0.007188  -0.000534  -0.000027  -0.000002
    13  H    0.407446  -0.041992  -0.007188  -0.000534  -0.000027  -0.000002
    14  H    0.396851  -0.040686   0.013987  -0.000855   0.000063  -0.000002
    15  H   -0.041131   0.416768  -0.046621  -0.007515  -0.000235  -0.000064
    16  H   -0.041134   0.416794  -0.046645  -0.007511  -0.000236  -0.000064
    17  H   -0.003211  -0.043160   0.414124  -0.044738  -0.005886  -0.000222
    18  H   -0.003210  -0.043171   0.414123  -0.044729  -0.005886  -0.000222
    19  H   -0.000211  -0.005023  -0.044169   0.417518  -0.045070  -0.005247
    20  H   -0.000211  -0.005023  -0.044166   0.417528  -0.045087  -0.005245
    21  H   -0.000008  -0.000261  -0.004569  -0.045240   0.418126  -0.043775
    22  H   -0.000008  -0.000262  -0.004568  -0.045253   0.418123  -0.043768
    23  H   -0.000001  -0.000006  -0.000295  -0.004071  -0.044868   0.417205
    24  H   -0.000001  -0.000006  -0.000296  -0.004072  -0.044876   0.417193
    25  H    0.000000  -0.000001  -0.000032  -0.000100  -0.005749  -0.037646
    26  H    0.000000  -0.000001  -0.000032  -0.000098  -0.005753  -0.037612
    27  H   -0.000000   0.000000  -0.000001  -0.000036  -0.000153  -0.002892
    28  H   -0.000000   0.000000  -0.000001  -0.000036  -0.000153  -0.002898
    29  H   -0.000000   0.000000  -0.000000   0.000000  -0.000004   0.000085
               7          8          9         10         11         12
     1  C   -0.000007   0.000000  -0.000000  -0.000000   0.000000   0.407464
     2  C    0.000120  -0.000004   0.000000   0.000000  -0.000000  -0.042001
     3  C   -0.001426   0.000083  -0.000005  -0.000000   0.000000  -0.007188
     4  C    0.012105  -0.000218   0.000048   0.000001  -0.000000  -0.000534
     5  C   -0.023431   0.004583   0.000675   0.000162   0.000022  -0.000027
     6  C    0.121761   0.023606  -0.006145  -0.000489  -0.000545  -0.000002
     7  C    5.389159   0.001766   0.057067   0.035790   0.015963   0.000000
     8  C    0.001766   5.907992  -0.033173  -0.169043  -0.179803  -0.000000
     9  C    0.057067  -0.033173   4.856056   0.621565   0.357823   0.000000
    10  O    0.035790  -0.169043   0.621565   7.969085  -0.105696  -0.000000
    11  O    0.015963  -0.179803   0.357823  -0.105696   7.905051  -0.000000
    12  H    0.000000  -0.000000   0.000000  -0.000000  -0.000000   0.561324
    13  H    0.000000  -0.000000   0.000000  -0.000000  -0.000000  -0.032419
    14  H    0.000000  -0.000000   0.000000  -0.000000  -0.000000  -0.025317
    15  H   -0.000000  -0.000000  -0.000000   0.000000   0.000000  -0.007038
    16  H   -0.000000  -0.000000  -0.000000   0.000000   0.000000   0.008459
    17  H   -0.000038  -0.000000  -0.000000   0.000000  -0.000000   0.006192
    18  H   -0.000038  -0.000000  -0.000000   0.000000  -0.000000  -0.000711
    19  H   -0.000149  -0.000034  -0.000001  -0.000000   0.000000   0.000096
    20  H   -0.000150  -0.000034  -0.000001  -0.000000   0.000000   0.000005
    21  H   -0.005980   0.000152  -0.000087  -0.000021  -0.000000  -0.000027
    22  H   -0.005979   0.000152  -0.000087  -0.000021  -0.000000   0.000019
    23  H   -0.040185  -0.007346   0.000184   0.000050   0.000001  -0.000000
    24  H   -0.040168  -0.007343   0.000184   0.000050   0.000001   0.000001
    25  H    0.409134  -0.028964  -0.009543   0.003159   0.000151   0.000000
    26  H    0.409144  -0.028984  -0.009543   0.003152   0.000151  -0.000000
    27  H   -0.035236   0.381378  -0.010546   0.002013   0.005632  -0.000000
    28  H   -0.035250   0.381413  -0.010547   0.002014   0.005630   0.000000
    29  H   -0.001877   0.019675  -0.016946   0.002432   0.282404   0.000000
              13         14         15         16         17         18
     1  C    0.407446   0.396851  -0.041131  -0.041134  -0.003211  -0.003210
     2  C   -0.041992  -0.040686   0.416768   0.416794  -0.043160  -0.043171
     3  C   -0.007188   0.013987  -0.046621  -0.046645   0.414124   0.414123
     4  C   -0.000534  -0.000855  -0.007515  -0.007511  -0.044738  -0.044729
     5  C   -0.000027   0.000063  -0.000235  -0.000236  -0.005886  -0.005886
     6  C   -0.000002  -0.000002  -0.000064  -0.000064  -0.000222  -0.000222
     7  C    0.000000   0.000000  -0.000000  -0.000000  -0.000038  -0.000038
     8  C   -0.000000  -0.000000  -0.000000  -0.000000  -0.000000  -0.000000
     9  C    0.000000   0.000000  -0.000000  -0.000000  -0.000000  -0.000000
    10  O   -0.000000  -0.000000   0.000000   0.000000   0.000000   0.000000
    11  O   -0.000000  -0.000000   0.000000   0.000000  -0.000000  -0.000000
    12  H   -0.032419  -0.025317  -0.007038   0.008459   0.006192  -0.000711
    13  H    0.561337  -0.025309   0.008460  -0.007038  -0.000711   0.006193
    14  H   -0.025309   0.542350  -0.002628  -0.002629  -0.000166  -0.000166
    15  H    0.008460  -0.002628   0.582915  -0.036702  -0.007846   0.009256
    16  H   -0.007038  -0.002629  -0.036702   0.582912   0.009256  -0.007845
    17  H   -0.000711  -0.000166  -0.007846   0.009256   0.585699  -0.038923
    18  H    0.006193  -0.000166   0.009256  -0.007845  -0.038923   0.585708
    19  H    0.000005   0.000007   0.005818  -0.000312  -0.007415   0.008956
    20  H    0.000096   0.000007  -0.000313   0.005818   0.008956  -0.007415
    21  H    0.000019   0.000000   0.000168  -0.000043   0.004903  -0.000007
    22  H   -0.000027   0.000000  -0.000043   0.000168  -0.000007   0.004903
    23  H    0.000001   0.000000   0.000030  -0.000044  -0.000062   0.000200
    24  H   -0.000000   0.000000  -0.000044   0.000030   0.000200  -0.000062
    25  H   -0.000000  -0.000000  -0.000000   0.000001   0.000032  -0.000048
    26  H    0.000000  -0.000000   0.000001  -0.000000  -0.000048   0.000032
    27  H    0.000000   0.000000   0.000000  -0.000000  -0.000000   0.000001
    28  H   -0.000000   0.000000  -0.000000   0.000000   0.000001  -0.000000
    29  H    0.000000   0.000000  -0.000000  -0.000000  -0.000000  -0.000000
              19         20         21         22         23         24
     1  C   -0.000211  -0.000211  -0.000008  -0.000008  -0.000001  -0.000001
     2  C   -0.005023  -0.005023  -0.000261  -0.000262  -0.000006  -0.000006
     3  C   -0.044169  -0.044166  -0.004569  -0.004568  -0.000295  -0.000296
     4  C    0.417518   0.417528  -0.045240  -0.045253  -0.004071  -0.004072
     5  C   -0.045070  -0.045087   0.418126   0.418123  -0.044868  -0.044876
     6  C   -0.005247  -0.005245  -0.043775  -0.043768   0.417205   0.417193
     7  C   -0.000149  -0.000150  -0.005980  -0.005979  -0.040185  -0.040168
     8  C   -0.000034  -0.000034   0.000152   0.000152  -0.007346  -0.007343
     9  C   -0.000001  -0.000001  -0.000087  -0.000087   0.000184   0.000184
    10  O   -0.000000  -0.000000  -0.000021  -0.000021   0.000050   0.000050
    11  O    0.000000   0.000000  -0.000000  -0.000000   0.000001   0.000001
    12  H    0.000096   0.000005  -0.000027   0.000019  -0.000000   0.000001
    13  H    0.000005   0.000096   0.000019  -0.000027   0.000001  -0.000000
    14  H    0.000007   0.000007   0.000000   0.000000   0.000000   0.000000
    15  H    0.005818  -0.000313   0.000168  -0.000043   0.000030  -0.000044
    16  H   -0.000312   0.005818  -0.000043   0.000168  -0.000044   0.000030
    17  H   -0.007415   0.008956   0.004903  -0.000007  -0.000062   0.000200
    18  H    0.008956  -0.007415  -0.000007   0.004903   0.000200  -0.000062
    19  H    0.582169  -0.038100  -0.007043   0.008732   0.000053   0.004656
    20  H   -0.038100   0.582173   0.008732  -0.007042   0.004656   0.000053
    21  H   -0.007043   0.008732   0.579106  -0.037781   0.008666  -0.007208
    22  H    0.008732  -0.007042  -0.037781   0.579120  -0.007208   0.008667
    23  H    0.000053   0.004656   0.008666  -0.007208   0.574883  -0.037991
    24  H    0.004656   0.000053  -0.007208   0.008667  -0.037991   0.574879
    25  H   -0.000064   0.000195   0.000144   0.004320  -0.006305   0.007671
    26  H    0.000195  -0.000064   0.004321   0.000144   0.007670  -0.006305
    27  H    0.000026  -0.000041  -0.000064   0.000169   0.002826   0.000633
    28  H   -0.000041   0.000026   0.000169  -0.000064   0.000634   0.002827
    29  H   -0.000000  -0.000000   0.000000   0.000000  -0.000001  -0.000001
              25         26         27         28         29
     1  C    0.000000   0.000000  -0.000000  -0.000000  -0.000000
     2  C   -0.000001  -0.000001   0.000000   0.000000   0.000000
     3  C   -0.000032  -0.000032  -0.000001  -0.000001  -0.000000
     4  C   -0.000100  -0.000098  -0.000036  -0.000036   0.000000
     5  C   -0.005749  -0.005753  -0.000153  -0.000153  -0.000004
     6  C   -0.037646  -0.037612  -0.002892  -0.002898   0.000085
     7  C    0.409134   0.409144  -0.035236  -0.035250  -0.001877
     8  C   -0.028964  -0.028984   0.381378   0.381413   0.019675
     9  C   -0.009543  -0.009543  -0.010546  -0.010547  -0.016946
    10  O    0.003159   0.003152   0.002013   0.002014   0.002432
    11  O    0.000151   0.000151   0.005632   0.005630   0.282404
    12  H    0.000000  -0.000000  -0.000000   0.000000   0.000000
    13  H   -0.000000   0.000000   0.000000  -0.000000   0.000000
    14  H   -0.000000  -0.000000   0.000000   0.000000   0.000000
    15  H   -0.000000   0.000001   0.000000  -0.000000  -0.000000
    16  H    0.000001  -0.000000  -0.000000   0.000000  -0.000000
    17  H    0.000032  -0.000048  -0.000000   0.000001  -0.000000
    18  H   -0.000048   0.000032   0.000001  -0.000000  -0.000000
    19  H   -0.000064   0.000195   0.000026  -0.000041  -0.000000
    20  H    0.000195  -0.000064  -0.000041   0.000026  -0.000000
    21  H    0.000144   0.004321  -0.000064   0.000169   0.000000
    22  H    0.004320   0.000144   0.000169  -0.000064   0.000000
    23  H   -0.006305   0.007670   0.002826   0.000634  -0.000001
    24  H    0.007671  -0.006305   0.000633   0.002827  -0.000001
    25  H    0.551633  -0.029161  -0.003049   0.005716   0.000004
    26  H   -0.029161   0.551596   0.005715  -0.003046   0.000004
    27  H   -0.003049   0.005715   0.486874  -0.015221  -0.000391
    28  H    0.005716  -0.003046  -0.015221   0.486853  -0.000391
    29  H    0.000004   0.000004  -0.000391  -0.000391   0.385214
 Mulliken charges:
               1
     1  C   -0.418538
     2  C   -0.228223
     3  C   -0.260299
     4  C   -0.246819
     5  C   -0.249134
     6  C   -0.267331
     7  C   -0.262097
     8  C   -0.265853
     9  C    0.203022
    10  O   -0.364200
    11  O   -0.286782
    12  H    0.131705
    13  H    0.131690
    14  H    0.144493
    15  H    0.126765
    16  H    0.126765
    17  H    0.123070
    18  H    0.123061
    19  H    0.124649
    20  H    0.124646
    21  H    0.127610
    22  H    0.127601
    23  H    0.131324
    24  H    0.131328
    25  H    0.138501
    26  H    0.138523
    27  H    0.182363
    28  H    0.182366
    29  H    0.329793
 Sum of Mulliken charges =  -0.00000
 Mulliken charges with hydrogens summed into heavy atoms:
               1
     1  C   -0.010649
     2  C    0.025308
     3  C   -0.014168
     4  C    0.002475
     5  C    0.006077
     6  C   -0.004678
     7  C    0.014927
     8  C    0.098876
     9  C    0.203022
    10  O   -0.364200
    11  O    0.043011
 Electronic spatial extent (au):  <R**2>=           4907.7782
 Charge=             -0.0000 electrons
 Dipole moment (field-independent basis, Debye):
    X=             -0.1894    Y=             -2.3092    Z=             -0.0005  Tot=              2.3170
 Quadrupole moment (field-independent basis, Debye-Ang):
   XX=            -67.0266   YY=            -77.8584   ZZ=            -69.1683
   XY=             -7.0371   XZ=             -0.0018   YZ=             -0.0002
 Traceless Quadrupole moment (field-independent basis, Debye-Ang):
   XX=              4.3245   YY=             -6.5073   ZZ=              2.1828
   XY=             -7.0371   XZ=             -0.0018   YZ=             -0.0002
 Octapole moment (field-independent basis, Debye-Ang**2):
  XXX=            134.8376  YYY=             -6.5872  ZZZ=             -0.0009  XYY=            -11.9230
  XXY=            -26.4880  XXZ=             -0.0058  XZZ=             14.7864  YZZ=             -0.0331
  YYZ=             -0.0009  XYZ=             -0.0016
 Hexadecapole moment (field-independent basis, Debye-Ang**3):
 XXXX=          -5369.1408 YYYY=           -324.3936 ZZZZ=           -129.8513 XXXY=            -20.8582
 XXXZ=             -0.0444 YYYX=            -25.0761 YYYZ=              0.0013 ZZZX=             -0.0008
 ZZZY=             -0.0006 XXYY=          -1207.7371 XXZZ=          -1023.1400 YYZZ=            -66.9375
 XXYZ=             -0.0033 YYXZ=             -0.0030 ZZXY=             -1.8213
 N-N= 5.857285125327D+02 E-N=-2.346268844963D+03  KE= 5.019104984440D+02
 Unable to Open any file for archive entry.
 1\1\GINC-TCN1717\SP\RBP86\TZVP\C9H18O2\ELENAA\22-Feb-2021\0\\# BP86/TZ
 VP SCRF=COSMORS geom=CHECKPOINT guess=CHECKPOINT\\COSMO-file for #FBUK
 VWPVBMHYJY-UHFFFAOYSA-N\\0,1\C,0,-8.6638411467,-1.5495570173,2.4339259
 234\C,0,-7.2370180095,-1.046207136,2.6853382969\C,0,-6.5510544929,-0.5
 257506675,1.4148074344\C,0,-5.1226996865,-0.0191517665,1.6529127171\C,
 0,-4.4385557489,0.5007165543,0.3818878712\C,0,-3.0105063334,1.00658464
 71,0.6229480295\C,0,-2.3326775943,1.5247954558,-0.6517362249\C,0,-0.91
 07704123,2.0242707303,-0.3907984691\C,0,-0.2093092966,2.5435649733,-1.
 6246879464\O,0,-0.6745947165,2.5890352615,-2.7530290997\O,0,1.05335305
 05,2.9753717476,-1.3346888144\H,0,-8.6683305935,-2.3750392162,1.703658
 9577\H,0,-9.3005273825,-0.7458334873,2.0297110442\H,0,-9.1344164259,-1
 .9172624895,3.3588425518\H,0,-6.6272631279,-1.8592914942,3.1179778677\
 H,0,-7.2550416592,-0.2414750287,3.4417548394\H,0,-6.5315994042,-1.3302
 06923,0.6565361796\H,0,-7.159796657,0.2887111286,0.9805391871\H,0,-4.5
 144868701,-0.8338700327,2.0869885591\H,0,-5.1427412763,0.7851823906,2.
 4110391673\H,0,-4.4174896609,-0.3032785179,-0.376316923\H,0,-5.0457788
 139,1.3159193492,-0.0522229323\H,0,-3.0311786446,1.810816033,1.3807489
 832\H,0,-2.4028705833,0.191594403,1.0565913453\H,0,-2.9325295254,2.341
 5674105,-1.0864846675\H,0,-2.3052191301,0.7248246432,-1.4101807157\H,0
 ,-0.9053934135,2.8340177446,0.3589398753\H,0,-0.281110606,1.2251602912
 ,0.0367251132\H,0,1.4534681616,3.2980610127,-2.1708081507\\Version=ES6
 4L-G16RevC.01\State=1-A\HF=-504.46\RMSD=3.584e-09\Dipole=0.3543099,-0.
 030826,0.8393272\Quadrupole=5.2317178,1.8730451,-7.1047629,1.4739108,-
 0.3733727,1.6035362\PG=C01 [X(C9H18O2)]\\@
 The archive entry for this job was punched.


 ERWIN WITH HIS PSI CAN DO
 CALCULATIONS QUITE A FEW.
 BUT ONE THING HAS NOT BEEN SEEN
 JUST WHAT DOES PSI REALLY MEAN.
 -- WALTER HUCKEL, TRANS. BY FELIX BLOCH
 Job cpu time:       0 days  0 hours  8 minutes 40.0 seconds.
 Elapsed time:       0 days  0 hours  0 minutes 17.1 seconds.
 File lengths (MBytes):  RWF=     87 Int=      0 D2E=      0 Chk=     13 Scr=      1
 Normal termination of Gaussian 16 at Mon Feb 22 21:07:29 2021.
