 Entering Gaussian System, Link 0=g16
 Input=FEWJPZIEWOKRBE-JCYAYHJZSA-N.gjf
 Output=FEWJPZIEWOKRBE-JCYAYHJZSA-N.log
 Initial command:
 /sw/arch/RedHatEnterpriseServer7/EB_production/2019/software/Gaussian/g16.c01/l1.exe "/scratch-local/elenaa.9715204/Gau-12447.inp" -scrdir="/scratch-local/elenaa.9715204/"
 Entering Link 1 = /sw/arch/RedHatEnterpriseServer7/EB_production/2019/software/Gaussian/g16.c01/l1.exe PID=     12448.
  
 Copyright (c) 1988-2019, Gaussian, Inc.  All Rights Reserved.
  
 This is part of the Gaussian(R) 16 program.  It is based on
 the Gaussian(R) 09 system (copyright 2009, Gaussian, Inc.),
 the Gaussian(R) 03 system (copyright 2003, Gaussian, Inc.),
 the Gaussian(R) 98 system (copyright 1998, Gaussian, Inc.),
 the Gaussian(R) 94 system (copyright 1995, Gaussian, Inc.),
 the Gaussian 92(TM) system (copyright 1992, Gaussian, Inc.),
 the Gaussian 90(TM) system (copyright 1990, Gaussian, Inc.),
 the Gaussian 88(TM) system (copyright 1988, Gaussian, Inc.),
 the Gaussian 86(TM) system (copyright 1986, Carnegie Mellon
 University), and the Gaussian 82(TM) system (copyright 1983,
 Carnegie Mellon University). Gaussian is a federally registered
 trademark of Gaussian, Inc.
  
 This software contains proprietary and confidential information,
 including trade secrets, belonging to Gaussian, Inc.
  
 This software is provided under written license and may be
 used, copied, transmitted, or stored only in accord with that
 written license.
  
 The following legend is applicable only to US Government
 contracts under FAR:
  
                    RESTRICTED RIGHTS LEGEND
  
 Use, reproduction and disclosure by the US Government is
 subject to restrictions as set forth in subparagraphs (a)
 and (c) of the Commercial Computer Software - Restricted
 Rights clause in FAR 52.227-19.
  
 Gaussian, Inc.
 340 Quinnipiac St., Bldg. 40, Wallingford CT 06492
  
  
 ---------------------------------------------------------------
 Warning -- This program may not be used in any manner that
 competes with the business of Gaussian, Inc. or will provide
 assistance to any competitor of Gaussian, Inc.  The licensee
 of this program is prohibited from giving any competitor of
 Gaussian, Inc. access to this program.  By using this program,
 the user acknowledges that Gaussian, Inc. is engaged in the
 business of creating and licensing software in the field of
 computational chemistry and represents and warrants to the
 licensee that it is not a competitor of Gaussian, Inc. and that
 it will not use this program in any manner prohibited above.
 ---------------------------------------------------------------
  

 Cite this work as:
 Gaussian 16, Revision C.01,
 M. J. Frisch, G. W. Trucks, H. B. Schlegel, G. E. Scuseria, 
 M. A. Robb, J. R. Cheeseman, G. Scalmani, V. Barone, 
 G. A. Petersson, H. Nakatsuji, X. Li, M. Caricato, A. V. Marenich, 
 J. Bloino, B. G. Janesko, R. Gomperts, B. Mennucci, H. P. Hratchian, 
 J. V. Ortiz, A. F. Izmaylov, J. L. Sonnenberg, D. Williams-Young, 
 F. Ding, F. Lipparini, F. Egidi, J. Goings, B. Peng, A. Petrone, 
 T. Henderson, D. Ranasinghe, V. G. Zakrzewski, J. Gao, N. Rega, 
 G. Zheng, W. Liang, M. Hada, M. Ehara, K. Toyota, R. Fukuda, 
 J. Hasegawa, M. Ishida, T. Nakajima, Y. Honda, O. Kitao, H. Nakai, 
 T. Vreven, K. Throssell, J. A. Montgomery, Jr., J. E. Peralta, 
 F. Ogliaro, M. J. Bearpark, J. J. Heyd, E. N. Brothers, K. N. Kudin, 
 V. N. Staroverov, T. A. Keith, R. Kobayashi, J. Normand, 
 K. Raghavachari, A. P. Rendell, J. C. Burant, S. S. Iyengar, 
 J. Tomasi, M. Cossi, J. M. Millam, M. Klene, C. Adamo, R. Cammi, 
 J. W. Ochterski, R. L. Martin, K. Morokuma, O. Farkas, 
 J. B. Foresman, and D. J. Fox, Gaussian, Inc., Wallingford CT, 2019.
 
 ******************************************
 Gaussian 16:  ES64L-G16RevC.01  3-Jul-2019
                22-Feb-2021 
 ******************************************
 %chk=FEWJPZIEWOKRBE-JCYAYHJZSA-N.chk
 %NProcShared=32
 Will use up to   32 processors via shared memory.
 -------------------------------------------------------------
 #P BP86/TZVP EmpiricalDispersion=GD3 SCRF=(Solvent=Water) Opt
 -------------------------------------------------------------
 1/18=20,19=15,26=3,38=1/1,3;
 2/9=110,12=2,17=6,18=5,40=1/2;
 3/5=19,7=101,11=2,25=1,30=1,70=2201,71=1,72=1,74=404,124=31/1,2,3;
 4//1;
 5/5=2,38=5,53=1/2;
 6/7=2,8=2,9=2,10=2,28=1/1;
 7//1,2,3,16;
 1/18=20,19=15,26=3/3(2);
 2/9=110/2;
 99//99;
 2/9=110/2;
 3/5=19,7=101,11=2,25=1,30=1,70=2205,71=1,72=1,74=404,124=31/1,2,3;
 4/5=5,16=3,69=1/1;
 5/5=2,38=5,53=1/2;
 7//1,2,3,16;
 1/18=20,19=15,26=3/3(-5);
 2/9=110/2;
 6/7=2,8=2,9=2,10=2,19=2,28=1/1;
 99/9=1/99;
 Leave Link    1 at Mon Feb 22 21:01:11 2021, MaxMem=           0 cpu:               1.8 elap:               0.1
 (Enter /sw/arch/RedHatEnterpriseServer7/EB_production/2019/software/Gaussian/g16.c01/l101.exe)
 -------------------------------------
 Particle #FEWJPZIEWOKRBE-JCYAYHJZSA-N
 -------------------------------------
 Symbolic Z-matrix:
 Charge =  0 Multiplicity = 1
 O                    -2.13647  -1.69285  -3.50444 
 C                    -0.88457  -1.66961  -3.4683 
 O                    -0.20137  -2.34273  -4.42382 
 C                    -0.16099  -0.92692  -2.41305 
 O                     0.67799   0.01711  -3.07598 
 C                     0.68782  -1.85118  -1.48854 
 O                     1.43153  -1.05271  -0.56671 
 C                    -0.09032  -2.82686  -0.692 
 O                     0.50543  -3.71387  -0.04001 
 O                    -1.44415  -2.80226  -0.63407 
 H                    -0.67816  -2.8394   -5.12087 
 H                    -0.86952  -0.36215  -1.79991 
 H                     1.11029   0.52576  -2.35813 
 H                     1.40941  -2.40216  -2.09956 
 H                     2.04709  -0.52554  -1.11957 
 H                    -1.92665  -3.47694  -0.11327 
 
 ITRead=  0  0  0  0  0  0  0  0  0  0  0  0  0  0  0  0
 MicOpt= -1 -1 -1 -1 -1 -1 -1 -1 -1 -1 -1 -1 -1 -1 -1 -1
 NAtoms=     16 NQM=       16 NQMF=       0 NMMI=      0 NMMIF=      0
                NMic=       0 NMicF=      0.
                    Isotopes and Nuclear Properties:
 (Nuclear quadrupole moments (NQMom) in fm**2, nuclear magnetic moments (NMagM)
  in nuclear magnetons)

  Atom         1           2           3           4           5           6           7           8           9          10
 IAtWgt=          16          12          16          12          16          12          16          12          16          16
 AtmWgt=  15.9949146  12.0000000  15.9949146  12.0000000  15.9949146  12.0000000  15.9949146  12.0000000  15.9949146  15.9949146
 NucSpn=           0           0           0           0           0           0           0           0           0           0
 AtZEff=  -0.0000000  -0.0000000  -0.0000000  -0.0000000  -0.0000000  -0.0000000  -0.0000000  -0.0000000  -0.0000000  -0.0000000
 NQMom=    0.0000000   0.0000000   0.0000000   0.0000000   0.0000000   0.0000000   0.0000000   0.0000000   0.0000000   0.0000000
 NMagM=    0.0000000   0.0000000   0.0000000   0.0000000   0.0000000   0.0000000   0.0000000   0.0000000   0.0000000   0.0000000
 AtZNuc=   8.0000000   6.0000000   8.0000000   6.0000000   8.0000000   6.0000000   8.0000000   6.0000000   8.0000000   8.0000000

  Atom        11          12          13          14          15          16
 IAtWgt=           1           1           1           1           1           1
 AtmWgt=   1.0078250   1.0078250   1.0078250   1.0078250   1.0078250   1.0078250
 NucSpn=           1           1           1           1           1           1
 AtZEff=  -0.0000000  -0.0000000  -0.0000000  -0.0000000  -0.0000000  -0.0000000
 NQMom=    0.0000000   0.0000000   0.0000000   0.0000000   0.0000000   0.0000000
 NMagM=    2.7928460   2.7928460   2.7928460   2.7928460   2.7928460   2.7928460
 AtZNuc=   1.0000000   1.0000000   1.0000000   1.0000000   1.0000000   1.0000000
 Leave Link  101 at Mon Feb 22 21:01:12 2021, MaxMem=   104857600 cpu:               3.0 elap:               0.1
 (Enter /sw/arch/RedHatEnterpriseServer7/EB_production/2019/software/Gaussian/g16.c01/l103.exe)

 GradGradGradGradGradGradGradGradGradGradGradGradGradGradGradGradGradGrad
 Berny optimization.
 Initialization pass.
                           ----------------------------
                           !    Initial Parameters    !
                           ! (Angstroms and Degrees)  !
 --------------------------                            --------------------------
 ! Name  Definition              Value          Derivative Info.                !
 --------------------------------------------------------------------------------
 ! R1    R(1,2)                  1.2526         estimate D2E/DX2                !
 ! R2    R(2,3)                  1.3538         estimate D2E/DX2                !
 ! R3    R(2,4)                  1.4794         estimate D2E/DX2                !
 ! R4    R(3,11)                 0.9797         estimate D2E/DX2                !
 ! R5    R(4,5)                  1.4264         estimate D2E/DX2                !
 ! R6    R(4,6)                  1.5587         estimate D2E/DX2                !
 ! R7    R(4,12)                 1.094          estimate D2E/DX2                !
 ! R8    R(5,13)                 0.9803         estimate D2E/DX2                !
 ! R9    R(6,7)                  1.4284         estimate D2E/DX2                !
 ! R10   R(6,8)                  1.4805         estimate D2E/DX2                !
 ! R11   R(6,14)                 1.0944         estimate D2E/DX2                !
 ! R12   R(7,15)                 0.9811         estimate D2E/DX2                !
 ! R13   R(8,9)                  1.2517         estimate D2E/DX2                !
 ! R14   R(8,10)                 1.3553         estimate D2E/DX2                !
 ! R15   R(10,16)                0.9794         estimate D2E/DX2                !
 ! A1    A(1,2,3)              118.3435         estimate D2E/DX2                !
 ! A2    A(1,2,4)              121.245          estimate D2E/DX2                !
 ! A3    A(3,2,4)              120.4115         estimate D2E/DX2                !
 ! A4    A(2,3,11)             120.5712         estimate D2E/DX2                !
 ! A5    A(2,4,5)              106.7635         estimate D2E/DX2                !
 ! A6    A(2,4,6)              113.0629         estimate D2E/DX2                !
 ! A7    A(2,4,12)             110.0079         estimate D2E/DX2                !
 ! A8    A(5,4,6)              110.3537         estimate D2E/DX2                !
 ! A9    A(5,4,12)             107.4421         estimate D2E/DX2                !
 ! A10   A(6,4,12)             109.0488         estimate D2E/DX2                !
 ! A11   A(4,5,13)             105.2165         estimate D2E/DX2                !
 ! A12   A(4,6,7)              109.563          estimate D2E/DX2                !
 ! A13   A(4,6,8)              115.0671         estimate D2E/DX2                !
 ! A14   A(4,6,14)             109.0537         estimate D2E/DX2                !
 ! A15   A(7,6,8)              107.1466         estimate D2E/DX2                !
 ! A16   A(7,6,14)             107.3646         estimate D2E/DX2                !
 ! A17   A(8,6,14)             108.3702         estimate D2E/DX2                !
 ! A18   A(6,7,15)             105.2703         estimate D2E/DX2                !
 ! A19   A(6,8,9)              119.8075         estimate D2E/DX2                !
 ! A20   A(6,8,10)             122.4155         estimate D2E/DX2                !
 ! A21   A(9,8,10)             117.777          estimate D2E/DX2                !
 ! A22   A(8,10,16)            120.155          estimate D2E/DX2                !
 ! D1    D(1,2,3,11)            -0.4069         estimate D2E/DX2                !
 ! D2    D(4,2,3,11)           179.6622         estimate D2E/DX2                !
 ! D3    D(1,2,4,5)           -122.2731         estimate D2E/DX2                !
 ! D4    D(1,2,4,6)            116.1893         estimate D2E/DX2                !
 ! D5    D(1,2,4,12)            -5.9882         estimate D2E/DX2                !
 ! D6    D(3,2,4,5)             57.6558         estimate D2E/DX2                !
 ! D7    D(3,2,4,6)            -63.8818         estimate D2E/DX2                !
 ! D8    D(3,2,4,12)           173.9407         estimate D2E/DX2                !
 ! D9    D(2,4,5,13)           177.1846         estimate D2E/DX2                !
 ! D10   D(6,4,5,13)           -59.5773         estimate D2E/DX2                !
 ! D11   D(12,4,5,13)           59.2024         estimate D2E/DX2                !
 ! D12   D(2,4,6,7)            175.5929         estimate D2E/DX2                !
 ! D13   D(2,4,6,8)            -63.635          estimate D2E/DX2                !
 ! D14   D(2,4,6,14)            58.346          estimate D2E/DX2                !
 ! D15   D(5,4,6,7)             56.1008         estimate D2E/DX2                !
 ! D16   D(5,4,6,8)            176.873          estimate D2E/DX2                !
 ! D17   D(5,4,6,14)           -61.1461         estimate D2E/DX2                !
 ! D18   D(12,4,6,7)           -61.6946         estimate D2E/DX2                !
 ! D19   D(12,4,6,8)            59.0776         estimate D2E/DX2                !
 ! D20   D(12,4,6,14)         -178.9415         estimate D2E/DX2                !
 ! D21   D(4,6,7,15)           -63.9363         estimate D2E/DX2                !
 ! D22   D(8,6,7,15)           170.6            estimate D2E/DX2                !
 ! D23   D(14,6,7,15)           54.3657         estimate D2E/DX2                !
 ! D24   D(4,6,8,9)            171.6996         estimate D2E/DX2                !
 ! D25   D(4,6,8,10)            -8.378          estimate D2E/DX2                !
 ! D26   D(7,6,8,9)            -66.2161         estimate D2E/DX2                !
 ! D27   D(7,6,8,10)           113.7062         estimate D2E/DX2                !
 ! D28   D(14,6,8,9)            49.3505         estimate D2E/DX2                !
 ! D29   D(14,6,8,10)         -130.7272         estimate D2E/DX2                !
 ! D30   D(6,8,10,16)          178.5628         estimate D2E/DX2                !
 ! D31   D(9,8,10,16)           -1.5133         estimate D2E/DX2                !
 --------------------------------------------------------------------------------
 Trust Radius=3.00D-01 FncErr=1.00D-07 GrdErr=1.00D-06 EigMax=2.50D+02 EigMin=1.00D-04
 Number of steps in this run=     78 maximum allowed number of steps=    100.
 GradGradGradGradGradGradGradGradGradGradGradGradGradGradGradGradGradGrad

 Leave Link  103 at Mon Feb 22 21:01:12 2021, MaxMem=   104857600 cpu:               0.3 elap:               0.0
 (Enter /sw/arch/RedHatEnterpriseServer7/EB_production/2019/software/Gaussian/g16.c01/l202.exe)
                          Input orientation:                          
 ---------------------------------------------------------------------
 Center     Atomic      Atomic             Coordinates (Angstroms)
 Number     Number       Type             X           Y           Z
 ---------------------------------------------------------------------
      1          8           0       -2.136470   -1.692850   -3.504440
      2          6           0       -0.884570   -1.669610   -3.468300
      3          8           0       -0.201370   -2.342730   -4.423820
      4          6           0       -0.160990   -0.926920   -2.413050
      5          8           0        0.677990    0.017110   -3.075980
      6          6           0        0.687820   -1.851180   -1.488540
      7          8           0        1.431530   -1.052710   -0.566710
      8          6           0       -0.090320   -2.826860   -0.692000
      9          8           0        0.505430   -3.713870   -0.040010
     10          8           0       -1.444150   -2.802260   -0.634070
     11          1           0       -0.678160   -2.839400   -5.120870
     12          1           0       -0.869520   -0.362150   -1.799910
     13          1           0        1.110290    0.525760   -2.358130
     14          1           0        1.409410   -2.402160   -2.099560
     15          1           0        2.047090   -0.525540   -1.119570
     16          1           0       -1.926650   -3.476940   -0.113270
 ---------------------------------------------------------------------
                    Distance matrix (angstroms):
                    1          2          3          4          5
     1  O    0.000000
     2  C    1.252637   0.000000
     3  O    2.238798   1.353836   0.000000
     4  C    2.383338   1.479429   2.459542   0.000000
     5  O    3.320953   2.332495   2.856360   1.426379   0.000000
     6  C    3.473548   2.534724   3.106147   1.558670   2.451646
     7  O    4.665904   3.763524   4.382672   2.441498   2.829978
     8  C    3.658214   3.110933   3.764730   2.564523   3.789700
     9  O    4.802753   4.226615   4.647298   3.720554   4.813222
    10  O    3.154223   3.103045   4.014707   2.885857   4.291299
    11  H    2.460506   2.035191   0.979739   3.355195   3.765683
    12  H    2.506262   2.119718   3.354702   1.094039   2.041318
    13  H    4.096060   3.167269   3.770380   1.931178   0.980264
    14  H    3.879442   2.769914   2.828485   2.177330   2.709472
    15  H    4.955037   3.926838   4.390424   2.590331   2.448764
    16  H    3.837582   3.950772   4.779526   3.861236   5.269742
                    6          7          8          9         10
     6  C    0.000000
     7  O    1.428436   0.000000
     8  C    1.480517   2.340798   0.000000
     9  O    2.366668   2.866504   1.251717   0.000000
    10  O    2.485954   3.366749   1.355292   2.232667   0.000000
    11  H    4.004535   5.327610   4.467729   5.289681   4.551867
    12  H    2.177032   2.700460   2.812368   4.027625   2.764692
    13  H    2.566030   2.409138   3.931605   4.869702   4.535776
    14  H    1.094357   2.042335   2.100187   2.603749   3.232730
    15  H    1.934186   0.981059   3.169765   3.702379   4.196179
    16  H    3.371931   4.166518   2.032152   2.444691   0.979404
                   11         12         13         14         15
    11  H    0.000000
    12  H    4.147549   0.000000
    13  H    4.706972   2.240456   0.000000
    14  H    3.698303   3.073264   2.954496   0.000000
    15  H    5.365756   2.999362   1.875328   2.211045   0.000000
    16  H    5.200119   3.696511   5.503091   4.028622   5.051140
                   16
    16  H    0.000000
 Stoichiometry    C4H6O6
 Framework group  C1[X(C4H6O6)]
 Deg. of freedom    42
 Full point group                 C1      NOp   1
 Largest Abelian subgroup         C1      NOp   1
 Largest concise Abelian subgroup C1      NOp   1
                         Standard orientation:                         
 ---------------------------------------------------------------------
 Center     Atomic      Atomic             Coordinates (Angstroms)
 Number     Number       Type             X           Y           Z
 ---------------------------------------------------------------------
      1          8           0        1.885640   -1.439885   -0.732831
      2          6           0        1.547988   -0.492135    0.013399
      3          8           0        2.010788   -0.479447    1.285612
      4          6           0        0.667184    0.592021   -0.473941
      5          8           0        1.382028    1.813624   -0.297195
      6          6           0       -0.699529    0.650686    0.273125
      7          8           0       -1.445421    1.780603   -0.182245
      8          6           0       -1.561403   -0.540386    0.098627
      9          8           0       -2.605373   -0.658071    0.779121
     10          8           0       -1.266980   -1.527451   -0.782188
     11          1           0        2.590223   -1.198777    1.612275
     12          1           0        0.483395    0.471735   -1.545703
     13          1           0        0.799004    2.508880   -0.668164
     14          1           0       -0.516184    0.789982    1.342984
     15          1           0       -0.917645    2.563289    0.084838
     16          1           0       -1.849697   -2.311206   -0.855692
 ---------------------------------------------------------------------
 Rotational constants (GHZ):           1.7494738           1.0766511           0.8125865
 Leave Link  202 at Mon Feb 22 21:01:12 2021, MaxMem=   104857600 cpu:               0.7 elap:               0.1
 (Enter /sw/arch/RedHatEnterpriseServer7/EB_production/2019/software/Gaussian/g16.c01/l301.exe)
 Standard basis: TZVP (5D, 7F)
 Ernie: Thresh=  0.10000D-02 Tol=  0.10000D-05 Strict=F.
 There are   236 symmetry adapted cartesian basis functions of A   symmetry.
 There are   226 symmetry adapted basis functions of A   symmetry.
   226 basis functions,   398 primitive gaussians,   236 cartesian basis functions
    39 alpha electrons       39 beta electrons
       nuclear repulsion energy       571.0086842418 Hartrees.
 IExCor=  404 DFT=T Ex=B Corr=P86 ExCW=0 ScaHFX=  0.000000
 ScaDFX=  1.000000  1.000000  1.000000  1.000000 ScalE2=  1.000000  1.000000
 IRadAn=      5 IRanWt=     -1 IRanGd=            0 ICorTp=0 IEmpDi=131
 NAtoms=   16 NActive=   16 NUniq=   16 SFac= 1.00D+00 NAtFMM=   60 NAOKFM=F Big=F
 Integral buffers will be    131072 words long.
 Raffenetti 2 integral format.
 Two-electron integral symmetry is turned on.
 R6Disp:  Grimme-D3 Dispersion energy=       -0.0163707526 Hartrees.
 Nuclear repulsion after empirical dispersion term =      570.9923134892 Hartrees.
 ------------------------------------------------------------------------------
 Polarizable Continuum Model (PCM)
 =================================
 Model                : PCM.
 Atomic radii         : UFF (Universal Force Field).
 Polarization charges : Total charges.
 Charge compensation  : None.
 Solution method      : On-the-fly selection.
 Cavity type          : Scaled VdW (van der Waals Surface) (Alpha=1.100).
 Cavity algorithm     : GePol (No added spheres)
                        Default sphere list used, NSphG=   16.
                        Lebedev-Laikov grids with approx.  5.0 points / Ang**2.
                        Smoothing algorithm: York/Karplus (Gamma=1.0000).
                        Polarization charges: spherical gaussians, with
                                              point-specific exponents (IZeta= 3).
                        Self-potential: point-specific (ISelfS= 7).
                        Self-field    : sphere-specific E.n sum rule (ISelfD= 2).
 1st derivatives      : Analytical E(r).r(x)/FMM algorithm (CHGder, D1EAlg=3).
                        Cavity 1st derivative terms included.
 Solvent              : Water, Eps=  78.355300 Eps(inf)=   1.777849
 ------------------------------------------------------------------------------
 Spheres list:
 ISph  on   Nord     Re0    Alpha      Xe            Ye            Ze
    1   O      1    1.7500  1.100      1.885640     -1.439885     -0.732831
    2   C      2    1.9255  1.100      1.547988     -0.492135      0.013399
    3   O      3    1.7500  1.100      2.010788     -0.479447      1.285612
    4   C      4    1.9255  1.100      0.667184      0.592021     -0.473941
    5   O      5    1.7500  1.100      1.382028      1.813624     -0.297195
    6   C      6    1.9255  1.100     -0.699529      0.650686      0.273125
    7   O      7    1.7500  1.100     -1.445421      1.780603     -0.182245
    8   C      8    1.9255  1.100     -1.561403     -0.540386      0.098627
    9   O      9    1.7500  1.100     -2.605373     -0.658071      0.779121
   10   O     10    1.7500  1.100     -1.266980     -1.527451     -0.782188
   11   H     11    1.4430  1.100      2.590223     -1.198777      1.612275
   12   H     12    1.4430  1.100      0.483395      0.471735     -1.545703
   13   H     13    1.4430  1.100      0.799004      2.508880     -0.668164
   14   H     14    1.4430  1.100     -0.516184      0.789982      1.342984
   15   H     15    1.4430  1.100     -0.917645      2.563289      0.084838
   16   H     16    1.4430  1.100     -1.849697     -2.311206     -0.855692
 ------------------------------------------------------------------------------
 GePol: Number of generator spheres                  =      16
 GePol: Total number of spheres                      =      16
 GePol: Number of exposed spheres                    =      16 (100.00%)
 GePol: Number of points                             =    1417
 GePol: Average weight of points                     =       0.14
 GePol: Minimum weight of points                     =   0.16D-09
 GePol: Maximum weight of points                     =    0.20577
 GePol: Number of points with low weight             =      66
 GePol: Fraction of low-weight points (<1% of avg)   =       4.66%
 GePol: Cavity surface area                          =    192.943 Ang**2
 GePol: Cavity volume                                =    187.587 Ang**3
 Leave Link  301 at Mon Feb 22 21:01:12 2021, MaxMem=   104857600 cpu:               1.9 elap:               0.1
 (Enter /sw/arch/RedHatEnterpriseServer7/EB_production/2019/software/Gaussian/g16.c01/l302.exe)
 NPDir=0 NMtPBC=     1 NCelOv=     1 NCel=       1 NClECP=     1 NCelD=      1
         NCelK=      1 NCelE2=     1 NClLst=     1 CellRange=     0.0.
 One-electron integrals computed using PRISM.
 One-electron integral symmetry used in STVInt
 PrsmSu:  requested number of processors reduced to:  29 ShMem   1 Linda.
 NBasis=   226 RedAO= T EigKep=  1.43D-04  NBF=   226
 NBsUse=   226 1.00D-06 EigRej= -1.00D+00 NBFU=   226
 Precomputing XC quadrature grid using
 IXCGrd= 4 IRadAn=           5 IRanWt=          -1 IRanGd=           0 AccXCQ= 0.00D+00.
 Generated NRdTot=       0 NPtTot=           0 NUsed=           0 NTot=          32
 NSgBfM=   234   234   234   234   234 MxSgAt=    16 MxSgA2=    16.
 Leave Link  302 at Mon Feb 22 21:01:12 2021, MaxMem=   104857600 cpu:               7.2 elap:               0.3
 (Enter /sw/arch/RedHatEnterpriseServer7/EB_production/2019/software/Gaussian/g16.c01/l303.exe)
 DipDrv:  MaxL=1.
 Leave Link  303 at Mon Feb 22 21:01:13 2021, MaxMem=   104857600 cpu:               3.0 elap:               0.2
 (Enter /sw/arch/RedHatEnterpriseServer7/EB_production/2019/software/Gaussian/g16.c01/l401.exe)
 ExpMin= 9.52D-02 ExpMax= 2.70D+04 ExpMxC= 9.22D+02 IAcc=3 IRadAn=         5 AccDes= 0.00D+00
 Harris functional with IExCor=  404 and IRadAn=       5 diagonalized for initial guess.
 HarFok:  IExCor=  404 AccDes= 0.00D+00 IRadAn=         5 IDoV= 1 UseB2=F ITyADJ=14
 ICtDFT=  3500011 ScaDFX=  1.000000  1.000000  1.000000  1.000000
 FoFCou: FMM=F IPFlag=           0 FMFlag=      100000 FMFlg1=           0
         NFxFlg=           0 DoJE=T BraDBF=F KetDBF=T FulRan=T
         wScrn=  0.000000 ICntrl=       500 IOpCl=  0 I1Cent=   200000004 NGrid=           0
         NMat0=    1 NMatS0=      1 NMatT0=    0 NMatD0=    1 NMtDS0=    0 NMtDT0=    0
 Petite list used in FoFCou.
 Harris En= -607.743088816508    
 JPrj=0 DoOrth=F DoCkMO=F.
 Leave Link  401 at Mon Feb 22 21:01:14 2021, MaxMem=   104857600 cpu:              10.3 elap:               0.4
 (Enter /sw/arch/RedHatEnterpriseServer7/EB_production/2019/software/Gaussian/g16.c01/l502.exe)
 Integral symmetry usage will be decided dynamically.
 Closed shell SCF:
 Using DIIS extrapolation, IDIIS=  1040.
 NGot=   104857600 LenX=   104735870 LenY=   104679733
 Requested convergence on RMS density matrix=1.00D-08 within 128 cycles.
 Requested convergence on MAX density matrix=1.00D-06.
 Requested convergence on             energy=1.00D-06.
 No special actions if energy rises.
 Fock matrices will be formed incrementally for  20 cycles.

 Cycle   1  Pass 1  IDiag  1:
 FoFJK:  IHMeth= 1 ICntrl=     500 DoSepK=F KAlg= 0 I1Cent=           0 FoldK=F
 IRaf= 920000000 NMat=       1 IRICut=       1 DoRegI=T DoRafI=F ISym2E= 0 IDoP0=0 IntGTp=1.
 FoFCou: FMM=F IPFlag=           0 FMFlag=      100000 FMFlg1=           0
         NFxFlg=           0 DoJE=T BraDBF=F KetDBF=F FulRan=T
         wScrn=  0.000000 ICntrl=       500 IOpCl=  0 I1Cent=           0 NGrid=           0
         NMat0=    1 NMatS0=      1 NMatT0=    0 NMatD0=    1 NMtDS0=    0 NMtDT0=    0
 Symmetry not used in FoFCou.
 Inv3:  Mode=1 IEnd=     6023667.
 Iteration    1 A*A^-1 deviation from unit magnitude is 2.89D-15 for    361.
 Iteration    1 A*A^-1 deviation from orthogonality  is 1.67D-15 for   1395   1136.
 Iteration    1 A^-1*A deviation from unit magnitude is 2.78D-15 for    101.
 Iteration    1 A^-1*A deviation from orthogonality  is 1.64D-15 for    450    190.
 E= -607.360893960095    
 DIIS: error= 2.18D-02 at cycle   1 NSaved=   1.
 NSaved= 1 IEnMin= 1 EnMin= -607.360893960095     IErMin= 1 ErrMin= 2.18D-02
 ErrMax= 2.18D-02  0.00D+00 EMaxC= 1.00D-01 BMatC= 3.88D-01 BMatP= 3.88D-01
 IDIUse=3 WtCom= 7.82D-01 WtEn= 2.18D-01
 Coeff-Com:  0.100D+01
 Coeff-En:   0.100D+01
 Coeff:      0.100D+01
 Gap=     0.063 Goal=   None    Shift=    0.000
 GapD=    0.063 DampG=0.500 DampE=0.500 DampFc=0.2500 IDamp=-1.
 Damping current iteration by 2.50D-01
 RMSDP=1.20D-02 MaxDP=9.16D-01              OVMax= 3.52D-01

 Cycle   2  Pass 1  IDiag  1:
 RMSU=  3.00D-03    CP:  1.02D+00
 E= -607.444805994677     Delta-E=       -0.083912034582 Rises=F Damp=T
 DIIS: error= 8.69D-03 at cycle   2 NSaved=   2.
 NSaved= 2 IEnMin= 2 EnMin= -607.444805994677     IErMin= 2 ErrMin= 8.69D-03
 ErrMax= 8.69D-03  0.00D+00 EMaxC= 1.00D-01 BMatC= 3.62D-02 BMatP= 3.88D-01
 IDIUse=3 WtCom= 9.13D-01 WtEn= 8.69D-02
 Coeff-Com: -0.170D+00 0.117D+01
 Coeff-En:   0.193D+00 0.807D+00
 Coeff:     -0.138D+00 0.114D+01
 Gap=     0.127 Goal=   None    Shift=    0.000
 RMSDP=2.04D-03 MaxDP=6.47D-02 DE=-8.39D-02 OVMax= 3.15D-01

 Cycle   3  Pass 1  IDiag  1:
 RMSU=  2.04D-03    CP:  1.02D+00  9.49D-01
 E= -607.545947772893     Delta-E=       -0.101141778215 Rises=F Damp=F
 DIIS: error= 2.27D-02 at cycle   3 NSaved=   3.
 NSaved= 3 IEnMin= 3 EnMin= -607.545947772893     IErMin= 2 ErrMin= 8.69D-03
 ErrMax= 2.27D-02  0.00D+00 EMaxC= 1.00D-01 BMatC= 1.21D-01 BMatP= 3.62D-02
 IDIUse=2 WtCom= 0.00D+00 WtEn= 1.00D+00
 EnCoef did     5 forward-backward iterations
 Coeff-En:   0.743D-01 0.341D-01 0.892D+00
 Coeff:      0.743D-01 0.341D-01 0.892D+00
 Gap=     0.145 Goal=   None    Shift=    0.000
 RMSDP=5.05D-03 MaxDP=1.66D-01 DE=-1.01D-01 OVMax= 3.97D-01

 Cycle   4  Pass 1  IDiag  1:
 RMSU=  2.35D-03    CP:  1.03D+00  1.81D+00 -7.85D-01
 E= -606.802399588423     Delta-E=        0.743548184470 Rises=F Damp=F
 DIIS: error= 5.51D-02 at cycle   4 NSaved=   4.
 NSaved= 4 IEnMin= 3 EnMin= -607.545947772893     IErMin= 2 ErrMin= 8.69D-03
 ErrMax= 5.51D-02  0.00D+00 EMaxC= 1.00D-01 BMatC= 1.07D+00 BMatP= 3.62D-02
 IDIUse=2 WtCom= 0.00D+00 WtEn= 1.00D+00
 EnCoef did     2 forward-backward iterations
 Coeff-En:   0.964D-02 0.000D+00 0.826D+00 0.165D+00
 Coeff:      0.964D-02 0.000D+00 0.826D+00 0.165D+00
 Gap=     0.126 Goal=   None    Shift=    0.000
 RMSDP=3.38D-03 MaxDP=2.13D-01 DE= 7.44D-01 OVMax= 2.27D-01

 Cycle   5  Pass 1  IDiag  1:
 RMSU=  6.17D-04    CP:  1.02D+00  9.25D-01 -1.07D-02  4.92D-01
 E= -607.555615582773     Delta-E=       -0.753215994350 Rises=F Damp=F
 DIIS: error= 2.06D-02 at cycle   5 NSaved=   5.
 NSaved= 5 IEnMin= 5 EnMin= -607.555615582773     IErMin= 2 ErrMin= 8.69D-03
 ErrMax= 2.06D-02  0.00D+00 EMaxC= 1.00D-01 BMatC= 1.16D-01 BMatP= 3.62D-02
 IDIUse=2 WtCom= 0.00D+00 WtEn= 1.00D+00
 Coeff-En:   0.000D+00 0.000D+00 0.481D+00 0.000D+00 0.519D+00
 Coeff:      0.000D+00 0.000D+00 0.481D+00 0.000D+00 0.519D+00
 Gap=     0.143 Goal=   None    Shift=    0.000
 RMSDP=1.15D-03 MaxDP=2.71D-02 DE=-7.53D-01 OVMax= 9.85D-02

 Cycle   6  Pass 1  IDiag  1:
 RMSU=  2.98D-04    CP:  1.02D+00  9.34D-01  4.30D-01  2.20D-01  7.91D-01
 E= -607.637344187466     Delta-E=       -0.081728604693 Rises=F Damp=F
 DIIS: error= 2.34D-03 at cycle   6 NSaved=   6.
 NSaved= 6 IEnMin= 6 EnMin= -607.637344187466     IErMin= 6 ErrMin= 2.34D-03
 ErrMax= 2.34D-03  0.00D+00 EMaxC= 1.00D-01 BMatC= 3.99D-03 BMatP= 3.62D-02
 IDIUse=3 WtCom= 9.77D-01 WtEn= 2.34D-02
 Coeff-Com: -0.286D-01 0.588D-01 0.256D+00-0.424D-01 0.377D+00 0.379D+00
 Coeff-En:   0.000D+00 0.000D+00 0.000D+00 0.000D+00 0.000D+00 0.100D+01
 Coeff:     -0.279D-01 0.574D-01 0.250D+00-0.414D-01 0.369D+00 0.394D+00
 Gap=     0.144 Goal=   None    Shift=    0.000
 RMSDP=2.56D-04 MaxDP=7.83D-03 DE=-8.17D-02 OVMax= 1.47D-02

 Cycle   7  Pass 1  IDiag  1:
 RMSU=  1.06D-04    CP:  1.02D+00  9.08D-01  4.30D-01  2.60D-01  7.25D-01
                    CP:  3.57D-01
 E= -607.640152483173     Delta-E=       -0.002808295707 Rises=F Damp=F
 DIIS: error= 6.14D-04 at cycle   7 NSaved=   7.
 NSaved= 7 IEnMin= 7 EnMin= -607.640152483173     IErMin= 7 ErrMin= 6.14D-04
 ErrMax= 6.14D-04  0.00D+00 EMaxC= 1.00D-01 BMatC= 1.86D-04 BMatP= 3.99D-03
 IDIUse=3 WtCom= 9.94D-01 WtEn= 6.14D-03
 Coeff-Com: -0.124D-01 0.254D-01 0.986D-01-0.251D-01 0.160D+00 0.231D+00
 Coeff-Com:  0.522D+00
 Coeff-En:   0.000D+00 0.000D+00 0.000D+00 0.000D+00 0.000D+00 0.000D+00
 Coeff-En:   0.100D+01
 Coeff:     -0.123D-01 0.252D-01 0.980D-01-0.249D-01 0.159D+00 0.229D+00
 Coeff:      0.525D+00
 Gap=     0.145 Goal=   None    Shift=    0.000
 RMSDP=6.21D-05 MaxDP=1.61D-03 DE=-2.81D-03 OVMax= 2.40D-03

 Cycle   8  Pass 1  IDiag  1:
 RMSU=  3.02D-05    CP:  1.02D+00  9.05D-01  4.34D-01  2.50D-01  7.53D-01
                    CP:  4.41D-01  6.69D-01
 E= -607.640287435150     Delta-E=       -0.000134951977 Rises=F Damp=F
 DIIS: error= 2.01D-04 at cycle   8 NSaved=   8.
 NSaved= 8 IEnMin= 8 EnMin= -607.640287435150     IErMin= 8 ErrMin= 2.01D-04
 ErrMax= 2.01D-04  0.00D+00 EMaxC= 1.00D-01 BMatC= 2.05D-05 BMatP= 1.86D-04
 IDIUse=3 WtCom= 9.98D-01 WtEn= 2.01D-03
 Coeff-Com:  0.707D-02-0.107D-01 0.106D-01-0.212D-02 0.129D-01 0.835D-01
 Coeff-Com:  0.276D+00 0.623D+00
 Coeff-En:   0.000D+00 0.000D+00 0.000D+00 0.000D+00 0.000D+00 0.000D+00
 Coeff-En:   0.000D+00 0.100D+01
 Coeff:      0.706D-02-0.106D-01 0.106D-01-0.212D-02 0.129D-01 0.833D-01
 Coeff:      0.276D+00 0.623D+00
 Gap=     0.145 Goal=   None    Shift=    0.000
 RMSDP=1.82D-05 MaxDP=3.81D-04 DE=-1.35D-04 OVMax= 7.00D-04

 Cycle   9  Pass 1  IDiag  1:
 RMSU=  7.16D-06    CP:  1.02D+00  9.02D-01  4.35D-01  2.49D-01  7.43D-01
                    CP:  4.55D-01  7.21D-01  6.68D-01
 E= -607.640302103804     Delta-E=       -0.000014668654 Rises=F Damp=F
 DIIS: error= 3.85D-05 at cycle   9 NSaved=   9.
 NSaved= 9 IEnMin= 9 EnMin= -607.640302103804     IErMin= 9 ErrMin= 3.85D-05
 ErrMax= 3.85D-05  0.00D+00 EMaxC= 1.00D-01 BMatC= 7.07D-07 BMatP= 2.05D-05
 IDIUse=1 WtCom= 1.00D+00 WtEn= 0.00D+00
 Coeff-Com:  0.409D-02-0.590D-02 0.509D-02-0.947D-03 0.531D-02 0.418D-01
 Coeff-Com:  0.142D+00 0.351D+00 0.457D+00
 Coeff:      0.409D-02-0.590D-02 0.509D-02-0.947D-03 0.531D-02 0.418D-01
 Coeff:      0.142D+00 0.351D+00 0.457D+00
 Gap=     0.145 Goal=   None    Shift=    0.000
 RMSDP=4.54D-06 MaxDP=1.17D-04 DE=-1.47D-05 OVMax= 3.70D-04

 Cycle  10  Pass 1  IDiag  1:
 RMSU=  3.98D-06    CP:  1.02D+00  9.02D-01  4.35D-01  2.48D-01  7.43D-01
                    CP:  4.56D-01  7.18D-01  6.73D-01  7.18D-01
 E= -607.640302371459     Delta-E=       -0.000000267655 Rises=F Damp=F
 DIIS: error= 3.64D-05 at cycle  10 NSaved=  10.
 NSaved=10 IEnMin=10 EnMin= -607.640302371459     IErMin=10 ErrMin= 3.64D-05
 ErrMax= 3.64D-05  0.00D+00 EMaxC= 1.00D-01 BMatC= 3.83D-07 BMatP= 7.07D-07
 IDIUse=1 WtCom= 1.00D+00 WtEn= 0.00D+00
 Coeff-Com:  0.118D-02-0.134D-02 0.126D-02-0.246D-03 0.691D-03 0.839D-02
 Coeff-Com:  0.326D-01 0.105D+00 0.418D+00 0.434D+00
 Coeff:      0.118D-02-0.134D-02 0.126D-02-0.246D-03 0.691D-03 0.839D-02
 Coeff:      0.326D-01 0.105D+00 0.418D+00 0.434D+00
 Gap=     0.145 Goal=   None    Shift=    0.000
 RMSDP=2.57D-06 MaxDP=9.68D-05 DE=-2.68D-07 OVMax= 1.93D-04

 Cycle  11  Pass 1  IDiag  1:
 RMSU=  1.12D-06    CP:  1.02D+00  9.02D-01  4.36D-01  2.48D-01  7.44D-01
                    CP:  4.55D-01  7.16D-01  6.79D-01  8.10D-01  5.35D-01
 E= -607.640302665294     Delta-E=       -0.000000293836 Rises=F Damp=F
 DIIS: error= 4.78D-06 at cycle  11 NSaved=  11.
 NSaved=11 IEnMin=11 EnMin= -607.640302665294     IErMin=11 ErrMin= 4.78D-06
 ErrMax= 4.78D-06  0.00D+00 EMaxC= 1.00D-01 BMatC= 1.56D-08 BMatP= 3.83D-07
 IDIUse=1 WtCom= 1.00D+00 WtEn= 0.00D+00
 Coeff-Com:  0.460D-03-0.494D-03 0.502D-03-0.106D-03 0.287D-03 0.233D-02
 Coeff-Com:  0.934D-02 0.351D-01 0.208D+00 0.253D+00 0.492D+00
 Coeff:      0.460D-03-0.494D-03 0.502D-03-0.106D-03 0.287D-03 0.233D-02
 Coeff:      0.934D-02 0.351D-01 0.208D+00 0.253D+00 0.492D+00
 Gap=     0.145 Goal=   None    Shift=    0.000
 RMSDP=7.53D-07 MaxDP=3.11D-05 DE=-2.94D-07 OVMax= 2.08D-05

 Cycle  12  Pass 1  IDiag  1:
 RMSU=  2.96D-07    CP:  1.02D+00  9.02D-01  4.36D-01  2.48D-01  7.43D-01
                    CP:  4.55D-01  7.18D-01  6.79D-01  8.11D-01  5.35D-01
                    CP:  5.08D-01
 E= -607.640302661665     Delta-E=        0.000000003629 Rises=F Damp=F
 DIIS: error= 1.33D-06 at cycle  12 NSaved=  12.
 NSaved=12 IEnMin=11 EnMin= -607.640302665294     IErMin=12 ErrMin= 1.33D-06
 ErrMax= 1.33D-06  0.00D+00 EMaxC= 1.00D-01 BMatC= 1.02D-09 BMatP= 1.56D-08
 IDIUse=1 WtCom= 1.00D+00 WtEn= 0.00D+00
 Coeff-Com:  0.707D-04-0.683D-04 0.609D-04-0.948D-05 0.794D-05-0.183D-03
 Coeff-Com: -0.335D-03 0.159D-02 0.397D-01 0.536D-01 0.209D+00 0.697D+00
 Coeff:      0.707D-04-0.683D-04 0.609D-04-0.948D-05 0.794D-05-0.183D-03
 Coeff:     -0.335D-03 0.159D-02 0.397D-01 0.536D-01 0.209D+00 0.697D+00
 Gap=     0.145 Goal=   None    Shift=    0.000
 RMSDP=1.66D-07 MaxDP=6.03D-06 DE= 3.63D-09 OVMax= 4.88D-06

 Cycle  13  Pass 1  IDiag  1:
 RMSU=  8.62D-08    CP:  1.02D+00  9.02D-01  4.36D-01  2.48D-01  7.43D-01
                    CP:  4.55D-01  7.18D-01  6.79D-01  8.13D-01  5.39D-01
                    CP:  5.72D-01  7.99D-01
 E= -607.640302677819     Delta-E=       -0.000000016153 Rises=F Damp=F
 DIIS: error= 3.34D-07 at cycle  13 NSaved=  13.
 NSaved=13 IEnMin=13 EnMin= -607.640302677819     IErMin=13 ErrMin= 3.34D-07
 ErrMax= 3.34D-07  0.00D+00 EMaxC= 1.00D-01 BMatC= 6.82D-11 BMatP= 1.02D-09
 IDIUse=1 WtCom= 1.00D+00 WtEn= 0.00D+00
 Coeff-Com:  0.227D-04-0.201D-04 0.200D-04-0.230D-05-0.202D-05-0.165D-03
 Coeff-Com: -0.482D-03-0.403D-03 0.132D-01 0.183D-01 0.892D-01 0.369D+00
 Coeff-Com:  0.511D+00
 Coeff:      0.227D-04-0.201D-04 0.200D-04-0.230D-05-0.202D-05-0.165D-03
 Coeff:     -0.482D-03-0.403D-03 0.132D-01 0.183D-01 0.892D-01 0.369D+00
 Coeff:      0.511D+00
 Gap=     0.145 Goal=   None    Shift=    0.000
 RMSDP=3.81D-08 MaxDP=9.47D-07 DE=-1.62D-08 OVMax= 1.22D-06

 Cycle  14  Pass 1  IDiag  1:
 RMSU=  2.82D-08    CP:  1.02D+00  9.02D-01  4.36D-01  2.48D-01  7.43D-01
                    CP:  4.55D-01  7.18D-01  6.79D-01  8.13D-01  5.39D-01
                    CP:  5.77D-01  8.42D-01  7.87D-01
 E= -607.640302677852     Delta-E=       -0.000000000034 Rises=F Damp=F
 DIIS: error= 1.44D-07 at cycle  14 NSaved=  14.
 NSaved=14 IEnMin=14 EnMin= -607.640302677852     IErMin=14 ErrMin= 1.44D-07
 ErrMax= 1.44D-07  0.00D+00 EMaxC= 1.00D-01 BMatC= 1.39D-11 BMatP= 6.82D-11
 IDIUse=1 WtCom= 1.00D+00 WtEn= 0.00D+00
 Coeff-Com:  0.321D-05-0.201D-05 0.539D-05-0.513D-06 0.873D-07-0.630D-04
 Coeff-Com: -0.230D-03-0.505D-03 0.148D-02 0.216D-02 0.194D-01 0.117D+00
 Coeff-Com:  0.340D+00 0.520D+00
 Coeff:      0.321D-05-0.201D-05 0.539D-05-0.513D-06 0.873D-07-0.630D-04
 Coeff:     -0.230D-03-0.505D-03 0.148D-02 0.216D-02 0.194D-01 0.117D+00
 Coeff:      0.340D+00 0.520D+00
 Gap=     0.145 Goal=   None    Shift=    0.000
 RMSDP=1.50D-08 MaxDP=4.62D-07 DE=-3.38D-11 OVMax= 5.49D-07

 Cycle  15  Pass 1  IDiag  1:
 RMSU=  7.46D-09    CP:  1.02D+00  9.02D-01  4.36D-01  2.48D-01  7.43D-01
                    CP:  4.55D-01  7.18D-01  6.79D-01  8.13D-01  5.38D-01
                    CP:  5.75D-01  8.54D-01  8.09D-01  6.49D-01
 E= -607.640302677865     Delta-E=       -0.000000000012 Rises=F Damp=F
 DIIS: error= 2.65D-08 at cycle  15 NSaved=  15.
 NSaved=15 IEnMin=15 EnMin= -607.640302677865     IErMin=15 ErrMin= 2.65D-08
 ErrMax= 2.65D-08  0.00D+00 EMaxC= 1.00D-01 BMatC= 4.02D-13 BMatP= 1.39D-11
 IDIUse=1 WtCom= 1.00D+00 WtEn= 0.00D+00
 Coeff-Com:  0.121D-06 0.383D-06 0.143D-05-0.105D-06-0.127D-06-0.179D-04
 Coeff-Com: -0.741D-04-0.196D-03-0.142D-03-0.150D-03 0.302D-02 0.290D-01
 Coeff-Com:  0.118D+00 0.234D+00 0.616D+00
 Coeff:      0.121D-06 0.383D-06 0.143D-05-0.105D-06-0.127D-06-0.179D-04
 Coeff:     -0.741D-04-0.196D-03-0.142D-03-0.150D-03 0.302D-02 0.290D-01
 Coeff:      0.118D+00 0.234D+00 0.616D+00
 Gap=     0.145 Goal=   None    Shift=    0.000
 RMSDP=3.79D-09 MaxDP=1.78D-07 DE=-1.23D-11 OVMax= 1.35D-07

 Error on total polarization charges =  0.00839
 SCF Done:  E(RB-P86) =  -607.640302678     A.U. after   15 cycles
            NFock= 15  Conv=0.38D-08     -V/T= 2.0040
 KE= 6.051920803948D+02 PE=-2.571384728207D+03 EE= 7.875600316451D+02
 Leave Link  502 at Mon Feb 22 21:01:26 2021, MaxMem=   104857600 cpu:             372.0 elap:              11.9
 (Enter /sw/arch/RedHatEnterpriseServer7/EB_production/2019/software/Gaussian/g16.c01/l601.exe)
 Copying SCF densities to generalized density rwf, IOpCl= 0 IROHF=0.

 **********************************************************************

            Population analysis using the SCF Density.

 **********************************************************************

 Orbital symmetries:
       Occupied  (A) (A) (A) (A) (A) (A) (A) (A) (A) (A) (A) (A)
                 (A) (A) (A) (A) (A) (A) (A) (A) (A) (A) (A) (A)
                 (A) (A) (A) (A) (A) (A) (A) (A) (A) (A) (A) (A)
                 (A) (A) (A)
       Virtual   (A) (A) (A) (A) (A) (A) (A) (A) (A) (A) (A) (A)
                 (A) (A) (A) (A) (A) (A) (A) (A) (A) (A) (A) (A)
                 (A) (A) (A) (A) (A) (A) (A) (A) (A) (A) (A) (A)
                 (A) (A) (A) (A) (A) (A) (A) (A) (A) (A) (A) (A)
                 (A) (A) (A) (A) (A) (A) (A) (A) (A) (A) (A) (A)
                 (A) (A) (A) (A) (A) (A) (A) (A) (A) (A) (A) (A)
                 (A) (A) (A) (A) (A) (A) (A) (A) (A) (A) (A) (A)
                 (A) (A) (A) (A) (A) (A) (A) (A) (A) (A) (A) (A)
                 (A) (A) (A) (A) (A) (A) (A) (A) (A) (A) (A) (A)
                 (A) (A) (A) (A) (A) (A) (A) (A) (A) (A) (A) (A)
                 (A) (A) (A) (A) (A) (A) (A) (A) (A) (A) (A) (A)
                 (A) (A) (A) (A) (A) (A) (A) (A) (A) (A) (A) (A)
                 (A) (A) (A) (A) (A) (A) (A) (A) (A) (A) (A) (A)
                 (A) (A) (A) (A) (A) (A) (A) (A) (A) (A) (A) (A)
                 (A) (A) (A) (A) (A) (A) (A) (A) (A) (A) (A) (A)
                 (A) (A) (A) (A) (A) (A) (A)
 The electronic state is 1-A.
 Alpha  occ. eigenvalues --  -18.83582 -18.83267 -18.81201 -18.80645 -18.77641
 Alpha  occ. eigenvalues --  -18.77379 -10.05489 -10.05063  -9.99779  -9.99188
 Alpha  occ. eigenvalues --   -1.03414  -1.02912  -0.99209  -0.96615  -0.93643
 Alpha  occ. eigenvalues --   -0.93443  -0.74505  -0.67114  -0.60099  -0.58880
 Alpha  occ. eigenvalues --   -0.52292  -0.50681  -0.49744  -0.45732  -0.44136
 Alpha  occ. eigenvalues --   -0.43391  -0.41901  -0.40726  -0.39566  -0.36739
 Alpha  occ. eigenvalues --   -0.35664  -0.35160  -0.33634  -0.30261  -0.29381
 Alpha  occ. eigenvalues --   -0.28537  -0.26460  -0.25318  -0.24108
 Alpha virt. eigenvalues --   -0.09644  -0.07139  -0.00924   0.00619   0.01811
 Alpha virt. eigenvalues --    0.04765   0.07220   0.08706   0.09949   0.10693
 Alpha virt. eigenvalues --    0.11500   0.12968   0.15242   0.15689   0.19166
 Alpha virt. eigenvalues --    0.20489   0.22245   0.23384   0.24241   0.24960
 Alpha virt. eigenvalues --    0.26575   0.26868   0.28148   0.28285   0.30050
 Alpha virt. eigenvalues --    0.31060   0.32001   0.33043   0.34564   0.35642
 Alpha virt. eigenvalues --    0.36632   0.39223   0.39878   0.40836   0.41791
 Alpha virt. eigenvalues --    0.43186   0.43401   0.44174   0.44988   0.45705
 Alpha virt. eigenvalues --    0.47323   0.48583   0.48943   0.49634   0.51935
 Alpha virt. eigenvalues --    0.52396   0.54698   0.55481   0.57535   0.58680
 Alpha virt. eigenvalues --    0.60986   0.61754   0.63671   0.67645   0.70900
 Alpha virt. eigenvalues --    0.73657   0.75718   0.76771   0.80175   0.83621
 Alpha virt. eigenvalues --    0.87638   0.90290   0.95002   1.09988   1.15415
 Alpha virt. eigenvalues --    1.20034   1.21451   1.23502   1.25102   1.26336
 Alpha virt. eigenvalues --    1.26874   1.29586   1.31099   1.31592   1.33268
 Alpha virt. eigenvalues --    1.35153   1.36779   1.37432   1.39127   1.43010
 Alpha virt. eigenvalues --    1.45806   1.47688   1.49264   1.51782   1.52541
 Alpha virt. eigenvalues --    1.52987   1.55366   1.56095   1.57722   1.61345
 Alpha virt. eigenvalues --    1.62936   1.72715   1.79548   1.82223   1.83338
 Alpha virt. eigenvalues --    1.85183   1.86847   1.88658   1.90580   1.91616
 Alpha virt. eigenvalues --    1.95099   1.97133   1.99665   2.05137   2.06851
 Alpha virt. eigenvalues --    2.09028   2.11691   2.13829   2.17772   2.18921
 Alpha virt. eigenvalues --    2.22146   2.24235   2.35148   2.39578   2.41866
 Alpha virt. eigenvalues --    2.43053   2.44919   2.47056   2.48490   2.50360
 Alpha virt. eigenvalues --    2.51747   2.52875   2.53948   2.54406   2.55196
 Alpha virt. eigenvalues --    2.56001   2.57156   2.58863   2.59651   2.60247
 Alpha virt. eigenvalues --    2.61194   2.62009   2.64577   2.65896   2.67435
 Alpha virt. eigenvalues --    2.70970   2.75041   2.75661   2.78114   2.79973
 Alpha virt. eigenvalues --    2.80129   2.82099   2.85035   2.85229   2.86424
 Alpha virt. eigenvalues --    2.86983   2.88811   2.90050   2.93098   2.94556
 Alpha virt. eigenvalues --    2.95560   2.99511   3.00837   3.03711   3.04053
 Alpha virt. eigenvalues --    3.06905   3.08720   3.09953   3.15108   3.15283
 Alpha virt. eigenvalues --    3.16843   3.20354   3.29595   3.33443   3.36640
 Alpha virt. eigenvalues --    3.43525   3.44719   3.80125   3.81856   3.87898
 Alpha virt. eigenvalues --    3.88207   3.99740   4.00576   4.12874   4.15985
 Alpha virt. eigenvalues --    4.18380   4.19480  21.61396  21.67251  21.73795
 Alpha virt. eigenvalues --   21.75753  43.05383  43.07881  43.13032  43.14357
 Alpha virt. eigenvalues --   43.15877  43.24550
          Condensed to atoms (all electrons):
               1          2          3          4          5          6
     1  O    7.949246   0.589380  -0.126757  -0.081113   0.001142  -0.013292
     2  C    0.589380   5.116247   0.337332  -0.071103  -0.052957  -0.026543
     3  O   -0.126757   0.337332   7.834706  -0.090254   0.003222  -0.003163
     4  C   -0.081113  -0.071103  -0.090254   5.975461   0.169566  -0.220162
     5  O    0.001142  -0.052957   0.003222   0.169566   7.970605  -0.001449
     6  C   -0.013292  -0.026543  -0.003163  -0.220162  -0.001449   6.262966
     7  O   -0.000170   0.016739  -0.000032  -0.022995  -0.013992   0.247528
     8  C    0.004693   0.009720   0.000198   0.034107   0.018633  -0.237296
     9  O    0.000020  -0.001911  -0.000026   0.017287  -0.000253  -0.103170
    10  O   -0.003262  -0.003771  -0.000540   0.040040  -0.000144  -0.139552
    11  H    0.002061  -0.018412   0.296004   0.004364  -0.000436   0.001493
    12  H    0.006220  -0.099398   0.003535   0.425290  -0.052346  -0.012449
    13  H   -0.000696   0.012998  -0.000215  -0.026707   0.292967  -0.014285
    14  H    0.000697  -0.010841   0.011458  -0.043887   0.005210   0.379389
    15  H   -0.000054   0.000049   0.000056  -0.020327   0.008514  -0.015356
    16  H    0.000419   0.000601   0.000007  -0.002345   0.000034   0.012911
               7          8          9         10         11         12
     1  O   -0.000170   0.004693   0.000020  -0.003262   0.002061   0.006220
     2  C    0.016739   0.009720  -0.001911  -0.003771  -0.018412  -0.099398
     3  O   -0.000032   0.000198  -0.000026  -0.000540   0.296004   0.003535
     4  C   -0.022995   0.034107   0.017287   0.040040   0.004364   0.425290
     5  O   -0.013992   0.018633  -0.000253  -0.000144  -0.000436  -0.052346
     6  C    0.247528  -0.237296  -0.103170  -0.139552   0.001493  -0.012449
     7  O    7.919087  -0.079453  -0.001652  -0.001053   0.000022   0.007425
     8  C   -0.079453   5.145892   0.594438   0.362050   0.000021  -0.011889
     9  O   -0.001652   0.594438   7.952866  -0.130761   0.000001  -0.000296
    10  O   -0.001053   0.362050  -0.130761   7.841669  -0.000077   0.003715
    11  H    0.000022   0.000021   0.000001  -0.000077   0.373300  -0.000191
    12  H    0.007425  -0.011889  -0.000296   0.003715  -0.000191   0.522541
    13  H    0.013317   0.001546  -0.000073   0.000004   0.000111  -0.006263
    14  H   -0.045268  -0.032048  -0.002739   0.002570  -0.000275   0.011012
    15  H    0.300245   0.015005  -0.000658  -0.000338   0.000004  -0.002370
    16  H   -0.000325  -0.017270   0.002692   0.293134  -0.000002  -0.000077
              13         14         15         16
     1  O   -0.000696   0.000697  -0.000054   0.000419
     2  C    0.012998  -0.010841   0.000049   0.000601
     3  O   -0.000215   0.011458   0.000056   0.000007
     4  C   -0.026707  -0.043887  -0.020327  -0.002345
     5  O    0.292967   0.005210   0.008514   0.000034
     6  C   -0.014285   0.379389  -0.015356   0.012911
     7  O    0.013317  -0.045268   0.300245  -0.000325
     8  C    0.001546  -0.032048   0.015005  -0.017270
     9  O   -0.000073  -0.002739  -0.000658   0.002692
    10  O    0.000004   0.002570  -0.000338   0.293134
    11  H    0.000111  -0.000275   0.000004  -0.000002
    12  H   -0.006263   0.011012  -0.002370  -0.000077
    13  H    0.436811  -0.001558   0.010790   0.000003
    14  H   -0.001558   0.520120  -0.012273  -0.000283
    15  H    0.010790  -0.012273   0.423918   0.000049
    16  H    0.000003  -0.000283   0.000049   0.368206
 Mulliken charges:
               1
     1  O   -0.328532
     2  C    0.201872
     3  O   -0.265532
     4  C   -0.087222
     5  O   -0.348315
     6  C   -0.117569
     7  O   -0.339422
     8  C    0.191654
     9  O   -0.325765
    10  O   -0.263684
    11  H    0.342013
    12  H    0.205541
    13  H    0.281252
    14  H    0.218717
    15  H    0.292744
    16  H    0.342246
 Sum of Mulliken charges =  -0.00000
 Mulliken charges with hydrogens summed into heavy atoms:
               1
     1  O   -0.328532
     2  C    0.201872
     3  O    0.076481
     4  C    0.118319
     5  O   -0.067063
     6  C    0.101148
     7  O   -0.046677
     8  C    0.191654
     9  O   -0.325765
    10  O    0.078562
 Electronic spatial extent (au):  <R**2>=           1432.1133
 Charge=             -0.0000 electrons
 Dipole moment (field-independent basis, Debye):
    X=              1.1730    Y=              1.1519    Z=              0.5149  Tot=              1.7228
 Quadrupole moment (field-independent basis, Debye-Ang):
   XX=            -69.4735   YY=            -45.4366   ZZ=            -56.7180
   XY=              2.3256   XZ=             10.6530   YZ=             -3.7788
 Traceless Quadrupole moment (field-independent basis, Debye-Ang):
   XX=            -12.2642   YY=             11.7728   ZZ=              0.4914
   XY=              2.3256   XZ=             10.6530   YZ=             -3.7788
 Octapole moment (field-independent basis, Debye-Ang**2):
  XXX=             38.9864  YYY=             16.0328  ZZZ=              3.6107  XYY=            -17.9300
  XXY=            -20.8810  XXZ=              2.4574  XZZ=              7.5420  YZZ=             -1.8635
  YYZ=             -0.4659  XYZ=            -24.3859
 Hexadecapole moment (field-independent basis, Debye-Ang**3):
 XXXX=          -1001.4824 YYYY=           -386.1572 ZZZZ=           -199.0152 XXXY=            -15.9927
 XXXZ=            102.7219 YYYX=             39.8286 YYYZ=             -4.2578 ZZZX=             26.4286
 ZZZY=            -11.6117 XXYY=           -240.8326 XXZZ=           -182.6270 YYZZ=           -111.7544
 XXYZ=            -12.3052 YYXZ=             31.9843 ZZXY=             -7.8425
 N-N= 5.709923134892D+02 E-N=-2.571384727162D+03  KE= 6.051920803948D+02
 No NMR shielding tensors so no spin-rotation constants.
 Leave Link  601 at Mon Feb 22 21:01:26 2021, MaxMem=   104857600 cpu:               7.0 elap:               0.3
 (Enter /sw/arch/RedHatEnterpriseServer7/EB_production/2019/software/Gaussian/g16.c01/l701.exe)
 ... and contract with generalized density number  0.
 Compute integral first derivatives.
 R6Disp: Adding Grimme-D3 dispersion energy 1st derivatives to the gradient.
 PrsmSu:  requested number of processors reduced to:  29 ShMem   1 Linda.
 D1PCM: PCM CHGder 1st derivatives, ID1Alg=3 FixD1E=F DoIter=F DoCFld=F I1PDM=0.
 GePol: Maximum number of non-zero 1st derivatives   =     211
 CoulSu:  requested number of processors reduced to:  29 ShMem   1 Linda.
 CoulSu:  requested number of processors reduced to:  30 ShMem   1 Linda.
 Leave Link  701 at Mon Feb 22 21:01:27 2021, MaxMem=   104857600 cpu:              20.4 elap:               0.7
 (Enter /sw/arch/RedHatEnterpriseServer7/EB_production/2019/software/Gaussian/g16.c01/l702.exe)
 L702 exits ... SP integral derivatives will be done elsewhere.
 Leave Link  702 at Mon Feb 22 21:01:27 2021, MaxMem=   104857600 cpu:               0.7 elap:               0.0
 (Enter /sw/arch/RedHatEnterpriseServer7/EB_production/2019/software/Gaussian/g16.c01/l703.exe)
 Integral derivatives from FoFJK, PRISM(SPDF).
 Compute integral first derivatives, UseDBF=F ICtDFT=           0.
 Calling FoFJK, ICntrl=      2527 FMM=F ISym2X=0 I1Cent= 0 IOpClX= 0 NMat=1 NMatS=1 NMatT=0.
 FoFJK:  IHMeth= 1 ICntrl=    2527 DoSepK=F KAlg= 0 I1Cent=           0 FoldK=F
 IRaf=         0 NMat=       1 IRICut=       1 DoRegI=T DoRafI=F ISym2E= 0 IDoP0=0 IntGTp=1.
 FoFCou: FMM=F IPFlag=           0 FMFlag=      100000 FMFlg1=         800
         NFxFlg=           0 DoJE=F BraDBF=F KetDBF=F FulRan=T
         wScrn=  0.000000 ICntrl=      2527 IOpCl=  0 I1Cent=           0 NGrid=           0
         NMat0=    1 NMatS0=      1 NMatT0=    0 NMatD0=    1 NMtDS0=    0 NMtDT0=    0
 Symmetry not used in FoFCou.
 Leave Link  703 at Mon Feb 22 21:01:28 2021, MaxMem=   104857600 cpu:              42.8 elap:               1.4
 (Enter /sw/arch/RedHatEnterpriseServer7/EB_production/2019/software/Gaussian/g16.c01/l716.exe)
 Dipole        = 4.61511394D-01 4.53198268D-01 2.02575989D-01
 ***** Axes restored to original set *****
 -------------------------------------------------------------------
 Center     Atomic                   Forces (Hartrees/Bohr)
 Number     Number              X              Y              Z
 -------------------------------------------------------------------
      1        8           0.030995944    0.006125295    0.008697037
      2        6          -0.083538711   -0.028084728   -0.040723141
      3        8           0.041965608    0.009895990    0.016420957
      4        6           0.019724111    0.006190611    0.006654467
      5        8           0.013254433    0.003428424    0.000884084
      6        6          -0.001779864    0.022486447   -0.016348132
      7        8          -0.000263582    0.007960352    0.001481713
      8        6          -0.006229833   -0.079696388    0.061243158
      9        8          -0.004138029    0.025655006   -0.019496810
     10        8          -0.001998615    0.038405548   -0.028251493
     11        1          -0.014693470    0.007453884    0.010184641
     12        1          -0.008993638   -0.005838788    0.002111519
     13        1          -0.002969664    0.004642021   -0.006718175
     14        1          -0.001944483   -0.007745389   -0.006102254
     15        1           0.002814703   -0.005212274    0.006818597
     16        1           0.017795088   -0.005666012    0.003143833
 -------------------------------------------------------------------
 Cartesian Forces:  Max     0.083538711 RMS     0.024458713
 Leave Link  716 at Mon Feb 22 21:01:28 2021, MaxMem=   104857600 cpu:               0.7 elap:               0.0
 (Enter /sw/arch/RedHatEnterpriseServer7/EB_production/2019/software/Gaussian/g16.c01/l103.exe)

 GradGradGradGradGradGradGradGradGradGradGradGradGradGradGradGradGradGrad
 Berny optimization.
 FormGI is forming the generalized inverse of G from B-inverse, IUseBI=4.
 Internal  Forces:  Max     0.037805860 RMS     0.012880042
 Search for a local minimum.
 Step number   1 out of a maximum of   78
 All quantities printed in internal units (Hartrees-Bohrs-Radians)
 RMS Force = .12880D-01 SwitMx=.10000D-02 MixMth= 1
 Mixed Optimization -- RFO/linear search
 Second derivative matrix not updated -- first step.
 ITU=  0
     Eigenvalues ---    0.00230   0.01024   0.01038   0.01316   0.01329
     Eigenvalues ---    0.01341   0.01343   0.02283   0.02302   0.04617
     Eigenvalues ---    0.04812   0.05310   0.05383   0.08381   0.08545
     Eigenvalues ---    0.16000   0.16000   0.16000   0.16000   0.17921
     Eigenvalues ---    0.18307   0.19733   0.19796   0.25000   0.25000
     Eigenvalues ---    0.25000   0.25000   0.26927   0.34314   0.34350
     Eigenvalues ---    0.34511   0.34635   0.41215   0.41514   0.51180
     Eigenvalues ---    0.51334   0.51436   0.51501   0.53911   0.54213
     Eigenvalues ---    0.82270   0.82606
 RFO step:  Lambda=-3.94203128D-02 EMin= 2.30000000D-03
 Linear search not attempted -- first point.
 Maximum step size (   0.300) exceeded in Quadratic search.
    -- Step size scaled by   0.796
 Iteration  1 RMS(Cart)=  0.06594076 RMS(Int)=  0.00238809
 Iteration  2 RMS(Cart)=  0.00277549 RMS(Int)=  0.00015549
 Iteration  3 RMS(Cart)=  0.00000329 RMS(Int)=  0.00015548
 Iteration  4 RMS(Cart)=  0.00000000 RMS(Int)=  0.00015548
 ITry= 1 IFail=0 DXMaxC= 1.84D-01 DCOld= 1.00D+10 DXMaxT= 3.00D-01 DXLimC= 3.00D+00 Rises=F
 Variable       Old X    -DE/DX   Delta X   Delta X   Delta X     New X
                                 (Linear)    (Quad)   (Total)
    R1        2.36714  -0.03134   0.00000  -0.02895  -0.02895   2.33819
    R2        2.55838  -0.01363   0.00000  -0.01866  -0.01866   2.53972
    R3        2.79571   0.01855   0.00000   0.03830   0.03830   2.83401
    R4        1.85144  -0.00387   0.00000  -0.00557  -0.00557   1.84587
    R5        2.69547   0.01410   0.00000   0.02469   0.02469   2.72016
    R6        2.94546   0.00606   0.00000   0.01562   0.01562   2.96108
    R7        2.06743   0.00400   0.00000   0.00831   0.00831   2.07574
    R8        1.85243  -0.00383   0.00000  -0.00551  -0.00551   1.84692
    R9        2.69935   0.00823   0.00000   0.01451   0.01451   2.71386
   R10        2.79777   0.02013   0.00000   0.04168   0.04168   2.83945
   R11        2.06803   0.00602   0.00000   0.01253   0.01253   2.08057
   R12        1.85393  -0.00487   0.00000  -0.00704  -0.00704   1.84689
   R13        2.36540  -0.03030   0.00000  -0.02788  -0.02788   2.33752
   R14        2.56113  -0.01628   0.00000  -0.02241  -0.02241   2.53872
   R15        1.85081  -0.00319   0.00000  -0.00458  -0.00458   1.84622
    A1        2.06548   0.02958   0.00000   0.08140   0.08139   2.14687
    A2        2.11613   0.00696   0.00000   0.01914   0.01913   2.13526
    A3        2.10158  -0.03654   0.00000  -0.10053  -0.10054   2.00103
    A4        2.10436  -0.03512   0.00000  -0.14023  -0.14023   1.96414
    A5        1.86337  -0.00014   0.00000  -0.00159  -0.00144   1.86194
    A6        1.97332  -0.00264   0.00000  -0.01520  -0.01531   1.95801
    A7        1.92000  -0.00340   0.00000  -0.03031  -0.03038   1.88962
    A8        1.92604   0.00191   0.00000   0.01154   0.01139   1.93742
    A9        1.87522   0.00315   0.00000   0.03170   0.03152   1.90674
   A10        1.90326   0.00138   0.00000   0.00608   0.00540   1.90866
   A11        1.83637   0.01046   0.00000   0.04177   0.04177   1.87815
   A12        1.91224   0.00625   0.00000   0.02645   0.02631   1.93854
   A13        2.00830   0.00080   0.00000  -0.00222  -0.00216   2.00614
   A14        1.90335  -0.00171   0.00000  -0.00415  -0.00462   1.89872
   A15        1.87006  -0.00652   0.00000  -0.02426  -0.02417   1.84589
   A16        1.87387   0.00306   0.00000   0.02751   0.02717   1.90103
   A17        1.89142  -0.00177   0.00000  -0.02142  -0.02140   1.87002
   A18        1.83731   0.00815   0.00000   0.03253   0.03253   1.86984
   A19        2.09104   0.00504   0.00000   0.01387   0.01386   2.10490
   A20        2.13655  -0.03781   0.00000  -0.10402  -0.10403   2.03253
   A21        2.05560   0.03276   0.00000   0.09015   0.09015   2.14574
   A22        2.09710  -0.03458   0.00000  -0.13809  -0.13809   1.95901
    D1       -0.00710   0.00046   0.00000   0.00660   0.00671  -0.00039
    D2        3.13570  -0.00006   0.00000  -0.00144  -0.00155   3.13415
    D3       -2.13407  -0.00023   0.00000  -0.00255  -0.00247  -2.13653
    D4        2.02789  -0.00090   0.00000  -0.00652  -0.00632   2.02157
    D5       -0.10451   0.00166   0.00000   0.01842   0.01825  -0.08626
    D6        1.00628   0.00032   0.00000   0.00577   0.00578   1.01206
    D7       -1.11495  -0.00034   0.00000   0.00180   0.00193  -1.11302
    D8        3.03584   0.00221   0.00000   0.02674   0.02650   3.06234
    D9        3.09245  -0.00330   0.00000  -0.05095  -0.05097   3.04148
   D10       -1.03982  -0.00548   0.00000  -0.06364  -0.06382  -1.10364
   D11        1.03328  -0.00087   0.00000  -0.03093  -0.03073   1.00254
   D12        3.06467   0.00408   0.00000   0.02175   0.02176   3.08644
   D13       -1.11064   0.00086   0.00000   0.00859   0.00856  -1.10208
   D14        1.01833  -0.00219   0.00000  -0.02413  -0.02413   0.99420
   D15        0.97914   0.00469   0.00000   0.02586   0.02595   1.00509
   D16        3.08702   0.00147   0.00000   0.01270   0.01274   3.09976
   D17       -1.06720  -0.00159   0.00000  -0.02003  -0.01995  -1.08715
   D18       -1.07677  -0.00109   0.00000  -0.02313  -0.02318  -1.09995
   D19        1.03110  -0.00431   0.00000  -0.03629  -0.03638   0.99471
   D20       -3.12312  -0.00736   0.00000  -0.06901  -0.06907   3.09099
   D21       -1.11590  -0.00451   0.00000  -0.06493  -0.06532  -1.18122
   D22        2.97753  -0.00517   0.00000  -0.06297  -0.06305   2.91448
   D23        0.94886  -0.00138   0.00000  -0.03968  -0.03922   0.90964
   D24        2.99672  -0.00223   0.00000  -0.01254  -0.01256   2.98417
   D25       -0.14622  -0.00254   0.00000  -0.01725  -0.01721  -0.16343
   D26       -1.15569   0.00147   0.00000   0.00189   0.00178  -1.15391
   D27        1.98455   0.00116   0.00000  -0.00281  -0.00287   1.98168
   D28        0.86133   0.00079   0.00000   0.01075   0.01079   0.87212
   D29       -2.28162   0.00048   0.00000   0.00605   0.00614  -2.27548
   D30        3.11651   0.00015   0.00000   0.00226   0.00234   3.11885
   D31       -0.02641  -0.00017   0.00000  -0.00241  -0.00249  -0.02890
         Item               Value     Threshold  Converged?
 Maximum Force            0.037806     0.000450     NO 
 RMS     Force            0.012880     0.000300     NO 
 Maximum Displacement     0.184273     0.001800     NO 
 RMS     Displacement     0.066605     0.001200     NO 
 Predicted change in Energy=-2.121903D-02
 Lowest energy point so far.  Saving SCF results.
 GradGradGradGradGradGradGradGradGradGradGradGradGradGradGradGradGradGrad

 Leave Link  103 at Mon Feb 22 21:01:29 2021, MaxMem=   104857600 cpu:               3.6 elap:               0.2
 (Enter /sw/arch/RedHatEnterpriseServer7/EB_production/2019/software/Gaussian/g16.c01/l202.exe)
                          Input orientation:                          
 ---------------------------------------------------------------------
 Center     Atomic      Atomic             Coordinates (Angstroms)
 Number     Number       Type             X           Y           Z
 ---------------------------------------------------------------------
      1          8           0       -2.157180   -1.744725   -3.496886
      2          6           0       -0.921411   -1.692301   -3.464012
      3          8           0       -0.137967   -2.320945   -4.356901
      4          6           0       -0.178701   -0.924512   -2.411411
      5          8           0        0.645662    0.032166   -3.102205
      6          6           0        0.688289   -1.858049   -1.499199
      7          8           0        1.444825   -1.092766   -0.548189
      8          6           0       -0.091536   -2.856707   -0.691561
      9          8           0        0.489413   -3.751456   -0.065461
     10          8           0       -1.427172   -2.712189   -0.689026
     11          1           0       -0.652578   -2.816054   -5.023357
     12          1           0       -0.912497   -0.390319   -1.792747
     13          1           0        1.065912    0.601627   -2.428180
     14          1           0        1.384650   -2.427151   -2.134324
     15          1           0        2.110686   -0.584739   -1.051895
     16          1           0       -1.873033   -3.404189   -0.162876
 ---------------------------------------------------------------------
                    Distance matrix (angstroms):
                    1          2          3          4          5
     1  O    0.000000
     2  C    1.237318   0.000000
     3  O    2.269113   1.343960   0.000000
     4  C    2.401122   1.499695   2.395123   0.000000
     5  O    3.342010   2.358051   2.779472   1.439445   0.000000
     6  C    3.478547   2.545407   3.010553   1.566938   2.478782
     7  O    4.700458   3.802701   4.303480   2.477043   2.902952
     8  C    3.656944   3.119458   3.704579   2.588215   3.834091
     9  O    4.775574   4.216716   4.566883   3.733827   4.854073
    10  O    3.058264   2.999419   3.907483   2.778683   4.201376
    11  H    2.396182   1.940786   0.976791   3.259563   3.672683
    12  H    2.507537   2.118575   3.301832   1.098436   2.078709
    13  H    4.127447   3.206945   3.702798   1.969376   0.977346
    14  H    3.855754   2.761519   2.696199   2.186039   2.744291
    15  H    5.053537   4.029716   4.358201   2.684218   2.594348
    16  H    3.734995   3.838444   4.666232   3.751729   5.176101
                    6          7          8          9         10
     6  C    0.000000
     7  O    1.436115   0.000000
     8  C    1.502572   2.343598   0.000000
     9  O    2.383305   2.866090   1.236964   0.000000
    10  O    2.420973   3.300112   1.343434   2.267643   0.000000
    11  H    3.890422   5.234113   4.368166   5.172992   4.404226
    12  H    2.191556   2.756687   2.823058   4.030646   2.621864
    13  H    2.656240   2.559083   4.039258   4.986393   4.496832
    14  H    1.100990   2.073651   2.108366   2.614465   3.174347
    15  H    1.960769   0.977334   3.184567   3.691839   4.144172
    16  H    3.276687   4.061937   1.937260   2.389819   0.976980
                   11         12         13         14         15
    11  H    0.000000
    12  H    4.048282   0.000000
    13  H    4.622628   2.302571   0.000000
    14  H    3.556410   3.089052   3.059647   0.000000
    15  H    5.327936   3.118702   2.095991   2.256826   0.000000
    16  H    5.045760   3.558444   5.460363   3.931121   4.960814
                   16
    16  H    0.000000
 Stoichiometry    C4H6O6
 Framework group  C1[X(C4H6O6)]
 Deg. of freedom    42
 Full point group                 C1      NOp   1
 RotChk:  IX=0 Diff= 2.25D-02
 Largest Abelian subgroup         C1      NOp   1
 Largest concise Abelian subgroup C1      NOp   1
                         Standard orientation:                         
 ---------------------------------------------------------------------
 Center     Atomic      Atomic             Coordinates (Angstroms)
 Number     Number       Type             X           Y           Z
 ---------------------------------------------------------------------
      1          8           0        1.880880   -1.483470   -0.681652
      2          6           0        1.546660   -0.525726    0.026853
      3          8           0        1.923745   -0.397905    1.310479
      4          6           0        0.675868    0.583838   -0.482730
      5          8           0        1.417447    1.804985   -0.307050
      6          6           0       -0.698831    0.648776    0.266456
      7          8           0       -1.482784    1.762620   -0.188730
      8          6           0       -1.571845   -0.562055    0.094827
      9          8           0       -2.600913   -0.696908    0.767815
     10          8           0       -1.174171   -1.461792   -0.820129
     11          1           0        2.483531   -1.139480    1.611854
     12          1           0        0.499162    0.418452   -1.554171
     13          1           0        0.901643    2.525962   -0.718564
     14          1           0       -0.509800    0.762329    1.345137
     15          1           0       -1.025564    2.575293    0.104004
     16          1           0       -1.773711   -2.231784   -0.866544
 ---------------------------------------------------------------------
 Rotational constants (GHZ):           1.7612560           1.0894142           0.8247958
 Leave Link  202 at Mon Feb 22 21:01:29 2021, MaxMem=   104857600 cpu:               0.4 elap:               0.0
 (Enter /sw/arch/RedHatEnterpriseServer7/EB_production/2019/software/Gaussian/g16.c01/l301.exe)
 Standard basis: TZVP (5D, 7F)
 Ernie: Thresh=  0.10000D-02 Tol=  0.10000D-05 Strict=F.
 There are   236 symmetry adapted cartesian basis functions of A   symmetry.
 There are   226 symmetry adapted basis functions of A   symmetry.
   226 basis functions,   398 primitive gaussians,   236 cartesian basis functions
    39 alpha electrons       39 beta electrons
       nuclear repulsion energy       572.7289690243 Hartrees.
 IExCor=  404 DFT=T Ex=B Corr=P86 ExCW=0 ScaHFX=  0.000000
 ScaDFX=  1.000000  1.000000  1.000000  1.000000 ScalE2=  1.000000  1.000000
 IRadAn=      5 IRanWt=     -1 IRanGd=            0 ICorTp=0 IEmpDi=131
 NAtoms=   16 NActive=   16 NUniq=   16 SFac= 1.00D+00 NAtFMM=   60 NAOKFM=F Big=F
 Integral buffers will be    131072 words long.
 Raffenetti 2 integral format.
 Two-electron integral symmetry is turned on.
 R6Disp:  Grimme-D3 Dispersion energy=       -0.0168187872 Hartrees.
 Nuclear repulsion after empirical dispersion term =      572.7121502372 Hartrees.
 ------------------------------------------------------------------------------
 Polarizable Continuum Model (PCM)
 =================================
 Model                : PCM.
 Atomic radii         : UFF (Universal Force Field).
 Polarization charges : Total charges.
 Charge compensation  : None.
 Solution method      : On-the-fly selection.
 Cavity type          : Scaled VdW (van der Waals Surface) (Alpha=1.100).
 Cavity algorithm     : GePol (No added spheres)
                        Default sphere list used, NSphG=   16.
                        Lebedev-Laikov grids with approx.  5.0 points / Ang**2.
                        Smoothing algorithm: York/Karplus (Gamma=1.0000).
                        Polarization charges: spherical gaussians, with
                                              point-specific exponents (IZeta= 3).
                        Self-potential: point-specific (ISelfS= 7).
                        Self-field    : sphere-specific E.n sum rule (ISelfD= 2).
 1st derivatives      : Analytical E(r).r(x)/FMM algorithm (CHGder, D1EAlg=3).
                        Cavity 1st derivative terms included.
 Solvent              : Water, Eps=  78.355300 Eps(inf)=   1.777849
 ------------------------------------------------------------------------------
 Spheres list:
 ISph  on   Nord     Re0    Alpha      Xe            Ye            Ze
    1   O      1    1.7500  1.100      1.880880     -1.483470     -0.681652
    2   C      2    1.9255  1.100      1.546660     -0.525726      0.026853
    3   O      3    1.7500  1.100      1.923745     -0.397905      1.310479
    4   C      4    1.9255  1.100      0.675868      0.583838     -0.482730
    5   O      5    1.7500  1.100      1.417447      1.804985     -0.307050
    6   C      6    1.9255  1.100     -0.698831      0.648776      0.266456
    7   O      7    1.7500  1.100     -1.482784      1.762620     -0.188730
    8   C      8    1.9255  1.100     -1.571845     -0.562055      0.094827
    9   O      9    1.7500  1.100     -2.600913     -0.696908      0.767815
   10   O     10    1.7500  1.100     -1.174171     -1.461792     -0.820129
   11   H     11    1.4430  1.100      2.483531     -1.139480      1.611854
   12   H     12    1.4430  1.100      0.499162      0.418452     -1.554171
   13   H     13    1.4430  1.100      0.901643      2.525962     -0.718564
   14   H     14    1.4430  1.100     -0.509800      0.762329      1.345137
   15   H     15    1.4430  1.100     -1.025564      2.575293      0.104004
   16   H     16    1.4430  1.100     -1.773711     -2.231784     -0.866544
 ------------------------------------------------------------------------------
 GePol: Number of generator spheres                  =      16
 GePol: Total number of spheres                      =      16
 GePol: Number of exposed spheres                    =      16 (100.00%)
 GePol: Number of points                             =    1414
 GePol: Average weight of points                     =       0.14
 GePol: Minimum weight of points                     =   0.23D-09
 GePol: Maximum weight of points                     =    0.20577
 GePol: Number of points with low weight             =      74
 GePol: Fraction of low-weight points (<1% of avg)   =       5.23%
 GePol: Cavity surface area                          =    191.376 Ang**2
 GePol: Cavity volume                                =    187.003 Ang**3
 Leave Link  301 at Mon Feb 22 21:01:29 2021, MaxMem=   104857600 cpu:               1.8 elap:               0.1
 (Enter /sw/arch/RedHatEnterpriseServer7/EB_production/2019/software/Gaussian/g16.c01/l302.exe)
 NPDir=0 NMtPBC=     1 NCelOv=     1 NCel=       1 NClECP=     1 NCelD=      1
         NCelK=      1 NCelE2=     1 NClLst=     1 CellRange=     0.0.
 One-electron integrals computed using PRISM.
 One-electron integral symmetry used in STVInt
 PrsmSu:  requested number of processors reduced to:  29 ShMem   1 Linda.
 NBasis=   226 RedAO= T EigKep=  1.42D-04  NBF=   226
 NBsUse=   226 1.00D-06 EigRej= -1.00D+00 NBFU=   226
 Precomputing XC quadrature grid using
 IXCGrd= 4 IRadAn=           5 IRanWt=          -1 IRanGd=           0 AccXCQ= 0.00D+00.
 Generated NRdTot=       0 NPtTot=           0 NUsed=           0 NTot=          32
 NSgBfM=   234   234   234   234   234 MxSgAt=    16 MxSgA2=    16.
 Leave Link  302 at Mon Feb 22 21:01:29 2021, MaxMem=   104857600 cpu:               8.2 elap:               0.3
 (Enter /sw/arch/RedHatEnterpriseServer7/EB_production/2019/software/Gaussian/g16.c01/l303.exe)
 DipDrv:  MaxL=1.
 Leave Link  303 at Mon Feb 22 21:01:29 2021, MaxMem=   104857600 cpu:               0.9 elap:               0.1
 (Enter /sw/arch/RedHatEnterpriseServer7/EB_production/2019/software/Gaussian/g16.c01/l401.exe)
 Initial guess from the checkpoint file:  "FEWJPZIEWOKRBE-JCYAYHJZSA-N.chk"
 B after Tr=    -0.000000   -0.000000   -0.000000
         Rot=    0.999963    0.003452    0.007562   -0.002379 Ang=   0.99 deg.
 Guess basis will be translated and rotated to current coordinates.
 JPrj=2 DoOrth=T DoCkMO=T.
 Generating alternative initial guess.
 ExpMin= 9.52D-02 ExpMax= 2.70D+04 ExpMxC= 9.22D+02 IAcc=3 IRadAn=         5 AccDes= 0.00D+00
 Harris functional with IExCor=  404 and IRadAn=       5 diagonalized for initial guess.
 HarFok:  IExCor=  404 AccDes= 0.00D+00 IRadAn=         5 IDoV= 1 UseB2=F ITyADJ=14
 ICtDFT=  3500011 ScaDFX=  1.000000  1.000000  1.000000  1.000000
 FoFCou: FMM=F IPFlag=           0 FMFlag=      100000 FMFlg1=           0
         NFxFlg=           0 DoJE=T BraDBF=F KetDBF=T FulRan=T
         wScrn=  0.000000 ICntrl=       500 IOpCl=  0 I1Cent=   200000004 NGrid=           0
         NMat0=    1 NMatS0=      1 NMatT0=    0 NMatD0=    1 NMtDS0=    0 NMtDT0=    0
 Petite list used in FoFCou.
 Harris En= -607.759583795152    
 Leave Link  401 at Mon Feb 22 21:01:30 2021, MaxMem=   104857600 cpu:              12.3 elap:               0.4
 (Enter /sw/arch/RedHatEnterpriseServer7/EB_production/2019/software/Gaussian/g16.c01/l502.exe)
 Integral symmetry usage will be decided dynamically.
 Closed shell SCF:
 Using DIIS extrapolation, IDIIS=  1040.
 NGot=   104857600 LenX=   104735870 LenY=   104679733
 Requested convergence on RMS density matrix=1.00D-08 within 128 cycles.
 Requested convergence on MAX density matrix=1.00D-06.
 Requested convergence on             energy=1.00D-06.
 No special actions if energy rises.
 Fock matrices will be formed incrementally for  20 cycles.

 Cycle   1  Pass 1  IDiag  1:
 FoFJK:  IHMeth= 1 ICntrl=     500 DoSepK=F KAlg= 0 I1Cent=           0 FoldK=F
 IRaf= 920000000 NMat=       1 IRICut=       1 DoRegI=T DoRafI=F ISym2E= 0 IDoP0=0 IntGTp=1.
 FoFCou: FMM=F IPFlag=           0 FMFlag=      100000 FMFlg1=           0
         NFxFlg=           0 DoJE=T BraDBF=F KetDBF=F FulRan=T
         wScrn=  0.000000 ICntrl=       500 IOpCl=  0 I1Cent=           0 NGrid=           0
         NMat0=    1 NMatS0=      1 NMatT0=    0 NMatD0=    1 NMtDS0=    0 NMtDT0=    0
 Symmetry not used in FoFCou.
 Inv3:  Mode=1 IEnd=     5998188.
 Iteration    1 A*A^-1 deviation from unit magnitude is 3.11D-15 for    183.
 Iteration    1 A*A^-1 deviation from orthogonality  is 2.23D-15 for    724    100.
 Iteration    1 A^-1*A deviation from unit magnitude is 3.33D-15 for    183.
 Iteration    1 A^-1*A deviation from orthogonality  is 1.61D-15 for   1334    446.
 E= -607.651218390439    
 DIIS: error= 3.31D-03 at cycle   1 NSaved=   1.
 NSaved= 1 IEnMin= 1 EnMin= -607.651218390439     IErMin= 1 ErrMin= 3.31D-03
 ErrMax= 3.31D-03  0.00D+00 EMaxC= 1.00D-01 BMatC= 7.68D-03 BMatP= 7.68D-03
 IDIUse=3 WtCom= 9.67D-01 WtEn= 3.31D-02
 Coeff-Com:  0.100D+01
 Coeff-En:   0.100D+01
 Coeff:      0.100D+01
 Gap=     0.630 Goal=   None    Shift=    0.000
 GapD=    0.630 DampG=2.000 DampE=1.000 DampFc=2.0000 IDamp=-1.
 RMSDP=1.06D-03 MaxDP=2.71D-02              OVMax= 2.40D-02

 Cycle   2  Pass 1  IDiag  1:
 RMSU=  1.06D-03    CP:  9.95D-01
 E= -607.659859228838     Delta-E=       -0.008640838399 Rises=F Damp=F
 DIIS: error= 2.28D-03 at cycle   2 NSaved=   2.
 NSaved= 2 IEnMin= 2 EnMin= -607.659859228838     IErMin= 2 ErrMin= 2.28D-03
 ErrMax= 2.28D-03  0.00D+00 EMaxC= 1.00D-01 BMatC= 2.22D-03 BMatP= 7.68D-03
 IDIUse=3 WtCom= 9.77D-01 WtEn= 2.28D-02
 Coeff-Com:  0.263D+00 0.737D+00
 Coeff-En:   0.000D+00 0.100D+01
 Coeff:      0.257D+00 0.743D+00
 Gap=     0.152 Goal=   None    Shift=    0.000
 RMSDP=5.55D-04 MaxDP=3.03D-02 DE=-8.64D-03 OVMax= 4.04D-02

 Cycle   3  Pass 1  IDiag  1:
 RMSU=  5.35D-04    CP:  1.00D+00  9.04D-01
 E= -607.655154804348     Delta-E=        0.004704424490 Rises=F Damp=F
 DIIS: error= 5.46D-03 at cycle   3 NSaved=   3.
 NSaved= 3 IEnMin= 2 EnMin= -607.659859228838     IErMin= 2 ErrMin= 2.28D-03
 ErrMax= 5.46D-03  0.00D+00 EMaxC= 1.00D-01 BMatC= 8.48D-03 BMatP= 2.22D-03
 IDIUse=3 WtCom= 1.19D-01 WtEn= 8.81D-01
 Coeff-Com:  0.221D-01 0.652D+00 0.326D+00
 Coeff-En:   0.000D+00 0.722D+00 0.278D+00
 Coeff:      0.264D-02 0.714D+00 0.283D+00
 Gap=     0.154 Goal=   None    Shift=    0.000
 RMSDP=2.89D-04 MaxDP=1.41D-02 DE= 4.70D-03 OVMax= 2.30D-02

 Cycle   4  Pass 1  IDiag  1:
 RMSU=  6.27D-05    CP:  9.98D-01  9.43D-01  4.88D-01
 E= -607.661199599172     Delta-E=       -0.006044794824 Rises=F Damp=F
 DIIS: error= 8.22D-04 at cycle   4 NSaved=   4.
 NSaved= 4 IEnMin= 4 EnMin= -607.661199599172     IErMin= 4 ErrMin= 8.22D-04
 ErrMax= 8.22D-04  0.00D+00 EMaxC= 1.00D-01 BMatC= 3.61D-04 BMatP= 2.22D-03
 IDIUse=3 WtCom= 9.92D-01 WtEn= 8.22D-03
 Coeff-Com:  0.325D-03 0.384D+00 0.965D-01 0.519D+00
 Coeff-En:   0.000D+00 0.203D+00 0.000D+00 0.797D+00
 Coeff:      0.322D-03 0.383D+00 0.957D-01 0.521D+00
[...]
     12          1           0        0.342001    0.685202   -1.509282
     13          1           0        0.868659    2.554574   -0.116203
     14          1           0       -0.328881    0.634253    1.483838
     15          1           0       -1.772144    2.225701    0.877015
     16          1           0       -1.961246   -2.238110    0.677400
 ---------------------------------------------------------------------
 Rotational constants (GHZ):           1.6906384           1.1917834           0.8388414
 Standard basis: TZVP (5D, 7F)
 There are   236 symmetry adapted cartesian basis functions of A   symmetry.
 There are   226 symmetry adapted basis functions of A   symmetry.
   226 basis functions,   398 primitive gaussians,   236 cartesian basis functions
    39 alpha electrons       39 beta electrons
       nuclear repulsion energy       575.7928416983 Hartrees.
 NAtoms=   16 NActive=   16 NUniq=   16 SFac= 1.00D+00 NAtFMM=   60 NAOKFM=F Big=F
 Integral buffers will be    131072 words long.
 Raffenetti 2 integral format.
 Two-electron integral symmetry is turned on.
 Warning! Using old PCM defaults because the COSMOthermo output has been requested.
 These settings can be overridden by following keywords.
 ------------------------------------------------------------------------------
 Polarizable Continuum Model (PCM)
 =================================
 Model                : C-PCM.
 Atomic radii         : Klamt.
 XCosmo               : -1.000 (infinite dielectric limit)
 Polarization charges : Electronic and nuclear charges.
 Charge compensation  : Type 3 (Electronic density weighted correction).
 Solution method      : On-the-fly selection.
 Cavity type          : VdW (van der Waals Surface) (Alpha=1.000).
 Cavity algorithm     : GePol (No added spheres)
                        Default sphere list used, NSphG=   16.
                        Tesserae with average area of 0.200 Ang**2.
                        Smoothing algorithm: None.
                        Polarization charges: point-like.
                        Self-potential: constant (ISelfS= 1).
                        Self-field    : global E.n sum rule (ISelfD= 3).
 Solvent              : Water, Eps=  78.355300 Eps(inf)=   1.777849
 ------------------------------------------------------------------------------
 Spheres list:
 ISph  on   Nord     Re0    Alpha      Xe            Ye            Ze
    1   O      1    1.7200  1.000      1.135010     -1.655246     -0.866851
    2   C      2    2.0000  1.000      1.418540     -0.641283     -0.250315
    3   O      3    1.7200  1.000      2.378230     -0.567691      0.695192
    4   C      4    2.0000  1.000      0.666502      0.670991     -0.452118
    5   O      5    1.7200  1.000      1.479181      1.788548     -0.134163
    6   C      6    2.0000  1.000     -0.623100      0.694997      0.423700
    7   O      7    1.7200  1.000     -1.232922      1.948719      0.114532
    8   C      8    2.0000  1.000     -1.543335     -0.480637      0.068976
    9   O      9    1.7200  1.000     -2.275514     -0.518858     -0.901640
   10   O     10    1.7200  1.000     -1.414569     -1.478885      0.976985
   11   H     11    1.3000  1.000      2.784647     -1.458721      0.773332
   12   H     12    1.3000  1.000      0.342001      0.685202     -1.509282
   13   H     13    1.3000  1.000      0.868659      2.554574     -0.116203
   14   H     14    1.3000  1.000     -0.328881      0.634253      1.483838
   15   H     15    1.3000  1.000     -1.772144      2.225701      0.877015
   16   H     16    1.3000  1.000     -1.961246     -2.238110      0.677400
 ------------------------------------------------------------------------------
 One-electron integrals computed using PRISM.
 PrsmSu:  requested number of processors reduced to:  29 ShMem   1 Linda.
 NBasis=   226 RedAO= T EigKep=  2.20D-04  NBF=   226
 NBsUse=   226 1.00D-06 EigRej= -1.00D+00 NBFU=   226
 Initial guess from the checkpoint file:  "FEWJPZIEWOKRBE-JCYAYHJZSA-N.chk"
 B after Tr=    -0.000000   -0.000000    0.000000
         Rot=    1.000000    0.000000   -0.000000    0.000000 Ang=   0.00 deg.
 Requested convergence on RMS density matrix=1.00D-08 within 128 cycles.
 Requested convergence on MAX density matrix=1.00D-06.
 Requested convergence on             energy=1.00D-06.
 No special actions if energy rises.
 Inv3:  Mode=1 IEnd=     3776652.
 Iteration    1 A*A^-1 deviation from unit magnitude is 7.99D-15 for    975.
 Iteration    1 A*A^-1 deviation from orthogonality  is 2.66D-15 for    996      2.
 Iteration    1 A^-1*A deviation from unit magnitude is 8.88D-15 for    810.
 Iteration    1 A^-1*A deviation from orthogonality  is 1.78D-15 for    975    810.
 Error on nuclear    polarization charges =  0.01081
 Error on electronic polarization charges = -0.03320
 SCF Done:  E(RB-P86) =  -607.671996210     A.U. after   11 cycles
            NFock= 11  Conv=0.77D-08     -V/T= 2.0040
 --------------------------------------------------------------------
 Variational C-PCM results
 =========================
 <psi(f)|   H    |psi(f)>                     (a.u.) =    -607.632119
 <psi(f)|H+V(f)/2|psi(f)>                     (a.u.) =    -607.671996
 Total free energy in solution:
 - with all non electrostatic terms           (a.u.) =    -607.659928
 --------------------------------------------------------------------
 (Polarized solute)-Solvent               (kcal/mol) =     -25.02
 --------------------------------------------------------------------
 Cavitation energy                        (kcal/mol) =      21.51
 Dispersion energy                        (kcal/mol) =     -15.23
 Repulsion energy                         (kcal/mol) =       1.29
 Total non electrostatic                  (kcal/mol) =       7.57
 --------------------------------------------------------------------
 Partition over spheres:
 Sphere  on Atom  Surface  Charge   GEl     GCav    GDR
    1      O1      18.87   0.206   -2.87    2.34   -1.48
    2      C2       8.27  -0.042   -0.17    0.97   -0.41
    3      O3      15.17   0.072   -1.15    1.88   -1.26
    4      C4       4.54  -0.025   -0.02    0.53   -0.15
    5      O5      15.36   0.152   -2.27    1.91   -1.40
    6      C6       4.51  -0.045   -0.82    0.53   -0.08
    7      O7      13.68   0.104   -1.21    1.70   -1.03
    8      C8       7.65  -0.032   -0.33    0.90   -0.34
    9      O9      20.27   0.228   -3.80    2.52   -1.66
   10      O10     14.73   0.061   -0.34    1.83   -1.15
   11      H11      8.48  -0.162   -3.25    1.20   -0.94
   12      H12      6.60  -0.054   -0.05    0.93   -0.70
   13      H13      6.55  -0.096   -1.18    0.92   -0.68
   14      H14      6.50  -0.059   -0.83    0.92   -0.69
   15      H15      8.60  -0.147   -3.62    1.21   -1.04
   16      H16      8.54  -0.162   -3.13    1.21   -0.93
 --------------------------------------------------------------------
 - cavitation energy not included in the total energy.
 - dispersion energy not included in the total energy.
 - repulsion  energy not included in the total energy.
 After PCM corrections, the energy is  -607.671996210     a.u.
 --------------------------------------------------------------------
 Writing COSMO formatted file "FEWJPZIEWOKRBE-JCYAYHJZSA-N.cosmo"
 Recomputed dielectric energy= -0.039982 old= -0.039877 diff=-1.05D-04

 **********************************************************************

            Population analysis using the SCF Density.

 **********************************************************************

 Orbital symmetries:
       Occupied  (A) (A) (A) (A) (A) (A) (A) (A) (A) (A) (A) (A)
                 (A) (A) (A) (A) (A) (A) (A) (A) (A) (A) (A) (A)
                 (A) (A) (A) (A) (A) (A) (A) (A) (A) (A) (A) (A)
                 (A) (A) (A)
       Virtual   (A) (A) (A) (A) (A) (A) (A) (A) (A) (A) (A) (A)
                 (A) (A) (A) (A) (A) (A) (A) (A) (A) (A) (A) (A)
                 (A) (A) (A) (A) (A) (A) (A) (A) (A) (A) (A) (A)
                 (A) (A) (A) (A) (A) (A) (A) (A) (A) (A) (A) (A)
                 (A) (A) (A) (A) (A) (A) (A) (A) (A) (A) (A) (A)
                 (A) (A) (A) (A) (A) (A) (A) (A) (A) (A) (A) (A)
                 (A) (A) (A) (A) (A) (A) (A) (A) (A) (A) (A) (A)
                 (A) (A) (A) (A) (A) (A) (A) (A) (A) (A) (A) (A)
                 (A) (A) (A) (A) (A) (A) (A) (A) (A) (A) (A) (A)
                 (A) (A) (A) (A) (A) (A) (A) (A) (A) (A) (A) (A)
                 (A) (A) (A) (A) (A) (A) (A) (A) (A) (A) (A) (A)
                 (A) (A) (A) (A) (A) (A) (A) (A) (A) (A) (A) (A)
                 (A) (A) (A) (A) (A) (A) (A) (A) (A) (A) (A) (A)
                 (A) (A) (A) (A) (A) (A) (A) (A) (A) (A) (A) (A)
                 (A) (A) (A) (A) (A) (A) (A) (A) (A) (A) (A) (A)
                 (A) (A) (A) (A) (A) (A) (A)
 The electronic state is 1-A.
 Alpha  occ. eigenvalues --  -18.83326 -18.83177 -18.79975 -18.79111 -18.78170
 Alpha  occ. eigenvalues --  -18.78129 -10.04587 -10.04263  -9.98632  -9.98500
 Alpha  occ. eigenvalues --   -1.03817  -1.03337  -0.97783  -0.95561  -0.95370
 Alpha  occ. eigenvalues --   -0.94814  -0.72765  -0.65093  -0.58925  -0.55220
 Alpha  occ. eigenvalues --   -0.49776  -0.49110  -0.48138  -0.45364  -0.44618
 Alpha  occ. eigenvalues --   -0.44255  -0.42625  -0.40622  -0.38742  -0.37488
 Alpha  occ. eigenvalues --   -0.36594  -0.33650  -0.32811  -0.30639  -0.29984
 Alpha  occ. eigenvalues --   -0.27994  -0.26209  -0.25957  -0.24773
 Alpha virt. eigenvalues --   -0.06667  -0.06503   0.01189   0.02690   0.03569
 Alpha virt. eigenvalues --    0.04986   0.07552   0.09132   0.10953   0.12187
 Alpha virt. eigenvalues --    0.12856   0.13548   0.14869   0.17157   0.19570
 Alpha virt. eigenvalues --    0.21263   0.21764   0.22524   0.24915   0.25536
 Alpha virt. eigenvalues --    0.27389   0.27973   0.28989   0.29771   0.31618
 Alpha virt. eigenvalues --    0.32289   0.32585   0.33776   0.34422   0.35170
 Alpha virt. eigenvalues --    0.36214   0.38995   0.39295   0.40746   0.42057
 Alpha virt. eigenvalues --    0.42274   0.43259   0.44654   0.45386   0.46223
 Alpha virt. eigenvalues --    0.46935   0.48906   0.50018   0.52599   0.52891
 Alpha virt. eigenvalues --    0.54656   0.55229   0.56251   0.57666   0.59910
 Alpha virt. eigenvalues --    0.61928   0.64393   0.65959   0.67358   0.68211
 Alpha virt. eigenvalues --    0.72029   0.76288   0.78626   0.79296   0.84293
 Alpha virt. eigenvalues --    0.87067   0.90530   0.92303   1.14528   1.15738
 Alpha virt. eigenvalues --    1.20356   1.21020   1.23489   1.24799   1.25059
 Alpha virt. eigenvalues --    1.27623   1.30266   1.30577   1.32094   1.33142
 Alpha virt. eigenvalues --    1.35385   1.37587   1.39598   1.41526   1.42302
 Alpha virt. eigenvalues --    1.47835   1.49517   1.51648   1.53563   1.54907
 Alpha virt. eigenvalues --    1.55857   1.57036   1.57367   1.61685   1.62929
 Alpha virt. eigenvalues --    1.66505   1.69493   1.75931   1.79589   1.83215
 Alpha virt. eigenvalues --    1.85018   1.89923   1.90280   1.90985   1.91777
 Alpha virt. eigenvalues --    1.98122   1.99760   2.01154   2.02950   2.04211
 Alpha virt. eigenvalues --    2.05782   2.12068   2.17265   2.17771   2.17965
 Alpha virt. eigenvalues --    2.19952   2.25636   2.28892   2.35054   2.39757
 Alpha virt. eigenvalues --    2.42975   2.46731   2.47706   2.49971   2.50799
 Alpha virt. eigenvalues --    2.51386   2.52753   2.53934   2.54574   2.56015
 Alpha virt. eigenvalues --    2.57832   2.58623   2.59546   2.60275   2.61421
 Alpha virt. eigenvalues --    2.62517   2.62772   2.63527   2.66142   2.68206
 Alpha virt. eigenvalues --    2.71611   2.76306   2.77785   2.78009   2.79235
 Alpha virt. eigenvalues --    2.82093   2.82789   2.84324   2.84579   2.85904
 Alpha virt. eigenvalues --    2.86540   2.88427   2.90982   2.92664   2.93692
 Alpha virt. eigenvalues --    3.01309   3.04002   3.05066   3.06964   3.08133
 Alpha virt. eigenvalues --    3.10465   3.11769   3.12312   3.12856   3.14313
 Alpha virt. eigenvalues --    3.19053   3.19369   3.25591   3.32197   3.34525
 Alpha virt. eigenvalues --    3.39429   3.40820   3.77060   3.80506   3.89602
 Alpha virt. eigenvalues --    3.92941   4.09016   4.10188   4.15662   4.17099
 Alpha virt. eigenvalues --    4.17827   4.19010  21.62831  21.71202  21.77010
 Alpha virt. eigenvalues --   21.78939  43.07231  43.08003  43.12157  43.14160
 Alpha virt. eigenvalues --   43.20225  43.23686
          Condensed to atoms (all electrons):
               1          2          3          4          5          6
     1  O    7.940381   0.560049  -0.099953  -0.069740   0.003642  -0.040751
     2  C    0.560049   5.173938   0.330865  -0.088625  -0.060536  -0.044424
     3  O   -0.099953   0.330865   7.826264  -0.091871   0.008291  -0.018566
     4  C   -0.069740  -0.088625  -0.091871   5.741364   0.251092   0.180772
     5  O    0.003642  -0.060536   0.008291   0.251092   7.960705  -0.049895
     6  C   -0.040751  -0.044424  -0.018566   0.180772  -0.049895   5.637263
     7  O   -0.000147   0.015766  -0.000021  -0.130929  -0.006165   0.309702
     8  C    0.038893  -0.002256  -0.003966  -0.087684   0.017682   0.010046
     9  O   -0.001290  -0.007560  -0.000011  -0.007774  -0.000204  -0.081162
    10  O   -0.005647   0.017753   0.000787  -0.027246  -0.000113  -0.089540
    11  H    0.001388  -0.013974   0.286720   0.008296  -0.000869   0.001897
    12  H    0.004498  -0.087729   0.002392   0.430504  -0.051025  -0.053309
    13  H   -0.000435   0.010197  -0.000284  -0.039149   0.300474  -0.008724
    14  H    0.001323  -0.008972   0.006393  -0.009020   0.005180   0.358275
    15  H    0.000004  -0.000381  -0.000002   0.009731  -0.000239  -0.036172
    16  H    0.000596   0.000219   0.000046  -0.000610   0.000041   0.011085
               7          8          9         10         11         12
     1  O   -0.000147   0.038893  -0.001290  -0.005647   0.001388   0.004498
     2  C    0.015766  -0.002256  -0.007560   0.017753  -0.013974  -0.087729
     3  O   -0.000021  -0.003966  -0.000011   0.000787   0.286720   0.002392
     4  C   -0.130929  -0.087684  -0.007774  -0.027246   0.008296   0.430504
     5  O   -0.006165   0.017682  -0.000204  -0.000113  -0.000869  -0.051025
     6  C    0.309702   0.010046  -0.081162  -0.089540   0.001897  -0.053309
     7  O    7.970459  -0.055558  -0.001537   0.002667   0.000024   0.003835
     8  C   -0.055558   5.136394   0.583783   0.283096  -0.000190  -0.008985
     9  O   -0.001537   0.583783   7.926489  -0.100212  -0.000004   0.009357
    10  O    0.002667   0.283096  -0.100212   7.872861   0.000120   0.003524
    11  H    0.000024  -0.000190  -0.000004   0.000120   0.378339  -0.000428
    12  H    0.003835  -0.008985   0.009357   0.003524  -0.000428   0.536371
    13  H    0.030842   0.001650  -0.000085  -0.000108   0.000102  -0.003876
    14  H   -0.049038  -0.063709   0.004287   0.012659  -0.000423   0.013122
    15  H    0.312633   0.009434   0.001037   0.000042  -0.000003  -0.001254
    16  H   -0.000415  -0.012394   0.002344   0.283443   0.000005   0.000053
              13         14         15         16
     1  O   -0.000435   0.001323   0.000004   0.000596
     2  C    0.010197  -0.008972  -0.000381   0.000219
     3  O   -0.000284   0.006393  -0.000002   0.000046
     4  C   -0.039149  -0.009020   0.009731  -0.000610
     5  O    0.300474   0.005180  -0.000239   0.000041
     6  C   -0.008724   0.358275  -0.036172   0.011085
     7  O    0.030842  -0.049038   0.312633  -0.000415
     8  C    0.001650  -0.063709   0.009434  -0.012394
     9  O   -0.000085   0.004287   0.001037   0.002344
    10  O   -0.000108   0.012659   0.000042   0.283443
    11  H    0.000102  -0.000423  -0.000003   0.000005
    12  H   -0.003876   0.013122  -0.001254   0.000053
    13  H    0.404324  -0.003364  -0.000803   0.000010
    14  H   -0.003364   0.534399  -0.011655   0.000228
    15  H   -0.000803  -0.011655   0.380422  -0.000079
    16  H    0.000010   0.000228  -0.000079   0.376432
 Mulliken charges:
               1
     1  O   -0.332809
     2  C    0.205671
     3  O   -0.247084
     4  C   -0.069110
     5  O   -0.378060
     6  C   -0.086497
     7  O   -0.402118
     8  C    0.153766
     9  O   -0.327457
    10  O   -0.254087
    11  H    0.339002
    12  H    0.202951
    13  H    0.309231
    14  H    0.210316
    15  H    0.337287
    16  H    0.338996
 Sum of Mulliken charges =  -0.00000
 Mulliken charges with hydrogens summed into heavy atoms:
               1
     1  O   -0.332809
     2  C    0.205671
     3  O    0.091919
     4  C    0.133841
     5  O   -0.068828
     6  C    0.123819
     7  O   -0.064831
     8  C    0.153766
     9  O   -0.327457
    10  O    0.084909
 Electronic spatial extent (au):  <R**2>=           1380.7319
 Charge=             -0.0000 electrons
 Dipole moment (field-independent basis, Debye):
    X=             -0.5469    Y=              0.2161    Z=              4.7462  Tot=              4.7825
 Quadrupole moment (field-independent basis, Debye-Ang):
   XX=            -57.4542   YY=            -49.6234   ZZ=            -58.9197
   XY=             -4.8177   XZ=             -6.8795   YZ=             -2.0349
 Traceless Quadrupole moment (field-independent basis, Debye-Ang):
   XX=             -2.1218   YY=              5.7090   ZZ=             -3.5873
   XY=             -4.8177   XZ=             -6.8795   YZ=             -2.0349
 Octapole moment (field-independent basis, Debye-Ang**2):
  XXX=             14.0352  YYY=              4.2810  ZZZ=              6.4619  XYY=            -16.7670
  XXY=            -26.1312  XXZ=             26.2089  XZZ=              2.3378  YZZ=              8.3126
  YYZ=             21.4753  XYZ=            -11.6057
 Hexadecapole moment (field-independent basis, Debye-Ang**3):
 XXXX=           -824.2281 YYYY=           -481.7307 ZZZZ=           -191.9943 XXXY=            -71.7961
 XXXZ=            -29.7795 YYYX=             20.4205 YYYZ=             -9.5171 ZZZX=             -3.5904
 ZZZY=             -0.4887 XXYY=           -179.7361 XXZZ=           -180.4059 YYZZ=           -125.4816
 XXYZ=            -16.6468 YYXZ=             -9.4251 ZZXY=            -12.5315
 N-N= 5.757928416983D+02 E-N=-2.581359924704D+03  KE= 6.052512289660D+02
 Unable to Open any file for archive entry.
 1\1\GINC-TCN1721\SP\RBP86\TZVP\C4H6O6\ELENAA\22-Feb-2021\0\\# BP86/TZV
 P SCRF=COSMORS geom=CHECKPOINT guess=CHECKPOINT\\COSMO-file for #FEWJP
 ZIEWOKRBE-JCYAYHJZSA-N\\0,1\O,0,-2.188849515,-1.9487637779,-2.94152699
 87\C,0,-1.0862508029,-1.6058207995,-3.3355998439\O,0,-0.5762292452,-1.
 9230483697,-4.5437585466\C,0,-0.1234967728,-0.8044865596,-2.4642114996
 \O,0,0.7703768126,-0.0351258359,-3.2513271431\C,0,0.6858852724,-1.7589
 834321,-1.5344030616\O,0,1.5111237352,-0.8825947227,-0.7661514848\C,0,
 -0.2566054515,-2.573442671,-0.6382204759\O,0,-0.7955708986,-2.14943916
 83,0.3664572939\O,0,-0.420191494,-3.8258146306,-1.130527793\H,0,-1.250
 7827031,-2.4571900033,-5.0179803323\H,0,-0.7495824721,-0.1681760224,-1
 .8113523367\H,0,1.4502810272,0.2904060177,-2.6255359088\H,0,1.28475522
 98,-2.4373522829,-2.163147608\H,0,2.3055497473,-1.3725430864,-0.487406
 1449\H,0,-1.0830524693,-4.2899346553,-0.5735381159\\Version=ES64L-G16R
 evC.01\State=1-A\HF=-607.6719962\RMSD=7.662e-09\Dipole=1.320751,-1.278
 277,-0.4024381\Quadrupole=1.6906347,2.5554666,-4.2461013,1.5469288,6.2
 419633,-0.1552302\PG=C01 [X(C4H6O6)]\\@
 The archive entry for this job was punched.


 IT IS A QUALITY OF REVOLUTIONS NOT TO GO BY OLD LINES OR OLD LAWS,
 BUT TO BREAK UP BOTH, AND MAKE NEW ONES.
                                              -- A. LINCOLN (1848)
 Job cpu time:       0 days  0 hours  4 minutes 54.6 seconds.
 Elapsed time:       0 days  0 hours  0 minutes  9.7 seconds.
 File lengths (MBytes):  RWF=     44 Int=      0 D2E=      0 Chk=      8 Scr=      1
 Normal termination of Gaussian 16 at Mon Feb 22 21:12:40 2021.
