 Entering Gaussian System, Link 0=g16
 Input=FFEARJCKVFRZRR-BYPYZUCNSA-N.gjf
 Output=FFEARJCKVFRZRR-BYPYZUCNSA-N.log
 Initial command:
 /sw/arch/RedHatEnterpriseServer7/EB_production/2019/software/Gaussian/g16.c01/l1.exe "/scratch-local/elenaa.9715205/Gau-25382.inp" -scrdir="/scratch-local/elenaa.9715205/"
 Entering Link 1 = /sw/arch/RedHatEnterpriseServer7/EB_production/2019/software/Gaussian/g16.c01/l1.exe PID=     25384.
  
 Copyright (c) 1988-2019, Gaussian, Inc.  All Rights Reserved.
  
 This is part of the Gaussian(R) 16 program.  It is based on
 the Gaussian(R) 09 system (copyright 2009, Gaussian, Inc.),
 the Gaussian(R) 03 system (copyright 2003, Gaussian, Inc.),
 the Gaussian(R) 98 system (copyright 1998, Gaussian, Inc.),
 the Gaussian(R) 94 system (copyright 1995, Gaussian, Inc.),
 the Gaussian 92(TM) system (copyright 1992, Gaussian, Inc.),
 the Gaussian 90(TM) system (copyright 1990, Gaussian, Inc.),
 the Gaussian 88(TM) system (copyright 1988, Gaussian, Inc.),
 the Gaussian 86(TM) system (copyright 1986, Carnegie Mellon
 University), and the Gaussian 82(TM) system (copyright 1983,
 Carnegie Mellon University). Gaussian is a federally registered
 trademark of Gaussian, Inc.
  
 This software contains proprietary and confidential information,
 including trade secrets, belonging to Gaussian, Inc.
  
 This software is provided under written license and may be
 used, copied, transmitted, or stored only in accord with that
 written license.
  
 The following legend is applicable only to US Government
 contracts under FAR:
  
                    RESTRICTED RIGHTS LEGEND
  
 Use, reproduction and disclosure by the US Government is
 subject to restrictions as set forth in subparagraphs (a)
 and (c) of the Commercial Computer Software - Restricted
 Rights clause in FAR 52.227-19.
  
 Gaussian, Inc.
 340 Quinnipiac St., Bldg. 40, Wallingford CT 06492
  
  
 ---------------------------------------------------------------
 Warning -- This program may not be used in any manner that
 competes with the business of Gaussian, Inc. or will provide
 assistance to any competitor of Gaussian, Inc.  The licensee
 of this program is prohibited from giving any competitor of
 Gaussian, Inc. access to this program.  By using this program,
 the user acknowledges that Gaussian, Inc. is engaged in the
 business of creating and licensing software in the field of
 computational chemistry and represents and warrants to the
 licensee that it is not a competitor of Gaussian, Inc. and that
 it will not use this program in any manner prohibited above.
 ---------------------------------------------------------------
  

 Cite this work as:
 Gaussian 16, Revision C.01,
 M. J. Frisch, G. W. Trucks, H. B. Schlegel, G. E. Scuseria, 
 M. A. Robb, J. R. Cheeseman, G. Scalmani, V. Barone, 
 G. A. Petersson, H. Nakatsuji, X. Li, M. Caricato, A. V. Marenich, 
 J. Bloino, B. G. Janesko, R. Gomperts, B. Mennucci, H. P. Hratchian, 
 J. V. Ortiz, A. F. Izmaylov, J. L. Sonnenberg, D. Williams-Young, 
 F. Ding, F. Lipparini, F. Egidi, J. Goings, B. Peng, A. Petrone, 
 T. Henderson, D. Ranasinghe, V. G. Zakrzewski, J. Gao, N. Rega, 
 G. Zheng, W. Liang, M. Hada, M. Ehara, K. Toyota, R. Fukuda, 
 J. Hasegawa, M. Ishida, T. Nakajima, Y. Honda, O. Kitao, H. Nakai, 
 T. Vreven, K. Throssell, J. A. Montgomery, Jr., J. E. Peralta, 
 F. Ogliaro, M. J. Bearpark, J. J. Heyd, E. N. Brothers, K. N. Kudin, 
 V. N. Staroverov, T. A. Keith, R. Kobayashi, J. Normand, 
 K. Raghavachari, A. P. Rendell, J. C. Burant, S. S. Iyengar, 
 J. Tomasi, M. Cossi, J. M. Millam, M. Klene, C. Adamo, R. Cammi, 
 J. W. Ochterski, R. L. Martin, K. Morokuma, O. Farkas, 
 J. B. Foresman, and D. J. Fox, Gaussian, Inc., Wallingford CT, 2019.
 
 ******************************************
 Gaussian 16:  ES64L-G16RevC.01  3-Jul-2019
                22-Feb-2021 
 ******************************************
 %chk=FFEARJCKVFRZRR-BYPYZUCNSA-N.chk
 %NProcShared=32
 Will use up to   32 processors via shared memory.
 -------------------------------------------------------------
 #P BP86/TZVP EmpiricalDispersion=GD3 SCRF=(Solvent=Water) Opt
 -------------------------------------------------------------
 1/18=20,19=15,26=3,38=1/1,3;
 2/9=110,12=2,17=6,18=5,40=1/2;
 3/5=19,7=101,11=2,25=1,30=1,70=2201,71=1,72=1,74=404,124=31/1,2,3;
 4//1;
 5/5=2,38=5,53=1/2;
 6/7=2,8=2,9=2,10=2,28=1/1;
 7//1,2,3,16;
 1/18=20,19=15,26=3/3(2);
 2/9=110/2;
 99//99;
 2/9=110/2;
 3/5=19,7=101,11=2,25=1,30=1,70=2205,71=1,72=1,74=404,124=31/1,2,3;
 4/5=5,16=3,69=1/1;
 5/5=2,38=5,53=1/2;
 7//1,2,3,16;
 1/18=20,19=15,26=3/3(-5);
 2/9=110/2;
 6/7=2,8=2,9=2,10=2,19=2,28=1/1;
 99/9=1/99;
 Leave Link    1 at Mon Feb 22 21:01:57 2021, MaxMem=           0 cpu:               1.1 elap:               0.1
 (Enter /sw/arch/RedHatEnterpriseServer7/EB_production/2019/software/Gaussian/g16.c01/l101.exe)
 -------------------------------------
 Particle #FFEARJCKVFRZRR-BYPYZUCNSA-N
 -------------------------------------
 Symbolic Z-matrix:
 Charge =  0 Multiplicity = 1
 C                     1.81056   0.00185  -0.02153 
 S                     0.12782  -0.00474  -0.70808 
 C                    -0.48706   1.6685   -0.33277 
 C                    -1.92215   1.86977  -0.88429 
 C                    -2.5174    3.28228  -0.62271 
 N                    -3.89016   3.36333  -1.14859 
 C                    -1.71057   4.35859  -1.23551 
 O                    -1.15954   5.22883  -0.52476 
 O                    -1.5238    4.40375  -2.57514 
 H                     2.27824  -0.9651   -0.20393 
 H                     1.76795   0.18443   1.05274 
 H                     2.40234   0.78318  -0.50018 
 H                    -0.47722   1.81095   0.74915 
 H                     0.19568   2.38892  -0.78719 
 H                    -1.91717   1.67497  -1.95966 
 H                    -2.57431   1.12872  -0.41488 
 H                    -2.57642   3.44039   0.45746 
 H                    -4.28129   4.28628  -0.94731 
 H                    -3.88936   3.21294  -2.15924 
 H                    -4.47203   2.65086  -0.70378 
 
 ITRead=  0  0  0  0  0  0  0  0  0  0  0  0  0  0  0  0  0  0  0  0
 MicOpt= -1 -1 -1 -1 -1 -1 -1 -1 -1 -1 -1 -1 -1 -1 -1 -1 -1 -1 -1 -1
 NAtoms=     20 NQM=       20 NQMF=       0 NMMI=      0 NMMIF=      0
                NMic=       0 NMicF=      0.
                    Isotopes and Nuclear Properties:
 (Nuclear quadrupole moments (NQMom) in fm**2, nuclear magnetic moments (NMagM)
  in nuclear magnetons)

  Atom         1           2           3           4           5           6           7           8           9          10
 IAtWgt=          12          32          12          12          12          14          12          16          16           1
 AtmWgt=  12.0000000  31.9720718  12.0000000  12.0000000  12.0000000  14.0030740  12.0000000  15.9949146  15.9949146   1.0078250
 NucSpn=           0           0           0           0           0           2           0           0           0           1
 AtZEff=  -0.0000000  -0.0000000  -0.0000000  -0.0000000  -0.0000000  -0.0000000  -0.0000000  -0.0000000  -0.0000000  -0.0000000
 NQMom=    0.0000000   0.0000000   0.0000000   0.0000000   0.0000000   2.0440000   0.0000000   0.0000000   0.0000000   0.0000000
 NMagM=    0.0000000   0.0000000   0.0000000   0.0000000   0.0000000   0.4037610   0.0000000   0.0000000   0.0000000   2.7928460
 AtZNuc=   6.0000000  16.0000000   6.0000000   6.0000000   6.0000000   7.0000000   6.0000000   8.0000000   8.0000000   1.0000000

  Atom        11          12          13          14          15          16          17          18          19          20
 IAtWgt=           1           1           1           1           1           1           1           1           1           1
 AtmWgt=   1.0078250   1.0078250   1.0078250   1.0078250   1.0078250   1.0078250   1.0078250   1.0078250   1.0078250   1.0078250
 NucSpn=           1           1           1           1           1           1           1           1           1           1
 AtZEff=  -0.0000000  -0.0000000  -0.0000000  -0.0000000  -0.0000000  -0.0000000  -0.0000000  -0.0000000  -0.0000000  -0.0000000
 NQMom=    0.0000000   0.0000000   0.0000000   0.0000000   0.0000000   0.0000000   0.0000000   0.0000000   0.0000000   0.0000000
 NMagM=    2.7928460   2.7928460   2.7928460   2.7928460   2.7928460   2.7928460   2.7928460   2.7928460   2.7928460   2.7928460
 AtZNuc=   1.0000000   1.0000000   1.0000000   1.0000000   1.0000000   1.0000000   1.0000000   1.0000000   1.0000000   1.0000000
 Leave Link  101 at Mon Feb 22 21:01:57 2021, MaxMem=   104857600 cpu:               2.6 elap:               0.1
 (Enter /sw/arch/RedHatEnterpriseServer7/EB_production/2019/software/Gaussian/g16.c01/l103.exe)

 GradGradGradGradGradGradGradGradGradGradGradGradGradGradGradGradGradGrad
 Berny optimization.
 Initialization pass.
                           ----------------------------
                           !    Initial Parameters    !
                           ! (Angstroms and Degrees)  !
 --------------------------                            --------------------------
 ! Name  Definition              Value          Derivative Info.                !
 --------------------------------------------------------------------------------
 ! R1    R(1,2)                  1.8174         estimate D2E/DX2                !
 ! R2    R(1,10)                 1.0895         estimate D2E/DX2                !
 ! R3    R(1,11)                 1.0905         estimate D2E/DX2                !
 ! R4    R(1,12)                 1.0908         estimate D2E/DX2                !
 ! R5    R(2,3)                  1.8217         estimate D2E/DX2                !
 ! R6    R(3,4)                  1.5505         estimate D2E/DX2                !
 ! R7    R(3,13)                 1.0913         estimate D2E/DX2                !
 ! R8    R(3,14)                 1.0916         estimate D2E/DX2                !
 ! R9    R(4,5)                  1.555          estimate D2E/DX2                !
 ! R10   R(4,15)                 1.0929         estimate D2E/DX2                !
 ! R11   R(4,16)                 1.0931         estimate D2E/DX2                !
 ! R12   R(5,6)                  1.4723         estimate D2E/DX2                !
 ! R13   R(5,7)                  1.4782         estimate D2E/DX2                !
 ! R14   R(5,17)                 1.0933         estimate D2E/DX2                !
 ! R15   R(6,18)                 1.0224         estimate D2E/DX2                !
 ! R16   R(6,19)                 1.0218         estimate D2E/DX2                !
 ! R17   R(6,20)                 1.0218         estimate D2E/DX2                !
 ! R18   R(7,8)                  1.2514         estimate D2E/DX2                !
 ! R19   R(7,9)                  1.3533         estimate D2E/DX2                !
 ! A1    A(2,1,10)             109.3291         estimate D2E/DX2                !
 ! A2    A(2,1,11)             109.6678         estimate D2E/DX2                !
 ! A3    A(2,1,12)             109.8256         estimate D2E/DX2                !
 ! A4    A(10,1,11)            109.2866         estimate D2E/DX2                !
 ! A5    A(10,1,12)            109.2315         estimate D2E/DX2                !
 ! A6    A(11,1,12)            109.4846         estimate D2E/DX2                !
 ! A7    A(1,2,3)              103.3771         estimate D2E/DX2                !
 ! A8    A(2,3,4)              110.9984         estimate D2E/DX2                !
 ! A9    A(2,3,13)             108.7293         estimate D2E/DX2                !
 ! A10   A(2,3,14)             108.0171         estimate D2E/DX2                !
 ! A11   A(4,3,13)             110.1232         estimate D2E/DX2                !
 ! A12   A(4,3,14)             110.1899         estimate D2E/DX2                !
 ! A13   A(13,3,14)            108.7184         estimate D2E/DX2                !
 ! A14   A(3,4,5)              114.3545         estimate D2E/DX2                !
 ! A15   A(3,4,15)             108.8227         estimate D2E/DX2                !
 ! A16   A(3,4,16)             108.1468         estimate D2E/DX2                !
 ! A17   A(5,4,15)             109.2193         estimate D2E/DX2                !
 ! A18   A(5,4,16)             108.3732         estimate D2E/DX2                !
 ! A19   A(15,4,16)            107.7243         estimate D2E/DX2                !
 ! A20   A(4,5,6)              110.2948         estimate D2E/DX2                !
 ! A21   A(4,5,7)              112.5039         estimate D2E/DX2                !
 ! A22   A(4,5,17)             108.5566         estimate D2E/DX2                !
 ! A23   A(6,5,7)              108.7099         estimate D2E/DX2                !
 ! A24   A(6,5,17)             107.1342         estimate D2E/DX2                !
 ! A25   A(7,5,17)             109.4974         estimate D2E/DX2                !
 ! A26   A(5,6,18)             109.6379         estimate D2E/DX2                !
 ! A27   A(5,6,19)             110.1492         estimate D2E/DX2                !
 ! A28   A(5,6,20)             109.6999         estimate D2E/DX2                !
 ! A29   A(18,6,19)            109.1407         estimate D2E/DX2                !
 ! A30   A(18,6,20)            109.0197         estimate D2E/DX2                !
 ! A31   A(19,6,20)            109.1718         estimate D2E/DX2                !
 ! A32   A(5,7,8)              120.7458         estimate D2E/DX2                !
 ! A33   A(5,7,9)              120.6637         estimate D2E/DX2                !
 ! A34   A(8,7,9)              118.5691         estimate D2E/DX2                !
 ! D1    D(10,1,2,3)          -179.4543         estimate D2E/DX2                !
 ! D2    D(11,1,2,3)            60.7388         estimate D2E/DX2                !
 ! D3    D(12,1,2,3)           -59.6187         estimate D2E/DX2                !
 ! D4    D(1,2,3,4)            178.4987         estimate D2E/DX2                !
 ! D5    D(1,2,3,13)           -60.2189         estimate D2E/DX2                !
 ! D6    D(1,2,3,14)            57.5956         estimate D2E/DX2                !
 ! D7    D(2,3,4,5)           -179.2366         estimate D2E/DX2                !
 ! D8    D(2,3,4,15)           -56.8211         estimate D2E/DX2                !
 ! D9    D(2,3,4,16)            59.935          estimate D2E/DX2                !
 ! D10   D(13,3,4,5)            60.3032         estimate D2E/DX2                !
 ! D11   D(13,3,4,15)         -177.2813         estimate D2E/DX2                !
 ! D12   D(13,3,4,16)          -60.5251         estimate D2E/DX2                !
 ! D13   D(14,3,4,5)           -59.6237         estimate D2E/DX2                !
 ! D14   D(14,3,4,15)           62.7918         estimate D2E/DX2                !
 ! D15   D(14,3,4,16)          179.548          estimate D2E/DX2                !
 ! D16   D(3,4,5,6)           -178.4572         estimate D2E/DX2                !
 ! D17   D(3,4,5,7)             59.9817         estimate D2E/DX2                !
 ! D18   D(3,4,5,17)           -61.3614         estimate D2E/DX2                !
 ! D19   D(15,4,5,6)            59.3435         estimate D2E/DX2                !
 ! D20   D(15,4,5,7)           -62.2176         estimate D2E/DX2                !
 ! D21   D(15,4,5,17)          176.4393         estimate D2E/DX2                !
 ! D22   D(16,4,5,6)           -57.7543         estimate D2E/DX2                !
 ! D23   D(16,4,5,7)          -179.3154         estimate D2E/DX2                !
 ! D24   D(16,4,5,17)           59.3415         estimate D2E/DX2                !
 ! D25   D(4,5,6,18)           178.3627         estimate D2E/DX2                !
 ! D26   D(4,5,6,19)           -61.5207         estimate D2E/DX2                !
 ! D27   D(4,5,6,20)            58.6737         estimate D2E/DX2                !
 ! D28   D(7,5,6,18)           -57.8513         estimate D2E/DX2                !
 ! D29   D(7,5,6,19)            62.2653         estimate D2E/DX2                !
 ! D30   D(7,5,6,20)          -177.5403         estimate D2E/DX2                !
 ! D31   D(17,5,6,18)           60.3885         estimate D2E/DX2                !
 ! D32   D(17,5,6,19)         -179.4949         estimate D2E/DX2                !
 ! D33   D(17,5,6,20)          -59.3005         estimate D2E/DX2                !
 ! D34   D(4,5,7,8)           -117.2047         estimate D2E/DX2                !
 ! D35   D(4,5,7,9)             61.085          estimate D2E/DX2                !
 ! D36   D(6,5,7,8)            120.3363         estimate D2E/DX2                !
 ! D37   D(6,5,7,9)            -61.374          estimate D2E/DX2                !
 ! D38   D(17,5,7,8)             3.6001         estimate D2E/DX2                !
 ! D39   D(17,5,7,9)          -178.1102         estimate D2E/DX2                !
 --------------------------------------------------------------------------------
 Trust Radius=3.00D-01 FncErr=1.00D-07 GrdErr=1.00D-06 EigMax=2.50D+02 EigMin=1.00D-04
 Number of steps in this run=    102 maximum allowed number of steps=    120.
 GradGradGradGradGradGradGradGradGradGradGradGradGradGradGradGradGradGrad

 Leave Link  103 at Mon Feb 22 21:01:57 2021, MaxMem=   104857600 cpu:               0.7 elap:               0.1
 (Enter /sw/arch/RedHatEnterpriseServer7/EB_production/2019/software/Gaussian/g16.c01/l202.exe)
                          Input orientation:                          
 ---------------------------------------------------------------------
 Center     Atomic      Atomic             Coordinates (Angstroms)
 Number     Number       Type             X           Y           Z
 ---------------------------------------------------------------------
      1          6           0        1.810560    0.001850   -0.021530
      2         16           0        0.127820   -0.004740   -0.708080
      3          6           0       -0.487060    1.668500   -0.332770
      4          6           0       -1.922150    1.869770   -0.884290
      5          6           0       -2.517400    3.282280   -0.622710
      6          7           0       -3.890160    3.363330   -1.148590
      7          6           0       -1.710570    4.358590   -1.235510
      8          8           0       -1.159540    5.228830   -0.524760
      9          8           0       -1.523800    4.403750   -2.575140
     10          1           0        2.278240   -0.965100   -0.203930
     11          1           0        1.767950    0.184430    1.052740
     12          1           0        2.402340    0.783180   -0.500180
     13          1           0       -0.477220    1.810950    0.749150
     14          1           0        0.195680    2.388920   -0.787190
     15          1           0       -1.917170    1.674970   -1.959660
     16          1           0       -2.574310    1.128720   -0.414880
     17          1           0       -2.576420    3.440390    0.457460
     18          1           0       -4.281290    4.286280   -0.947310
     19          1           0       -3.889360    3.212940   -2.159240
     20          1           0       -4.472030    2.650860   -0.703780
 ---------------------------------------------------------------------
                    Distance matrix (angstroms):
                    1          2          3          4          5
     1  C    0.000000
     2  S    1.817418   0.000000
     3  C    2.855460   1.821721   0.000000
     4  C    4.262230   2.783382   1.550538   0.000000
     5  C    5.463870   4.220068   2.609719   1.554970   0.000000
     6  N    6.713272   5.261379   3.888329   2.484681   1.472273
     7  C    5.731779   4.764085   3.090065   2.522369   1.478155
     8  O    6.032914   5.392695   3.628366   3.463253   2.375381
     9  O    6.084045   5.064439   3.685735   3.072249   2.461081
    10  H    1.089489   2.408478   3.820907   5.112989   6.419796
    11  H    1.090508   2.413773   3.034332   4.495475   5.546894
    12  H    1.090773   2.416088   3.026624   4.475425   5.519453
    13  H    3.016741   2.405478   1.091302   2.181607   2.865161
    14  H    2.981975   2.395928   1.091621   2.182693   2.861110
    15  H    4.522350   2.927433   2.166109   1.092883   2.175122
    16  H    4.544408   2.944861   2.157479   1.093075   2.164313
    17  H    5.594514   4.532143   2.851225   2.166843   1.093275
    18  H    7.504935   6.157137   4.650442   3.377726   2.055405
    19  H    6.882586   5.347622   4.158958   2.701762   2.061069
    20  H    6.852274   5.311389   4.121003   2.672933   2.055685
                    6          7          8          9         10
     6  N    0.000000
     7  C    2.397647   0.000000
     8  O    3.365344   1.251446   0.000000
     9  O    2.952487   1.353341   2.239978   0.000000
    10  H    7.594527   6.731748   7.091264   6.993046   0.000000
    11  H    6.853136   5.895744   6.041910   6.465276   1.777930
    12  H    6.831776   5.499118   5.696613   5.729621   1.777540
    13  H    4.202316   3.456949   3.710837   4.343828   4.025838
    14  H    4.215943   2.777477   3.157622   3.195765   3.990827
    15  H    2.720493   2.787273   3.906771   2.824853   5.258709
    16  H    2.695046   3.442607   4.338727   4.061541   5.289218
    17  H    2.076354   2.111619   2.484114   3.351527   6.588892
    18  H    1.022415   2.587835   3.288202   3.204275   8.435463
    19  H    1.021778   2.629243   3.766597   2.680835   7.701853
    20  H    1.021784   3.290097   4.201258   3.907259   7.674058
                   11         12         13         14         15
    11  H    0.000000
    12  H    1.781155   0.000000
    13  H    2.789000   3.302878   0.000000
    14  H    3.273706   2.744107   1.774031   0.000000
    15  H    4.987622   4.645809   3.070765   2.519632   0.000000
    16  H    4.679831   4.989361   2.493630   3.065871   1.765380
    17  H    5.461610   5.724150   2.673350   3.215475   3.064929
    18  H    7.577511   7.559269   4.845223   4.865067   3.665086
    19  H    7.175921   6.945625   4.697553   4.387378   2.508928
    20  H    6.935848   7.126475   4.333008   4.675798   3.009469
                   16         17         18         19         20
    16  H    0.000000
    17  H    2.470789   0.000000
    18  H    3.628698   2.365479   0.000000
    19  H    3.019292   2.936437   1.665666   0.000000
    20  H    2.449840   2.359062   1.664418   1.665474   0.000000
 Stoichiometry    C5H11NO2S
 Framework group  C1[X(C5H11NO2S)]
 Deg. of freedom    54
 Full point group                 C1      NOp   1
 Largest Abelian subgroup         C1      NOp   1
 Largest concise Abelian subgroup C1      NOp   1
                         Standard orientation:                         
 ---------------------------------------------------------------------
 Center     Atomic      Atomic             Coordinates (Angstroms)
 Number     Number       Type             X           Y           Z
 ---------------------------------------------------------------------
      1          6           0       -3.755740    0.791881   -0.197529
      2         16           0       -2.599876   -0.515704    0.309628
      3          6           0       -1.001686    0.053996   -0.353619
      4          6           0        0.136659   -0.931458    0.016811
      5          6           0        1.542505   -0.509341   -0.496359
      6          7           0        2.545767   -1.522042   -0.128268
      7          6           0        1.971102    0.799616    0.040185
      8          8           0        2.174117    1.769121   -0.724643
      9          8           0        2.119040    0.984408    1.372663
     10          1           0       -4.754885    0.549774    0.163138
     11          1           0       -3.773306    0.864518   -1.285473
     12          1           0       -3.442592    1.747103    0.225879
     13          1           0       -1.083810    0.142164   -1.438249
     14          1           0       -0.795722    1.041517    0.063535
     15          1           0        0.168390   -1.041039    1.103723
     16          1           0       -0.106627   -1.908273   -0.409167
     17          1           0        1.515370   -0.464892   -1.588393
     18          1           0        3.460525   -1.248179   -0.493712
     19          1           0        2.603021   -1.607512    0.888318
     20          1           0        2.284985   -2.426014   -0.526853
 ---------------------------------------------------------------------
 Rotational constants (GHZ):           2.4054325           0.5978875           0.5354823
 Leave Link  202 at Mon Feb 22 21:01:57 2021, MaxMem=   104857600 cpu:               1.2 elap:               0.1
 (Enter /sw/arch/RedHatEnterpriseServer7/EB_production/2019/software/Gaussian/g16.c01/l301.exe)
 Standard basis: TZVP (5D, 7F)
 Ernie: Thresh=  0.10000D-02 Tol=  0.10000D-05 Strict=F.
 There are   249 symmetry adapted cartesian basis functions of A   symmetry.
 There are   240 symmetry adapted basis functions of A   symmetry.
   240 basis functions,   415 primitive gaussians,   249 cartesian basis functions
    40 alpha electrons       40 beta electrons
       nuclear repulsion energy       535.4320634565 Hartrees.
 IExCor=  404 DFT=T Ex=B Corr=P86 ExCW=0 ScaHFX=  0.000000
 ScaDFX=  1.000000  1.000000  1.000000  1.000000 ScalE2=  1.000000  1.000000
 IRadAn=      5 IRanWt=     -1 IRanGd=            0 ICorTp=0 IEmpDi=131
 NAtoms=   20 NActive=   20 NUniq=   20 SFac= 1.00D+00 NAtFMM=   60 NAOKFM=F Big=F
 Integral buffers will be    131072 words long.
 Raffenetti 2 integral format.
 Two-electron integral symmetry is turned on.
 R6Disp:  Grimme-D3 Dispersion energy=       -0.0188896898 Hartrees.
 Nuclear repulsion after empirical dispersion term =      535.4131737667 Hartrees.
 ------------------------------------------------------------------------------
 Polarizable Continuum Model (PCM)
 =================================
 Model                : PCM.
 Atomic radii         : UFF (Universal Force Field).
 Polarization charges : Total charges.
 Charge compensation  : None.
 Solution method      : On-the-fly selection.
 Cavity type          : Scaled VdW (van der Waals Surface) (Alpha=1.100).
 Cavity algorithm     : GePol (No added spheres)
                        Default sphere list used, NSphG=   20.
                        Lebedev-Laikov grids with approx.  5.0 points / Ang**2.
                        Smoothing algorithm: York/Karplus (Gamma=1.0000).
                        Polarization charges: spherical gaussians, with
                                              point-specific exponents (IZeta= 3).
                        Self-potential: point-specific (ISelfS= 7).
                        Self-field    : sphere-specific E.n sum rule (ISelfD= 2).
 1st derivatives      : Analytical E(r).r(x)/FMM algorithm (CHGder, D1EAlg=3).
                        Cavity 1st derivative terms included.
 Solvent              : Water, Eps=  78.355300 Eps(inf)=   1.777849
 ------------------------------------------------------------------------------
 Spheres list:
 ISph  on   Nord     Re0    Alpha      Xe            Ye            Ze
    1   C      1    1.9255  1.100     -3.755740      0.791881     -0.197529
    2   S      2    2.0175  1.100     -2.599876     -0.515704      0.309628
    3   C      3    1.9255  1.100     -1.001686      0.053996     -0.353619
    4   C      4    1.9255  1.100      0.136659     -0.931458      0.016811
    5   C      5    1.9255  1.100      1.542505     -0.509341     -0.496359
    6   N      6    1.8300  1.100      2.545767     -1.522042     -0.128268
    7   C      7    1.9255  1.100      1.971102      0.799616      0.040185
    8   O      8    1.7500  1.100      2.174117      1.769121     -0.724643
    9   O      9    1.7500  1.100      2.119040      0.984408      1.372663
   10   H     10    1.4430  1.100     -4.754885      0.549774      0.163138
   11   H     11    1.4430  1.100     -3.773306      0.864518     -1.285473
   12   H     12    1.4430  1.100     -3.442592      1.747103      0.225879
   13   H     13    1.4430  1.100     -1.083810      0.142164     -1.438249
   14   H     14    1.4430  1.100     -0.795722      1.041517      0.063535
   15   H     15    1.4430  1.100      0.168390     -1.041039      1.103723
   16   H     16    1.4430  1.100     -0.106627     -1.908273     -0.409167
   17   H     17    1.4430  1.100      1.515370     -0.464892     -1.588393
   18   H     18    1.4430  1.100      3.460525     -1.248179     -0.493712
   19   H     19    1.4430  1.100      2.603021     -1.607512      0.888318
   20   H     20    1.4430  1.100      2.284985     -2.426014     -0.526853
 ------------------------------------------------------------------------------
 GePol: Number of generator spheres                  =      20
 GePol: Total number of spheres                      =      20
 GePol: Number of exposed spheres                    =      20 (100.00%)
 GePol: Number of points                             =    1695
 GePol: Average weight of points                     =       0.13
 GePol: Minimum weight of points                     =   0.26D-08
 GePol: Maximum weight of points                     =    0.20577
 GePol: Number of points with low weight             =     101
 GePol: Fraction of low-weight points (<1% of avg)   =       5.96%
 GePol: Cavity surface area                          =    225.359 Ang**2
 GePol: Cavity volume                                =    219.594 Ang**3
 Leave Link  301 at Mon Feb 22 21:01:57 2021, MaxMem=   104857600 cpu:               2.2 elap:               0.1
 (Enter /sw/arch/RedHatEnterpriseServer7/EB_production/2019/software/Gaussian/g16.c01/l302.exe)
 NPDir=0 NMtPBC=     1 NCelOv=     1 NCel=       1 NClECP=     1 NCelD=      1
         NCelK=      1 NCelE2=     1 NClLst=     1 CellRange=     0.0.
 One-electron integrals computed using PRISM.
 One-electron integral symmetry used in STVInt
 PrsmSu:  requested number of processors reduced to:  28 ShMem   1 Linda.
 NBasis=   240 RedAO= T EigKep=  1.65D-04  NBF=   240
 NBsUse=   240 1.00D-06 EigRej= -1.00D+00 NBFU=   240
 Precomputing XC quadrature grid using
 IXCGrd= 4 IRadAn=           5 IRanWt=          -1 IRanGd=           0 AccXCQ= 0.00D+00.
 Generated NRdTot=       0 NPtTot=           0 NUsed=           0 NTot=          32
 NSgBfM=   247   247   247   247   247 MxSgAt=    20 MxSgA2=    20.
 Leave Link  302 at Mon Feb 22 21:01:58 2021, MaxMem=   104857600 cpu:              10.4 elap:               0.4
 (Enter /sw/arch/RedHatEnterpriseServer7/EB_production/2019/software/Gaussian/g16.c01/l303.exe)
 DipDrv:  MaxL=1.
 Leave Link  303 at Mon Feb 22 21:01:58 2021, MaxMem=   104857600 cpu:               1.1 elap:               0.1
 (Enter /sw/arch/RedHatEnterpriseServer7/EB_production/2019/software/Gaussian/g16.c01/l401.exe)
 ExpMin= 9.52D-02 ExpMax= 6.07D+04 ExpMxC= 2.07D+03 IAcc=3 IRadAn=         5 AccDes= 0.00D+00
 Harris functional with IExCor=  404 and IRadAn=       5 diagonalized for initial guess.
 HarFok:  IExCor=  404 AccDes= 0.00D+00 IRadAn=         5 IDoV= 1 UseB2=F ITyADJ=14
 ICtDFT=  3500011 ScaDFX=  1.000000  1.000000  1.000000  1.000000
 FoFCou: FMM=F IPFlag=           0 FMFlag=      100000 FMFlg1=           0
         NFxFlg=           0 DoJE=T BraDBF=F KetDBF=T FulRan=T
         wScrn=  0.000000 ICntrl=       500 IOpCl=  0 I1Cent=   200000004 NGrid=           0
         NMat0=    1 NMatS0=      1 NMatT0=    0 NMatD0=    1 NMtDS0=    0 NMtDT0=    0
 Petite list used in FoFCou.
 Harris En= -800.895471972843    
 JPrj=0 DoOrth=F DoCkMO=F.
 Leave Link  401 at Mon Feb 22 21:01:59 2021, MaxMem=   104857600 cpu:              16.5 elap:               0.6
 (Enter /sw/arch/RedHatEnterpriseServer7/EB_production/2019/software/Gaussian/g16.c01/l502.exe)
 Integral symmetry usage will be decided dynamically.
 Closed shell SCF:
 Using DIIS extrapolation, IDIIS=  1040.
 NGot=   104857600 LenX=   104722524 LenY=   104660082
 Requested convergence on RMS density matrix=1.00D-08 within 128 cycles.
 Requested convergence on MAX density matrix=1.00D-06.
 Requested convergence on             energy=1.00D-06.
 No special actions if energy rises.
 Fock matrices will be formed incrementally for  20 cycles.

 Cycle   1  Pass 1  IDiag  1:
 FoFJK:  IHMeth= 1 ICntrl=     500 DoSepK=F KAlg= 0 I1Cent=           0 FoldK=F
 IRaf= 890000000 NMat=       1 IRICut=       1 DoRegI=T DoRafI=F ISym2E= 0 IDoP0=0 IntGTp=1.
 FoFCou: FMM=F IPFlag=           0 FMFlag=      100000 FMFlg1=           0
         NFxFlg=           0 DoJE=T BraDBF=F KetDBF=F FulRan=T
         wScrn=  0.000000 ICntrl=       500 IOpCl=  0 I1Cent=           0 NGrid=           0
         NMat0=    1 NMatS0=      1 NMatT0=    0 NMatD0=    1 NMtDS0=    0 NMtDT0=    0
 Symmetry not used in FoFCou.
 Inv3:  Mode=1 IEnd=     8619075.
 Iteration    1 A*A^-1 deviation from unit magnitude is 3.11D-15 for    363.
 Iteration    1 A*A^-1 deviation from orthogonality  is 1.94D-15 for   1271     32.
 Iteration    1 A^-1*A deviation from unit magnitude is 3.33D-15 for    375.
 Iteration    1 A^-1*A deviation from orthogonality  is 1.68D-15 for   1262     65.
 E= -800.460146348779    
 DIIS: error= 2.96D-02 at cycle   1 NSaved=   1.
 NSaved= 1 IEnMin= 1 EnMin= -800.460146348779     IErMin= 1 ErrMin= 2.96D-02
 ErrMax= 2.96D-02  0.00D+00 EMaxC= 1.00D-01 BMatC= 3.56D-01 BMatP= 3.56D-01
 IDIUse=3 WtCom= 7.04D-01 WtEn= 2.96D-01
 Coeff-Com:  0.100D+01
 Coeff-En:   0.100D+01
 Coeff:      0.100D+01
 Gap=     0.241 Goal=   None    Shift=    0.000
 GapD=    0.241 DampG=1.000 DampE=0.500 DampFc=0.5000 IDamp=-1.
 Damping current iteration by 5.00D-01
 RMSDP=2.46D-02 MaxDP=2.29D+00              OVMax= 6.46D-01

 Cycle   2  Pass 1  IDiag  1:
 RMSU=  1.23D-02    CP:  1.03D+00
 E= -800.354817467043     Delta-E=        0.105328881736 Rises=F Damp=T
 DIIS: error= 2.70D-02 at cycle   2 NSaved=   2.
 NSaved= 2 IEnMin= 1 EnMin= -800.460146348779     IErMin= 2 ErrMin= 2.70D-02
 ErrMax= 2.70D-02  0.00D+00 EMaxC= 1.00D-01 BMatC= 1.69D-01 BMatP= 3.56D-01
 IDIUse=3 WtCom= 7.30D-01 WtEn= 2.70D-01
 Coeff-Com:  0.393D+00 0.607D+00
 Coeff-En:   0.597D+00 0.403D+00
 Coeff:      0.448D+00 0.552D+00
 Gap=     0.075 Goal=   None    Shift=    0.000
 RMSDP=1.02D-02 MaxDP=8.76D-01 DE= 1.05D-01 OVMax= 4.71D-01

 Cycle   3  Pass 1  IDiag  1:
 RMSU=  2.86D-03    CP:  9.99D-01  2.02D-01
 E= -800.690722417109     Delta-E=       -0.335904950066 Rises=F Damp=F
 DIIS: error= 2.29D-02 at cycle   3 NSaved=   3.
 NSaved= 3 IEnMin= 3 EnMin= -800.690722417109     IErMin= 3 ErrMin= 2.29D-02
 ErrMax= 2.29D-02  0.00D+00 EMaxC= 1.00D-01 BMatC= 8.20D-02 BMatP= 1.69D-01
 IDIUse=3 WtCom= 7.71D-01 WtEn= 2.29D-01
 Coeff-Com:  0.242D+00 0.390D+00 0.368D+00
 Coeff-En:   0.600D-01 0.000D+00 0.940D+00
 Coeff:      0.200D+00 0.301D+00 0.499D+00
 Gap=     0.151 Goal=   None    Shift=    0.000
 RMSDP=2.34D-03 MaxDP=1.05D-01 DE=-3.36D-01 OVMax= 1.95D-01

 Cycle   4  Pass 1  IDiag  1:
 RMSU=  2.03D-03    CP:  1.01D+00  2.40D-01  6.32D-01
 E= -800.716291333930     Delta-E=       -0.025568916821 Rises=F Damp=F
 DIIS: error= 3.05D-02 at cycle   4 NSaved=   4.
 NSaved= 4 IEnMin= 4 EnMin= -800.716291333930     IErMin= 3 ErrMin= 2.29D-02
 ErrMax= 3.05D-02  0.00D+00 EMaxC= 1.00D-01 BMatC= 6.05D-02 BMatP= 8.20D-02
 IDIUse=3 WtCom= 6.95D-01 WtEn= 3.05D-01
 Coeff-Com:  0.105D+00 0.151D+00 0.393D+00 0.351D+00
 Coeff-En:   0.000D+00 0.000D+00 0.421D+00 0.579D+00
 Coeff:      0.729D-01 0.105D+00 0.402D+00 0.420D+00
 Gap=     0.158 Goal=   None    Shift=    0.000
 RMSDP=1.74D-03 MaxDP=1.06D-01 DE=-2.56D-02 OVMax= 1.55D-01

 Cycle   5  Pass 1  IDiag  1:
 RMSU=  7.59D-04    CP:  1.01D+00  2.47D-01  9.19D-01  3.44D-01
 E= -800.752385225310     Delta-E=       -0.036093891380 Rises=F Damp=F
 DIIS: error= 1.47D-02 at cycle   5 NSaved=   5.
 NSaved= 5 IEnMin= 5 EnMin= -800.752385225310     IErMin= 5 ErrMin= 1.47D-02
 ErrMax= 1.47D-02  0.00D+00 EMaxC= 1.00D-01 BMatC= 1.45D-02 BMatP= 6.05D-02
 IDIUse=3 WtCom= 8.53D-01 WtEn= 1.47D-01
 Coeff-Com:  0.188D-01 0.227D-01 0.243D+00 0.359D+00 0.357D+00
 Coeff-En:   0.000D+00 0.000D+00 0.000D+00 0.243D+00 0.757D+00
 Coeff:      0.160D-01 0.194D-01 0.207D+00 0.342D+00 0.416D+00
 Gap=     0.154 Goal=   None    Shift=    0.000
 RMSDP=8.45D-04 MaxDP=7.17D-02 DE=-3.61D-02 OVMax= 5.76D-02

 Cycle   6  Pass 1  IDiag  1:
 RMSU=  3.38D-04    CP:  1.00D+00  2.29D-01  8.25D-01  5.32D-01  2.51D-01
 E= -800.763184662663     Delta-E=       -0.010799437353 Rises=F Damp=F
 DIIS: error= 2.44D-03 at cycle   6 NSaved=   6.
 NSaved= 6 IEnMin= 6 EnMin= -800.763184662663     IErMin= 6 ErrMin= 2.44D-03
 ErrMax= 2.44D-03  0.00D+00 EMaxC= 1.00D-01 BMatC= 8.47D-04 BMatP= 1.45D-02
 IDIUse=3 WtCom= 9.76D-01 WtEn= 2.44D-02
 Coeff-Com:  0.219D-02 0.671D-02 0.655D-01 0.129D+00 0.251D+00 0.545D+00
 Coeff-En:   0.000D+00 0.000D+00 0.000D+00 0.000D+00 0.717D-01 0.928D+00
 Coeff:      0.214D-02 0.654D-02 0.639D-01 0.126D+00 0.247D+00 0.554D+00
 Gap=     0.149 Goal=   None    Shift=    0.000
 RMSDP=2.26D-04 MaxDP=1.41D-02 DE=-1.08D-02 OVMax= 7.68D-03

 Cycle   7  Pass 1  IDiag  1:
 RMSU=  6.96D-05    CP:  1.01D+00  2.33D-01  8.38D-01  5.29D-01  4.20D-01
                    CP:  5.41D-01
 E= -800.763853616822     Delta-E=       -0.000668954159 Rises=F Damp=F
 DIIS: error= 7.40D-04 at cycle   7 NSaved=   7.
 NSaved= 7 IEnMin= 7 EnMin= -800.763853616822     IErMin= 7 ErrMin= 7.40D-04
 ErrMax= 7.40D-04  0.00D+00 EMaxC= 1.00D-01 BMatC= 5.01D-05 BMatP= 8.47D-04
 IDIUse=3 WtCom= 9.93D-01 WtEn= 7.40D-03
 Coeff-Com: -0.114D-02-0.851D-03 0.677D-02 0.278D-01 0.980D-01 0.333D+00
 Coeff-Com:  0.536D+00
 Coeff-En:   0.000D+00 0.000D+00 0.000D+00 0.000D+00 0.000D+00 0.000D+00
 Coeff-En:   0.100D+01
 Coeff:     -0.113D-02-0.844D-03 0.672D-02 0.276D-01 0.973D-01 0.331D+00
 Coeff:      0.540D+00
 Gap=     0.149 Goal=   None    Shift=    0.000
 RMSDP=4.41D-05 MaxDP=2.15D-03 DE=-6.69D-04 OVMax= 1.50D-03

 Cycle   8  Pass 1  IDiag  1:
 RMSU=  1.96D-05    CP:  1.01D+00  2.34D-01  8.41D-01  5.26D-01  4.14D-01
                    CP:  6.22D-01  7.27D-01
 E= -800.763896095606     Delta-E=       -0.000042478783 Rises=F Damp=F
 DIIS: error= 8.91D-05 at cycle   8 NSaved=   8.
 NSaved= 8 IEnMin= 8 EnMin= -800.763896095606     IErMin= 8 ErrMin= 8.91D-05
 ErrMax= 8.91D-05  0.00D+00 EMaxC= 1.00D-01 BMatC= 2.78D-06 BMatP= 5.01D-05
 IDIUse=1 WtCom= 1.00D+00 WtEn= 0.00D+00
 Coeff-Com: -0.329D-03-0.627D-03-0.637D-03 0.285D-02 0.270D-01 0.114D+00
 Coeff-Com:  0.268D+00 0.591D+00
 Coeff:     -0.329D-03-0.627D-03-0.637D-03 0.285D-02 0.270D-01 0.114D+00
 Coeff:      0.268D+00 0.591D+00
 Gap=     0.149 Goal=   None    Shift=    0.000
 RMSDP=1.00D-05 MaxDP=6.61D-04 DE=-4.25D-05 OVMax= 3.88D-04

 Cycle   9  Pass 1  IDiag  1:
 RMSU=  6.39D-06    CP:  1.01D+00  2.34D-01  8.41D-01  5.25D-01  4.14D-01
                    CP:  6.37D-01  7.27D-01  8.29D-01
 E= -800.763898135509     Delta-E=       -0.000002039903 Rises=F Damp=F
 DIIS: error= 2.64D-05 at cycle   9 NSaved=   9.
 NSaved= 9 IEnMin= 9 EnMin= -800.763898135509     IErMin= 9 ErrMin= 2.64D-05
 ErrMax= 2.64D-05  0.00D+00 EMaxC= 1.00D-01 BMatC= 3.33D-07 BMatP= 2.78D-06
 IDIUse=1 WtCom= 1.00D+00 WtEn= 0.00D+00
 Coeff-Com:  0.731D-04-0.162D-03-0.629D-03-0.896D-03 0.672D-02 0.346D-01
 Coeff-Com:  0.105D+00 0.336D+00 0.520D+00
 Coeff:      0.731D-04-0.162D-03-0.629D-03-0.896D-03 0.672D-02 0.346D-01
 Coeff:      0.105D+00 0.336D+00 0.520D+00
 Gap=     0.149 Goal=   None    Shift=    0.000
 RMSDP=3.77D-06 MaxDP=2.70D-04 DE=-2.04D-06 OVMax= 1.35D-04

 Cycle  10  Pass 1  IDiag  1:
 RMSU=  1.97D-06    CP:  1.01D+00  2.34D-01  8.41D-01  5.24D-01  4.13D-01
                    CP:  6.37D-01  7.40D-01  8.05D-01  7.09D-01
 E= -800.763898457432     Delta-E=       -0.000000321923 Rises=F Damp=F
 DIIS: error= 8.29D-06 at cycle  10 NSaved=  10.
 NSaved=10 IEnMin=10 EnMin= -800.763898457432     IErMin=10 ErrMin= 8.29D-06
 ErrMax= 8.29D-06  0.00D+00 EMaxC= 1.00D-01 BMatC= 1.34D-08 BMatP= 3.33D-07
 IDIUse=1 WtCom= 1.00D+00 WtEn= 0.00D+00
 Coeff-Com:  0.599D-04-0.751D-04-0.196D-03-0.513D-03 0.162D-02 0.950D-02
 Coeff-Com:  0.323D-01 0.118D+00 0.248D+00 0.590D+00
 Coeff:      0.599D-04-0.751D-04-0.196D-03-0.513D-03 0.162D-02 0.950D-02
 Coeff:      0.323D-01 0.118D+00 0.248D+00 0.590D+00
 Gap=     0.149 Goal=   None    Shift=    0.000
 RMSDP=9.71D-07 MaxDP=7.14D-05 DE=-3.22D-07 OVMax= 3.75D-05

 Cycle  11  Pass 1  IDiag  1:
 RMSU=  4.70D-07    CP:  1.01D+00  2.34D-01  8.41D-01  5.24D-01  4.14D-01
                    CP:  6.36D-01  7.42D-01  8.24D-01  7.33D-01  7.71D-01
 E= -800.763898469359     Delta-E=       -0.000000011928 Rises=F Damp=F
 DIIS: error= 3.70D-06 at cycle  11 NSaved=  11.
 NSaved=11 IEnMin=11 EnMin= -800.763898469359     IErMin=11 ErrMin= 3.70D-06
 ErrMax= 3.70D-06  0.00D+00 EMaxC= 1.00D-01 BMatC= 1.89D-09 BMatP= 1.34D-08
 IDIUse=1 WtCom= 1.00D+00 WtEn= 0.00D+00
 Coeff-Com:  0.291D-04-0.303D-04-0.254D-04-0.174D-03 0.245D-03 0.189D-02
 Coeff-Com:  0.728D-02 0.319D-01 0.887D-01 0.337D+00 0.533D+00
 Coeff:      0.291D-04-0.303D-04-0.254D-04-0.174D-03 0.245D-03 0.189D-02
 Coeff:      0.728D-02 0.319D-01 0.887D-01 0.337D+00 0.533D+00
 Gap=     0.149 Goal=   None    Shift=    0.000
 RMSDP=2.00D-07 MaxDP=7.07D-06 DE=-1.19D-08 OVMax= 1.34D-05

 Cycle  12  Pass 1  IDiag  1:
 RMSU=  1.55D-07    CP:  1.01D+00  2.34D-01  8.41D-01  5.24D-01  4.14D-01
                    CP:  6.36D-01  7.42D-01  8.28D-01  7.31D-01  7.85D-01
                    CP:  8.15D-01
 E= -800.763898470723     Delta-E=       -0.000000001364 Rises=F Damp=F
 DIIS: error= 7.74D-07 at cycle  12 NSaved=  12.
 NSaved=12 IEnMin=12 EnMin= -800.763898470723     IErMin=12 ErrMin= 7.74D-07
 ErrMax= 7.74D-07  0.00D+00 EMaxC= 1.00D-01 BMatC= 1.28D-10 BMatP= 1.89D-09
 IDIUse=1 WtCom= 1.00D+00 WtEn= 0.00D+00
 Coeff-Com:  0.106D-04-0.851D-05 0.139D-04-0.307D-04-0.419D-04 0.425D-04
 Coeff-Com:  0.517D-03 0.433D-02 0.201D-01 0.113D+00 0.270D+00 0.593D+00
 Coeff:      0.106D-04-0.851D-05 0.139D-04-0.307D-04-0.419D-04 0.425D-04
 Coeff:      0.517D-03 0.433D-02 0.201D-01 0.113D+00 0.270D+00 0.593D+00
 Gap=     0.149 Goal=   None    Shift=    0.000
 RMSDP=1.22D-07 MaxDP=9.77D-06 DE=-1.36D-09 OVMax= 3.31D-06

 Cycle  13  Pass 1  IDiag  1:
 RMSU=  3.32D-08    CP:  1.01D+00  2.34D-01  8.41D-01  5.24D-01  4.13D-01
                    CP:  6.36D-01  7.42D-01  8.27D-01  7.38D-01  7.99D-01
                    CP:  7.97D-01  7.28D-01
 E= -800.763898470837     Delta-E=       -0.000000000114 Rises=F Damp=F
 DIIS: error= 1.47D-07 at cycle  13 NSaved=  13.
 NSaved=13 IEnMin=13 EnMin= -800.763898470837     IErMin=13 ErrMin= 1.47D-07
 ErrMax= 1.47D-07  0.00D+00 EMaxC= 1.00D-01 BMatC= 6.86D-12 BMatP= 1.28D-10
 IDIUse=1 WtCom= 1.00D+00 WtEn= 0.00D+00
 Coeff-Com:  0.407D-05-0.375D-05 0.794D-05-0.747D-05-0.281D-04-0.350D-04
 Coeff-Com:  0.559D-04 0.981D-03 0.586D-02 0.387D-01 0.101D+00 0.274D+00
 Coeff-Com:  0.579D+00
 Coeff:      0.407D-05-0.375D-05 0.794D-05-0.747D-05-0.281D-04-0.350D-04
 Coeff:      0.559D-04 0.981D-03 0.586D-02 0.387D-01 0.101D+00 0.274D+00
 Coeff:      0.579D+00
 Gap=     0.149 Goal=   None    Shift=    0.000
 RMSDP=2.19D-08 MaxDP=9.47D-07 DE=-1.14D-10 OVMax= 7.54D-07

 Cycle  14  Pass 1  IDiag  1:
 RMSU=  1.28D-08    CP:  1.01D+00  2.34D-01  8.41D-01  5.24D-01  4.13D-01
                    CP:  6.36D-01  7.42D-01  8.27D-01  7.38D-01  8.03D-01
                    CP:  8.16D-01  7.33D-01  8.51D-01
 E= -800.763898470849     Delta-E=       -0.000000000013 Rises=F Damp=F
 DIIS: error= 4.69D-08 at cycle  14 NSaved=  14.
 NSaved=14 IEnMin=14 EnMin= -800.763898470849     IErMin=14 ErrMin= 4.69D-08
 ErrMax= 4.69D-08  0.00D+00 EMaxC= 1.00D-01 BMatC= 7.22D-13 BMatP= 6.86D-12
 IDIUse=1 WtCom= 1.00D+00 WtEn= 0.00D+00
 Coeff-Com:  0.640D-06-0.772D-06 0.278D-05 0.898D-06-0.101D-04-0.328D-04
 Coeff-Com: -0.521D-04-0.202D-03-0.132D-03 0.333D-02 0.121D-01 0.501D-01
 Coeff-Com:  0.273D+00 0.662D+00
 Coeff:      0.640D-06-0.772D-06 0.278D-05 0.898D-06-0.101D-04-0.328D-04
 Coeff:     -0.521D-04-0.202D-03-0.132D-03 0.333D-02 0.121D-01 0.501D-01
 Coeff:      0.273D+00 0.662D+00
 Gap=     0.149 Goal=   None    Shift=    0.000
 RMSDP=6.68D-09 MaxDP=3.99D-07 DE=-1.28D-11 OVMax= 1.59D-07

 Error on total polarization charges =  0.01411
 SCF Done:  E(RB-P86) =  -800.763898471     A.U. after   14 cycles
            NFock= 14  Conv=0.67D-08     -V/T= 2.0039
 KE= 7.976594696921D+02 PE=-2.958269521932D+03 EE= 8.244329800021D+02
 Leave Link  502 at Mon Feb 22 21:02:12 2021, MaxMem=   104857600 cpu:             410.5 elap:              13.2
 (Enter /sw/arch/RedHatEnterpriseServer7/EB_production/2019/software/Gaussian/g16.c01/l601.exe)
 Copying SCF densities to generalized density rwf, IOpCl= 0 IROHF=0.

 **********************************************************************

            Population analysis using the SCF Density.

 **********************************************************************

 Orbital symmetries:
       Occupied  (A) (A) (A) (A) (A) (A) (A) (A) (A) (A) (A) (A)
                 (A) (A) (A) (A) (A) (A) (A) (A) (A) (A) (A) (A)
                 (A) (A) (A) (A) (A) (A) (A) (A) (A) (A) (A) (A)
                 (A) (A) (A) (A)
       Virtual   (A) (A) (A) (A) (A) (A) (A) (A) (A) (A) (A) (A)
                 (A) (A) (A) (A) (A) (A) (A) (A) (A) (A) (A) (A)
                 (A) (A) (A) (A) (A) (A) (A) (A) (A) (A) (A) (A)
                 (A) (A) (A) (A) (A) (A) (A) (A) (A) (A) (A) (A)
                 (A) (A) (A) (A) (A) (A) (A) (A) (A) (A) (A) (A)
                 (A) (A) (A) (A) (A) (A) (A) (A) (A) (A) (A) (A)
                 (A) (A) (A) (A) (A) (A) (A) (A) (A) (A) (A) (A)
                 (A) (A) (A) (A) (A) (A) (A) (A) (A) (A) (A) (A)
                 (A) (A) (A) (A) (A) (A) (A) (A) (A) (A) (A) (A)
                 (A) (A) (A) (A) (A) (A) (A) (A) (A) (A) (A) (A)
                 (A) (A) (A) (A) (A) (A) (A) (A) (A) (A) (A) (A)
                 (A) (A) (A) (A) (A) (A) (A) (A) (A) (A) (A) (A)
                 (A) (A) (A) (A) (A) (A) (A) (A) (A) (A) (A) (A)
                 (A) (A) (A) (A) (A) (A) (A) (A) (A) (A) (A) (A)
                 (A) (A) (A) (A) (A) (A) (A) (A) (A) (A) (A) (A)
                 (A) (A) (A) (A) (A) (A) (A) (A) (A) (A) (A) (A)
                 (A) (A) (A) (A) (A) (A) (A) (A)
 The electronic state is 1-A.
 Alpha  occ. eigenvalues --  -88.13145 -18.72118 -18.70916 -14.13573  -9.98474
 Alpha  occ. eigenvalues --   -9.97477  -9.93631  -9.92883  -9.92139  -7.68494
 Alpha  occ. eigenvalues --   -5.70943  -5.70495  -5.69665  -0.95815  -0.92985
 Alpha  occ. eigenvalues --   -0.82883  -0.75849  -0.71781  -0.66092  -0.60066
 Alpha  occ. eigenvalues --   -0.56379  -0.55473  -0.52935  -0.49914  -0.45458
 Alpha  occ. eigenvalues --   -0.42597  -0.40118  -0.39262  -0.38725  -0.37569
 Alpha  occ. eigenvalues --   -0.35920  -0.34241  -0.34042  -0.32921  -0.32099
 Alpha  occ. eigenvalues --   -0.28164  -0.21837  -0.21352  -0.19778  -0.18345
 Alpha virt. eigenvalues --   -0.03467  -0.01011   0.00426   0.01721   0.02825
 Alpha virt. eigenvalues --    0.03893   0.04275   0.06853   0.07662   0.08169
 Alpha virt. eigenvalues --    0.08530   0.09944   0.10709   0.10927   0.11701
 Alpha virt. eigenvalues --    0.12991   0.13807   0.14187   0.16703   0.17785
 Alpha virt. eigenvalues --    0.19743   0.20032   0.20769   0.22874   0.23557
 Alpha virt. eigenvalues --    0.24119   0.25199   0.26108   0.27753   0.28687
 Alpha virt. eigenvalues --    0.29630   0.29982   0.33325   0.34282   0.34795
 Alpha virt. eigenvalues --    0.35768   0.36924   0.36983   0.38342   0.39744
 Alpha virt. eigenvalues --    0.40165   0.40894   0.41603   0.42008   0.42268
 Alpha virt. eigenvalues --    0.43094   0.43759   0.44982   0.45831   0.46338
 Alpha virt. eigenvalues --    0.46755   0.46875   0.48441   0.50017   0.51665
 Alpha virt. eigenvalues --    0.53187   0.55542   0.57083   0.57671   0.59254
 Alpha virt. eigenvalues --    0.62486   0.64231   0.65598   0.67828   0.68566
 Alpha virt. eigenvalues --    0.72059   0.75784   0.77946   0.80771   0.87500
 Alpha virt. eigenvalues --    0.92232   0.97485   1.03595   1.06951   1.14400
 Alpha virt. eigenvalues --    1.15898   1.16493   1.20665   1.22240   1.24724
 Alpha virt. eigenvalues --    1.25753   1.26387   1.27571   1.28646   1.29646
 Alpha virt. eigenvalues --    1.30701   1.31733   1.32616   1.35383   1.36299
 Alpha virt. eigenvalues --    1.37528   1.41482   1.43925   1.44551   1.45724
 Alpha virt. eigenvalues --    1.45816   1.50016   1.50915   1.51351   1.53587
 Alpha virt. eigenvalues --    1.55578   1.57097   1.58012   1.60566   1.63427
 Alpha virt. eigenvalues --    1.64787   1.65625   1.70226   1.71919   1.72103
 Alpha virt. eigenvalues --    1.74077   1.75536   1.75747   1.76650   1.77380
 Alpha virt. eigenvalues --    1.79032   1.80274   1.80951   1.84109   1.85302
 Alpha virt. eigenvalues --    1.86441   1.87843   1.89179   1.92984   1.94477
 Alpha virt. eigenvalues --    1.98524   2.02076   2.03799   2.06502   2.08603
 Alpha virt. eigenvalues --    2.11133   2.12452   2.16675   2.20260   2.22329
 Alpha virt. eigenvalues --    2.27804   2.28692   2.34144   2.34429   2.37546
 Alpha virt. eigenvalues --    2.39015   2.41616   2.43743   2.46162   2.47220
 Alpha virt. eigenvalues --    2.47817   2.48843   2.50980   2.52302   2.54069
 Alpha virt. eigenvalues --    2.55498   2.55909   2.56794   2.57663   2.58287
 Alpha virt. eigenvalues --    2.59291   2.60429   2.61010   2.62858   2.65381
 Alpha virt. eigenvalues --    2.66818   2.68555   2.70686   2.72375   2.75144
 Alpha virt. eigenvalues --    2.76487   2.77957   2.78669   2.82126   2.88447
 Alpha virt. eigenvalues --    2.96818   2.97394   3.02439   3.03483   3.08234
 Alpha virt. eigenvalues --    3.10385   3.12068   3.20252   3.20369   3.23020
 Alpha virt. eigenvalues --    3.23635   3.26582   3.30400   3.32754   3.33911
 Alpha virt. eigenvalues --    3.47762   3.66591   3.76514   3.78133   3.96628
 Alpha virt. eigenvalues --    4.10949  18.52572  21.65611  21.70929  21.72769
 Alpha virt. eigenvalues --   21.80025  21.82686  31.36033  43.15785  43.22367
          Condensed to atoms (all electrons):
               1          2          3          4          5          6
     1  C    5.039146   0.247112  -0.049238   0.007771  -0.000991   0.000010
     2  S    0.247112  15.797346   0.290655  -0.067345   0.011668  -0.000207
     3  C   -0.049238   0.290655   5.293832  -0.027542   0.051423   0.010231
     4  C    0.007771  -0.067345  -0.027542   6.042863  -0.171977   0.001758
     5  C   -0.000991   0.011668   0.051423  -0.171977   6.538996   0.046852
     6  N    0.000010  -0.000207   0.010231   0.001758   0.046852   6.199033
     7  C    0.000130  -0.002504   0.023308  -0.060336  -0.256117   0.001195
     8  O   -0.000010   0.000081   0.013102  -0.028872  -0.157401  -0.003227
     9  O    0.000008   0.000143  -0.011659  -0.013204  -0.149185  -0.010538
    10  H    0.378561  -0.016247   0.003743  -0.000059   0.000025  -0.000000
    11  H    0.407740  -0.052448  -0.001419  -0.000784   0.000121   0.000000
    12  H    0.406018  -0.052989   0.000266  -0.000728   0.000014  -0.000000
    13  H    0.002092  -0.054787   0.406305  -0.040021   0.002621  -0.000190
    14  H   -0.000132  -0.052577   0.411696  -0.029892  -0.023339  -0.000361
    15  H    0.000116   0.010365  -0.016301   0.297387   0.030865  -0.016122
    16  H   -0.000189   0.010790  -0.031767   0.394305  -0.038818  -0.004181
    17  H    0.000006   0.000001  -0.001020  -0.054636   0.355510  -0.036647
    18  H   -0.000000   0.000012  -0.000368   0.011573  -0.055664   0.362352
    19  H    0.000001  -0.000076   0.001826  -0.031345   0.012954   0.318180
    20  H    0.000001  -0.000067   0.000345  -0.010460  -0.005676   0.349089
               7          8          9         10         11         12
     1  C    0.000130  -0.000010   0.000008   0.378561   0.407740   0.406018
     2  S   -0.002504   0.000081   0.000143  -0.016247  -0.052448  -0.052989
     3  C    0.023308   0.013102  -0.011659   0.003743  -0.001419   0.000266
     4  C   -0.060336  -0.028872  -0.013204  -0.000059  -0.000784  -0.000728
     5  C   -0.256117  -0.157401  -0.149185   0.000025   0.000121   0.000014
     6  N    0.001195  -0.003227  -0.010538  -0.000000   0.000000  -0.000000
     7  C    5.164949   0.583903   0.513670  -0.000004  -0.000038   0.000078
     8  O    0.583903   8.134767  -0.171422   0.000000   0.000001  -0.000001
     9  O    0.513670  -0.171422   8.282288  -0.000000  -0.000000  -0.000010
    10  H   -0.000004   0.000000  -0.000000   0.505006  -0.021774  -0.021560
    11  H   -0.000038   0.000001  -0.000000  -0.021774   0.533178  -0.035396
    12  H    0.000078  -0.000001  -0.000010  -0.021560  -0.035396   0.533208
    13  H   -0.009072  -0.000001   0.000662  -0.000105   0.005787  -0.002367
    14  H    0.023903  -0.003936   0.004103  -0.000019  -0.002037   0.005571
    15  H   -0.019195   0.002607   0.022288  -0.000011   0.000103  -0.000093
    16  H    0.011533  -0.000463   0.000449  -0.000005  -0.000062   0.000094
    17  H   -0.020225   0.024175   0.011520   0.000000  -0.000017   0.000005
    18  H    0.013622   0.002279   0.001593   0.000000  -0.000000  -0.000000
    19  H   -0.004748   0.001614   0.021021   0.000000  -0.000000   0.000000
    20  H    0.001273  -0.000861  -0.000653  -0.000000   0.000000  -0.000000
              13         14         15         16         17         18
     1  C    0.002092  -0.000132   0.000116  -0.000189   0.000006  -0.000000
     2  S   -0.054787  -0.052577   0.010365   0.010790   0.000001   0.000012
     3  C    0.406305   0.411696  -0.016301  -0.031767  -0.001020  -0.000368
     4  C   -0.040021  -0.029892   0.297387   0.394305  -0.054636   0.011573
     5  C    0.002621  -0.023339   0.030865  -0.038818   0.355510  -0.055664
     6  N   -0.000190  -0.000361  -0.016122  -0.004181  -0.036647   0.362352
     7  C   -0.009072   0.023903  -0.019195   0.011533  -0.020225   0.013622
     8  O   -0.000001  -0.003936   0.002607  -0.000463   0.024175   0.002279
     9  O    0.000662   0.004103   0.022288   0.000449   0.011520   0.001593
    10  H   -0.000105  -0.000019  -0.000011  -0.000005   0.000000   0.000000
    11  H    0.005787  -0.002037   0.000103  -0.000062  -0.000017  -0.000000
    12  H   -0.002367   0.005571  -0.000093   0.000094   0.000005  -0.000000
    13  H    0.528791  -0.027455   0.007555  -0.005173   0.002028   0.000006
    14  H   -0.027455   0.504905  -0.004542   0.006879   0.000436  -0.000007
    15  H    0.007555  -0.004542   0.541416  -0.021007   0.008106  -0.000394
    16  H   -0.005173   0.006879  -0.021007   0.519303  -0.004191  -0.000269
    17  H    0.002028   0.000436   0.008106  -0.004191   0.502549  -0.002287
    18  H    0.000006  -0.000007  -0.000394  -0.000269  -0.002287   0.362077
    19  H   -0.000050  -0.000008   0.010250  -0.000058   0.007273  -0.011404
    20  H   -0.000012  -0.000066  -0.000376   0.003098  -0.006360  -0.013043
              19         20
     1  C    0.000001   0.000001
     2  S   -0.000076  -0.000067
     3  C    0.001826   0.000345
     4  C   -0.031345  -0.010460
     5  C    0.012954  -0.005676
     6  N    0.318180   0.349089
     7  C   -0.004748   0.001273
     8  O    0.001614  -0.000861
     9  O    0.021021  -0.000653
    10  H    0.000000  -0.000000
    11  H   -0.000000   0.000000
    12  H    0.000000  -0.000000
    13  H   -0.000050  -0.000012
    14  H   -0.000008  -0.000066
    15  H    0.010250  -0.000376
    16  H   -0.000058   0.003098
    17  H    0.007273  -0.006360
    18  H   -0.011404  -0.013043
    19  H    0.373973  -0.011285
    20  H   -0.011285   0.370199
 Mulliken charges:
               1
     1  C   -0.438151
     2  S   -0.068927
     3  C   -0.367421
     4  C   -0.218458
     5  C   -0.191879
     6  N   -0.217229
     7  C    0.034676
     8  O   -0.396333
     9  O   -0.501077
    10  H    0.172449
    11  H    0.167045
    12  H    0.167890
    13  H    0.183385
    14  H    0.186878
    15  H    0.146985
    16  H    0.159733
    17  H    0.213775
    18  H    0.329923
    19  H    0.311883
    20  H    0.324853
 Sum of Mulliken charges =  -0.00000
 Mulliken charges with hydrogens summed into heavy atoms:
               1
     1  C    0.069234
     2  S   -0.068927
     3  C    0.002842
     4  C    0.088260
     5  C    0.021896
     6  N    0.749429
     7  C    0.034676
     8  O   -0.396333
     9  O   -0.501077
 Electronic spatial extent (au):  <R**2>=           2109.3340
 Charge=              0.0000 electrons
 Dipole moment (field-independent basis, Debye):
    X=              0.8481    Y=            -12.0080    Z=             -4.5177  Tot=             12.8577
 Quadrupole moment (field-independent basis, Debye-Ang):
   XX=            -50.6277   YY=            -62.3857   ZZ=            -69.5906
   XY=            -38.9632   XZ=             -4.7637   YZ=              0.7145
 Traceless Quadrupole moment (field-independent basis, Debye-Ang):
   XX=             10.2403   YY=             -1.5177   ZZ=             -8.7226
   XY=            -38.9632   XZ=             -4.7637   YZ=              0.7145
 Octapole moment (field-independent basis, Debye-Ang**2):
  XXX=             29.9000  YYY=            -52.5621  ZZZ=            -15.1353  XYY=             12.7189
  XXY=            -66.0924  XXZ=            -22.3458  XZZ=             -4.5443  YZZ=            -15.7672
  YYZ=             -0.2875  XYZ=              1.8944
 Hexadecapole moment (field-independent basis, Debye-Ang**3):
 XXXX=          -1724.7704 YYYY=           -433.9653 ZZZZ=           -229.9201 XXXY=           -288.8452
 XXXZ=            -46.4260 YYYX=           -142.4529 YYYZ=             18.5069 ZZZX=             -9.9166
 ZZZY=             -5.8404 XXYY=           -411.5118 XXZZ=           -413.7228 YYZZ=           -119.6607
 XXYZ=              3.9205 YYXZ=             -4.1931 ZZXY=            -42.1448
 N-N= 5.354131737667D+02 E-N=-2.958269533556D+03  KE= 7.976594696921D+02
 No NMR shielding tensors so no spin-rotation constants.
 Leave Link  601 at Mon Feb 22 21:02:12 2021, MaxMem=   104857600 cpu:               3.8 elap:               0.2
 (Enter /sw/arch/RedHatEnterpriseServer7/EB_production/2019/software/Gaussian/g16.c01/l701.exe)
 ... and contract with generalized density number  0.
 Compute integral first derivatives.
 R6Disp: Adding Grimme-D3 dispersion energy 1st derivatives to the gradient.
 PrsmSu:  requested number of processors reduced to:  29 ShMem   1 Linda.
 D1PCM: PCM CHGder 1st derivatives, ID1Alg=3 FixD1E=F DoIter=F DoCFld=F I1PDM=0.
 GePol: Maximum number of non-zero 1st derivatives   =     272
 CoulSu:  requested number of processors reduced to:  29 ShMem   1 Linda.
 CoulSu:  requested number of processors reduced to:  30 ShMem   1 Linda.
 Leave Link  701 at Mon Feb 22 21:02:13 2021, MaxMem=   104857600 cpu:              24.6 elap:               0.9
 (Enter /sw/arch/RedHatEnterpriseServer7/EB_production/2019/software/Gaussian/g16.c01/l702.exe)
 L702 exits ... SP integral derivatives will be done elsewhere.
 Leave Link  702 at Mon Feb 22 21:02:13 2021, MaxMem=   104857600 cpu:               0.8 elap:               0.1
 (Enter /sw/arch/RedHatEnterpriseServer7/EB_production/2019/software/Gaussian/g16.c01/l703.exe)
 Integral derivatives from FoFJK, PRISM(SPDF).
 Compute integral first derivatives, UseDBF=F ICtDFT=           0.
 Calling FoFJK, ICntrl=      2527 FMM=F ISym2X=0 I1Cent= 0 IOpClX= 0 NMat=1 NMatS=1 NMatT=0.
 FoFJK:  IHMeth= 1 ICntrl=    2527 DoSepK=F KAlg= 0 I1Cent=           0 FoldK=F
 IRaf=         0 NMat=       1 IRICut=       1 DoRegI=T DoRafI=F ISym2E= 0 IDoP0=0 IntGTp=1.
 FoFCou: FMM=F IPFlag=           0 FMFlag=      100000 FMFlg1=         800
         NFxFlg=           0 DoJE=F BraDBF=F KetDBF=F FulRan=T
         wScrn=  0.000000 ICntrl=      2527 IOpCl=  0 I1Cent=           0 NGrid=           0
         NMat0=    1 NMatS0=      1 NMatT0=    0 NMatD0=    1 NMtDS0=    0 NMtDT0=    0
 Symmetry not used in FoFCou.
 Leave Link  703 at Mon Feb 22 21:02:15 2021, MaxMem=   104857600 cpu:              50.4 elap:               1.7
 (Enter /sw/arch/RedHatEnterpriseServer7/EB_production/2019/software/Gaussian/g16.c01/l716.exe)
 Dipole        = 3.33675084D-01-4.72429753D+00-1.77741234D+00
 ***** Axes restored to original set *****
 -------------------------------------------------------------------
 Center     Atomic                   Forces (Hartrees/Bohr)
 Number     Number              X              Y              Z
 -------------------------------------------------------------------
      1        6          -0.000572875    0.010973389    0.004063651
      2       16          -0.010858068   -0.017602274   -0.010949786
      3        6          -0.006522448    0.012380873    0.000508381
      4        6           0.004631654   -0.001569599    0.002358291
      5        6           0.016839353   -0.028062083    0.015355720
      6        7          -0.007739582   -0.005214295    0.001111886
      7        6           0.051108569    0.050502939   -0.085667965
      8        8          -0.004578202   -0.003707234    0.025125959
      9        8          -0.028512556   -0.025292698    0.053627873
     10        1          -0.001224544   -0.005307277   -0.002485135
     11        1           0.001794965    0.000271233    0.005716557
     12        1           0.004503241    0.003122541   -0.001810397
     13        1           0.000010506    0.002173285    0.005903504
     14        1           0.002659424    0.005367750   -0.001860573
     15        1          -0.000615360    0.001257710   -0.005968590
     16        1          -0.004673411   -0.004104883    0.002146592
     17        1          -0.001498217    0.002456394    0.003041581
     18        1          -0.006058600    0.004310184   -0.000969346
     19        1          -0.000200880    0.001251779   -0.009872078
     20        1          -0.008492970   -0.003207734    0.000623875
 -------------------------------------------------------------------
 Cartesian Forces:  Max     0.085667965 RMS     0.018404016
 Leave Link  716 at Mon Feb 22 21:02:15 2021, MaxMem=   104857600 cpu:               0.8 elap:               0.1
 (Enter /sw/arch/RedHatEnterpriseServer7/EB_production/2019/software/Gaussian/g16.c01/l103.exe)

 GradGradGradGradGradGradGradGradGradGradGradGradGradGradGradGradGradGrad
 Berny optimization.
 FormGI is forming the generalized inverse of G from B-inverse, IUseBI=4.
 Internal  Forces:  Max     0.057881350 RMS     0.010420370
 Search for a local minimum.
 Step number   1 out of a maximum of  102
 All quantities printed in internal units (Hartrees-Bohrs-Radians)
 RMS Force = .10420D-01 SwitMx=.10000D-02 MixMth= 1
 Mixed Optimization -- RFO/linear search
 Second derivative matrix not updated -- first step.
 ITU=  0
     Eigenvalues ---    0.00230   0.00230   0.00230   0.00230   0.00736
     Eigenvalues ---    0.01055   0.01058   0.03317   0.04212   0.04740
     Eigenvalues ---    0.04767   0.04854   0.05618   0.05951   0.05961
     Eigenvalues ---    0.06010   0.08501   0.09877   0.09939   0.11210
     Eigenvalues ---    0.12341   0.13712   0.16000   0.16000   0.16000
     Eigenvalues ---    0.16000   0.16000   0.16000   0.16517   0.18091
     Eigenvalues ---    0.21994   0.22051   0.24478   0.24791   0.25000
     Eigenvalues ---    0.25000   0.25000   0.27233   0.27605   0.34437
     Eigenvalues ---    0.34460   0.34482   0.34626   0.34663   0.34723
     Eigenvalues ---    0.34754   0.34782   0.34872   0.35469   0.43955
     Eigenvalues ---    0.44055   0.44056   0.54317   0.82705
 RFO step:  Lambda=-2.91059975D-02 EMin= 2.30000000D-03
 Linear search not attempted -- first point.
 Iteration  1 RMS(Cart)=  0.06751351 RMS(Int)=  0.00339574
 Iteration  2 RMS(Cart)=  0.00342660 RMS(Int)=  0.00020238
 Iteration  3 RMS(Cart)=  0.00002803 RMS(Int)=  0.00020119
 Iteration  4 RMS(Cart)=  0.00000000 RMS(Int)=  0.00020119
 ITry= 1 IFail=0 DXMaxC= 2.45D-01 DCOld= 1.00D+10 DXMaxT= 3.00D-01 DXLimC= 3.00D+00 Rises=F
 Variable       Old X    -DE/DX   Delta X   Delta X   Delta X     New X
                                 (Linear)    (Quad)   (Total)
    R1        3.43442   0.00630   0.00000   0.02276   0.02276   3.45718
    R2        2.05884   0.00459   0.00000   0.01216   0.01216   2.07099
    R3        2.06076   0.00562   0.00000   0.01492   0.01492   2.07568
    R4        2.06126   0.00548   0.00000   0.01455   0.01455   2.07582
    R5        3.44255   0.00678   0.00000   0.02477   0.02477   3.46732
    R6        2.93009  -0.01122   0.00000  -0.03678  -0.03678   2.89331
    R7        2.06226   0.00614   0.00000   0.01634   0.01634   2.07860
    R8        2.06286   0.00598   0.00000   0.01593   0.01593   2.07879
    R9        2.93847  -0.01011   0.00000  -0.03355  -0.03355   2.90492
   R10        2.06525   0.00566   0.00000   0.01513   0.01513   2.08038
   R11        2.06561   0.00649   0.00000   0.01736   0.01736   2.08297
   R12        2.78219   0.02409   0.00000   0.06277   0.06277   2.84497
   R13        2.79331   0.02834   0.00000   0.07519   0.07519   2.86849
   R14        2.06599   0.00344   0.00000   0.00920   0.00920   2.07519
   R15        1.93208   0.00601   0.00000   0.01282   0.01282   1.94490
   R16        1.93088   0.00960   0.00000   0.02044   0.02044   1.95132
   R17        1.93089   0.00734   0.00000   0.01563   0.01563   1.94653
   R18        2.36489   0.00969   0.00000   0.01131   0.01131   2.37620
   R19        2.55744  -0.05788   0.00000  -0.10114  -0.10114   2.45630
    A1        1.90815  -0.00750   0.00000  -0.04284  -0.04279   1.86537
    A2        1.91406   0.00399   0.00000   0.02275   0.02257   1.93664
    A3        1.91682   0.00348   0.00000   0.01995   0.01976   1.93657
    A4        1.90741   0.00026   0.00000  -0.00164  -0.00157   1.90584
    A5        1.90645   0.00043   0.00000  -0.00097  -0.00094   1.90551
    A6        1.91087  -0.00070   0.00000   0.00250   0.00210   1.91297
    A7        1.80427  -0.02089   0.00000  -0.07485  -0.07485   1.72942
    A8        1.93729  -0.00826   0.00000  -0.03332  -0.03330   1.90398
    A9        1.89768   0.00321   0.00000   0.01385   0.01375   1.91144
   A10        1.88525   0.00399   0.00000   0.01991   0.01980   1.90505
   A11        1.92201   0.00154   0.00000   0.00325   0.00330   1.92531
   A12        1.92318   0.00078   0.00000  -0.00027  -0.00018   1.92299
   A13        1.89749  -0.00108   0.00000  -0.00245  -0.00257   1.89492
   A14        1.99586  -0.01335   0.00000  -0.05745  -0.05747   1.93839
   A15        1.89932   0.00497   0.00000   0.01852   0.01778   1.91709
   A16        1.88752   0.00461   0.00000   0.02380   0.02376   1.91128
   A17        1.90624   0.00226   0.00000  -0.00263  -0.00271   1.90353
   A18        1.89147   0.00378   0.00000   0.01482   0.01519   1.90665
   A19        1.88014  -0.00176   0.00000   0.00634   0.00595   1.88609
   A20        1.92501  -0.00399   0.00000  -0.02630  -0.02641   1.89860
   A21        1.96356  -0.00017   0.00000  -0.00809  -0.00837   1.95519
   A22        1.89467   0.00184   0.00000   0.01616   0.01629   1.91096
   A23        1.89735   0.00139   0.00000  -0.00166  -0.00204   1.89530
   A24        1.86984   0.00114   0.00000   0.01166   0.01178   1.88163
   A25        1.91109  -0.00014   0.00000   0.00942   0.00942   1.92051
   A26        1.91354   0.00465   0.00000   0.02301   0.02270   1.93624
   A27        1.92247  -0.00164   0.00000  -0.01086  -0.01079   1.91167
   A28        1.91462   0.00688   0.00000   0.04014   0.03978   1.95441
   A29        1.90486  -0.00309   0.00000  -0.02371  -0.02360   1.88127
   A30        1.90275  -0.00486   0.00000  -0.02134  -0.02203   1.88073
   A31        1.90541  -0.00206   0.00000  -0.00784  -0.00783   1.89758
   A32        2.10741  -0.01133   0.00000  -0.04018  -0.04060   2.06681
   A33        2.10598  -0.03399   0.00000  -0.12140  -0.12182   1.98416
   A34        2.06942   0.04535   0.00000   0.16289   0.16247   2.23189
    D1       -3.13207   0.00004   0.00000   0.00038   0.00035  -3.13172
    D2        1.06009   0.00189   0.00000   0.01479   0.01515   1.07524
    D3       -1.04054  -0.00193   0.00000  -0.01504  -0.01538  -1.05592
    D4        3.11539   0.00000   0.00000   0.00361   0.00356   3.11895
    D5       -1.05102  -0.00117   0.00000  -0.00426  -0.00443  -1.05545
    D6        1.00523   0.00151   0.00000   0.01144   0.01167   1.01690
    D7       -3.12827   0.00042   0.00000   0.00506   0.00502  -3.12325
    D8       -0.99172  -0.00214   0.00000  -0.02413  -0.02432  -1.01604
    D9        1.04606   0.00097   0.00000   0.00639   0.00660   1.05266
   D10        1.05249   0.00075   0.00000   0.00723   0.00718   1.05967
   D11       -3.09414  -0.00181   0.00000  -0.02196  -0.02217  -3.11631
   D12       -1.05636   0.00130   0.00000   0.00856   0.00875  -1.04761
   D13       -1.04063   0.00061   0.00000   0.00838   0.00838  -1.03225
   D14        1.09592  -0.00195   0.00000  -0.02081  -0.02096   1.07496
   D15        3.13370   0.00116   0.00000   0.00971   0.00996  -3.13953
   D16       -3.11467  -0.00074   0.00000  -0.01710  -0.01681  -3.13148
   D17        1.04688   0.00044   0.00000   0.00936   0.00945   1.05633
   D18       -1.07096  -0.00055   0.00000  -0.00844  -0.00829  -1.07925
   D19        1.03574   0.00040   0.00000   0.00085   0.00078   1.03652
   D20       -1.08590   0.00158   0.00000   0.02731   0.02704  -1.05886
   D21        3.07945   0.00060   0.00000   0.00951   0.00929   3.08874
   D22       -1.00800  -0.00087   0.00000  -0.01359  -0.01346  -1.02147
   D23       -3.12964   0.00031   0.00000   0.01287   0.01280  -3.11685
   D24        1.03570  -0.00067   0.00000  -0.00493  -0.00495   1.03076
   D25        3.11302   0.00145   0.00000   0.01315   0.01330   3.12631
   D26       -1.07374  -0.00046   0.00000  -0.00839  -0.00848  -1.08222
   D27        1.02405   0.00032   0.00000   0.00050   0.00025   1.02430
   D28       -1.00970  -0.00044   0.00000  -0.01531  -0.01506  -1.02476
   D29        1.08673  -0.00236   0.00000  -0.03686  -0.03684   1.04990
   D30       -3.09866  -0.00157   0.00000  -0.02796  -0.02810  -3.12677
   D31        1.05398   0.00076   0.00000   0.00135   0.00158   1.05556
   D32       -3.13278  -0.00115   0.00000  -0.02019  -0.02020   3.13021
   D33       -1.03499  -0.00037   0.00000  -0.01130  -0.01146  -1.04645
   D34       -2.04561  -0.00166   0.00000  -0.00926  -0.00928  -2.05489
   D35        1.06614   0.00052   0.00000   0.04563   0.04561   1.11175
   D36        2.10026   0.00254   0.00000   0.03070   0.03073   2.13099
   D37       -1.07118   0.00472   0.00000   0.08560   0.08562  -0.98556
   D38        0.06283   0.00046   0.00000   0.01242   0.01241   0.07525
   D39       -3.10861   0.00264   0.00000   0.06732   0.06730  -3.04131
         Item               Value     Threshold  Converged?
 Maximum Force            0.057881     0.000450     NO 
 RMS     Force            0.010420     0.000300     NO 
 Maximum Displacement     0.245168     0.001800     NO 
 RMS     Displacement     0.067791     0.001200     NO 
 Predicted change in Energy=-1.616386D-02
 Lowest energy point so far.  Saving SCF results.
 GradGradGradGradGradGradGradGradGradGradGradGradGradGradGradGradGradGrad

 Leave Link  103 at Mon Feb 22 21:02:15 2021, MaxMem=   104857600 cpu:               1.1 elap:               0.1
 (Enter /sw/arch/RedHatEnterpriseServer7/EB_production/2019/software/Gaussian/g16.c01/l202.exe)
                          Input orientation:                          
 ---------------------------------------------------------------------
 Center     Atomic      Atomic             Coordinates (Angstroms)
 Number     Number       Type             X           Y           Z
 ---------------------------------------------------------------------
      1          6           0        1.763736    0.082304   -0.025963
      2         16           0        0.086162   -0.022270   -0.748276
      3          6           0       -0.509919    1.664851   -0.342189
      4          6           0       -1.929076    1.839779   -0.889535
      5          6           0       -2.464232    3.250699   -0.596360
      6          7           0       -3.862951    3.361666   -1.142051
      7          6           0       -1.608143    4.328559   -1.236261
      8          8           0       -1.029803    5.156638   -0.487297
      9          8           0       -1.596553    4.283483   -2.535246
     10          1           0        2.250360   -0.882130   -0.210651
     11          1           0        1.714939    0.260746    1.056750
     12          1           0        2.348727    0.879230   -0.504859
     13          1           0       -0.501477    1.804896    0.748775
     14          1           0        0.165640    2.405173   -0.795678
     15          1           0       -1.933150    1.672568   -1.977644
     16          1           0       -2.596553    1.094635   -0.426706
     17          1           0       -2.514179    3.405264    0.489705
     18          1           0       -4.259787    4.291750   -0.950449
     19          1           0       -3.845314    3.231089   -2.166205
     20          1           0       -4.494319    2.659773   -0.730060
 ---------------------------------------------------------------------
                    Distance matrix (angstroms):
                    1          2          3          4          5
     1  C    0.000000
     2  S    1.829460   0.000000
     3  C    2.788182   1.834829   0.000000
     4  C    4.179872   2.747429   1.531076   0.000000
     5  C    5.314113   4.152098   2.529596   1.537218   0.000000
     6  N    6.607531   5.215513   3.842106   2.473818   1.505492
     7  C    5.555634   4.694519   3.016753   2.533228   1.517941
     8  O    5.810813   5.304203   3.533257   3.460063   2.387904
     9  O    5.936156   4.956238   3.584341   2.964899   2.361946
    10  H    1.095922   2.390011   3.758132   5.033622   6.281435
    11  H    1.098403   2.447678   2.979687   4.422692   5.397968
    12  H    1.098475   2.447683   2.969094   4.401162   5.366267
    13  H    2.949361   2.434136   1.099948   2.173319   2.784267
    14  H    2.922686   2.429206   1.100049   2.171707   2.769634
    15  H    4.472691   2.908856   2.168032   1.100890   2.163445
    16  H    4.494166   2.923670   2.164793   1.102260   2.166773
    17  H    5.441372   4.476870   2.781752   2.166885   1.098144
    18  H    7.406547   6.126901   4.618667   3.383502   2.105512
    19  H    6.779154   5.296355   4.111569   2.690279   2.090978
    20  H    6.804583   5.307966   4.125016   2.697832   2.118566
                    6          7          8          9         10
     6  N    0.000000
     7  C    2.455182   0.000000
     8  O    3.417214   1.257433   0.000000
     9  O    2.815545   1.299818   2.297325   0.000000
    10  H    7.499992   6.564389   6.877697   6.847337   0.000000
    11  H    6.750058   5.731306   5.821292   6.328571   1.788616
    12  H    6.719631   5.299966   5.450779   5.592553   1.788469
    13  H    4.159118   3.396168   3.611257   4.257626   3.963989
    14  H    4.155045   2.653269   3.015749   3.107969   3.936327
    15  H    2.697295   2.776611   3.895628   2.690928   5.210614
    16  H    2.693495   3.477154   4.354107   3.951543   5.238973
    17  H    2.117478   2.156927   2.495038   3.280798   6.447719
    18  H    1.029197   2.667257   3.375698   3.099107   8.348553
    19  H    1.032595   2.659732   3.801786   2.510110   7.609205
    20  H    1.030057   3.372107   4.277399   3.780500   7.635808
                   11         12         13         14         15
    11  H    0.000000
    12  H    1.795224   0.000000
    13  H    2.718776   3.248402   0.000000
    14  H    3.229610   2.679356   1.786257   0.000000
    15  H    4.950691   4.597059   3.082298   2.517673   0.000000
    16  H    4.635188   4.950586   2.505109   3.079507   1.783121
    17  H    5.300469   5.569368   2.584428   3.135893   3.070447
    18  H    7.481656   7.450926   4.816295   4.813266   3.650820
    19  H    7.080027   6.830627   4.659655   4.318360   2.474048
    20  H    6.892235   7.074485   4.342875   4.667371   3.015067
                   16         17         18         19         20
    16  H    0.000000
    17  H    2.487087   0.000000
    18  H    3.641731   2.430442   0.000000
    19  H    3.024847   2.975923   1.665789   0.000000
    20  H    2.478548   2.442240   1.663408   1.676343   0.000000
 Stoichiometry    C5H11NO2S
 Framework group  C1[X(C5H11NO2S)]
 Deg. of freedom    54
 Full point group                 C1      NOp   1
 RotChk:  IX=0 Diff= 7.15D-02
 Largest Abelian subgroup         C1      NOp   1
 Largest concise Abelian subgroup C1      NOp   1
                         Standard orientation:                         
 ---------------------------------------------------------------------
 Center     Atomic      Atomic             Coordinates (Angstroms)
 Number     Number       Type             X           Y           Z
 ---------------------------------------------------------------------
      1          6           0       -3.645199    0.824159   -0.185194
      2         16           0       -2.562753   -0.566488    0.306067
      3          6           0       -0.968539    0.061189   -0.350515
      4          6           0        0.138214   -0.945427   -0.024914
      5          6           0        1.501966   -0.450712   -0.533319
      6          7           0        2.546770   -1.482088   -0.199918
      7          6           0        1.902761    0.867618    0.103481
      8          8           0        2.052507    1.870398   -0.640257
      9          8           0        2.078261    0.794345    1.389311
     10          1           0       -4.655044    0.579873    0.163492
     11          1           0       -3.659300    0.944449   -1.276899
     12          1           0       -3.318115    1.761628    0.284716
     13          1           0       -1.048969    0.201615   -1.438494
     14          1           0       -0.745291    1.033663    0.112696
     15          1           0        0.194650   -1.099608    1.063664
     16          1           0       -0.095308   -1.914340   -0.495713
     17          1           0        1.469733   -0.346327   -1.626015
     18          1           0        3.473399   -1.190035   -0.539494
     19          1           0        2.607084   -1.593623    0.824862
     20          1           0        2.332449   -2.397783   -0.620139
 ---------------------------------------------------------------------
 Rotational constants (GHZ):           2.3834908           0.6237018           0.5546807
 Leave Link  202 at Mon Feb 22 21:02:15 2021, MaxMem=   104857600 cpu:               0.8 elap:               0.1
 (Enter /sw/arch/RedHatEnterpriseServer7/EB_production/2019/software/Gaussian/g16.c01/l301.exe)
 Standard basis: TZVP (5D, 7F)
 Ernie: Thresh=  0.10000D-02 Tol=  0.10000D-05 Strict=F.
 There are   249 symmetry adapted cartesian basis functions of A   symmetry.
 There are   240 symmetry adapted basis functions of A   symmetry.
   240 basis functions,   415 primitive gaussians,   249 cartesian basis functions
    40 alpha electrons       40 beta electrons
       nuclear repulsion energy       539.0880688749 Hartrees.
 IExCor=  404 DFT=T Ex=B Corr=P86 ExCW=0 ScaHFX=  0.000000
 ScaDFX=  1.000000  1.000000  1.000000  1.000000 ScalE2=  1.000000  1.000000
 IRadAn=      5 IRanWt=     -1 IRanGd=            0 ICorTp=0 IEmpDi=131
 NAtoms=   20 NActive=   20 NUniq=   20 SFac= 1.00D+00 NAtFMM=   60 NAOKFM=F Big=F
 Integral buffers will be    131072 words long.
 Raffenetti 2 integral format.
 Two-electron integral symmetry is turned on.
 R6Disp:  Grimme-D3 Dispersion energy=       -0.0195858276 Hartrees.
 Nuclear repulsion after empirical dispersion term =      539.0684830472 Hartrees.
 ------------------------------------------------------------------------------
 Polarizable Continuum Model (PCM)
 =================================
 Model                : PCM.
 Atomic radii         : UFF (Universal Force Field).
 Polarization charges : Total charges.
[...]
    8   O      8    1.7200  1.000      1.385918      1.929784     -0.187649
    9   O      9    1.7200  1.000      3.114095      0.740512      0.702207
   10   H     10    1.3000  1.000     -4.751591      0.540024      0.162187
   11   H     11    1.3000  1.000     -3.767841      0.757940     -1.317518
   12   H     12    1.3000  1.000     -3.427285      1.745131      0.147496
   13   H     13    1.3000  1.000     -1.157483      0.007074     -1.447968
   14   H     14    1.3000  1.000     -0.865094      1.066437     -0.041584
   15   H     15    1.3000  1.000      0.190426     -0.859164      1.190392
   16   H     16    1.3000  1.000     -0.118918     -1.913006     -0.209128
   17   H     17    1.3000  1.000      1.359980     -0.386900     -1.621232
   18   H     18    1.3000  1.000      2.989437     -1.857112     -1.035404
   19   H     19    1.3000  1.000      3.178106     -0.844608      0.370363
   20   H     20    1.3000  1.000      2.177240     -2.278504      0.357958
 ------------------------------------------------------------------------------
 One-electron integrals computed using PRISM.
 PrsmSu:  requested number of processors reduced to:  28 ShMem   1 Linda.
 NBasis=   240 RedAO= T EigKep=  1.78D-04  NBF=   240
 NBsUse=   240 1.00D-06 EigRej= -1.00D+00 NBFU=   240
 Initial guess from the checkpoint file:  "FFEARJCKVFRZRR-BYPYZUCNSA-N.chk"
 B after Tr=    -0.000000   -0.000000    0.000000
         Rot=    1.000000    0.000000    0.000000    0.000000 Ang=   0.00 deg.
 Requested convergence on RMS density matrix=1.00D-08 within 128 cycles.
 Requested convergence on MAX density matrix=1.00D-06.
 Requested convergence on             energy=1.00D-06.
 No special actions if energy rises.
 Inv3:  Mode=1 IEnd=     5796300.
 Iteration    1 A*A^-1 deviation from unit magnitude is 3.33D-15 for    986.
 Iteration    1 A*A^-1 deviation from orthogonality  is 2.63D-15 for   1025    758.
 Iteration    1 A^-1*A deviation from unit magnitude is 3.33D-15 for    986.
 Iteration    1 A^-1*A deviation from orthogonality  is 1.67D-15 for    759    495.
 Error on nuclear    polarization charges =  0.02093
 Error on electronic polarization charges = -0.05331
 SCF Done:  E(RB-P86) =  -800.786536355     A.U. after   12 cycles
            NFock= 12  Conv=0.19D-08     -V/T= 2.0041
 --------------------------------------------------------------------
 Variational C-PCM results
 =========================
 <psi(f)|   H    |psi(f)>                     (a.u.) =    -800.719841
 <psi(f)|H+V(f)/2|psi(f)>                     (a.u.) =    -800.786536
 Total free energy in solution:
 - with all non electrostatic terms           (a.u.) =    -800.774327
 --------------------------------------------------------------------
 (Polarized solute)-Solvent               (kcal/mol) =     -41.85
 --------------------------------------------------------------------
 Cavitation energy                        (kcal/mol) =      24.58
 Dispersion energy                        (kcal/mol) =     -18.43
 Repulsion energy                         (kcal/mol) =       1.51
 Total non electrostatic                  (kcal/mol) =       7.66
 --------------------------------------------------------------------
 Partition over spheres:
 Sphere  on Atom  Surface  Charge   GEl     GCav    GDR
    1      C1      18.02  -0.003   -0.05    2.12   -1.31
    2      S2      29.69   0.206   -1.86    3.40   -2.61
    3      C3       7.56  -0.005   -0.14    0.89   -0.21
    4      C4       6.79  -0.032   -0.72    0.80   -0.20
    5      C5       4.90  -0.042   -1.06    0.58   -0.12
    6      N6      10.18  -0.140   -4.67    1.23   -0.72
    7      C7      10.83   0.043   -1.54    1.27   -0.64
    8      O8      18.22   0.319  -10.31    2.26   -1.62
    9      O9      17.50   0.264   -6.68    2.17   -1.73
   10      H10      6.51  -0.040   -0.26    0.92   -0.76
   11      H11      6.52  -0.034   -0.25    0.92   -0.73
   12      H12      6.52  -0.034   -0.09    0.92   -0.73
   13      H13      6.55  -0.032   -0.33    0.92   -0.75
   14      H14      4.92  -0.017    0.10    0.70   -0.26
   15      H15      6.57  -0.035   -0.31    0.93   -0.73
   16      H16      6.56  -0.039   -0.82    0.93   -0.75
   17      H17      6.51  -0.053   -1.02    0.92   -0.79
   18      H18      8.14  -0.148   -5.85    1.15   -1.08
   19      H19      3.64  -0.043   -0.75    0.51   -0.32
   20      H20      7.40  -0.135   -5.25    1.04   -0.86
 --------------------------------------------------------------------
 - cavitation energy not included in the total energy.
 - dispersion energy not included in the total energy.
 - repulsion  energy not included in the total energy.
 After PCM corrections, the energy is  -800.786536355     a.u.
 --------------------------------------------------------------------
 Writing COSMO formatted file "FFEARJCKVFRZRR-BYPYZUCNSA-N.cosmo"
 Recomputed dielectric energy= -0.066838 old= -0.066696 diff=-1.42D-04

 **********************************************************************

            Population analysis using the SCF Density.

 **********************************************************************

 Orbital symmetries:
       Occupied  (A) (A) (A) (A) (A) (A) (A) (A) (A) (A) (A) (A)
                 (A) (A) (A) (A) (A) (A) (A) (A) (A) (A) (A) (A)
                 (A) (A) (A) (A) (A) (A) (A) (A) (A) (A) (A) (A)
                 (A) (A) (A) (A)
       Virtual   (A) (A) (A) (A) (A) (A) (A) (A) (A) (A) (A) (A)
                 (A) (A) (A) (A) (A) (A) (A) (A) (A) (A) (A) (A)
                 (A) (A) (A) (A) (A) (A) (A) (A) (A) (A) (A) (A)
                 (A) (A) (A) (A) (A) (A) (A) (A) (A) (A) (A) (A)
                 (A) (A) (A) (A) (A) (A) (A) (A) (A) (A) (A) (A)
                 (A) (A) (A) (A) (A) (A) (A) (A) (A) (A) (A) (A)
                 (A) (A) (A) (A) (A) (A) (A) (A) (A) (A) (A) (A)
                 (A) (A) (A) (A) (A) (A) (A) (A) (A) (A) (A) (A)
                 (A) (A) (A) (A) (A) (A) (A) (A) (A) (A) (A) (A)
                 (A) (A) (A) (A) (A) (A) (A) (A) (A) (A) (A) (A)
                 (A) (A) (A) (A) (A) (A) (A) (A) (A) (A) (A) (A)
                 (A) (A) (A) (A) (A) (A) (A) (A) (A) (A) (A) (A)
                 (A) (A) (A) (A) (A) (A) (A) (A) (A) (A) (A) (A)
                 (A) (A) (A) (A) (A) (A) (A) (A) (A) (A) (A) (A)
                 (A) (A) (A) (A) (A) (A) (A) (A) (A) (A) (A) (A)
                 (A) (A) (A) (A) (A) (A) (A) (A) (A) (A) (A) (A)
                 (A) (A) (A) (A) (A) (A) (A) (A)
 The electronic state is 1-A.
 Alpha  occ. eigenvalues --  -88.12758 -18.74274 -18.73256 -14.08116  -9.99728
 Alpha  occ. eigenvalues --   -9.95770  -9.92468  -9.91677  -9.91539  -7.68028
 Alpha  occ. eigenvalues --   -5.70458  -5.70059  -5.69220  -0.96640  -0.89763
 Alpha  occ. eigenvalues --   -0.87257  -0.74450  -0.69863  -0.63613  -0.57748
 Alpha  occ. eigenvalues --   -0.53543  -0.51296  -0.49037  -0.47185  -0.43733
 Alpha  occ. eigenvalues --   -0.42421  -0.39304  -0.38321  -0.37708  -0.37282
 Alpha  occ. eigenvalues --   -0.36274  -0.35741  -0.33143  -0.31824  -0.31178
 Alpha  occ. eigenvalues --   -0.28264  -0.24436  -0.23642  -0.21434  -0.19461
 Alpha virt. eigenvalues --   -0.01611  -0.00667   0.01561   0.02785   0.03568
 Alpha virt. eigenvalues --    0.05319   0.06586   0.07411   0.08503   0.09169
 Alpha virt. eigenvalues --    0.10202   0.10559   0.11290   0.11890   0.12562
 Alpha virt. eigenvalues --    0.14673   0.15827   0.16384   0.17533   0.20181
 Alpha virt. eigenvalues --    0.20771   0.21320   0.21915   0.23033   0.24586
 Alpha virt. eigenvalues --    0.24973   0.26044   0.26438   0.27833   0.28144
 Alpha virt. eigenvalues --    0.29344   0.31469   0.32119   0.34541   0.35010
 Alpha virt. eigenvalues --    0.36388   0.37153   0.37717   0.38551   0.39091
 Alpha virt. eigenvalues --    0.40232   0.40701   0.41739   0.42198   0.42717
 Alpha virt. eigenvalues --    0.43486   0.44353   0.44889   0.45248   0.46416
 Alpha virt. eigenvalues --    0.47987   0.48539   0.48708   0.50987   0.51319
 Alpha virt. eigenvalues --    0.54441   0.55488   0.56968   0.59575   0.61856
 Alpha virt. eigenvalues --    0.63000   0.64448   0.66432   0.68457   0.71976
 Alpha virt. eigenvalues --    0.73236   0.76127   0.79327   0.81405   0.86639
 Alpha virt. eigenvalues --    0.90986   0.97023   1.07476   1.08992   1.14745
 Alpha virt. eigenvalues --    1.17538   1.21186   1.21873   1.24098   1.25721
 Alpha virt. eigenvalues --    1.25996   1.26928   1.28593   1.29672   1.30723
 Alpha virt. eigenvalues --    1.32004   1.34020   1.34629   1.35153   1.37061
 Alpha virt. eigenvalues --    1.39733   1.43257   1.43993   1.45473   1.45790
 Alpha virt. eigenvalues --    1.45946   1.48486   1.50120   1.53468   1.53962
 Alpha virt. eigenvalues --    1.55906   1.57233   1.59815   1.61717   1.62896
 Alpha virt. eigenvalues --    1.64393   1.64975   1.67675   1.70662   1.72474
 Alpha virt. eigenvalues --    1.72796   1.74561   1.75810   1.76283   1.77910
 Alpha virt. eigenvalues --    1.78789   1.80641   1.83281   1.84310   1.86596
 Alpha virt. eigenvalues --    1.86899   1.87558   1.88854   1.90960   1.95061
 Alpha virt. eigenvalues --    1.98826   2.01622   2.03988   2.05677   2.09452
 Alpha virt. eigenvalues --    2.12247   2.16701   2.20573   2.21440   2.24100
 Alpha virt. eigenvalues --    2.27098   2.28229   2.32691   2.34363   2.35550
 Alpha virt. eigenvalues --    2.37228   2.40018   2.42250   2.47013   2.47520
 Alpha virt. eigenvalues --    2.48170   2.49814   2.51127   2.52345   2.53113
 Alpha virt. eigenvalues --    2.54057   2.55177   2.56260   2.57796   2.58603
 Alpha virt. eigenvalues --    2.59656   2.60789   2.61608   2.63900   2.65526
 Alpha virt. eigenvalues --    2.66833   2.69084   2.69862   2.70373   2.73563
 Alpha virt. eigenvalues --    2.75571   2.80857   2.81913   2.92479   2.92918
 Alpha virt. eigenvalues --    2.96013   2.97030   3.04988   3.07154   3.09964
 Alpha virt. eigenvalues --    3.14125   3.17176   3.19384   3.19643   3.21609
 Alpha virt. eigenvalues --    3.23138   3.25132   3.30703   3.32941   3.35151
 Alpha virt. eigenvalues --    3.42021   3.63279   3.78087   3.81493   4.01653
 Alpha virt. eigenvalues --    4.12154  18.50378  21.64527  21.70299  21.74075
 Alpha virt. eigenvalues --   21.80100  21.83594  31.41295  43.09161  43.21462
          Condensed to atoms (all electrons):
               1          2          3          4          5          6
     1  C    5.065262   0.245726  -0.060140   0.009342  -0.001059   0.000016
     2  S    0.245726  15.841489   0.269502  -0.070840   0.008383  -0.000174
     3  C   -0.060140   0.269502   5.309282   0.029229   0.028924   0.010753
     4  C    0.009342  -0.070840   0.029229   5.820938  -0.140664   0.012460
     5  C   -0.001059   0.008383   0.028924  -0.140664   6.538155   0.017160
     6  N    0.000016  -0.000174   0.010753   0.012460   0.017160   6.353339
     7  C   -0.000060   0.001436   0.011027  -0.022311  -0.077016   0.002160
     8  O   -0.000009   0.001051  -0.011263   0.030544  -0.231005   0.009054
     9  O   -0.000000  -0.000003   0.003306  -0.018417  -0.225804  -0.058912
    10  H    0.376432  -0.019054   0.004424  -0.000100   0.000023  -0.000000
    11  H    0.404969  -0.049417  -0.000414  -0.000615   0.000083   0.000001
    12  H    0.406595  -0.050087  -0.000177  -0.000864   0.000057  -0.000001
    13  H    0.000947  -0.052524   0.418950  -0.052538   0.004627  -0.000109
    14  H    0.001660  -0.045459   0.405272  -0.022847  -0.011518   0.000243
    15  H   -0.000126   0.007860  -0.012390   0.329050  -0.003551  -0.004747
    16  H    0.000126   0.007999  -0.029899   0.422708  -0.054461  -0.001902
    17  H   -0.000026  -0.000040   0.002721  -0.056888   0.400136  -0.034252
    18  H   -0.000000   0.000003  -0.000382   0.000992  -0.006860   0.338178
    19  H   -0.000001   0.000008  -0.000456   0.004776  -0.061808   0.290469
    20  H    0.000002  -0.000096   0.000009  -0.000790  -0.021093   0.344547
               7          8          9         10         11         12
     1  C   -0.000060  -0.000009  -0.000000   0.376432   0.404969   0.406595
     2  S    0.001436   0.001051  -0.000003  -0.019054  -0.049417  -0.050087
     3  C    0.011027  -0.011263   0.003306   0.004424  -0.000414  -0.000177
     4  C   -0.022311   0.030544  -0.018417  -0.000100  -0.000615  -0.000864
     5  C   -0.077016  -0.231005  -0.225804   0.000023   0.000083   0.000057
     6  N    0.002160   0.009054  -0.058912  -0.000000   0.000001  -0.000001
     7  C    4.829707   0.598277   0.489849   0.000001   0.000007  -0.000011
     8  O    0.598277   8.141471  -0.106613  -0.000001   0.000008  -0.000030
     9  O    0.489849  -0.106613   8.266247   0.000000  -0.000000   0.000000
    10  H    0.000001  -0.000001   0.000000   0.510105  -0.021932  -0.021112
    11  H    0.000007   0.000008  -0.000000  -0.021932   0.524930  -0.033396
    12  H   -0.000011  -0.000030   0.000000  -0.021112  -0.033396   0.521411
    13  H   -0.001983  -0.001308  -0.000046  -0.000122   0.005340  -0.001795
    14  H   -0.001982   0.019718  -0.000152  -0.000030  -0.001983   0.004734
    15  H    0.002219  -0.003512   0.006645  -0.000004   0.000066  -0.000014
    16  H    0.002120  -0.000302  -0.000735  -0.000014  -0.000035   0.000080
    17  H   -0.004256   0.006138   0.004635   0.000001  -0.000023   0.000010
    18  H    0.003041   0.000000   0.002346   0.000000   0.000000  -0.000000
    19  H   -0.013466   0.004617   0.109394   0.000000  -0.000000   0.000000
    20  H    0.002101  -0.000224   0.001661  -0.000000  -0.000000  -0.000000
              13         14         15         16         17         18
     1  C    0.000947   0.001660  -0.000126   0.000126  -0.000026  -0.000000
     2  S   -0.052524  -0.045459   0.007860   0.007999  -0.000040   0.000003
     3  C    0.418950   0.405272  -0.012390  -0.029899   0.002721  -0.000382
     4  C   -0.052538  -0.022847   0.329050   0.422708  -0.056888   0.000992
     5  C    0.004627  -0.011518  -0.003551  -0.054461   0.400136  -0.006860
     6  N   -0.000109   0.000243  -0.004747  -0.001902  -0.034252   0.338178
     7  C   -0.001983  -0.001982   0.002219   0.002120  -0.004256   0.003041
     8  O   -0.001308   0.019718  -0.003512  -0.000302   0.006138   0.000000
     9  O   -0.000046  -0.000152   0.006645  -0.000735   0.004635   0.002346
    10  H   -0.000122  -0.000030  -0.000004  -0.000014   0.000001   0.000000
    11  H    0.005340  -0.001983   0.000066  -0.000035  -0.000023   0.000000
    12  H   -0.001795   0.004734  -0.000014   0.000080   0.000010  -0.000000
    13  H    0.517088  -0.026473   0.007008  -0.004812   0.001623   0.000041
    14  H   -0.026473   0.498659  -0.007809   0.006674  -0.000856  -0.000024
    15  H    0.007008  -0.007809   0.540549  -0.028793   0.007412   0.000024
    16  H   -0.004812   0.006674  -0.028793   0.503581  -0.005088   0.000196
    17  H    0.001623  -0.000856   0.007412  -0.005088   0.456675  -0.003518
    18  H    0.000041  -0.000024   0.000024   0.000196  -0.003518   0.354716
    19  H   -0.000022  -0.000065   0.001012  -0.000309   0.004357  -0.004402
    20  H    0.000051   0.000010   0.001153   0.000802   0.001549  -0.010622
              19         20
     1  C   -0.000001   0.000002
     2  S    0.000008  -0.000096
     3  C   -0.000456   0.000009
     4  C    0.004776  -0.000790
     5  C   -0.061808  -0.021093
     6  N    0.290469   0.344547
     7  C   -0.013466   0.002101
     8  O    0.004617  -0.000224
     9  O    0.109394   0.001661
    10  H    0.000000  -0.000000
    11  H   -0.000000  -0.000000
    12  H    0.000000  -0.000000
    13  H   -0.000022   0.000051
    14  H   -0.000065   0.000010
    15  H    0.001012   0.001153
    16  H   -0.000309   0.000802
    17  H    0.004357   0.001549
    18  H   -0.004402  -0.010622
    19  H    0.379781  -0.005643
    20  H   -0.005643   0.362268
 Mulliken charges:
               1
     1  C   -0.449657
     2  S   -0.095763
     3  C   -0.378279
     4  C   -0.273162
     5  C   -0.162708
     6  N   -0.278283
     7  C    0.179141
     8  O   -0.456609
     9  O   -0.473402
    10  H    0.171383
    11  H    0.172411
    12  H    0.174600
    13  H    0.186056
    14  H    0.182228
    15  H    0.157948
    16  H    0.182065
    17  H    0.219689
    18  H    0.326271
    19  H    0.291758
    20  H    0.324315
 Sum of Mulliken charges =  -0.00000
 Mulliken charges with hydrogens summed into heavy atoms:
               1
     1  C    0.068736
     2  S   -0.095763
     3  C   -0.009995
     4  C    0.066851
     5  C    0.056982
     6  N    0.664059
     7  C    0.179141
     8  O   -0.456609
     9  O   -0.473402
 Electronic spatial extent (au):  <R**2>=           2136.5853
 Charge=             -0.0000 electrons
 Dipole moment (field-independent basis, Debye):
    X=              0.4837    Y=            -10.4672    Z=             -3.8706  Tot=             11.1704
 Quadrupole moment (field-independent basis, Debye-Ang):
   XX=            -61.6950   YY=            -64.5367   ZZ=            -62.0411
   XY=            -32.3446   XZ=             -5.7379   YZ=              0.8280
 Traceless Quadrupole moment (field-independent basis, Debye-Ang):
   XX=              1.0626   YY=             -1.7791   ZZ=              0.7165
   XY=            -32.3446   XZ=             -5.7379   YZ=              0.8280
 Octapole moment (field-independent basis, Debye-Ang**2):
  XXX=            -15.3939  YYY=            -50.8356  ZZZ=            -10.9677  XYY=             16.7091
  XXY=            -50.4822  XXZ=            -35.3885  XZZ=             11.2626  YZZ=             -7.1178
  YYZ=             -0.9157  XYZ=              0.5010
 Hexadecapole moment (field-independent basis, Debye-Ang**3):
 XXXX=          -2089.2383 YYYY=           -457.2601 ZZZZ=           -149.2341 XXXY=           -257.3425
 XXXZ=            -85.6160 YYYX=           -124.2721 YYYZ=              7.9321 ZZZX=             -1.5011
 ZZZY=              4.9299 XXYY=           -418.4097 XXZZ=           -391.5432 YYZZ=            -98.7295
 XXYZ=             -0.6131 YYXZ=            -12.8629 ZZXY=            -24.8376
 N-N= 5.364210169692D+02 E-N=-2.960189858865D+03  KE= 7.975544636260D+02
 Unable to Open any file for archive entry.
 1\1\GINC-TCN1787\SP\RBP86\TZVP\C5H11N1O2S1\ELENAA\22-Feb-2021\0\\# BP8
 6/TZVP SCRF=COSMORS geom=CHECKPOINT guess=CHECKPOINT\\COSMO-file for #
 FFEARJCKVFRZRR-BYPYZUCNSA-N\\0,1\C,0,1.7688659394,0.044614838,0.108842
 2329\S,0,0.0852784243,-0.08587136,-0.6154206571\C,0,-0.4867499288,1.64
 5513846,-0.3020972365\C,0,-1.8818228587,1.84115028,-0.8985182854\C,0,-
 2.4372814302,3.2521574273,-0.649677457\N,0,-3.8812047398,3.3405557616,
 -1.0995027996\C,0,-1.7113670204,4.3755639205,-1.4800686581\O,0,-0.5104
 031709,4.5989496404,-1.2210383397\O,0,-2.4591791795,4.9414721653,-2.35
 14186787\H,0,2.2469733972,-0.9367919463,-0.0064300753\H,0,1.7135256354
 ,0.2960452942,1.1769222438\H,0,2.362057983,0.800752864,-0.4235358225\H
 ,0,-0.5051407184,1.8188267382,0.7852011976\H,0,0.2260728095,2.34632293
 93,-0.7551662967\H,0,-1.8574606625,1.6477979368,-1.9843018732\H,0,-2.5
 733906892,1.1093345155,-0.4472809123\H,0,-2.3901597962,3.5025453898,0.
 4182519654\H,0,-4.5154209146,3.67244877,-0.3654849827\H,0,-3.756248734
 1,4.093585848,-1.8765247317\H,0,-4.2528343455,2.4637251312,-1.48295083
 33\\Version=ES64L-G16RevC.01\State=1-A\HF=-800.7865364\RMSD=1.889e-09\
 Dipole=-3.4253958,-2.0230747,1.867539\Quadrupole=23.246443,-20.8374255
 ,-2.4090176,-6.7699298,-0.0815492,7.8833317\PG=C01 [X(C5H11N1O2S1)]\\@
 The archive entry for this job was punched.


 PERICLES, SOPHOCLES,
 PELOPONESIAN WAR,
 FRENCH VERBS, LATIN VERBS
 H2SO4.
 Job cpu time:       0 days  0 hours  6 minutes  3.5 seconds.
 Elapsed time:       0 days  0 hours  0 minutes 11.9 seconds.
 File lengths (MBytes):  RWF=     52 Int=      0 D2E=      0 Chk=      9 Scr=      1
 Normal termination of Gaussian 16 at Mon Feb 22 21:06:41 2021.
