 Entering Gaussian System, Link 0=g16
 Input=FJKROLUGYXJWQN-UHFFFAOYSA-N.gjf
 Output=FJKROLUGYXJWQN-UHFFFAOYSA-N.log
 Initial command:
 /sw/arch/RedHatEnterpriseServer7/EB_production/2019/software/Gaussian/g16.c01/l1.exe "/scratch-local/elenaa.9715206/Gau-17870.inp" -scrdir="/scratch-local/elenaa.9715206/"
 Entering Link 1 = /sw/arch/RedHatEnterpriseServer7/EB_production/2019/software/Gaussian/g16.c01/l1.exe PID=     17871.
  
 Copyright (c) 1988-2019, Gaussian, Inc.  All Rights Reserved.
  
 This is part of the Gaussian(R) 16 program.  It is based on
 the Gaussian(R) 09 system (copyright 2009, Gaussian, Inc.),
 the Gaussian(R) 03 system (copyright 2003, Gaussian, Inc.),
 the Gaussian(R) 98 system (copyright 1998, Gaussian, Inc.),
 the Gaussian(R) 94 system (copyright 1995, Gaussian, Inc.),
 the Gaussian 92(TM) system (copyright 1992, Gaussian, Inc.),
 the Gaussian 90(TM) system (copyright 1990, Gaussian, Inc.),
 the Gaussian 88(TM) system (copyright 1988, Gaussian, Inc.),
 the Gaussian 86(TM) system (copyright 1986, Carnegie Mellon
 University), and the Gaussian 82(TM) system (copyright 1983,
 Carnegie Mellon University). Gaussian is a federally registered
 trademark of Gaussian, Inc.
  
 This software contains proprietary and confidential information,
 including trade secrets, belonging to Gaussian, Inc.
  
 This software is provided under written license and may be
 used, copied, transmitted, or stored only in accord with that
 written license.
  
 The following legend is applicable only to US Government
 contracts under FAR:
  
                    RESTRICTED RIGHTS LEGEND
  
 Use, reproduction and disclosure by the US Government is
 subject to restrictions as set forth in subparagraphs (a)
 and (c) of the Commercial Computer Software - Restricted
 Rights clause in FAR 52.227-19.
  
 Gaussian, Inc.
 340 Quinnipiac St., Bldg. 40, Wallingford CT 06492
  
  
 ---------------------------------------------------------------
 Warning -- This program may not be used in any manner that
 competes with the business of Gaussian, Inc. or will provide
 assistance to any competitor of Gaussian, Inc.  The licensee
 of this program is prohibited from giving any competitor of
 Gaussian, Inc. access to this program.  By using this program,
 the user acknowledges that Gaussian, Inc. is engaged in the
 business of creating and licensing software in the field of
 computational chemistry and represents and warrants to the
 licensee that it is not a competitor of Gaussian, Inc. and that
 it will not use this program in any manner prohibited above.
 ---------------------------------------------------------------
  

 Cite this work as:
 Gaussian 16, Revision C.01,
 M. J. Frisch, G. W. Trucks, H. B. Schlegel, G. E. Scuseria, 
 M. A. Robb, J. R. Cheeseman, G. Scalmani, V. Barone, 
 G. A. Petersson, H. Nakatsuji, X. Li, M. Caricato, A. V. Marenich, 
 J. Bloino, B. G. Janesko, R. Gomperts, B. Mennucci, H. P. Hratchian, 
 J. V. Ortiz, A. F. Izmaylov, J. L. Sonnenberg, D. Williams-Young, 
 F. Ding, F. Lipparini, F. Egidi, J. Goings, B. Peng, A. Petrone, 
 T. Henderson, D. Ranasinghe, V. G. Zakrzewski, J. Gao, N. Rega, 
 G. Zheng, W. Liang, M. Hada, M. Ehara, K. Toyota, R. Fukuda, 
 J. Hasegawa, M. Ishida, T. Nakajima, Y. Honda, O. Kitao, H. Nakai, 
 T. Vreven, K. Throssell, J. A. Montgomery, Jr., J. E. Peralta, 
 F. Ogliaro, M. J. Bearpark, J. J. Heyd, E. N. Brothers, K. N. Kudin, 
 V. N. Staroverov, T. A. Keith, R. Kobayashi, J. Normand, 
 K. Raghavachari, A. P. Rendell, J. C. Burant, S. S. Iyengar, 
 J. Tomasi, M. Cossi, J. M. Millam, M. Klene, C. Adamo, R. Cammi, 
 J. W. Ochterski, R. L. Martin, K. Morokuma, O. Farkas, 
 J. B. Foresman, and D. J. Fox, Gaussian, Inc., Wallingford CT, 2019.
 
 ******************************************
 Gaussian 16:  ES64L-G16RevC.01  3-Jul-2019
                22-Feb-2021 
 ******************************************
 %chk=FJKROLUGYXJWQN-UHFFFAOYSA-N.chk
 %NProcShared=32
 Will use up to   32 processors via shared memory.
 -------------------------------------------------------------
 #P BP86/TZVP EmpiricalDispersion=GD3 SCRF=(Solvent=Water) Opt
 -------------------------------------------------------------
 1/18=20,19=15,26=3,38=1/1,3;
 2/9=110,12=2,17=6,18=5,40=1/2;
 3/5=19,7=101,11=2,25=1,30=1,70=2201,71=1,72=1,74=404,124=31/1,2,3;
 4//1;
 5/5=2,38=5,53=1/2;
 6/7=2,8=2,9=2,10=2,28=1/1;
 7//1,2,3,16;
 1/18=20,19=15,26=3/3(2);
 2/9=110/2;
 99//99;
 2/9=110/2;
 3/5=19,7=101,11=2,25=1,30=1,70=2205,71=1,72=1,74=404,124=31/1,2,3;
 4/5=5,16=3,69=1/1;
 5/5=2,38=5,53=1/2;
 7//1,2,3,16;
 1/18=20,19=15,26=3/3(-5);
 2/9=110/2;
 6/7=2,8=2,9=2,10=2,19=2,28=1/1;
 99/9=1/99;
 Leave Link    1 at Mon Feb 22 21:02:01 2021, MaxMem=           0 cpu:               2.2 elap:               0.1
 (Enter /sw/arch/RedHatEnterpriseServer7/EB_production/2019/software/Gaussian/g16.c01/l101.exe)
 -------------------------------------
 Particle #FJKROLUGYXJWQN-UHFFFAOYSA-N
 -------------------------------------
 Symbolic Z-matrix:
 Charge =  0 Multiplicity = 1
 O                     2.80355   4.66775   1.97279 
 C                     1.58722   4.52616   2.23659 
 O                     1.24205   4.6383    3.54276 
 C                     0.62069   4.27255   1.22624 
 C                     0.99432   4.12301  -0.1334 
 C                     0.02787   3.88758  -1.12924 
 C                    -1.33325   3.79654  -0.78709 
 O                    -2.25544   3.58092  -1.75968 
 C                    -1.72013   3.92863   0.55991 
 C                    -0.7533    4.16314   1.55459 
 H                     1.92336   4.82072   4.22239 
 H                     1.97563   4.18256  -0.41595 
 H                     0.31824   3.78245  -2.1042 
 H                    -3.11877   3.51359  -1.30141 
 H                    -2.70602   3.85511   0.82066 
 H                    -1.06945   4.25374   2.52308 
 
 ITRead=  0  0  0  0  0  0  0  0  0  0  0  0  0  0  0  0
 MicOpt= -1 -1 -1 -1 -1 -1 -1 -1 -1 -1 -1 -1 -1 -1 -1 -1
 NAtoms=     16 NQM=       16 NQMF=       0 NMMI=      0 NMMIF=      0
                NMic=       0 NMicF=      0.
                    Isotopes and Nuclear Properties:
 (Nuclear quadrupole moments (NQMom) in fm**2, nuclear magnetic moments (NMagM)
  in nuclear magnetons)

  Atom         1           2           3           4           5           6           7           8           9          10
 IAtWgt=          16          12          16          12          12          12          12          16          12          12
 AtmWgt=  15.9949146  12.0000000  15.9949146  12.0000000  12.0000000  12.0000000  12.0000000  15.9949146  12.0000000  12.0000000
 NucSpn=           0           0           0           0           0           0           0           0           0           0
 AtZEff=  -0.0000000  -0.0000000  -0.0000000  -0.0000000  -0.0000000  -0.0000000  -0.0000000  -0.0000000  -0.0000000  -0.0000000
 NQMom=    0.0000000   0.0000000   0.0000000   0.0000000   0.0000000   0.0000000   0.0000000   0.0000000   0.0000000   0.0000000
 NMagM=    0.0000000   0.0000000   0.0000000   0.0000000   0.0000000   0.0000000   0.0000000   0.0000000   0.0000000   0.0000000
 AtZNuc=   8.0000000   6.0000000   8.0000000   6.0000000   6.0000000   6.0000000   6.0000000   8.0000000   6.0000000   6.0000000

  Atom        11          12          13          14          15          16
 IAtWgt=           1           1           1           1           1           1
 AtmWgt=   1.0078250   1.0078250   1.0078250   1.0078250   1.0078250   1.0078250
 NucSpn=           1           1           1           1           1           1
 AtZEff=  -0.0000000  -0.0000000  -0.0000000  -0.0000000  -0.0000000  -0.0000000
 NQMom=    0.0000000   0.0000000   0.0000000   0.0000000   0.0000000   0.0000000
 NMagM=    2.7928460   2.7928460   2.7928460   2.7928460   2.7928460   2.7928460
 AtZNuc=   1.0000000   1.0000000   1.0000000   1.0000000   1.0000000   1.0000000
 Leave Link  101 at Mon Feb 22 21:02:01 2021, MaxMem=   104857600 cpu:               2.9 elap:               0.1
 (Enter /sw/arch/RedHatEnterpriseServer7/EB_production/2019/software/Gaussian/g16.c01/l103.exe)

 GradGradGradGradGradGradGradGradGradGradGradGradGradGradGradGradGradGrad
 Berny optimization.
 Initialization pass.
                           ----------------------------
                           !    Initial Parameters    !
                           ! (Angstroms and Degrees)  !
 --------------------------                            --------------------------
 ! Name  Definition              Value          Derivative Info.                !
 --------------------------------------------------------------------------------
 ! R1    R(1,2)                  1.2526         estimate D2E/DX2                !
 ! R2    R(2,3)                  1.3557         estimate D2E/DX2                !
 ! R3    R(2,4)                  1.421          estimate D2E/DX2                !
 ! R4    R(3,11)                 0.9795         estimate D2E/DX2                !
 ! R5    R(4,5)                  1.418          estimate D2E/DX2                !
 ! R6    R(4,10)                 1.4169         estimate D2E/DX2                !
 ! R7    R(5,6)                  1.4075         estimate D2E/DX2                !
 ! R8    R(5,12)                 1.0229         estimate D2E/DX2                !
 ! R9    R(6,7)                  1.4064         estimate D2E/DX2                !
 ! R10   R(6,13)                 1.0227         estimate D2E/DX2                !
 ! R11   R(7,8)                  1.3575         estimate D2E/DX2                !
 ! R12   R(7,9)                  1.4077         estimate D2E/DX2                !
 ! R13   R(8,14)                 0.9797         estimate D2E/DX2                !
 ! R14   R(9,10)                 1.4068         estimate D2E/DX2                !
 ! R15   R(9,15)                 1.0224         estimate D2E/DX2                !
 ! R16   R(10,16)                1.0228         estimate D2E/DX2                !
 ! A1    A(1,2,3)              116.1546         estimate D2E/DX2                !
 ! A2    A(1,2,4)              122.0656         estimate D2E/DX2                !
 ! A3    A(3,2,4)              121.7782         estimate D2E/DX2                !
 ! A4    A(2,3,11)             120.454          estimate D2E/DX2                !
 ! A5    A(2,4,5)              121.4236         estimate D2E/DX2                !
 ! A6    A(2,4,10)             120.5692         estimate D2E/DX2                !
 ! A7    A(5,4,10)             118.0072         estimate D2E/DX2                !
 ! A8    A(4,5,6)              121.0059         estimate D2E/DX2                !
 ! A9    A(4,5,12)             120.7642         estimate D2E/DX2                !
 ! A10   A(6,5,12)             118.2299         estimate D2E/DX2                !
 ! A11   A(5,6,7)              120.2132         estimate D2E/DX2                !
 ! A12   A(5,6,13)             119.7835         estimate D2E/DX2                !
 ! A13   A(7,6,13)             120.0032         estimate D2E/DX2                !
 ! A14   A(6,7,8)              119.5661         estimate D2E/DX2                !
 ! A15   A(6,7,9)              119.5185         estimate D2E/DX2                !
 ! A16   A(8,7,9)              120.9153         estimate D2E/DX2                !
 ! A17   A(7,8,14)             105.9266         estimate D2E/DX2                !
 ! A18   A(7,9,10)             120.2205         estimate D2E/DX2                !
 ! A19   A(7,9,15)             120.1525         estimate D2E/DX2                !
 ! A20   A(10,9,15)            119.627          estimate D2E/DX2                !
 ! A21   A(4,10,9)             121.0277         estimate D2E/DX2                !
 ! A22   A(4,10,16)            120.819          estimate D2E/DX2                !
 ! A23   A(9,10,16)            118.1533         estimate D2E/DX2                !
 ! D1    D(1,2,3,11)             0.0505         estimate D2E/DX2                !
 ! D2    D(4,2,3,11)          -179.4919         estimate D2E/DX2                !
 ! D3    D(1,2,4,5)              2.1038         estimate D2E/DX2                !
 ! D4    D(1,2,4,10)          -177.8271         estimate D2E/DX2                !
 ! D5    D(3,2,4,5)           -178.381          estimate D2E/DX2                !
 ! D6    D(3,2,4,10)             1.6882         estimate D2E/DX2                !
 ! D7    D(2,4,5,6)           -179.2469         estimate D2E/DX2                !
 ! D8    D(2,4,5,12)             0.825          estimate D2E/DX2                !
 ! D9    D(10,4,5,6)             0.6857         estimate D2E/DX2                !
 ! D10   D(10,4,5,12)         -179.2424         estimate D2E/DX2                !
 ! D11   D(2,4,10,9)           179.2096         estimate D2E/DX2                !
 ! D12   D(2,4,10,16)           -0.7248         estimate D2E/DX2                !
 ! D13   D(5,4,10,9)            -0.7236         estimate D2E/DX2                !
 ! D14   D(5,4,10,16)          179.342          estimate D2E/DX2                !
 ! D15   D(4,5,6,7)             -0.0013         estimate D2E/DX2                !
 ! D16   D(4,5,6,13)          -179.9887         estimate D2E/DX2                !
 ! D17   D(12,5,6,7)           179.9286         estimate D2E/DX2                !
 ! D18   D(12,5,6,13)           -0.0588         estimate D2E/DX2                !
 ! D19   D(5,6,7,8)            179.4208         estimate D2E/DX2                !
 ! D20   D(5,6,7,9)             -0.6608         estimate D2E/DX2                !
 ! D21   D(13,6,7,8)            -0.5919         estimate D2E/DX2                !
 ! D22   D(13,6,7,9)           179.3265         estimate D2E/DX2                !
 ! D23   D(6,7,8,14)           177.5726         estimate D2E/DX2                !
 ! D24   D(9,7,8,14)            -2.3446         estimate D2E/DX2                !
 ! D25   D(6,7,9,10)             0.6235         estimate D2E/DX2                !
 ! D26   D(6,7,9,15)          -179.4106         estimate D2E/DX2                !
 ! D27   D(8,7,9,10)          -179.4593         estimate D2E/DX2                !
 ! D28   D(8,7,9,15)             0.5067         estimate D2E/DX2                !
 ! D29   D(7,9,10,4)             0.0776         estimate D2E/DX2                !
 ! D30   D(7,9,10,16)         -179.9863         estimate D2E/DX2                !
 ! D31   D(15,9,10,4)         -179.8885         estimate D2E/DX2                !
 ! D32   D(15,9,10,16)           0.0476         estimate D2E/DX2                !
 --------------------------------------------------------------------------------
 Trust Radius=3.00D-01 FncErr=1.00D-07 GrdErr=1.00D-06 EigMax=2.50D+02 EigMin=1.00D-04
 Number of steps in this run=     81 maximum allowed number of steps=    100.
 GradGradGradGradGradGradGradGradGradGradGradGradGradGradGradGradGradGrad

 Leave Link  103 at Mon Feb 22 21:02:01 2021, MaxMem=   104857600 cpu:               0.8 elap:               0.1
 (Enter /sw/arch/RedHatEnterpriseServer7/EB_production/2019/software/Gaussian/g16.c01/l202.exe)
                          Input orientation:                          
 ---------------------------------------------------------------------
 Center     Atomic      Atomic             Coordinates (Angstroms)
 Number     Number       Type             X           Y           Z
 ---------------------------------------------------------------------
      1          8           0        2.803550    4.667750    1.972790
      2          6           0        1.587220    4.526160    2.236590
      3          8           0        1.242050    4.638300    3.542760
      4          6           0        0.620690    4.272550    1.226240
      5          6           0        0.994320    4.123010   -0.133400
      6          6           0        0.027870    3.887580   -1.129240
      7          6           0       -1.333250    3.796540   -0.787090
      8          8           0       -2.255440    3.580920   -1.759680
      9          6           0       -1.720130    3.928630    0.559910
     10          6           0       -0.753300    4.163140    1.554590
     11          1           0        1.923360    4.820720    4.222390
     12          1           0        1.975630    4.182560   -0.415950
     13          1           0        0.318240    3.782450   -2.104200
     14          1           0       -3.118770    3.513590   -1.301410
     15          1           0       -2.706020    3.855110    0.820660
     16          1           0       -1.069450    4.253740    2.523080
 ---------------------------------------------------------------------
                    Distance matrix (angstroms):
                    1          2          3          4          5
     1  O    0.000000
     2  C    1.252636   0.000000
     3  O    2.214488   1.355654   0.000000
     4  C    2.340598   1.421023   2.426134   0.000000
     5  C    2.829504   2.476068   3.720356   1.417950   0.000000
     6  C    4.235051   3.764063   4.885222   2.459253   1.407533
     7  C    5.048669   4.266630   5.107674   2.845692   2.439565
     8  O    6.380118   5.624028   6.439438   4.203117   3.674179
     9  C    4.796479   3.755910   4.263278   2.457990   2.808327
    10  C    3.616726   2.464740   2.856575   1.416910   2.430040
    11  H    2.420503   2.035475   0.979468   3.312756   4.508084
    12  H    2.574284   2.702756   4.051817   2.130903   1.022913
    13  H    4.856168   4.583216   5.785677   3.379868   2.111189
    14  H    6.864863   5.974034   6.614205   4.576964   4.318929
    15  H    5.687104   4.570238   4.859061   3.377240   3.830733
    16  H    3.933745   2.685923   2.555517   2.130427   3.366470
                    6          7          8          9         10
     6  C    0.000000
     7  C    1.406415   0.000000
     8  O    2.388514   1.357519   0.000000
     9  C    2.431135   1.407669   2.405817   0.000000
    10  C    2.808755   2.440124   3.685077   1.406820   0.000000
    11  H    5.753571   6.062124   7.401664   5.242576   3.835893
    12  H    2.095129   3.351931   4.479903   3.830852   3.366075
    13  H    1.022699   2.112439   2.604446   3.357648   3.831431
    14  H    3.173461   1.879539   0.979736   2.364945   3.764851
    15  H    3.358172   2.114897   2.633696   1.022436   2.108708
    16  H    3.831139   3.351992   4.494585   2.093590   1.022806
                   11         12         13         14         15
    11  H    0.000000
    12  H    4.682326   0.000000
    13  H    6.609096   2.399420   0.000000
    14  H    7.592367   5.213873   3.539745   0.000000
    15  H    5.825404   4.853275   4.207878   2.188648   0.000000
    16  H    3.487984   4.232668   4.853815   4.401620   2.394891
                   16
    16  H    0.000000
 Stoichiometry    C7H6O3
 Framework group  C1[X(C7H6O3)]
 Deg. of freedom    42
 Full point group                 C1      NOp   1
 Largest Abelian subgroup         C1      NOp   1
 Largest concise Abelian subgroup C1      NOp   1
                         Standard orientation:                         
 ---------------------------------------------------------------------
 Center     Atomic      Atomic             Coordinates (Angstroms)
 Number     Number       Type             X           Y           Z
 ---------------------------------------------------------------------
      1          8           0        2.768838    1.133965    0.037149
      2          6           0        2.114201    0.066585    0.001818
      3          8           0        2.839225   -1.078756   -0.016385
      4          6           0        0.693280    0.053050   -0.008483
      5          6           0       -0.057387    1.255903   -0.023485
      6          6           0       -1.464713    1.232416   -0.017749
      7          6           0       -2.151992    0.005544    0.003087
      8          8           0       -3.509382   -0.001632    0.020328
      9          6           0       -1.422329   -1.198252    0.004026
     10          6           0       -0.015738   -1.173690   -0.002511
     11          1           0        3.818061   -1.046971   -0.001343
     12          1           0        0.411294    2.164979   -0.039892
     13          1           0       -1.987502    2.111324   -0.028985
     14          1           0       -3.773614   -0.944672   -0.006904
     15          1           0       -1.912154   -2.095698    0.009992
     16          1           0        0.482534   -2.066918   -0.001831
 ---------------------------------------------------------------------
 Rotational constants (GHZ):           3.8828730           0.7766764           0.6472942
 Leave Link  202 at Mon Feb 22 21:02:02 2021, MaxMem=   104857600 cpu:               0.5 elap:               0.0
 (Enter /sw/arch/RedHatEnterpriseServer7/EB_production/2019/software/Gaussian/g16.c01/l301.exe)
 Standard basis: TZVP (5D, 7F)
 Ernie: Thresh=  0.10000D-02 Tol=  0.10000D-05 Strict=F.
 There are   236 symmetry adapted cartesian basis functions of A   symmetry.
 There are   226 symmetry adapted basis functions of A   symmetry.
   226 basis functions,   398 primitive gaussians,   236 cartesian basis functions
    36 alpha electrons       36 beta electrons
       nuclear repulsion energy       485.7850646225 Hartrees.
 IExCor=  404 DFT=T Ex=B Corr=P86 ExCW=0 ScaHFX=  0.000000
 ScaDFX=  1.000000  1.000000  1.000000  1.000000 ScalE2=  1.000000  1.000000
 IRadAn=      5 IRanWt=     -1 IRanGd=            0 ICorTp=0 IEmpDi=131
 NAtoms=   16 NActive=   16 NUniq=   16 SFac= 1.00D+00 NAtFMM=   60 NAOKFM=F Big=F
 Integral buffers will be    131072 words long.
 Raffenetti 2 integral format.
 Two-electron integral symmetry is turned on.
 R6Disp:  Grimme-D3 Dispersion energy=       -0.0124266094 Hartrees.
 Nuclear repulsion after empirical dispersion term =      485.7726380132 Hartrees.
 ------------------------------------------------------------------------------
 Polarizable Continuum Model (PCM)
 =================================
 Model                : PCM.
 Atomic radii         : UFF (Universal Force Field).
 Polarization charges : Total charges.
 Charge compensation  : None.
 Solution method      : On-the-fly selection.
 Cavity type          : Scaled VdW (van der Waals Surface) (Alpha=1.100).
 Cavity algorithm     : GePol (No added spheres)
                        Default sphere list used, NSphG=   16.
                        Lebedev-Laikov grids with approx.  5.0 points / Ang**2.
                        Smoothing algorithm: York/Karplus (Gamma=1.0000).
                        Polarization charges: spherical gaussians, with
                                              point-specific exponents (IZeta= 3).
                        Self-potential: point-specific (ISelfS= 7).
                        Self-field    : sphere-specific E.n sum rule (ISelfD= 2).
 1st derivatives      : Analytical E(r).r(x)/FMM algorithm (CHGder, D1EAlg=3).
                        Cavity 1st derivative terms included.
 Solvent              : Water, Eps=  78.355300 Eps(inf)=   1.777849
 ------------------------------------------------------------------------------
 Spheres list:
 ISph  on   Nord     Re0    Alpha      Xe            Ye            Ze
    1   O      1    1.7500  1.100      2.768838      1.133965      0.037149
    2   C      2    1.9255  1.100      2.114201      0.066585      0.001818
    3   O      3    1.7500  1.100      2.839225     -1.078756     -0.016385
    4   C      4    1.9255  1.100      0.693280      0.053050     -0.008483
    5   C      5    1.9255  1.100     -0.057387      1.255903     -0.023485
    6   C      6    1.9255  1.100     -1.464713      1.232416     -0.017749
    7   C      7    1.9255  1.100     -2.151992      0.005544      0.003087
    8   O      8    1.7500  1.100     -3.509382     -0.001632      0.020328
    9   C      9    1.9255  1.100     -1.422329     -1.198252      0.004026
   10   C     10    1.9255  1.100     -0.015738     -1.173690     -0.002511
   11   H     11    1.4430  1.100      3.818061     -1.046971     -0.001343
   12   H     12    1.4430  1.100      0.411294      2.164979     -0.039892
   13   H     13    1.4430  1.100     -1.987502      2.111324     -0.028985
   14   H     14    1.4430  1.100     -3.773614     -0.944672     -0.006904
   15   H     15    1.4430  1.100     -1.912154     -2.095698      0.009992
   16   H     16    1.4430  1.100      0.482534     -2.066918     -0.001831
 ------------------------------------------------------------------------------
 GePol: Number of generator spheres                  =      16
 GePol: Total number of spheres                      =      16
 GePol: Number of exposed spheres                    =      16 (100.00%)
 GePol: Number of points                             =    1454
 GePol: Average weight of points                     =       0.13
 GePol: Minimum weight of points                     =   0.62D-09
 GePol: Maximum weight of points                     =    0.20577
 GePol: Number of points with low weight             =      77
 GePol: Fraction of low-weight points (<1% of avg)   =       5.30%
 GePol: Cavity surface area                          =    189.574 Ang**2
 GePol: Cavity volume                                =    187.006 Ang**3
 Leave Link  301 at Mon Feb 22 21:02:02 2021, MaxMem=   104857600 cpu:               2.0 elap:               0.1
 (Enter /sw/arch/RedHatEnterpriseServer7/EB_production/2019/software/Gaussian/g16.c01/l302.exe)
 NPDir=0 NMtPBC=     1 NCelOv=     1 NCel=       1 NClECP=     1 NCelD=      1
         NCelK=      1 NCelE2=     1 NClLst=     1 CellRange=     0.0.
 One-electron integrals computed using PRISM.
 One-electron integral symmetry used in STVInt
 PrsmSu:  requested number of processors reduced to:  29 ShMem   1 Linda.
 NBasis=   226 RedAO= T EigKep=  1.05D-05  NBF=   226
 NBsUse=   226 1.00D-06 EigRej= -1.00D+00 NBFU=   226
 Precomputing XC quadrature grid using
 IXCGrd= 4 IRadAn=           5 IRanWt=          -1 IRanGd=           0 AccXCQ= 0.00D+00.
 Generated NRdTot=       0 NPtTot=           0 NUsed=           0 NTot=          32
 NSgBfM=   233   233   233   233   233 MxSgAt=    16 MxSgA2=    16.
 Leave Link  302 at Mon Feb 22 21:02:02 2021, MaxMem=   104857600 cpu:               6.1 elap:               0.2
 (Enter /sw/arch/RedHatEnterpriseServer7/EB_production/2019/software/Gaussian/g16.c01/l303.exe)
 DipDrv:  MaxL=1.
 Leave Link  303 at Mon Feb 22 21:02:02 2021, MaxMem=   104857600 cpu:               3.4 elap:               0.2
 (Enter /sw/arch/RedHatEnterpriseServer7/EB_production/2019/software/Gaussian/g16.c01/l401.exe)
 ExpMin= 9.52D-02 ExpMax= 2.70D+04 ExpMxC= 9.22D+02 IAcc=3 IRadAn=         5 AccDes= 0.00D+00
 Harris functional with IExCor=  404 and IRadAn=       5 diagonalized for initial guess.
 HarFok:  IExCor=  404 AccDes= 0.00D+00 IRadAn=         5 IDoV= 1 UseB2=F ITyADJ=14
 ICtDFT=  3500011 ScaDFX=  1.000000  1.000000  1.000000  1.000000
 FoFCou: FMM=F IPFlag=           0 FMFlag=      100000 FMFlg1=           0
         NFxFlg=           0 DoJE=T BraDBF=F KetDBF=T FulRan=T
         wScrn=  0.000000 ICntrl=       500 IOpCl=  0 I1Cent=   200000004 NGrid=           0
         NMat0=    1 NMatS0=      1 NMatT0=    0 NMatD0=    1 NMtDS0=    0 NMtDT0=    0
 Petite list used in FoFCou.
 Harris En= -496.371359951416    
 JPrj=0 DoOrth=F DoCkMO=F.
 Leave Link  401 at Mon Feb 22 21:02:03 2021, MaxMem=   104857600 cpu:              11.6 elap:               0.4
 (Enter /sw/arch/RedHatEnterpriseServer7/EB_production/2019/software/Gaussian/g16.c01/l502.exe)
 Integral symmetry usage will be decided dynamically.
 Closed shell SCF:
 Using DIIS extrapolation, IDIIS=  1040.
 NGot=   104857600 LenX=   104735902 LenY=   104679765
 Requested convergence on RMS density matrix=1.00D-08 within 128 cycles.
 Requested convergence on MAX density matrix=1.00D-06.
 Requested convergence on             energy=1.00D-06.
 No special actions if energy rises.
 Fock matrices will be formed incrementally for  20 cycles.

 Cycle   1  Pass 1  IDiag  1:
 FoFJK:  IHMeth= 1 ICntrl=     500 DoSepK=F KAlg= 0 I1Cent=           0 FoldK=F
 IRaf= 910000000 NMat=       1 IRICut=       1 DoRegI=T DoRafI=F ISym2E= 0 IDoP0=0 IntGTp=1.
 FoFCou: FMM=F IPFlag=           0 FMFlag=      100000 FMFlg1=           0
         NFxFlg=           0 DoJE=T BraDBF=F KetDBF=F FulRan=T
         wScrn=  0.000000 ICntrl=       500 IOpCl=  0 I1Cent=           0 NGrid=           0
         NMat0=    1 NMatS0=      1 NMatT0=    0 NMatD0=    1 NMtDS0=    0 NMtDT0=    0
 Symmetry not used in FoFCou.
 Inv3:  Mode=1 IEnd=     6342348.
 Iteration    1 A*A^-1 deviation from unit magnitude is 3.33D-15 for    249.
 Iteration    1 A*A^-1 deviation from orthogonality  is 4.08D-15 for    463    365.
 Iteration    1 A^-1*A deviation from unit magnitude is 3.55D-15 for    249.
 Iteration    1 A^-1*A deviation from orthogonality  is 2.05D-15 for    861    237.
 E= -496.000254927407    
 DIIS: error= 3.16D-02 at cycle   1 NSaved=   1.
 NSaved= 1 IEnMin= 1 EnMin= -496.000254927407     IErMin= 1 ErrMin= 3.16D-02
 ErrMax= 3.16D-02  0.00D+00 EMaxC= 1.00D-01 BMatC= 2.76D-01 BMatP= 2.76D-01
 IDIUse=3 WtCom= 6.84D-01 WtEn= 3.16D-01
 Coeff-Com:  0.100D+01
 Coeff-En:   0.100D+01
 Coeff:      0.100D+01
 Gap=     0.110 Goal=   None    Shift=    0.000
 GapD=    0.110 DampG=1.000 DampE=0.500 DampFc=0.5000 IDamp=-1.
 Damping current iteration by 5.00D-01
 RMSDP=1.66D-02 MaxDP=1.44D+00              OVMax= 2.88D-01

 Cycle   2  Pass 1  IDiag  1:
 RMSU=  8.25D-03    CP:  1.06D+00
 E= -496.014016655655     Delta-E=       -0.013761728248 Rises=F Damp=T
 DIIS: error= 1.81D-02 at cycle   2 NSaved=   2.
 NSaved= 2 IEnMin= 2 EnMin= -496.014016655655     IErMin= 2 ErrMin= 1.81D-02
 ErrMax= 1.81D-02  0.00D+00 EMaxC= 1.00D-01 BMatC= 8.30D-02 BMatP= 2.76D-01
 IDIUse=3 WtCom= 8.19D-01 WtEn= 1.81D-01
 Coeff-Com:  0.322D+00 0.678D+00
 Coeff-En:   0.476D+00 0.524D+00
 Coeff:      0.350D+00 0.650D+00
 Gap=     0.147 Goal=   None    Shift=    0.000
 RMSDP=4.87D-03 MaxDP=4.10D-01 DE=-1.38D-02 OVMax= 2.80D-01

 Cycle   3  Pass 1  IDiag  1:
 RMSU=  3.02D-03    CP:  1.02D+00  5.42D-01
 E= -496.162413332415     Delta-E=       -0.148396676760 Rises=F Damp=F
 DIIS: error= 2.09D-02 at cycle   3 NSaved=   3.
 NSaved= 3 IEnMin= 3 EnMin= -496.162413332415     IErMin= 2 ErrMin= 1.81D-02
 ErrMax= 2.09D-02  0.00D+00 EMaxC= 1.00D-01 BMatC= 8.13D-02 BMatP= 8.30D-02
 IDIUse=3 WtCom= 7.91D-01 WtEn= 2.09D-01
 EnCoef did     2 forward-backward iterations
 Coeff-Com:  0.174D+00 0.472D+00 0.355D+00
 Coeff-En:   0.187D-01 0.352D-01 0.946D+00
 Coeff:      0.141D+00 0.381D+00 0.478D+00
 Gap=     0.135 Goal=   None    Shift=    0.000
 RMSDP=3.00D-03 MaxDP=8.59D-02 DE=-1.48D-01 OVMax= 1.61D-01

 Cycle   4  Pass 1  IDiag  1:
 RMSU=  1.84D-03    CP:  1.03D+00  5.99D-01  2.32D-01
 E= -496.198551281312     Delta-E=       -0.036137948897 Rises=F Damp=F
 DIIS: error= 1.56D-02 at cycle   4 NSaved=   4.
 NSaved= 4 IEnMin= 4 EnMin= -496.198551281312     IErMin= 4 ErrMin= 1.56D-02
 ErrMax= 1.56D-02  0.00D+00 EMaxC= 1.00D-01 BMatC= 4.15D-02 BMatP= 8.13D-02
 IDIUse=3 WtCom= 8.44D-01 WtEn= 1.56D-01
 Coeff-Com:  0.689D-01 0.143D+00 0.374D+00 0.415D+00
 Coeff-En:   0.000D+00 0.000D+00 0.365D+00 0.635D+00
 Coeff:      0.582D-01 0.120D+00 0.372D+00 0.449D+00
 Gap=     0.139 Goal=   None    Shift=    0.000
 RMSDP=1.50D-03 MaxDP=8.54D-02 DE=-3.61D-02 OVMax= 8.94D-02

 Cycle   5  Pass 1  IDiag  1:
 RMSU=  3.29D-04    CP:  1.02D+00  4.96D-01  5.22D-01  5.66D-01
 E= -496.228231501239     Delta-E=       -0.029680219928 Rises=F Damp=F
 DIIS: error= 3.40D-03 at cycle   5 NSaved=   5.
 NSaved= 5 IEnMin= 5 EnMin= -496.228231501239     IErMin= 5 ErrMin= 3.40D-03
 ErrMax= 3.40D-03  0.00D+00 EMaxC= 1.00D-01 BMatC= 1.57D-03 BMatP= 4.15D-02
 IDIUse=3 WtCom= 9.66D-01 WtEn= 3.40D-02
 Coeff-Com:  0.167D-01 0.184D-01 0.171D+00 0.285D+00 0.509D+00
 Coeff-En:   0.000D+00 0.000D+00 0.000D+00 0.646D-02 0.994D+00
 Coeff:      0.162D-01 0.177D-01 0.166D+00 0.275D+00 0.525D+00
 Gap=     0.131 Goal=   None    Shift=    0.000
 RMSDP=2.74D-04 MaxDP=8.05D-03 DE=-2.97D-02 OVMax= 1.48D-02

 Cycle   6  Pass 1  IDiag  1:
 RMSU=  1.82D-04    CP:  1.02D+00  5.05D-01  4.91D-01  6.18D-01  6.10D-01
 E= -496.229439398545     Delta-E=       -0.001207897306 Rises=F Damp=F
 DIIS: error= 8.64D-04 at cycle   6 NSaved=   6.
 NSaved= 6 IEnMin= 6 EnMin= -496.229439398545     IErMin= 6 ErrMin= 8.64D-04
 ErrMax= 8.64D-04  0.00D+00 EMaxC= 1.00D-01 BMatC= 1.15D-04 BMatP= 1.57D-03
 IDIUse=3 WtCom= 9.91D-01 WtEn= 8.64D-03
 Coeff-Com:  0.189D-02-0.770D-03 0.442D-01 0.824D-01 0.283D+00 0.590D+00
 Coeff-En:   0.000D+00 0.000D+00 0.000D+00 0.000D+00 0.501D-01 0.950D+00
 Coeff:      0.188D-02-0.763D-03 0.438D-01 0.817D-01 0.281D+00 0.593D+00
 Gap=     0.131 Goal=   None    Shift=    0.000
 RMSDP=8.66D-05 MaxDP=5.60D-03 DE=-1.21D-03 OVMax= 3.15D-03

 Cycle   7  Pass 1  IDiag  1:
 RMSU=  3.75D-05    CP:  1.02D+00  5.12D-01  4.98D-01  6.15D-01  6.52D-01
                    CP:  7.27D-01
 E= -496.229524228766     Delta-E=       -0.000084830221 Rises=F Damp=F
 DIIS: error= 2.25D-04 at cycle   7 NSaved=   7.
 NSaved= 7 IEnMin= 7 EnMin= -496.229524228766     IErMin= 7 ErrMin= 2.25D-04
 ErrMax= 2.25D-04  0.00D+00 EMaxC= 1.00D-01 BMatC= 1.20D-05 BMatP= 1.15D-04
 IDIUse=3 WtCom= 9.98D-01 WtEn= 2.25D-03
 Coeff-Com:  0.432D-04-0.135D-02 0.117D-01 0.220D-01 0.125D+00 0.349D+00
 Coeff-Com:  0.494D+00
 Coeff-En:   0.000D+00 0.000D+00 0.000D+00 0.000D+00 0.000D+00 0.000D+00
 Coeff-En:   0.100D+01
 Coeff:      0.431D-04-0.134D-02 0.116D-01 0.219D-01 0.124D+00 0.348D+00
 Coeff:      0.495D+00
 Gap=     0.131 Goal=   None    Shift=    0.000
 RMSDP=3.01D-05 MaxDP=1.95D-03 DE=-8.48D-05 OVMax= 1.53D-03

 Cycle   8  Pass 1  IDiag  1:
 RMSU=  1.31D-05    CP:  1.02D+00  5.09D-01  4.97D-01  6.14D-01  6.60D-01
                    CP:  7.30D-01  6.47D-01
 E= -496.229534161188     Delta-E=       -0.000009932422 Rises=F Damp=F
 DIIS: error= 6.57D-05 at cycle   8 NSaved=   8.
 NSaved= 8 IEnMin= 8 EnMin= -496.229534161188     IErMin= 8 ErrMin= 6.57D-05
 ErrMax= 6.57D-05  0.00D+00 EMaxC= 1.00D-01 BMatC= 1.05D-06 BMatP= 1.20D-05
 IDIUse=1 WtCom= 1.00D+00 WtEn= 0.00D+00
 Coeff-Com:  0.448D-04-0.430D-03 0.326D-02 0.477D-02 0.456D-01 0.145D+00
 Coeff-Com:  0.281D+00 0.521D+00
 Coeff:      0.448D-04-0.430D-03 0.326D-02 0.477D-02 0.456D-01 0.145D+00
 Coeff:      0.281D+00 0.521D+00
 Gap=     0.131 Goal=   None    Shift=    0.000
 RMSDP=1.35D-05 MaxDP=7.59D-04 DE=-9.93D-06 OVMax= 8.11D-04

 Cycle   9  Pass 1  IDiag  1:
 RMSU=  7.55D-06    CP:  1.02D+00  5.09D-01  4.99D-01  6.12D-01  6.65D-01
                    CP:  7.49D-01  6.43D-01  3.55D-01
 E= -496.229534865674     Delta-E=       -0.000000704486 Rises=F Damp=F
 DIIS: error= 3.19D-05 at cycle   9 NSaved=   9.
 NSaved= 9 IEnMin= 9 EnMin= -496.229534865674     IErMin= 9 ErrMin= 3.19D-05
 ErrMax= 3.19D-05  0.00D+00 EMaxC= 1.00D-01 BMatC= 2.71D-07 BMatP= 1.05D-06
 IDIUse=1 WtCom= 1.00D+00 WtEn= 0.00D+00
 Coeff-Com:  0.377D-04-0.218D-03 0.531D-03 0.251D-06 0.135D-01 0.500D-01
 Coeff-Com:  0.119D+00 0.369D+00 0.449D+00
 Coeff:      0.377D-04-0.218D-03 0.531D-03 0.251D-06 0.135D-01 0.500D-01
 Coeff:      0.119D+00 0.369D+00 0.449D+00
 Gap=     0.131 Goal=   None    Shift=    0.000
 RMSDP=5.20D-06 MaxDP=2.92D-04 DE=-7.04D-07 OVMax= 2.88D-04

 Cycle  10  Pass 1  IDiag  1:
 RMSU=  1.29D-06    CP:  1.02D+00  5.09D-01  4.99D-01  6.13D-01  6.64D-01
                    CP:  7.45D-01  6.55D-01  5.52D-01  4.86D-01
 E= -496.229535112472     Delta-E=       -0.000000246798 Rises=F Damp=F
 DIIS: error= 9.79D-06 at cycle  10 NSaved=  10.
 NSaved=10 IEnMin=10 EnMin= -496.229535112472     IErMin=10 ErrMin= 9.79D-06
 ErrMax= 9.79D-06  0.00D+00 EMaxC= 1.00D-01 BMatC= 1.03D-08 BMatP= 2.71D-07
 IDIUse=1 WtCom= 1.00D+00 WtEn= 0.00D+00
 Coeff-Com:  0.354D-04-0.985D-04 0.170D-03-0.230D-03 0.511D-02 0.208D-01
 Coeff-Com:  0.517D-01 0.184D+00 0.256D+00 0.482D+00
 Coeff:      0.354D-04-0.985D-04 0.170D-03-0.230D-03 0.511D-02 0.208D-01
 Coeff:      0.517D-01 0.184D+00 0.256D+00 0.482D+00
 Gap=     0.131 Goal=   None    Shift=    0.000
 RMSDP=6.87D-07 MaxDP=3.85D-05 DE=-2.47D-07 OVMax= 5.89D-05

 Cycle  11  Pass 1  IDiag  1:
 RMSU=  3.72D-07    CP:  1.02D+00  5.09D-01  4.99D-01  6.13D-01  6.64D-01
                    CP:  7.45D-01  6.54D-01  5.43D-01  5.28D-01  7.25D-01
 E= -496.229535122676     Delta-E=       -0.000000010204 Rises=F Damp=F
 DIIS: error= 4.23D-06 at cycle  11 NSaved=  11.
 NSaved=11 IEnMin=11 EnMin= -496.229535122676     IErMin=11 ErrMin= 4.23D-06
 ErrMax= 4.23D-06  0.00D+00 EMaxC= 1.00D-01 BMatC= 1.80D-09 BMatP= 1.03D-08
 IDIUse=1 WtCom= 1.00D+00 WtEn= 0.00D+00
 Coeff-Com:  0.209D-04-0.357D-04 0.252D-04-0.136D-03 0.899D-03 0.481D-02
 Coeff-Com:  0.120D-01 0.546D-01 0.880D-01 0.315D+00 0.525D+00
 Coeff:      0.209D-04-0.357D-04 0.252D-04-0.136D-03 0.899D-03 0.481D-02
 Coeff:      0.120D-01 0.546D-01 0.880D-01 0.315D+00 0.525D+00
 Gap=     0.131 Goal=   None    Shift=    0.000
 RMSDP=2.34D-07 MaxDP=5.45D-06 DE=-1.02D-08 OVMax= 2.24D-05

 Cycle  12  Pass 1  IDiag  1:
 RMSU=  1.10D-07    CP:  1.02D+00  5.09D-01  4.99D-01  6.13D-01  6.64D-01
                    CP:  7.45D-01  6.55D-01  5.49D-01  5.24D-01  7.31D-01
                    CP:  5.60D-01
 E= -496.229535124413     Delta-E=       -0.000000001738 Rises=F Damp=F
 DIIS: error= 1.08D-06 at cycle  12 NSaved=  12.
 NSaved=12 IEnMin=12 EnMin= -496.229535124413     IErMin=12 ErrMin= 1.08D-06
 ErrMax= 1.08D-06  0.00D+00 EMaxC= 1.00D-01 BMatC= 1.62D-10 BMatP= 1.80D-09
 IDIUse=1 WtCom= 1.00D+00 WtEn= 0.00D+00
 Coeff-Com:  0.118D-04-0.184D-04 0.764D-05-0.703D-04 0.293D-03 0.193D-02
 Coeff-Com:  0.472D-02 0.243D-01 0.410D-01 0.169D+00 0.331D+00 0.427D+00
 Coeff:      0.118D-04-0.184D-04 0.764D-05-0.703D-04 0.293D-03 0.193D-02
 Coeff:      0.472D-02 0.243D-01 0.410D-01 0.169D+00 0.331D+00 0.427D+00
 Gap=     0.131 Goal=   None    Shift=    0.000
 RMSDP=6.10D-08 MaxDP=2.08D-06 DE=-1.74D-09 OVMax= 5.48D-06

 Cycle  13  Pass 1  IDiag  1:
 RMSU=  4.10D-08    CP:  1.02D+00  5.09D-01  4.99D-01  6.13D-01  6.64D-01
                    CP:  7.45D-01  6.55D-01  5.49D-01  5.22D-01  7.35D-01
                    CP:  6.15D-01  7.03D-01
 E= -496.229535124556     Delta-E=       -0.000000000143 Rises=F Damp=F
 DIIS: error= 1.93D-07 at cycle  13 NSaved=  13.
 NSaved=13 IEnMin=13 EnMin= -496.229535124556     IErMin=13 ErrMin= 1.93D-07
 ErrMax= 1.93D-07  0.00D+00 EMaxC= 1.00D-01 BMatC= 1.14D-11 BMatP= 1.62D-10
 IDIUse=1 WtCom= 1.00D+00 WtEn= 0.00D+00
 Coeff-Com:  0.288D-05-0.405D-05 0.844D-06-0.102D-04-0.171D-04 0.112D-03
 Coeff-Com:  0.185D-03 0.278D-02 0.550D-02 0.330D-01 0.846D-01 0.235D+00
 Coeff-Com:  0.638D+00
 Coeff:      0.288D-05-0.405D-05 0.844D-06-0.102D-04-0.171D-04 0.112D-03
 Coeff:      0.185D-03 0.278D-02 0.550D-02 0.330D-01 0.846D-01 0.235D+00
 Coeff:      0.638D+00
 Gap=     0.131 Goal=   None    Shift=    0.000
 RMSDP=2.24D-08 MaxDP=1.03D-06 DE=-1.43D-10 OVMax= 8.39D-07

 Cycle  14  Pass 1  IDiag  1:
 RMSU=  1.11D-08    CP:  1.02D+00  5.09D-01  4.99D-01  6.13D-01  6.64D-01
                    CP:  7.45D-01  6.55D-01  5.49D-01  5.24D-01  7.37D-01
                    CP:  6.13D-01  7.30D-01  6.79D-01
 E= -496.229535124563     Delta-E=       -0.000000000008 Rises=F Damp=F
 DIIS: error= 2.79D-08 at cycle  14 NSaved=  14.
 NSaved=14 IEnMin=14 EnMin= -496.229535124563     IErMin=14 ErrMin= 2.79D-08
 ErrMax= 2.79D-08  0.00D+00 EMaxC= 1.00D-01 BMatC= 1.81D-13 BMatP= 1.14D-11
 IDIUse=1 WtCom= 1.00D+00 WtEn= 0.00D+00
 Coeff-Com:  0.639D-06-0.909D-06 0.172D-06-0.184D-05-0.982D-05-0.934D-05
 Coeff-Com: -0.535D-04 0.358D-03 0.816D-03 0.671D-02 0.203D-01 0.672D-01
 Coeff-Com:  0.217D+00 0.687D+00
 Coeff:      0.639D-06-0.909D-06 0.172D-06-0.184D-05-0.982D-05-0.934D-05
 Coeff:     -0.535D-04 0.358D-03 0.816D-03 0.671D-02 0.203D-01 0.672D-01
 Coeff:      0.217D+00 0.687D+00
 Gap=     0.131 Goal=   None    Shift=    0.000
 RMSDP=4.19D-09 MaxDP=2.02D-07 DE=-7.67D-12 OVMax= 3.15D-07

 Error on total polarization charges =  0.01125
 SCF Done:  E(RB-P86) =  -496.229535125     A.U. after   14 cycles
            NFock= 14  Conv=0.42D-08     -V/T= 2.0036
 KE= 4.944678548283D+02 PE=-2.133063960198D+03 EE= 6.565939322320D+02
 Leave Link  502 at Mon Feb 22 21:02:14 2021, MaxMem=   104857600 cpu:             351.8 elap:              11.3
 (Enter /sw/arch/RedHatEnterpriseServer7/EB_production/2019/software/Gaussian/g16.c01/l601.exe)
 Copying SCF densities to generalized density rwf, IOpCl= 0 IROHF=0.

 **********************************************************************

            Population analysis using the SCF Density.

 **********************************************************************

 Orbital symmetries:
       Occupied  (A) (A) (A) (A) (A) (A) (A) (A) (A) (A) (A) (A)
                 (A) (A) (A) (A) (A) (A) (A) (A) (A) (A) (A) (A)
                 (A) (A) (A) (A) (A) (A) (A) (A) (A) (A) (A) (A)
       Virtual   (A) (A) (A) (A) (A) (A) (A) (A) (A) (A) (A) (A)
                 (A) (A) (A) (A) (A) (A) (A) (A) (A) (A) (A) (A)
                 (A) (A) (A) (A) (A) (A) (A) (A) (A) (A) (A) (A)
                 (A) (A) (A) (A) (A) (A) (A) (A) (A) (A) (A) (A)
                 (A) (A) (A) (A) (A) (A) (A) (A) (A) (A) (A) (A)
                 (A) (A) (A) (A) (A) (A) (A) (A) (A) (A) (A) (A)
                 (A) (A) (A) (A) (A) (A) (A) (A) (A) (A) (A) (A)
                 (A) (A) (A) (A) (A) (A) (A) (A) (A) (A) (A) (A)
                 (A) (A) (A) (A) (A) (A) (A) (A) (A) (A) (A) (A)
                 (A) (A) (A) (A) (A) (A) (A) (A) (A) (A) (A) (A)
                 (A) (A) (A) (A) (A) (A) (A) (A) (A) (A) (A) (A)
                 (A) (A) (A) (A) (A) (A) (A) (A) (A) (A) (A) (A)
                 (A) (A) (A) (A) (A) (A) (A) (A) (A) (A) (A) (A)
                 (A) (A) (A) (A) (A) (A) (A) (A) (A) (A) (A) (A)
                 (A) (A) (A) (A) (A) (A) (A) (A) (A) (A) (A) (A)
                 (A) (A) (A) (A) (A) (A) (A) (A) (A) (A)
 The electronic state is 1-A.
 Alpha  occ. eigenvalues --  -18.82365 -18.81506 -18.75114 -10.03038  -9.98468
 Alpha  occ. eigenvalues --   -9.92763  -9.92222  -9.92130  -9.91314  -9.91237
 Alpha  occ. eigenvalues --   -1.01412  -1.00263  -0.91697  -0.79885  -0.71487
 Alpha  occ. eigenvalues --   -0.70288  -0.62388  -0.58401  -0.56712  -0.51885
 Alpha  occ. eigenvalues --   -0.49889  -0.45162  -0.42592  -0.41753  -0.41008
 Alpha  occ. eigenvalues --   -0.40175  -0.38617  -0.38041  -0.36267  -0.33626
 Alpha  occ. eigenvalues --   -0.32101  -0.31804  -0.28066  -0.25039  -0.23320
 Alpha  occ. eigenvalues --   -0.22555
 Alpha virt. eigenvalues --   -0.09456  -0.06513   0.00687   0.01748   0.01873
 Alpha virt. eigenvalues --    0.05941   0.08034   0.09210   0.09750   0.10372
 Alpha virt. eigenvalues --    0.12256   0.12814   0.15849   0.16013   0.16677
 Alpha virt. eigenvalues --    0.16877   0.19467   0.20425   0.21117   0.21428
 Alpha virt. eigenvalues --    0.22035   0.23173   0.24455   0.26666   0.27784
 Alpha virt. eigenvalues --    0.28185   0.28367   0.29046   0.30287   0.32482
 Alpha virt. eigenvalues --    0.32557   0.33436   0.33533   0.36723   0.37720
 Alpha virt. eigenvalues --    0.38830   0.40140   0.40517   0.41577   0.42329
 Alpha virt. eigenvalues --    0.43929   0.45529   0.45792   0.46151   0.46692
 Alpha virt. eigenvalues --    0.47912   0.48178   0.50122   0.51448   0.53893
 Alpha virt. eigenvalues --    0.56110   0.57354   0.58925   0.61409   0.62901
 Alpha virt. eigenvalues --    0.63281   0.66347   0.69999   0.71763   0.75329
 Alpha virt. eigenvalues --    0.76098   0.77465   0.78838   0.83347   0.86810
 Alpha virt. eigenvalues --    0.91757   1.09965   1.14065   1.15304   1.16555
 Alpha virt. eigenvalues --    1.17179   1.19202   1.20244   1.21516   1.21941
 Alpha virt. eigenvalues --    1.23865   1.28001   1.28534   1.29457   1.31076
 Alpha virt. eigenvalues --    1.32277   1.32898   1.35189   1.36310   1.37211
 Alpha virt. eigenvalues --    1.37364   1.38758   1.39381   1.41970   1.42707
 Alpha virt. eigenvalues --    1.44398   1.44698   1.45043   1.46534   1.46777
 Alpha virt. eigenvalues --    1.48317   1.49528   1.54981   1.55341   1.60330
 Alpha virt. eigenvalues --    1.68871   1.70799   1.72618   1.74355   1.75089
 Alpha virt. eigenvalues --    1.79780   1.80870   1.81282   1.82859   1.83175
 Alpha virt. eigenvalues --    1.85846   1.90720   1.91634   1.93051   1.97768
 Alpha virt. eigenvalues --    1.98647   1.98957   2.08315   2.09696   2.12279
 Alpha virt. eigenvalues --    2.13899   2.16233   2.19093   2.19343   2.20268
 Alpha virt. eigenvalues --    2.20450   2.23132   2.25975   2.28471   2.29530
 Alpha virt. eigenvalues --    2.29957   2.41383   2.45051   2.46321   2.48034
 Alpha virt. eigenvalues --    2.49541   2.50028   2.51616   2.53498   2.54390
 Alpha virt. eigenvalues --    2.56060   2.56288   2.59371   2.60251   2.61249
 Alpha virt. eigenvalues --    2.62519   2.65844   2.67620   2.73182   2.73208
 Alpha virt. eigenvalues --    2.76661   2.82939   2.83250   2.86573   2.88027
 Alpha virt. eigenvalues --    2.89748   2.90242   2.94502   2.97217   3.00853
 Alpha virt. eigenvalues --    3.02719   3.04944   3.06456   3.07611   3.07737
 Alpha virt. eigenvalues --    3.09664   3.12542   3.17896   3.19284   3.24782
 Alpha virt. eigenvalues --    3.30034   3.34633   3.42897   3.46528   3.60285
 Alpha virt. eigenvalues --    3.88347   3.95340   4.02175   4.18100   4.22104
 Alpha virt. eigenvalues --   21.07244  21.53673  21.63348  21.76785  21.83998
 Alpha virt. eigenvalues --   21.87904  21.95435  43.07169  43.13496  43.15445
          Condensed to atoms (all electrons):
               1          2          3          4          5          6
     1  O    8.008758   0.686868  -0.131903  -0.251435   0.023256   0.003053
     2  C    0.686868   5.244250   0.426704  -0.419213  -0.120089   0.019584
     3  O   -0.131903   0.426704   7.880077  -0.227819   0.011839  -0.000496
     4  C   -0.251435  -0.419213  -0.227819   6.633950   0.361319   0.030385
     5  C    0.023256  -0.120089   0.011839   0.361319   5.113462   0.368334
     6  C    0.003053   0.019584  -0.000496   0.030385   0.368334   5.272280
     7  C    0.000791   0.015901   0.000758  -0.147726   0.006808   0.364187
     8  O   -0.000000   0.000058  -0.000000  -0.001016   0.006149  -0.076640
     9  C   -0.002699  -0.020233  -0.003032   0.149058  -0.062656  -0.074921
    10  C    0.018048   0.062867   0.035495   0.056248  -0.068948  -0.073719
    11  H    0.002701  -0.029444   0.294943   0.028758  -0.000704   0.000077
    12  H    0.022956  -0.024915   0.001448  -0.075347   0.448060  -0.056790
    13  H   -0.000171  -0.002254  -0.000003   0.017482  -0.036912   0.431268
    14  H   -0.000000  -0.000025   0.000000  -0.000553  -0.001142   0.013421
    15  H   -0.000005  -0.002075  -0.000154   0.013343   0.001872   0.006997
    16  H    0.000771  -0.021609   0.013683  -0.051037   0.009079  -0.001392
               7          8          9         10         11         12
     1  O    0.000791  -0.000000  -0.002699   0.018048   0.002701   0.022956
     2  C    0.015901   0.000058  -0.020233   0.062867  -0.029444  -0.024915
     3  O    0.000758  -0.000000  -0.003032   0.035495   0.294943   0.001448
     4  C   -0.147726  -0.001016   0.149058   0.056248   0.028758  -0.075347
     5  C    0.006808   0.006149  -0.062656  -0.068948  -0.000704   0.448060
     6  C    0.364187  -0.076640  -0.074921  -0.073719   0.000077  -0.056790
     7  C    5.044946   0.381884   0.183282   0.139263  -0.000033   0.019323
     8  O    0.381884   7.743165  -0.109486   0.017661  -0.000000  -0.000108
     9  C    0.183282  -0.109486   5.839897  -0.054618   0.000167  -0.004417
    10  C    0.139263   0.017661  -0.054618   5.516399  -0.003049   0.014967
    11  H   -0.000033  -0.000000   0.000167  -0.003049   0.371394  -0.000047
    12  H    0.019323  -0.000108  -0.004417   0.014967  -0.000047   0.513539
    13  H   -0.079814   0.002824   0.016808  -0.003979   0.000000  -0.007623
    14  H   -0.021288   0.302785  -0.028578   0.006720  -0.000000   0.000029
    15  H   -0.066738  -0.006196   0.417799  -0.019573   0.000002   0.000039
    16  H    0.010903  -0.000086  -0.046372   0.432594  -0.000406  -0.000295
              13         14         15         16
     1  O   -0.000171  -0.000000  -0.000005   0.000771
     2  C   -0.002254  -0.000025  -0.002075  -0.021609
     3  O   -0.000003   0.000000  -0.000154   0.013683
     4  C    0.017482  -0.000553   0.013343  -0.051037
     5  C   -0.036912  -0.001142   0.001872   0.009079
     6  C    0.431268   0.013421   0.006997  -0.001392
     7  C   -0.079814  -0.021288  -0.066738   0.010903
     8  O    0.002824   0.302785  -0.006196  -0.000086
     9  C    0.016808  -0.028578   0.417799  -0.046372
    10  C   -0.003979   0.006720  -0.019573   0.432594
    11  H    0.000000  -0.000000   0.000002  -0.000406
    12  H   -0.007623   0.000029   0.000039  -0.000295
    13  H    0.500316  -0.000587  -0.000101   0.000044
    14  H   -0.000587   0.415174   0.000465  -0.000032
    15  H   -0.000101   0.000465   0.491693  -0.004656
    16  H    0.000044  -0.000032  -0.004656   0.496759
 Mulliken charges:
               1
     1  O   -0.380988
     2  C    0.183627
     3  O   -0.301540
     4  C   -0.116396
     5  C   -0.059726
     6  C   -0.225629
     7  C    0.147553
     8  O   -0.260995
     9  C   -0.200000
    10  C   -0.076377
    11  H    0.335640
    12  H    0.149180
    13  H    0.162704
    14  H    0.313611
    15  H    0.167285
    16  H    0.162051
 Sum of Mulliken charges =  -0.00000
 Mulliken charges with hydrogens summed into heavy atoms:
               1
     1  O   -0.380988
     2  C    0.183627
     3  O    0.034099
     4  C   -0.116396
     5  C    0.089453
     6  C   -0.062925
     7  C    0.147553
     8  O    0.052616
     9  C   -0.032714
    10  C    0.085674
 Electronic spatial extent (au):  <R**2>=           1616.6167
 Charge=             -0.0000 electrons
 Dipole moment (field-independent basis, Debye):
    X=             -3.1942    Y=             -4.0862    Z=             -0.1188  Tot=              5.1878
 Quadrupole moment (field-independent basis, Debye-Ang):
   XX=            -50.6348   YY=            -53.1499   ZZ=            -59.9293
   XY=             -1.8597   XZ=              0.0477   YZ=             -0.2504
 Traceless Quadrupole moment (field-independent basis, Debye-Ang):
   XX=              3.9366   YY=              1.4214   ZZ=             -5.3580
   XY=             -1.8597   XZ=              0.0477   YZ=             -0.2504
 Octapole moment (field-independent basis, Debye-Ang**2):
  XXX=             13.1577  YYY=             -6.9544  ZZZ=              0.1959  XYY=            -21.6022
  XXY=            -63.5376  XXZ=             -1.2077  XZZ=              4.7491  YZZ=             -0.8513
  YYZ=             -0.2528  XYZ=             -0.5311
 Hexadecapole moment (field-independent basis, Debye-Ang**3):
 XXXX=          -1293.4432 YYYY=           -367.5818 ZZZZ=            -62.6406 XXXY=            -26.7611
 XXXZ=              1.5089 YYYX=             -6.6231 YYYZ=             -0.7383 ZZZX=             -0.0558
 ZZZY=              0.1716 XXYY=           -300.6078 XXZZ=           -273.6522 YYZZ=            -83.3020
 XXYZ=             -1.2215 YYXZ=             -0.1574 ZZXY=              0.1078
 N-N= 4.857726380132D+02 E-N=-2.133063961258D+03  KE= 4.944678548283D+02
 No NMR shielding tensors so no spin-rotation constants.
 Leave Link  601 at Mon Feb 22 21:02:15 2021, MaxMem=   104857600 cpu:               6.7 elap:               0.3
 (Enter /sw/arch/RedHatEnterpriseServer7/EB_production/2019/software/Gaussian/g16.c01/l701.exe)
 ... and contract with generalized density number  0.
 Compute integral first derivatives.
 R6Disp: Adding Grimme-D3 dispersion energy 1st derivatives to the gradient.
 PrsmSu:  requested number of processors reduced to:  29 ShMem   1 Linda.
 D1PCM: PCM CHGder 1st derivatives, ID1Alg=3 FixD1E=F DoIter=F DoCFld=F I1PDM=0.
 GePol: Maximum number of non-zero 1st derivatives   =     203
 CoulSu:  requested number of processors reduced to:  29 ShMem   1 Linda.
 CoulSu:  requested number of processors reduced to:  30 ShMem   1 Linda.
 Leave Link  701 at Mon Feb 22 21:02:16 2021, MaxMem=   104857600 cpu:              23.7 elap:               0.9
 (Enter /sw/arch/RedHatEnterpriseServer7/EB_production/2019/software/Gaussian/g16.c01/l702.exe)
 L702 exits ... SP integral derivatives will be done elsewhere.
 Leave Link  702 at Mon Feb 22 21:02:16 2021, MaxMem=   104857600 cpu:               0.5 elap:               0.0
 (Enter /sw/arch/RedHatEnterpriseServer7/EB_production/2019/software/Gaussian/g16.c01/l703.exe)
 Integral derivatives from FoFJK, PRISM(SPDF).
 Compute integral first derivatives, UseDBF=F ICtDFT=           0.
 Calling FoFJK, ICntrl=      2527 FMM=F ISym2X=0 I1Cent= 0 IOpClX= 0 NMat=1 NMatS=1 NMatT=0.
 FoFJK:  IHMeth= 1 ICntrl=    2527 DoSepK=F KAlg= 0 I1Cent=           0 FoldK=F
 IRaf=         0 NMat=       1 IRICut=       1 DoRegI=T DoRafI=F ISym2E= 0 IDoP0=0 IntGTp=1.
 FoFCou: FMM=F IPFlag=           0 FMFlag=      100000 FMFlg1=         800
         NFxFlg=           0 DoJE=F BraDBF=F KetDBF=F FulRan=T
         wScrn=  0.000000 ICntrl=      2527 IOpCl=  0 I1Cent=           0 NGrid=           0
         NMat0=    1 NMatS0=      1 NMatT0=    0 NMatD0=    1 NMtDS0=    0 NMtDT0=    0
 Symmetry not used in FoFCou.
 Leave Link  703 at Mon Feb 22 21:02:17 2021, MaxMem=   104857600 cpu:              41.8 elap:               1.3
 (Enter /sw/arch/RedHatEnterpriseServer7/EB_production/2019/software/Gaussian/g16.c01/l716.exe)
 Dipole        =-1.25667682D+00-1.60763053D+00-4.67252597D-02
 ***** Axes restored to original set *****
 -------------------------------------------------------------------
 Center     Atomic                   Forces (Hartrees/Bohr)
 Number     Number              X              Y              Z
 -------------------------------------------------------------------
      1        8          -0.011629274   -0.003056221   -0.007432921
      2        6           0.086579771    0.015756953    0.025350038
      3        8          -0.049416139   -0.006540175    0.005336621
      4        6          -0.040374315   -0.007392419   -0.012215432
      5        6          -0.059550983   -0.004477437    0.008878182
      6        6          -0.006715728    0.007556796    0.058000751
      7        6           0.005977877    0.001873602    0.010203123
      8        8          -0.003511007   -0.001245280    0.000596691
      9        6           0.062307811    0.006145776   -0.004220259
     10        6           0.008553773   -0.007095203   -0.061325850
     11        1           0.009865791   -0.000802151   -0.018203397
     12        1           0.052210216    0.003818115   -0.011975277
     13        1           0.014879151   -0.005576393   -0.051821154
     14        1          -0.001030071   -0.000443523   -0.007305050
     15        1          -0.053754552   -0.003844211    0.014339866
     16        1          -0.014392320    0.005321772    0.051794070
 -------------------------------------------------------------------
 Cartesian Forces:  Max     0.086579771 RMS     0.028996784
 Leave Link  716 at Mon Feb 22 21:02:18 2021, MaxMem=   104857600 cpu:               1.1 elap:               0.1
 (Enter /sw/arch/RedHatEnterpriseServer7/EB_production/2019/software/Gaussian/g16.c01/l103.exe)

 GradGradGradGradGradGradGradGradGradGradGradGradGradGradGradGradGradGrad
 Berny optimization.
 FormGI is forming the generalized inverse of G from B-inverse, IUseBI=4.
 GSVD:  received Info=                   1 from GESDD.
 Internal  Forces:  Max     0.055766470 RMS     0.015805276
 Search for a local minimum.
 Step number   1 out of a maximum of   81
 All quantities printed in internal units (Hartrees-Bohrs-Radians)
 RMS Force = .15805D-01 SwitMx=.10000D-02 MixMth= 1
 Mixed Optimization -- RFO/linear search
 Second derivative matrix not updated -- first step.
 ITU=  0
     Eigenvalues ---    0.01811   0.01847   0.01881   0.01916   0.01932
     Eigenvalues ---    0.01955   0.01967   0.01992   0.01995   0.01998
     Eigenvalues ---    0.02042   0.02254   0.02278   0.16000   0.16000
     Eigenvalues ---    0.16000   0.16000   0.16000   0.16000   0.22000
     Eigenvalues ---    0.22965   0.24000   0.25000   0.25000   0.25000
     Eigenvalues ---    0.25000   0.40098   0.40204   0.42307   0.43226
     Eigenvalues ---    0.43809   0.43877   0.43893   0.43910   0.43952
     Eigenvalues ---    0.44437   0.44493   0.51436   0.51488   0.53452
     Eigenvalues ---    0.53836   0.82270
 RFO step:  Lambda=-4.47746882D-02 EMin= 1.81066635D-02
 Linear search not attempted -- first point.
 Maximum step size (   0.300) exceeded in Quadratic search.
    -- Step size scaled by   0.843
 Iteration  1 RMS(Cart)=  0.04327603 RMS(Int)=  0.00146354
 Iteration  2 RMS(Cart)=  0.00198576 RMS(Int)=  0.00001302
 Iteration  3 RMS(Cart)=  0.00000064 RMS(Int)=  0.00001302
 ITry= 1 IFail=0 DXMaxC= 1.63D-01 DCOld= 1.00D+10 DXMaxT= 3.00D-01 DXLimC= 3.00D+00 Rises=F
 Variable       Old X    -DE/DX   Delta X   Delta X   Delta X     New X
                                 (Linear)    (Quad)   (Total)
    R1        2.36714  -0.01007   0.00000  -0.00979  -0.00979   2.35735
    R2        2.56181  -0.00293   0.00000  -0.00424  -0.00424   2.55758
    R3        2.68534   0.02862   0.00000   0.05157   0.05157   2.73691
    R4        1.85093  -0.00592   0.00000  -0.00891  -0.00891   1.84201
    R5        2.67954  -0.00699   0.00000  -0.01294  -0.01293   2.66661
    R6        2.67757  -0.00294   0.00000  -0.00546  -0.00545   2.67212
    R7        2.65985  -0.01450   0.00000  -0.02522  -0.02522   2.63463
    R8        1.93302   0.05362   0.00000   0.09345   0.09345   2.02648
    R9        2.65774  -0.00014   0.00000  -0.00000  -0.00002   2.65772
   R10        1.93262   0.05420   0.00000   0.09441   0.09441   2.02703
   R11        2.56534   0.00816   0.00000   0.01187   0.01187   2.57721
   R12        2.66011   0.00112   0.00000   0.00238   0.00238   2.66249
   R13        1.85143  -0.00248   0.00000  -0.00374  -0.00374   1.84770
   R14        2.65851  -0.01272   0.00000  -0.02166  -0.02166   2.63684
   R15        1.93212   0.05577   0.00000   0.09705   0.09705   2.02917
   R16        1.93282   0.05396   0.00000   0.09403   0.09403   2.02685
    A1        2.02728   0.03154   0.00000   0.09020   0.09020   2.11747
    A2        2.13045   0.00810   0.00000   0.02317   0.02316   2.15361
    A3        2.12543  -0.03964   0.00000  -0.11333  -0.11333   2.01210
    A4        2.10232  -0.03675   0.00000  -0.15127  -0.15127   1.95105
    A5        2.11924  -0.00805   0.00000  -0.02258  -0.02259   2.09665
    A6        2.10433   0.00355   0.00000   0.01057   0.01056   2.11489
    A7        2.05961   0.00450   0.00000   0.01201   0.01203   2.07164
    A8        2.11195  -0.00100   0.00000  -0.00407  -0.00406   2.10789
    A9        2.10773  -0.00241   0.00000  -0.00995  -0.00995   2.09778
   A10        2.06350   0.00341   0.00000   0.01402   0.01401   2.07752
   A11        2.09812  -0.00130   0.00000  -0.00375  -0.00376   2.09435
   A12        2.09062   0.00116   0.00000   0.00397   0.00398   2.09459
   A13        2.09445   0.00014   0.00000  -0.00022  -0.00021   2.09424
   A14        2.08682  -0.00916   0.00000  -0.02695  -0.02694   2.05988
   A15        2.08599   0.00207   0.00000   0.00742   0.00740   2.09339
   A16        2.11037   0.00710   0.00000   0.01954   0.01955   2.12992
   A17        1.84877   0.01287   0.00000   0.05297   0.05297   1.90174
   A18        2.09824  -0.00299   0.00000  -0.00787  -0.00787   2.09037
   A19        2.09706   0.00163   0.00000   0.00450   0.00450   2.10156
   A20        2.08788   0.00136   0.00000   0.00337   0.00337   2.09126
   A21        2.11233  -0.00127   0.00000  -0.00369  -0.00368   2.10865
   A22        2.10869  -0.00173   0.00000  -0.00787  -0.00788   2.10081
   A23        2.06216   0.00300   0.00000   0.01157   0.01156   2.07372
    D1        0.00088   0.00020   0.00000   0.00291   0.00296   0.00384
    D2       -3.13273  -0.00015   0.00000  -0.00230  -0.00235  -3.13507
    D3        0.03672  -0.00036   0.00000  -0.00469  -0.00467   0.03205
    D4       -3.10367  -0.00032   0.00000  -0.00404  -0.00402  -3.10769
    D5       -3.11333   0.00010   0.00000   0.00107   0.00105  -3.11228
    D6        0.02946   0.00014   0.00000   0.00172   0.00170   0.03116
    D7       -3.12845  -0.00017   0.00000  -0.00227  -0.00227  -3.13072
    D8        0.01440  -0.00014   0.00000  -0.00184  -0.00185   0.01255
    D9        0.01197  -0.00021   0.00000  -0.00290  -0.00290   0.00906
   D10       -3.12837  -0.00018   0.00000  -0.00247  -0.00248  -3.13085
   D11        3.12780   0.00013   0.00000   0.00172   0.00171   3.12950
   D12       -0.01265   0.00013   0.00000   0.00186   0.00185  -0.01080
   D13       -0.01263   0.00018   0.00000   0.00237   0.00237  -0.01026
   D14        3.13011   0.00018   0.00000   0.00251   0.00251   3.13262
   D15       -0.00002   0.00006   0.00000   0.00077   0.00077   0.00074
   D16       -3.14139   0.00006   0.00000   0.00076   0.00077  -3.14063
   D17        3.14035   0.00003   0.00000   0.00034   0.00033   3.14067
   D18       -0.00103   0.00002   0.00000   0.00033   0.00033  -0.00070
   D19        3.13148   0.00003   0.00000   0.00056   0.00058   3.13207
   D20       -0.01153   0.00015   0.00000   0.00199   0.00199  -0.00955
   D21       -0.01033   0.00004   0.00000   0.00057   0.00058  -0.00975
   D22        3.12984   0.00016   0.00000   0.00200   0.00199   3.13182
   D23        3.09923   0.00042   0.00000   0.00521   0.00520   3.10443
   D24       -0.04092   0.00030   0.00000   0.00377   0.00378  -0.03714
   D25        0.01088  -0.00020   0.00000  -0.00254  -0.00253   0.00835
   D26       -3.13131  -0.00019   0.00000  -0.00231  -0.00231  -3.13362
   D27       -3.13215  -0.00010   0.00000  -0.00113  -0.00111  -3.13327
   D28        0.00884  -0.00008   0.00000  -0.00091  -0.00089   0.00795
   D29        0.00136   0.00001   0.00000   0.00028   0.00028   0.00164
   D30       -3.14135   0.00000   0.00000   0.00013   0.00013  -3.14122
   D31       -3.13965  -0.00001   0.00000   0.00005   0.00006  -3.13958
   D32        0.00083  -0.00001   0.00000  -0.00009  -0.00009   0.00074
         Item               Value     Threshold  Converged?
 Maximum Force            0.055766     0.000450     NO 
 RMS     Force            0.015805     0.000300     NO 
 Maximum Displacement     0.163291     0.001800     NO 
 RMS     Displacement     0.044144     0.001200     NO 
 Predicted change in Energy=-2.385271D-02
 Lowest energy point so far.  Saving SCF results.
 GradGradGradGradGradGradGradGradGradGradGradGradGradGradGradGradGradGrad

 Leave Link  103 at Mon Feb 22 21:02:18 2021, MaxMem=   104857600 cpu:               0.9 elap:               0.1
 (Enter /sw/arch/RedHatEnterpriseServer7/EB_production/2019/software/Gaussian/g16.c01/l202.exe)
                          Input orientation:                          
 ---------------------------------------------------------------------
 Center     Atomic      Atomic             Coordinates (Angstroms)
 Number     Number       Type             X           Y           Z
 ---------------------------------------------------------------------
      1          8           0        2.838671    4.668141    1.971894
      2          6           0        1.626419    4.531885    2.232719
      3          8           0        1.165435    4.621576    3.502038
      4          6           0        0.618367    4.274089    1.225258
      5          6           0        0.990786    4.125982   -0.127737
      6          6           0        0.030173    3.890375   -1.110318
      7          6           0       -1.328282    3.798659   -0.757946
      8          8           0       -2.234831    3.578588   -1.752777
      9          6           0       -1.715827    3.933572    0.589897
     10          6           0       -0.749226    4.167844    1.568582
     11          1           0        1.883761    4.801203    4.135980
     12          1           0        2.022235    4.192212   -0.413565
     13          1           0        0.327012    3.778833   -2.135031
     14          1           0       -3.126779    3.504511   -1.359136
     15          1           0       -2.750114    3.857563    0.868291
     16          1           0       -1.061231    4.267716    2.589889
 ---------------------------------------------------------------------
                    Distance matrix (angstroms):
                    1          2          3          4          5
     1  O    0.000000
     2  C    1.247457   0.000000
     3  O    2.267869   1.353411   0.000000
     4  C    2.375392   1.448311   2.367225   0.000000
     5  C    2.849046   2.478011   3.667612   1.411109   0.000000
     6  C    4.241769   3.759712   4.805965   2.438878   1.394185
     7  C    5.056828   4.267547   5.004325   2.819322   2.425362
     8  O    6.387544   5.630472   6.345291   4.182482   3.653081
     9  C    4.815907   3.771930   4.153984   2.442969   2.806737
    10  C    3.644992   2.493451   2.758632   1.414027   2.430410
    11  H    2.369141   1.939371   0.974752   3.217355   4.408243
    12  H    2.565831   2.697196   4.031179   2.159465   1.072367
    13  H    4.895521   4.618743   5.761051   3.409063   2.142507
    14  H    6.930829   6.045644   6.580421   4.614918   4.342455
    15  H    5.754085   4.633618   4.780362   3.412856   3.880523
    16  H    3.968816   2.724119   2.432134   2.164096   3.408278
                    6          7          8          9         10
     6  C    0.000000
     7  C    1.406406   0.000000
     8  O    2.374913   1.363801   0.000000
     9  C    2.437440   1.408926   2.425593   0.000000
    10  C    2.803740   2.425765   3.685875   1.395358   0.000000
    11  H    5.638176   5.939092   7.289379   5.126843   3.731661
    12  H    2.131872   3.391083   4.504735   3.879038   3.407418
    13  H    1.072657   2.153312   2.597933   3.409160   3.876386
    14  H    3.190164   1.918996   0.977758   2.444097   3.829400
    15  H    3.412619   2.160955   2.685767   1.073793   2.142483
    16  H    3.876220   3.391066   4.550932   2.130755   1.072562
                   11         12         13         14         15
    11  H    0.000000
    12  H    4.592211   0.000000
    13  H    6.541734   2.451144   0.000000
    14  H    7.548723   5.280093   3.550484   0.000000
    15  H    5.748134   4.952823   4.300564   2.286472   0.000000
    16  H    3.368677   4.305137   4.948848   4.521479   2.446314
                   16
    16  H    0.000000
 Stoichiometry    C7H6O3
 Framework group  C1[X(C7H6O3)]
 Deg. of freedom    42
 Full point group                 C1      NOp   1
 RotChk:  IX=0 Diff= 7.71D-03
 Largest Abelian subgroup         C1      NOp   1
 Largest concise Abelian subgroup C1      NOp   1
                         Standard orientation:                         
 ---------------------------------------------------------------------
 Center     Atomic      Atomic             Coordinates (Angstroms)
 Number     Number       Type             X           Y           Z
 ---------------------------------------------------------------------
      1          8           0        2.795109    1.146107    0.033581
      2          6           0        2.136216    0.087281    0.003618
      3          8           0        2.746272   -1.120628   -0.018935
      4          6           0        0.688434    0.049369   -0.006107
      5          6           0       -0.051502    1.250835   -0.020266
      6          6           0       -1.445529    1.230137   -0.016725
      7          6           0       -2.130477    0.001938    0.002034
      8          8           0       -3.493938    0.028829    0.016308
      9          6           0       -1.406744   -1.206893    0.005578
     10          6           0       -0.011670   -1.179159    0.000542
     11          1           0        3.717234   -1.035867   -0.005217
     12          1           0        0.454916    2.195969   -0.035514
     13          1           0       -1.995802    2.150818   -0.028510
     14          1           0       -3.830061   -0.889070   -0.005907
     15          1           0       -1.922078   -2.148919    0.012471
     16          1           0        0.523882   -2.108443    0.002993
 ---------------------------------------------------------------------
 Rotational constants (GHZ):           3.8033273           0.7877667           0.6526636
 Leave Link  202 at Mon Feb 22 21:02:18 2021, MaxMem=   104857600 cpu:               0.2 elap:               0.0
 (Enter /sw/arch/RedHatEnterpriseServer7/EB_production/2019/software/Gaussian/g16.c01/l301.exe)
 Standard basis: TZVP (5D, 7F)
 Ernie: Thresh=  0.10000D-02 Tol=  0.10000D-05 Strict=F.
 There are   236 symmetry adapted cartesian basis functions of A   symmetry.
 There are   226 symmetry adapted basis functions of A   symmetry.
   226 basis functions,   398 primitive gaussians,   236 cartesian basis functions
    36 alpha electrons       36 beta electrons
       nuclear repulsion energy       485.7051360421 Hartrees.
 IExCor=  404 DFT=T Ex=B Corr=P86 ExCW=0 ScaHFX=  0.000000
 ScaDFX=  1.000000  1.000000  1.000000  1.000000 ScalE2=  1.000000  1.000000
 IRadAn=      5 IRanWt=     -1 IRanGd=            0 ICorTp=0 IEmpDi=131
 NAtoms=   16 NActive=   16 NUniq=   16 SFac= 1.00D+00 NAtFMM=   60 NAOKFM=F Big=F
 Integral buffers will be    131072 words long.
 Raffenetti 2 integral format.
 Two-electron integral symmetry is turned on.
 R6Disp:  Grimme-D3 Dispersion energy=       -0.0124765633 Hartrees.
 Nuclear repulsion after empirical dispersion term =      485.6926594788 Hartrees.
 ------------------------------------------------------------------------------
 Polarizable Continuum Model (PCM)
 =================================
 Model                : PCM.
 Atomic radii         : UFF (Universal Force Field).
 Polarization charges : Total charges.
 Charge compensation  : None.
 Solution method      : On-the-fly selection.
 Cavity type          : Scaled VdW (van der Waals Surface) (Alpha=1.100).
 Cavity algorithm     : GePol (No added spheres)
                        Default sphere list used, NSphG=   16.
                        Lebedev-Laikov grids with approx.  5.0 points / Ang**2.
                        Smoothing algorithm: York/Karplus (Gamma=1.0000).
                        Polarization charges: spherical gaussians, with
                                              point-specific exponents (IZeta= 3).
                        Self-potential: point-specific (ISelfS= 7).
                        Self-field    : sphere-specific E.n sum rule (ISelfD= 2).
 1st derivatives      : Analytical E(r).r(x)/FMM algorithm (CHGder, D1EAlg=3).
                        Cavity 1st derivative terms included.
 Solvent              : Water, Eps=  78.355300 Eps(inf)=   1.777849
 ------------------------------------------------------------------------------
 Spheres list:
 ISph  on   Nord     Re0    Alpha      Xe            Ye            Ze
    1   O      1    1.7500  1.100      2.795109      1.146107      0.033581
    2   C      2    1.9255  1.100      2.136216      0.087281      0.003618
    3   O      3    1.7500  1.100      2.746272     -1.120628     -0.018935
    4   C      4    1.9255  1.100      0.688434      0.049369     -0.006107
    5   C      5    1.9255  1.100     -0.051502      1.250835     -0.020266
    6   C      6    1.9255  1.100     -1.445529      1.230137     -0.016725
    7   C      7    1.9255  1.100     -2.130477      0.001938      0.002034
    8   O      8    1.7500  1.100     -3.493938      0.028829      0.016308
    9   C      9    1.9255  1.100     -1.406744     -1.206893      0.005578
   10   C     10    1.9255  1.100     -0.011670     -1.179159      0.000542
   11   H     11    1.4430  1.100      3.717234     -1.035867     -0.005217
   12   H     12    1.4430  1.100      0.454916      2.195969     -0.035514
   13   H     13    1.4430  1.100     -1.995802      2.150818     -0.028510
   14   H     14    1.4430  1.100     -3.830061     -0.889070     -0.005907
   15   H     15    1.4430  1.100     -1.922078     -2.148919      0.012471
   16   H     16    1.4430  1.100      0.523882     -2.108443      0.002993
 ------------------------------------------------------------------------------
 GePol: Number of generator spheres                  =      16
 GePol: Total number of spheres                      =      16
 GePol: Number of exposed spheres                    =      16 (100.00%)
 GePol: Number of points                             =    1440
 GePol: Average weight of points                     =       0.13
 GePol: Minimum weight of points                     =   0.14D-09
 GePol: Maximum weight of points                     =    0.20577
 GePol: Number of points with low weight             =      59
 GePol: Fraction of low-weight points (<1% of avg)   =       4.10%
 GePol: Cavity surface area                          =    190.782 Ang**2
 GePol: Cavity volume                                =    188.526 Ang**3
 Leave Link  301 at Mon Feb 22 21:02:18 2021, MaxMem=   104857600 cpu:               1.7 elap:               0.1
 (Enter /sw/arch/RedHatEnterpriseServer7/EB_production/2019/software/Gaussian/g16.c01/l302.exe)
 NPDir=0 NMtPBC=     1 NCelOv=     1 NCel=       1 NClECP=     1 NCelD=      1
         NCelK=      1 NCelE2=     1 NClLst=     1 CellRange=     0.0.
 One-electron integrals computed using PRISM.
 One-electron integral symmetry used in STVInt
 PrsmSu:  requested number of processors reduced to:  29 ShMem   1 Linda.
 NBasis=   226 RedAO= T EigKep=  1.04D-05  NBF=   226
 NBsUse=   226 1.00D-06 EigRej= -1.00D+00 NBFU=   226
 Precomputing XC quadrature grid using
 IXCGrd= 4 IRadAn=           5 IRanWt=          -1 IRanGd=           0 AccXCQ= 0.00D+00.
 Generated NRdTot=       0 NPtTot=           0 NUsed=           0 NTot=          32
 NSgBfM=   233   233   233   233   233 MxSgAt=    16 MxSgA2=    16.
 Leave Link  302 at Mon Feb 22 21:02:18 2021, MaxMem=   104857600 cpu:               5.7 elap:               0.2
 (Enter /sw/arch/RedHatEnterpriseServer7/EB_production/2019/software/Gaussian/g16.c01/l303.exe)
 DipDrv:  MaxL=1.
 Leave Link  303 at Mon Feb 22 21:02:18 2021, MaxMem=   104857600 cpu:               1.0 elap:               0.1
 (Enter /sw/arch/RedHatEnterpriseServer7/EB_production/2019/software/Gaussian/g16.c01/l401.exe)
 Initial guess from the checkpoint file:  "FJKROLUGYXJWQN-UHFFFAOYSA-N.chk"
 B after Tr=    -0.000000   -0.000000   -0.000000
         Rot=    0.999995    0.000153   -0.000060    0.003074 Ang=   0.35 deg.
 Guess basis will be translated and rotated to current coordinates.
 JPrj=2 DoOrth=T DoCkMO=T.
 Generating alternative initial guess.
 ExpMin= 9.52D-02 ExpMax= 2.70D+04 ExpMxC= 9.22D+02 IAcc=3 IRadAn=         5 AccDes= 0.00D+00
 Harris functional with IExCor=  404 and IRadAn=       5 diagonalized for initial guess.
 HarFok:  IExCor=  404 AccDes= 0.00D+00 IRadAn=         5 IDoV= 1 UseB2=F ITyADJ=14
 ICtDFT=  3500011 ScaDFX=  1.000000  1.000000  1.000000  1.000000
 FoFCou: FMM=F IPFlag=           0 FMFlag=      100000 FMFlg1=           0
         NFxFlg=           0 DoJE=T BraDBF=F KetDBF=T FulRan=T
         wScrn=  0.000000 ICntrl=       500 IOpCl=  0 I1Cent=   200000004 NGrid=           0
         NMat0=    1 NMatS0=      1 NMatT0=    0 NMatD0=    1 NMtDS0=    0 NMtDT0=    0
 Petite list used in FoFCou.
 Harris En= -496.382019825685    
 Leave Link  401 at Mon Feb 22 21:02:19 2021, MaxMem=   104857600 cpu:              12.4 elap:               0.4
 (Enter /sw/arch/RedHatEnterpriseServer7/EB_production/2019/software/Gaussian/g16.c01/l502.exe)
 Integral symmetry usage will be decided dynamically.
 Closed shell SCF:
 Using DIIS extrapolation, IDIIS=  1040.
 NGot=   104857600 LenX=   104735902 LenY=   104679765
 Requested convergence on RMS density matrix=1.00D-08 within 128 cycles.
 Requested convergence on MAX density matrix=1.00D-06.
 Requested convergence on             energy=1.00D-06.
 No special actions if energy rises.
 Fock matrices will be formed incrementally for  20 cycles.

 Cycle   1  Pass 1  IDiag  1:
 FoFJK:  IHMeth= 1 ICntrl=     500 DoSepK=F KAlg= 0 I1Cent=           0 FoldK=F
 IRaf= 910000000 NMat=       1 IRICut=       1 DoRegI=T DoRafI=F ISym2E= 0 IDoP0=0 IntGTp=1.
 FoFCou: FMM=F IPFlag=           0 FMFlag=      100000 FMFlg1=           0
         NFxFlg=           0 DoJE=T BraDBF=F KetDBF=F FulRan=T
         wScrn=  0.000000 ICntrl=       500 IOpCl=  0 I1Cent=           0 NGrid=           0
         NMat0=    1 NMatS0=      1 NMatT0=    0 NMatD0=    1 NMtDS0=    0 NMtDT0=    0
 Symmetry not used in FoFCou.
 Inv3:  Mode=1 IEnd=     6220800.
 Iteration    1 A*A^-1 deviation from unit magnitude is 3.11D-15 for    742.
 Iteration    1 A*A^-1 deviation from orthogonality  is 2.22D-15 for   1378   1173.
 Iteration    1 A^-1*A deviation from unit magnitude is 3.11D-15 for    370.
 Iteration    1 A^-1*A deviation from orthogonality  is 2.64D-15 for   1085    507.
 E= -496.247056301795    
 DIIS: error= 3.33D-03 at cycle   1 NSaved=   1.
 NSaved= 1 IEnMin= 1 EnMin= -496.247056301795     IErMin= 1 ErrMin= 3.33D-03
 ErrMax= 3.33D-03  0.00D+00 EMaxC= 1.00D-01 BMatC= 5.05D-03 BMatP= 5.05D-03
 IDIUse=3 WtCom= 9.67D-01 WtEn= 3.33D-02
 Coeff-Com:  0.100D+01
 Coeff-En:   0.100D+01
 Coeff:      0.100D+01
 Gap=     0.614 Goal=   None    Shift=    0.000
 GapD=    0.614 DampG=2.000 DampE=1.000 DampFc=2.0000 IDamp=-1.
 RMSDP=1.38D-03 MaxDP=5.26D-02              OVMax= 2.17D-02

 Cycle   2  Pass 1  IDiag  1:
 RMSU=  1.35D-03    CP:  9.83D-01
 E= -496.251626972485     Delta-E=       -0.004570670690 Rises=F Damp=F
 DIIS: error= 3.21D-03 at cycle   2 NSaved=   2.
 NSaved= 2 IEnMin= 2 EnMin= -496.251626972485     IErMin= 2 ErrMin= 3.21D-03
 ErrMax= 3.21D-03  0.00D+00 EMaxC= 1.00D-01 BMatC= 1.71D-03 BMatP= 5.05D-03
 IDIUse=3 WtCom= 9.68D-01 WtEn= 3.21D-02
 Coeff-Com:  0.298D+00 0.702D+00
 Coeff-En:   0.000D+00 0.100D+01
 Coeff:      0.288D+00 0.712D+00
 Gap=     0.133 Goal=   None    Shift=    0.000
 RMSDP=6.83D-04 MaxDP=3.92D-02 DE=-4.57D-03 OVMax= 4.25D-02

 Cycle   3  Pass 1  IDiag  1:
 RMSU=  6.31D-04    CP:  9.94D-01  8.51D-01
 E= -496.248736186495     Delta-E=        0.002890785989 Rises=F Damp=F
 DIIS: error= 6.77D-03 at cycle   3 NSaved=   3.
 NSaved= 3 IEnMin= 2 EnMin= -496.251626972485     IErMin= 2 ErrMin= 3.21D-03
 ErrMax= 6.77D-03  0.00D+00 EMaxC= 1.00D-01 BMatC= 5.58D-03 BMatP= 1.71D-03
 IDIUse=3 WtCom= 1.08D-01 WtEn= 8.92D-01
 Coeff-Com:  0.410D-01 0.625D+00 0.334D+00
 Coeff-En:   0.000D+00 0.695D+00 0.305D+00
 Coeff:      0.444D-02 0.688D+00 0.308D+00
 Gap=     0.133 Goal=   None    Shift=    0.000
 RMSDP=3.98D-04 MaxDP=2.43D-02 DE= 2.89D-03 OVMax= 2.47D-02

 Cycle   4  Pass 1  IDiag  1:
 RMSU=  9.62D-05    CP:  9.87D-01  9.38D-01  4.39D-01
 E= -496.252791763037     Delta-E=       -0.004055576541 Rises=F Damp=F
 DIIS: error= 8.67D-04 at cycle   4 NSaved=   4.
 NSaved= 4 IEnMin= 4 EnMin= -496.252791763037     IErMin= 4 ErrMin= 8.67D-04
 ErrMax= 8.67D-04  0.00D+00 EMaxC= 1.00D-01 BMatC= 1.72D-04 BMatP= 1.71D-03
 IDIUse=3 WtCom= 9.91D-01 WtEn= 8.67D-03
 Coeff-Com:  0.664D-02 0.325D+00 0.832D-01 0.585D+00
 Coeff-En:   0.000D+00 0.128D+00 0.000D+00 0.872D+00
 Coeff:      0.659D-02 0.324D+00 0.825D-01 0.587D+00
 Gap=     0.132 Goal=   None    Shift=    0.000
 RMSDP=9.35D-05 MaxDP=7.03D-03 DE=-4.06D-03 OVMax= 3.88D-03

 Cycle   5  Pass 1  IDiag  1:
 RMSU=  4.06D-05    CP:  9.86D-01  9.63D-01  3.25D-01  8.80D-01
 E= -496.252919521426     Delta-E=       -0.000127758389 Rises=F Damp=F
 DIIS: error= 2.24D-04 at cycle   5 NSaved=   5.
 NSaved= 5 IEnMin= 5 EnMin= -496.252919521426     IErMin= 5 ErrMin= 2.24D-04
 ErrMax= 2.24D-04  0.00D+00 EMaxC= 1.00D-01 BMatC= 1.14D-05 BMatP= 1.72D-04
 IDIUse=3 WtCom= 9.98D-01 WtEn= 2.24D-03
 Coeff-Com:  0.703D-04 0.144D+00 0.191D-01 0.388D+00 0.448D+00
[...]
     10          6           0       -0.021106   -1.188637    0.000083
     11          1           0        3.719091   -0.971616   -0.000113
     12          1           0        0.483150    2.186992   -0.000116
     13          1           0       -2.018289    2.155822   -0.000092
     14          1           0       -3.861533   -0.856857    0.000708
     15          1           0       -1.948334   -2.163973    0.000084
     16          1           0        0.530654   -2.128856    0.000141
 ---------------------------------------------------------------------
 Rotational constants (GHZ):           3.8033780           0.7833991           0.6495984
 Standard basis: TZVP (5D, 7F)
 There are   236 symmetry adapted cartesian basis functions of A   symmetry.
 There are   226 symmetry adapted basis functions of A   symmetry.
   226 basis functions,   398 primitive gaussians,   236 cartesian basis functions
    36 alpha electrons       36 beta electrons
       nuclear repulsion energy       484.8359196106 Hartrees.
 NAtoms=   16 NActive=   16 NUniq=   16 SFac= 1.00D+00 NAtFMM=   60 NAOKFM=F Big=F
 Integral buffers will be    131072 words long.
 Raffenetti 2 integral format.
 Two-electron integral symmetry is turned on.
 Warning! Using old PCM defaults because the COSMOthermo output has been requested.
 These settings can be overridden by following keywords.
 ------------------------------------------------------------------------------
 Polarizable Continuum Model (PCM)
 =================================
 Model                : C-PCM.
 Atomic radii         : Klamt.
 XCosmo               : -1.000 (infinite dielectric limit)
 Polarization charges : Electronic and nuclear charges.
 Charge compensation  : Type 3 (Electronic density weighted correction).
 Solution method      : On-the-fly selection.
 Cavity type          : VdW (van der Waals Surface) (Alpha=1.000).
 Cavity algorithm     : GePol (No added spheres)
                        Default sphere list used, NSphG=   16.
                        Tesserae with average area of 0.200 Ang**2.
                        Smoothing algorithm: None.
                        Polarization charges: point-like.
                        Self-potential: constant (ISelfS= 1).
                        Self-field    : global E.n sum rule (ISelfD= 3).
 Solvent              : Water, Eps=  78.355300 Eps(inf)=   1.777849
 ------------------------------------------------------------------------------
 Spheres list:
 ISph  on   Nord     Re0    Alpha      Xe            Ye            Ze
    1   O      1    1.7200  1.000      2.810495      1.144510      0.000194
    2   C      2    2.0000  1.000      2.154632      0.106361      0.000011
    3   O      3    1.7200  1.000      2.750909     -1.124830     -0.000198
    4   C      4    2.0000  1.000      0.676688      0.034836      0.000003
    5   C      5    2.0000  1.000     -0.056675      1.238651     -0.000075
    6   C      6    2.0000  1.000     -1.445834      1.227042     -0.000054
    7   C      7    2.0000  1.000     -2.131764     -0.001582      0.000020
    8   O      8    1.7200  1.000     -3.496442      0.048590     -0.000120
    9   C      9    2.0000  1.000     -1.413347     -1.211282      0.000074
   10   C     10    2.0000  1.000     -0.021106     -1.188637      0.000083
   11   H     11    1.3000  1.000      3.719091     -0.971616     -0.000113
   12   H     12    1.3000  1.000      0.483150      2.186992     -0.000116
   13   H     13    1.3000  1.000     -2.018289      2.155822     -0.000092
   14   H     14    1.3000  1.000     -3.861533     -0.856857      0.000708
   15   H     15    1.3000  1.000     -1.948334     -2.163973      0.000084
   16   H     16    1.3000  1.000      0.530654     -2.128856      0.000141
 ------------------------------------------------------------------------------
 One-electron integrals computed using PRISM.
 PrsmSu:  requested number of processors reduced to:  29 ShMem   1 Linda.
 NBasis=   226 RedAO= T EigKep=  1.04D-05  NBF=   226
 NBsUse=   226 1.00D-06 EigRej= -1.00D+00 NBFU=   226
 Initial guess from the checkpoint file:  "FJKROLUGYXJWQN-UHFFFAOYSA-N.chk"
 B after Tr=     0.000000   -0.000000    0.000000
         Rot=    1.000000    0.000000   -0.000000   -0.000000 Ang=   0.00 deg.
 Requested convergence on RMS density matrix=1.00D-08 within 128 cycles.
 Requested convergence on MAX density matrix=1.00D-06.
 Requested convergence on             energy=1.00D-06.
 No special actions if energy rises.
 Inv3:  Mode=1 IEnd=     4320000.
 Iteration    1 A*A^-1 deviation from unit magnitude is 8.84D-14 for    832.
 Iteration    1 A*A^-1 deviation from orthogonality  is 4.08D-14 for    832    351.
 Iteration    1 A^-1*A deviation from unit magnitude is 6.02D-14 for    351.
 Iteration    1 A^-1*A deviation from orthogonality  is 9.53D-14 for    832    351.
 Error on nuclear    polarization charges =  0.02388
 Error on electronic polarization charges = -0.04962
 SCF Done:  E(RB-P86) =  -496.251815987     A.U. after   12 cycles
            NFock= 12  Conv=0.28D-08     -V/T= 2.0043
 --------------------------------------------------------------------
 Variational C-PCM results
 =========================
 <psi(f)|   H    |psi(f)>                     (a.u.) =    -496.227703
 <psi(f)|H+V(f)/2|psi(f)>                     (a.u.) =    -496.251816
 Total free energy in solution:
 - with all non electrostatic terms           (a.u.) =    -496.241277
 --------------------------------------------------------------------
 (Polarized solute)-Solvent               (kcal/mol) =     -15.13
 --------------------------------------------------------------------
 Cavitation energy                        (kcal/mol) =      21.01
 Dispersion energy                        (kcal/mol) =     -15.67
 Repulsion energy                         (kcal/mol) =       1.27
 Total non electrostatic                  (kcal/mol) =       6.61
 --------------------------------------------------------------------
 Partition over spheres:
 Sphere  on Atom  Surface  Charge   GEl     GCav    GDR
    1      O1      19.38   0.244   -4.44    2.41   -1.62
    2      C2      10.61  -0.023   -0.01    1.25   -0.78
    3      O3      14.51   0.090   -0.73    1.80   -1.25
    4      C4       5.75   0.013   -0.08    0.68   -0.35
    5      C5      12.66   0.018   -0.16    1.49   -0.95
    6      C6      13.66   0.018   -0.14    1.61   -1.02
    7      C7       7.93   0.001   -0.12    0.93   -0.53
    8      O8      16.06   0.109   -1.03    2.00   -1.49
    9      C9      13.39   0.002   -0.50    1.57   -1.02
   10      C10     12.54   0.008   -0.09    1.47   -0.95
   11      H11      8.39  -0.147   -2.31    1.18   -0.89
   12      H12      5.98  -0.041    0.02    0.84   -0.61
   13      H13      6.43  -0.048   -0.29    0.91   -0.77
   14      H14      8.14  -0.148   -3.93    1.15   -0.82
   15      H15      6.45  -0.053   -1.01    0.91   -0.73
   16      H16      5.77  -0.042   -0.30    0.81   -0.60
 --------------------------------------------------------------------
 - cavitation energy not included in the total energy.
 - dispersion energy not included in the total energy.
 - repulsion  energy not included in the total energy.
 After PCM corrections, the energy is  -496.251815987     a.u.
 --------------------------------------------------------------------
 Writing COSMO formatted file "FJKROLUGYXJWQN-UHFFFAOYSA-N.cosmo"
 Recomputed dielectric energy= -0.024195 old= -0.024113 diff=-8.13D-05

 **********************************************************************

            Population analysis using the SCF Density.

 **********************************************************************

 Orbital symmetries:
       Occupied  (A) (A) (A) (A) (A) (A) (A) (A) (A) (A) (A) (A)
                 (A) (A) (A) (A) (A) (A) (A) (A) (A) (A) (A) (A)
                 (A) (A) (A) (A) (A) (A) (A) (A) (A) (A) (A) (A)
       Virtual   (A) (A) (A) (A) (A) (A) (A) (A) (A) (A) (A) (A)
                 (A) (A) (A) (A) (A) (A) (A) (A) (A) (A) (A) (A)
                 (A) (A) (A) (A) (A) (A) (A) (A) (A) (A) (A) (A)
                 (A) (A) (A) (A) (A) (A) (A) (A) (A) (A) (A) (A)
                 (A) (A) (A) (A) (A) (A) (A) (A) (A) (A) (A) (A)
                 (A) (A) (A) (A) (A) (A) (A) (A) (A) (A) (A) (A)
                 (A) (A) (A) (A) (A) (A) (A) (A) (A) (A) (A) (A)
                 (A) (A) (A) (A) (A) (A) (A) (A) (A) (A) (A) (A)
                 (A) (A) (A) (A) (A) (A) (A) (A) (A) (A) (A) (A)
                 (A) (A) (A) (A) (A) (A) (A) (A) (A) (A) (A) (A)
                 (A) (A) (A) (A) (A) (A) (A) (A) (A) (A) (A) (A)
                 (A) (A) (A) (A) (A) (A) (A) (A) (A) (A) (A) (A)
                 (A) (A) (A) (A) (A) (A) (A) (A) (A) (A) (A) (A)
                 (A) (A) (A) (A) (A) (A) (A) (A) (A) (A) (A) (A)
                 (A) (A) (A) (A) (A) (A) (A) (A) (A) (A) (A) (A)
                 (A) (A) (A) (A) (A) (A) (A) (A) (A) (A)
 The electronic state is 1-A.
 Alpha  occ. eigenvalues --  -18.81849 -18.81451 -18.76650 -10.03311  -9.97978
 Alpha  occ. eigenvalues --   -9.92253  -9.92077  -9.91923  -9.91382  -9.91153
 Alpha  occ. eigenvalues --   -1.01980  -0.98988  -0.93623  -0.79587  -0.70433
 Alpha  occ. eigenvalues --   -0.69554  -0.61128  -0.57163  -0.54971  -0.50689
 Alpha  occ. eigenvalues --   -0.47329  -0.45125  -0.42747  -0.41145  -0.40783
 Alpha  occ. eigenvalues --   -0.39061  -0.38032  -0.37628  -0.35721  -0.34393
 Alpha  occ. eigenvalues --   -0.31464  -0.31039  -0.29081  -0.25019  -0.24840
 Alpha  occ. eigenvalues --   -0.22071
 Alpha virt. eigenvalues --   -0.08723  -0.05730   0.00597   0.02870   0.03035
 Alpha virt. eigenvalues --    0.05356   0.07479   0.09166   0.10198   0.10338
 Alpha virt. eigenvalues --    0.11680   0.12923   0.15868   0.16587   0.16903
 Alpha virt. eigenvalues --    0.17395   0.19498   0.20115   0.21178   0.21713
 Alpha virt. eigenvalues --    0.22051   0.22595   0.25000   0.26392   0.27859
 Alpha virt. eigenvalues --    0.28159   0.28434   0.29265   0.30272   0.32085
 Alpha virt. eigenvalues --    0.32431   0.33000   0.34824   0.35577   0.36990
 Alpha virt. eigenvalues --    0.39026   0.39317   0.40526   0.40820   0.42120
 Alpha virt. eigenvalues --    0.44071   0.44463   0.45409   0.46091   0.46093
 Alpha virt. eigenvalues --    0.47679   0.47868   0.49617   0.52417   0.54243
 Alpha virt. eigenvalues --    0.56953   0.57566   0.58740   0.61379   0.62871
 Alpha virt. eigenvalues --    0.64032   0.67056   0.69231   0.71740   0.74273
 Alpha virt. eigenvalues --    0.74888   0.76940   0.78658   0.82478   0.86630
 Alpha virt. eigenvalues --    0.91563   1.09064   1.14377   1.15908   1.17123
 Alpha virt. eigenvalues --    1.18649   1.19457   1.20869   1.21066   1.21978
 Alpha virt. eigenvalues --    1.26183   1.28302   1.28951   1.30827   1.31125
 Alpha virt. eigenvalues --    1.32333   1.32347   1.34910   1.35917   1.37053
 Alpha virt. eigenvalues --    1.37367   1.37877   1.39132   1.41432   1.43087
 Alpha virt. eigenvalues --    1.44190   1.44803   1.45314   1.46718   1.47371
 Alpha virt. eigenvalues --    1.48226   1.50214   1.52121   1.56871   1.64755
 Alpha virt. eigenvalues --    1.68180   1.68728   1.69986   1.72652   1.73710
 Alpha virt. eigenvalues --    1.78137   1.78945   1.80537   1.82035   1.83461
 Alpha virt. eigenvalues --    1.83895   1.90543   1.91993   1.92460   1.92962
 Alpha virt. eigenvalues --    1.94578   1.98786   2.05249   2.08806   2.10683
 Alpha virt. eigenvalues --    2.14099   2.16144   2.17251   2.20330   2.20543
 Alpha virt. eigenvalues --    2.21297   2.23360   2.24496   2.27379   2.28278
 Alpha virt. eigenvalues --    2.29922   2.40774   2.42579   2.44183   2.45994
 Alpha virt. eigenvalues --    2.48337   2.49830   2.50017   2.53168   2.53345
 Alpha virt. eigenvalues --    2.55304   2.55557   2.58097   2.58961   2.59548
 Alpha virt. eigenvalues --    2.60758   2.63824   2.66166   2.71007   2.71880
 Alpha virt. eigenvalues --    2.80064   2.82361   2.83012   2.85091   2.87870
 Alpha virt. eigenvalues --    2.88786   2.91870   2.95237   2.96270   2.96944
 Alpha virt. eigenvalues --    2.97615   3.04107   3.04654   3.07337   3.08314
 Alpha virt. eigenvalues --    3.09926   3.10911   3.14553   3.17216   3.22751
 Alpha virt. eigenvalues --    3.28168   3.29596   3.38494   3.45833   3.54491
 Alpha virt. eigenvalues --    3.83198   3.93605   4.10128   4.18672   4.20630
 Alpha virt. eigenvalues --   21.03056  21.54302  21.55726  21.76500  21.80367
 Alpha virt. eigenvalues --   21.83698  21.93654  43.05910  43.13793  43.15367
          Condensed to atoms (all electrons):
               1          2          3          4          5          6
     1  O    7.975127   0.648121  -0.102774  -0.202256   0.021512   0.002334
     2  C    0.648121   5.048583   0.380176  -0.098670  -0.090667   0.018860
     3  O   -0.102774   0.380176   7.897668  -0.226730   0.014193  -0.001076
     4  C   -0.202256  -0.098670  -0.226730   6.289030   0.273844   0.058833
     5  C    0.021512  -0.090667   0.014193   0.273844   5.206963   0.328221
     6  C    0.002334   0.018860  -0.001076   0.058833   0.328221   5.315749
     7  C    0.000370   0.005278   0.000928  -0.155052   0.032401   0.339875
     8  O   -0.000000   0.000053   0.000000  -0.000994   0.006823  -0.077742
     9  C   -0.001553   0.008161  -0.002980   0.111702  -0.076812  -0.060461
    10  C    0.013012  -0.038807   0.025807   0.150224  -0.044047  -0.081002
    11  H    0.002073  -0.021290   0.288317   0.025880  -0.001159   0.000099
    12  H    0.019046  -0.028082   0.001148  -0.073838   0.442232  -0.053278
    13  H   -0.000067  -0.001395  -0.000000   0.018515  -0.042960   0.434452
    14  H    0.000000  -0.000018   0.000000  -0.000433  -0.001309   0.011780
    15  H    0.000001  -0.001024  -0.000117   0.012737   0.000827   0.006919
    16  H    0.000531  -0.020372   0.014254  -0.058951   0.010260  -0.001796
               7          8          9         10         11         12
     1  O    0.000370  -0.000000  -0.001553   0.013012   0.002073   0.019046
     2  C    0.005278   0.000053   0.008161  -0.038807  -0.021290  -0.028082
     3  O    0.000928   0.000000  -0.002980   0.025807   0.288317   0.001148
     4  C   -0.155052  -0.000994   0.111702   0.150224   0.025880  -0.073838
     5  C    0.032401   0.006823  -0.076812  -0.044047  -0.001159   0.442232
     6  C    0.339875  -0.077742  -0.060461  -0.081002   0.000099  -0.053278
     7  C    5.055624   0.381929   0.176606   0.135417  -0.000027   0.018865
     8  O    0.381929   7.772845  -0.108000   0.019818  -0.000000  -0.000116
     9  C    0.176606  -0.108000   5.815416  -0.020228   0.000137  -0.004682
    10  C    0.135417   0.019818  -0.020228   5.485911  -0.002280   0.015821
    11  H   -0.000027  -0.000000   0.000137  -0.002280   0.376303  -0.000065
    12  H    0.018865  -0.000116  -0.004682   0.015821  -0.000065   0.518039
    13  H   -0.084900   0.003950   0.015355  -0.003593  -0.000001  -0.007439
    14  H   -0.023915   0.306772  -0.022535   0.005460  -0.000000   0.000025
    15  H   -0.060409  -0.005582   0.414318  -0.026967  -0.000000   0.000033
    16  H    0.011040  -0.000102  -0.043166   0.429688  -0.000413  -0.000183
              13         14         15         16
     1  O   -0.000067   0.000000   0.000001   0.000531
     2  C   -0.001395  -0.000018  -0.001024  -0.020372
     3  O   -0.000000   0.000000  -0.000117   0.014254
     4  C    0.018515  -0.000433   0.012737  -0.058951
     5  C   -0.042960  -0.001309   0.000827   0.010260
     6  C    0.434452   0.011780   0.006919  -0.001796
     7  C   -0.084900  -0.023915  -0.060409   0.011040
     8  O    0.003950   0.306772  -0.005582  -0.000102
     9  C    0.015355  -0.022535   0.414318  -0.043166
    10  C   -0.003593   0.005460  -0.026967   0.429688
    11  H   -0.000001  -0.000000  -0.000000  -0.000413
    12  H   -0.007439   0.000025   0.000033  -0.000183
    13  H    0.507316  -0.000524  -0.000142   0.000038
    14  H   -0.000524   0.387353   0.000915  -0.000035
    15  H   -0.000142   0.000915   0.491810  -0.005501
    16  H    0.000038  -0.000035  -0.005501   0.501322
 Mulliken charges:
               1
     1  O   -0.375476
     2  C    0.191094
     3  O   -0.288814
     4  C   -0.123842
     5  C   -0.080322
     6  C   -0.241766
     7  C    0.165970
     8  O   -0.299654
     9  C   -0.201278
    10  C   -0.064235
    11  H    0.332426
    12  H    0.152473
    13  H    0.161396
    14  H    0.336463
    15  H    0.172182
    16  H    0.163384
 Sum of Mulliken charges =  -0.00000
 Mulliken charges with hydrogens summed into heavy atoms:
               1
     1  O   -0.375476
     2  C    0.191094
     3  O    0.043613
     4  C   -0.123842
     5  C    0.072151
     6  C   -0.080370
     7  C    0.165970
     8  O    0.036808
     9  C   -0.029097
    10  C    0.099149
 Electronic spatial extent (au):  <R**2>=           1612.5721
 Charge=             -0.0000 electrons
 Dipole moment (field-independent basis, Debye):
    X=             -3.0237    Y=             -4.0095    Z=              0.0014  Tot=              5.0219
 Quadrupole moment (field-independent basis, Debye-Ang):
   XX=            -49.2402   YY=            -53.5282   ZZ=            -60.2993
   XY=             -0.2688   XZ=             -0.0077   YZ=             -0.0031
 Traceless Quadrupole moment (field-independent basis, Debye-Ang):
   XX=              5.1157   YY=              0.8277   ZZ=             -5.9434
   XY=             -0.2688   XZ=             -0.0077   YZ=             -0.0031
 Octapole moment (field-independent basis, Debye-Ang**2):
  XXX=              1.8279  YYY=             -6.7625  ZZZ=              0.0001  XYY=            -21.8435
  XXY=            -62.7368  XXZ=              0.0277  XZZ=              5.2858  YZZ=             -0.7393
  YYZ=              0.0003  XYZ=              0.0040
 Hexadecapole moment (field-independent basis, Debye-Ang**3):
 XXXX=          -1268.7242 YYYY=           -375.0833 ZZZZ=            -63.2173 XXXY=             -0.1751
 XXXZ=             -0.1210 YYYX=             -4.7116 YYYZ=             -0.0047 ZZZX=             -0.0029
 ZZZY=              0.0009 XXYY=           -307.0729 XXZZ=           -272.2142 YYZZ=            -85.8841
 XXYZ=             -0.0373 YYXZ=             -0.0064 ZZXY=              0.5207
 N-N= 4.848359196106D+02 E-N=-2.131041806655D+03  KE= 4.941228538460D+02
 Unable to Open any file for archive entry.
 1\1\GINC-TCN1683\SP\RBP86\TZVP\C7H6O3\ELENAA\22-Feb-2021\0\\# BP86/TZV
 P SCRF=COSMORS geom=CHECKPOINT guess=CHECKPOINT\\COSMO-file for #FJKRO
 LUGYXJWQN-UHFFFAOYSA-N\\0,1\O,0,2.8528656163,4.6281764893,1.9930496599
 \C,0,1.6536824309,4.527293504,2.2373678058\O,0,1.1632572859,4.64362405
 69,3.5091092415\C,0,0.5995412211,4.2743100776,1.2302828206\C,0,0.97714
 71582,4.1344695532,-0.1205872717\C,0,0.0267500198,3.8960733265,-1.1053
 762988\C,0,-1.3312778769,3.7924683299,-0.7517601464\O,0,-2.2201581847,
 3.5574077201,-1.7614636233\C,0,-1.7232931947,3.9297860083,0.5924739967
 \C,0,-0.7627889381,4.1686144717,1.571881019\H,0,1.9310989807,4.8082074
 115,4.0957790267\H,0,2.032405003,4.2162371585,-0.3861207255\H,0,0.3135
 782528,3.7870638546,-2.1523638409\H,0,-3.125845038,3.5059281981,-1.400
 6209986\H,0,-2.7784276486,3.8488686767,0.864456115\H,0,-1.0719650877,4
 .2742211629,2.6119332201\\Version=ES64L-G16RevC.01\State=1-A\HF=-496.2
 51816\RMSD=2.838e-09\Dipole=-1.9531521,-0.1856069,0.23317\Quadrupole=1
 .8248048,-4.1767476,2.3519428,0.8866491,1.461896,1.0716388\PG=C01 [X(C
 7H6O3)]\\@
 The archive entry for this job was punched.


 IF YOU GET CONFUSED, LOGIC OUT YOUR DILEMMA

           --  PICKER X-RAY CORP.    DIGITAL PRINTER MANUAL CA. 1964
 Job cpu time:       0 days  0 hours  5 minutes 45.2 seconds.
 Elapsed time:       0 days  0 hours  0 minutes 11.3 seconds.
 File lengths (MBytes):  RWF=     45 Int=      0 D2E=      0 Chk=      7 Scr=      1
 Normal termination of Gaussian 16 at Mon Feb 22 21:04:20 2021.
