 Entering Gaussian System, Link 0=g16
 Input=FUZZWVXGSFPDMH-UHFFFAOYSA-N.gjf
 Output=FUZZWVXGSFPDMH-UHFFFAOYSA-N.log
 Initial command:
 /sw/arch/RedHatEnterpriseServer7/EB_production/2019/software/Gaussian/g16.c01/l1.exe "/scratch-local/elenaa.9715207/Gau-31501.inp" -scrdir="/scratch-local/elenaa.9715207/"
 Entering Link 1 = /sw/arch/RedHatEnterpriseServer7/EB_production/2019/software/Gaussian/g16.c01/l1.exe PID=     31502.
  
 Copyright (c) 1988-2019, Gaussian, Inc.  All Rights Reserved.
  
 This is part of the Gaussian(R) 16 program.  It is based on
 the Gaussian(R) 09 system (copyright 2009, Gaussian, Inc.),
 the Gaussian(R) 03 system (copyright 2003, Gaussian, Inc.),
 the Gaussian(R) 98 system (copyright 1998, Gaussian, Inc.),
 the Gaussian(R) 94 system (copyright 1995, Gaussian, Inc.),
 the Gaussian 92(TM) system (copyright 1992, Gaussian, Inc.),
 the Gaussian 90(TM) system (copyright 1990, Gaussian, Inc.),
 the Gaussian 88(TM) system (copyright 1988, Gaussian, Inc.),
 the Gaussian 86(TM) system (copyright 1986, Carnegie Mellon
 University), and the Gaussian 82(TM) system (copyright 1983,
 Carnegie Mellon University). Gaussian is a federally registered
 trademark of Gaussian, Inc.
  
 This software contains proprietary and confidential information,
 including trade secrets, belonging to Gaussian, Inc.
  
 This software is provided under written license and may be
 used, copied, transmitted, or stored only in accord with that
 written license.
  
 The following legend is applicable only to US Government
 contracts under FAR:
  
                    RESTRICTED RIGHTS LEGEND
  
 Use, reproduction and disclosure by the US Government is
 subject to restrictions as set forth in subparagraphs (a)
 and (c) of the Commercial Computer Software - Restricted
 Rights clause in FAR 52.227-19.
  
 Gaussian, Inc.
 340 Quinnipiac St., Bldg. 40, Wallingford CT 06492
  
  
 ---------------------------------------------------------------
 Warning -- This program may not be used in any manner that
 competes with the business of Gaussian, Inc. or will provide
 assistance to any competitor of Gaussian, Inc.  The licensee
 of this program is prohibited from giving any competitor of
 Gaussian, Inc. access to this program.  By using this program,
 the user acknowledges that Gaussian, Inc. is engaged in the
 business of creating and licensing software in the field of
 computational chemistry and represents and warrants to the
 licensee that it is not a competitor of Gaussian, Inc. and that
 it will not use this program in any manner prohibited above.
 ---------------------------------------------------------------
  

 Cite this work as:
 Gaussian 16, Revision C.01,
 M. J. Frisch, G. W. Trucks, H. B. Schlegel, G. E. Scuseria, 
 M. A. Robb, J. R. Cheeseman, G. Scalmani, V. Barone, 
 G. A. Petersson, H. Nakatsuji, X. Li, M. Caricato, A. V. Marenich, 
 J. Bloino, B. G. Janesko, R. Gomperts, B. Mennucci, H. P. Hratchian, 
 J. V. Ortiz, A. F. Izmaylov, J. L. Sonnenberg, D. Williams-Young, 
 F. Ding, F. Lipparini, F. Egidi, J. Goings, B. Peng, A. Petrone, 
 T. Henderson, D. Ranasinghe, V. G. Zakrzewski, J. Gao, N. Rega, 
 G. Zheng, W. Liang, M. Hada, M. Ehara, K. Toyota, R. Fukuda, 
 J. Hasegawa, M. Ishida, T. Nakajima, Y. Honda, O. Kitao, H. Nakai, 
 T. Vreven, K. Throssell, J. A. Montgomery, Jr., J. E. Peralta, 
 F. Ogliaro, M. J. Bearpark, J. J. Heyd, E. N. Brothers, K. N. Kudin, 
 V. N. Staroverov, T. A. Keith, R. Kobayashi, J. Normand, 
 K. Raghavachari, A. P. Rendell, J. C. Burant, S. S. Iyengar, 
 J. Tomasi, M. Cossi, J. M. Millam, M. Klene, C. Adamo, R. Cammi, 
 J. W. Ochterski, R. L. Martin, K. Morokuma, O. Farkas, 
 J. B. Foresman, and D. J. Fox, Gaussian, Inc., Wallingford CT, 2019.
 
 ******************************************
 Gaussian 16:  ES64L-G16RevC.01  3-Jul-2019
                22-Feb-2021 
 ******************************************
 %chk=FUZZWVXGSFPDMH-UHFFFAOYSA-N.chk
 %NProcShared=32
 Will use up to   32 processors via shared memory.
 -------------------------------------------------------------
 #P BP86/TZVP EmpiricalDispersion=GD3 SCRF=(Solvent=Water) Opt
 -------------------------------------------------------------
 1/18=20,19=15,26=3,38=1/1,3;
 2/9=110,12=2,17=6,18=5,40=1/2;
 3/5=19,7=101,11=2,25=1,30=1,70=2201,71=1,72=1,74=404,124=31/1,2,3;
 4//1;
 5/5=2,38=5,53=1/2;
 6/7=2,8=2,9=2,10=2,28=1/1;
 7//1,2,3,16;
 1/18=20,19=15,26=3/3(2);
 2/9=110/2;
 99//99;
 2/9=110/2;
 3/5=19,7=101,11=2,25=1,30=1,70=2205,71=1,72=1,74=404,124=31/1,2,3;
 4/5=5,16=3,69=1/1;
 5/5=2,38=5,53=1/2;
 7//1,2,3,16;
 1/18=20,19=15,26=3/3(-5);
 2/9=110/2;
 6/7=2,8=2,9=2,10=2,19=2,28=1/1;
 99/9=1/99;
 Leave Link    1 at Mon Feb 22 21:02:22 2021, MaxMem=           0 cpu:               1.6 elap:               0.1
 (Enter /sw/arch/RedHatEnterpriseServer7/EB_production/2019/software/Gaussian/g16.c01/l101.exe)
 -------------------------------------
 Particle #FUZZWVXGSFPDMH-UHFFFAOYSA-N
 -------------------------------------
 Symbolic Z-matrix:
 Charge =  0 Multiplicity = 1
 C                    -3.19595  -3.60312   1.57286 
 C                    -2.51041  -2.27146   1.19327 
 C                    -1.03401  -2.44728   0.74592 
 C                    -0.35549  -1.09284   0.40602 
 C                     1.10872  -1.26902  -0.07594 
 C                     1.78633   0.02069  -0.31159 
 O                     2.16345   0.34853  -1.45869 
 O                     2.02143   0.86535   0.72133 
 H                    -3.20427  -4.28628   0.72054 
 H                    -2.67302  -4.07857   2.40591 
 H                    -4.22788  -3.41014   1.87474 
 H                    -2.5468   -1.60466   2.05919 
 H                    -3.07886  -1.80711   0.38245 
 H                    -1.00228  -3.09823  -0.13303 
 H                    -0.47208  -2.93325   1.5494 
 H                    -0.37024  -0.45761   1.29724 
 H                    -0.92699  -0.59039  -0.38156 
 H                     1.10956  -1.86054  -0.99461 
 H                     1.6814   -1.82087   0.67141 
 H                     2.48      1.71949   0.57449 
 
 ITRead=  0  0  0  0  0  0  0  0  0  0  0  0  0  0  0  0  0  0  0  0
 MicOpt= -1 -1 -1 -1 -1 -1 -1 -1 -1 -1 -1 -1 -1 -1 -1 -1 -1 -1 -1 -1
 NAtoms=     20 NQM=       20 NQMF=       0 NMMI=      0 NMMIF=      0
                NMic=       0 NMicF=      0.
                    Isotopes and Nuclear Properties:
 (Nuclear quadrupole moments (NQMom) in fm**2, nuclear magnetic moments (NMagM)
  in nuclear magnetons)

  Atom         1           2           3           4           5           6           7           8           9          10
 IAtWgt=          12          12          12          12          12          12          16          16           1           1
 AtmWgt=  12.0000000  12.0000000  12.0000000  12.0000000  12.0000000  12.0000000  15.9949146  15.9949146   1.0078250   1.0078250
 NucSpn=           0           0           0           0           0           0           0           0           1           1
 AtZEff=  -0.0000000  -0.0000000  -0.0000000  -0.0000000  -0.0000000  -0.0000000  -0.0000000  -0.0000000  -0.0000000  -0.0000000
 NQMom=    0.0000000   0.0000000   0.0000000   0.0000000   0.0000000   0.0000000   0.0000000   0.0000000   0.0000000   0.0000000
 NMagM=    0.0000000   0.0000000   0.0000000   0.0000000   0.0000000   0.0000000   0.0000000   0.0000000   2.7928460   2.7928460
 AtZNuc=   6.0000000   6.0000000   6.0000000   6.0000000   6.0000000   6.0000000   8.0000000   8.0000000   1.0000000   1.0000000

  Atom        11          12          13          14          15          16          17          18          19          20
 IAtWgt=           1           1           1           1           1           1           1           1           1           1
 AtmWgt=   1.0078250   1.0078250   1.0078250   1.0078250   1.0078250   1.0078250   1.0078250   1.0078250   1.0078250   1.0078250
 NucSpn=           1           1           1           1           1           1           1           1           1           1
 AtZEff=  -0.0000000  -0.0000000  -0.0000000  -0.0000000  -0.0000000  -0.0000000  -0.0000000  -0.0000000  -0.0000000  -0.0000000
 NQMom=    0.0000000   0.0000000   0.0000000   0.0000000   0.0000000   0.0000000   0.0000000   0.0000000   0.0000000   0.0000000
 NMagM=    2.7928460   2.7928460   2.7928460   2.7928460   2.7928460   2.7928460   2.7928460   2.7928460   2.7928460   2.7928460
 AtZNuc=   1.0000000   1.0000000   1.0000000   1.0000000   1.0000000   1.0000000   1.0000000   1.0000000   1.0000000   1.0000000
 Leave Link  101 at Mon Feb 22 21:02:23 2021, MaxMem=   104857600 cpu:               3.0 elap:               0.2
 (Enter /sw/arch/RedHatEnterpriseServer7/EB_production/2019/software/Gaussian/g16.c01/l103.exe)

 GradGradGradGradGradGradGradGradGradGradGradGradGradGradGradGradGradGrad
 Berny optimization.
 Initialization pass.
                           ----------------------------
                           !    Initial Parameters    !
                           ! (Angstroms and Degrees)  !
 --------------------------                            --------------------------
 ! Name  Definition              Value          Derivative Info.                !
 --------------------------------------------------------------------------------
 ! R1    R(1,2)                  1.5451         estimate D2E/DX2                !
 ! R2    R(1,9)                  1.0923         estimate D2E/DX2                !
 ! R3    R(1,10)                 1.0925         estimate D2E/DX2                !
 ! R4    R(1,11)                 1.0924         estimate D2E/DX2                !
 ! R5    R(2,3)                  1.5527         estimate D2E/DX2                !
 ! R6    R(2,12)                 1.0935         estimate D2E/DX2                !
 ! R7    R(2,13)                 1.0937         estimate D2E/DX2                !
 ! R8    R(3,4)                  1.5526         estimate D2E/DX2                !
 ! R9    R(3,14)                 1.0942         estimate D2E/DX2                !
 ! R10   R(3,15)                 1.0943         estimate D2E/DX2                !
 ! R11   R(4,5)                  1.5515         estimate D2E/DX2                !
 ! R12   R(4,16)                 1.0945         estimate D2E/DX2                !
 ! R13   R(4,17)                 1.0951         estimate D2E/DX2                !
 ! R14   R(5,6)                  1.4758         estimate D2E/DX2                !
 ! R15   R(5,18)                 1.0926         estimate D2E/DX2                !
 ! R16   R(5,19)                 1.0913         estimate D2E/DX2                !
 ! R17   R(6,7)                  1.2512         estimate D2E/DX2                !
 ! R18   R(6,8)                  1.3549         estimate D2E/DX2                !
 ! R19   R(8,20)                 0.9805         estimate D2E/DX2                !
 ! A1    A(2,1,9)              110.53           estimate D2E/DX2                !
 ! A2    A(2,1,10)             110.4899         estimate D2E/DX2                !
 ! A3    A(2,1,11)             109.5587         estimate D2E/DX2                !
 ! A4    A(9,1,10)             109.0533         estimate D2E/DX2                !
 ! A5    A(9,1,11)             108.5977         estimate D2E/DX2                !
 ! A6    A(10,1,11)            108.5627         estimate D2E/DX2                !
 ! A7    A(1,2,3)              113.2707         estimate D2E/DX2                !
 ! A8    A(1,2,12)             108.4354         estimate D2E/DX2                !
 ! A9    A(1,2,13)             108.5082         estimate D2E/DX2                !
 ! A10   A(3,2,12)             109.1986         estimate D2E/DX2                !
 ! A11   A(3,2,13)             109.1897         estimate D2E/DX2                !
 ! A12   A(12,2,13)            108.1116         estimate D2E/DX2                !
 ! A13   A(2,3,4)              112.3247         estimate D2E/DX2                !
 ! A14   A(2,3,14)             109.0489         estimate D2E/DX2                !
 ! A15   A(2,3,15)             109.088          estimate D2E/DX2                !
 ! A16   A(4,3,14)             109.2965         estimate D2E/DX2                !
 ! A17   A(4,3,15)             108.8897         estimate D2E/DX2                !
 ! A18   A(14,3,15)            108.1021         estimate D2E/DX2                !
 ! A19   A(3,4,5)              112.4194         estimate D2E/DX2                !
 ! A20   A(3,4,16)             108.7933         estimate D2E/DX2                !
 ! A21   A(3,4,17)             109.2463         estimate D2E/DX2                !
 ! A22   A(5,4,16)             109.3631         estimate D2E/DX2                !
 ! A23   A(5,4,17)             108.7344         estimate D2E/DX2                !
 ! A24   A(16,4,17)            108.1958         estimate D2E/DX2                !
 ! A25   A(4,5,6)              112.5612         estimate D2E/DX2                !
 ! A26   A(4,5,18)             108.8673         estimate D2E/DX2                !
 ! A27   A(4,5,19)             109.8715         estimate D2E/DX2                !
 ! A28   A(6,5,18)             109.7853         estimate D2E/DX2                !
 ! A29   A(6,5,19)             108.0776         estimate D2E/DX2                !
 ! A30   A(18,5,19)            107.5546         estimate D2E/DX2                !
 ! A31   A(5,6,7)              120.914          estimate D2E/DX2                !
 ! A32   A(5,6,8)              120.1822         estimate D2E/DX2                !
 ! A33   A(7,6,8)              118.9007         estimate D2E/DX2                !
 ! A34   A(6,8,20)             120.6679         estimate D2E/DX2                !
 ! D1    D(9,1,2,3)            -60.2471         estimate D2E/DX2                !
 ! D2    D(9,1,2,12)           178.3746         estimate D2E/DX2                !
 ! D3    D(9,1,2,13)            61.1715         estimate D2E/DX2                !
 ! D4    D(10,1,2,3)            60.5546         estimate D2E/DX2                !
 ! D5    D(10,1,2,12)          -60.8237         estimate D2E/DX2                !
 ! D6    D(10,1,2,13)         -178.0268         estimate D2E/DX2                !
 ! D7    D(11,1,2,3)          -179.8803         estimate D2E/DX2                !
 ! D8    D(11,1,2,12)           58.7414         estimate D2E/DX2                !
 ! D9    D(11,1,2,13)          -58.4617         estimate D2E/DX2                !
 ! D10   D(1,2,3,4)           -178.4802         estimate D2E/DX2                !
 ! D11   D(1,2,3,14)            60.2067         estimate D2E/DX2                !
 ! D12   D(1,2,3,15)           -57.6537         estimate D2E/DX2                !
 ! D13   D(12,2,3,4)           -57.5319         estimate D2E/DX2                !
 ! D14   D(12,2,3,14)         -178.845          estimate D2E/DX2                !
 ! D15   D(12,2,3,15)           63.2946         estimate D2E/DX2                !
 ! D16   D(13,2,3,4)            60.485          estimate D2E/DX2                !
 ! D17   D(13,2,3,14)          -60.8281         estimate D2E/DX2                !
 ! D18   D(13,2,3,15)         -178.6885         estimate D2E/DX2                !
 ! D19   D(2,3,4,5)           -178.5394         estimate D2E/DX2                !
 ! D20   D(2,3,4,16)            60.1783         estimate D2E/DX2                !
 ! D21   D(2,3,4,17)           -57.7386         estimate D2E/DX2                !
 ! D22   D(14,3,4,5)           -57.3683         estimate D2E/DX2                !
 ! D23   D(14,3,4,16)         -178.6506         estimate D2E/DX2                !
 ! D24   D(14,3,4,17)           63.4325         estimate D2E/DX2                !
 ! D25   D(15,3,4,5)            60.52           estimate D2E/DX2                !
 ! D26   D(15,3,4,16)          -60.7623         estimate D2E/DX2                !
 ! D27   D(15,3,4,17)         -178.6792         estimate D2E/DX2                !
 ! D28   D(3,4,5,6)           -176.0792         estimate D2E/DX2                !
 ! D29   D(3,4,5,18)            61.9599         estimate D2E/DX2                !
 ! D30   D(3,4,5,19)           -55.5845         estimate D2E/DX2                !
 ! D31   D(16,4,5,6)           -55.1233         estimate D2E/DX2                !
 ! D32   D(16,4,5,18)         -177.0842         estimate D2E/DX2                !
 ! D33   D(16,4,5,19)           65.3714         estimate D2E/DX2                !
 ! D34   D(17,4,5,6)            62.8262         estimate D2E/DX2                !
 ! D35   D(17,4,5,18)          -59.1348         estimate D2E/DX2                !
 ! D36   D(17,4,5,19)         -176.6791         estimate D2E/DX2                !
 ! D37   D(4,5,6,7)           -115.6025         estimate D2E/DX2                !
 ! D38   D(4,5,6,8)             65.049          estimate D2E/DX2                !
 ! D39   D(18,5,6,7)             5.8372         estimate D2E/DX2                !
 ! D40   D(18,5,6,8)          -173.5113         estimate D2E/DX2                !
 ! D41   D(19,5,6,7)           122.8766         estimate D2E/DX2                !
 ! D42   D(19,5,6,8)           -56.4719         estimate D2E/DX2                !
 ! D43   D(5,6,8,20)           179.3122         estimate D2E/DX2                !
 ! D44   D(7,6,8,20)            -0.0494         estimate D2E/DX2                !
 --------------------------------------------------------------------------------
 Trust Radius=3.00D-01 FncErr=1.00D-07 GrdErr=1.00D-06 EigMax=2.50D+02 EigMin=1.00D-04
 Number of steps in this run=    107 maximum allowed number of steps=    120.
 GradGradGradGradGradGradGradGradGradGradGradGradGradGradGradGradGradGrad

 Leave Link  103 at Mon Feb 22 21:02:23 2021, MaxMem=   104857600 cpu:               0.4 elap:               0.0
 (Enter /sw/arch/RedHatEnterpriseServer7/EB_production/2019/software/Gaussian/g16.c01/l202.exe)
                          Input orientation:                          
 ---------------------------------------------------------------------
 Center     Atomic      Atomic             Coordinates (Angstroms)
 Number     Number       Type             X           Y           Z
 ---------------------------------------------------------------------
      1          6           0       -3.195950   -3.603120    1.572860
      2          6           0       -2.510410   -2.271460    1.193270
      3          6           0       -1.034010   -2.447280    0.745920
      4          6           0       -0.355490   -1.092840    0.406020
      5          6           0        1.108720   -1.269020   -0.075940
      6          6           0        1.786330    0.020690   -0.311590
      7          8           0        2.163450    0.348530   -1.458690
      8          8           0        2.021430    0.865350    0.721330
      9          1           0       -3.204270   -4.286280    0.720540
     10          1           0       -2.673020   -4.078570    2.405910
     11          1           0       -4.227880   -3.410140    1.874740
     12          1           0       -2.546800   -1.604660    2.059190
     13          1           0       -3.078860   -1.807110    0.382450
     14          1           0       -1.002280   -3.098230   -0.133030
     15          1           0       -0.472080   -2.933250    1.549400
     16          1           0       -0.370240   -0.457610    1.297240
     17          1           0       -0.926990   -0.590390   -0.381560
     18          1           0        1.109560   -1.860540   -0.994610
     19          1           0        1.681400   -1.820870    0.671410
     20          1           0        2.480000    1.719490    0.574490
 ---------------------------------------------------------------------
                    Distance matrix (angstroms):
                    1          2          3          4          5
     1  C    0.000000
     2  C    1.545112   0.000000
     3  C    2.587234   1.552672   0.000000
     4  C    3.966262   2.579261   1.552556   0.000000
     5  C    5.166890   3.964074   2.579737   1.551527   0.000000
     6  C    6.442536   5.097110   3.894037   2.518394   1.475818
     7  O    7.316352   5.978479   4.785458   3.449601   2.375062
     8  O    6.921949   5.531716   4.506644   3.095751   2.454427
     9  H    1.092349   2.182754   2.844748   4.290982   5.323544
    10  H    1.092465   2.182335   2.846582   4.276107   5.324914
    11  H    1.092361   2.170414   3.521667   4.745779   6.071972
    12  H    2.156793   1.093510   2.173297   2.792270   4.246676
    13  H    2.157878   1.093703   2.173325   2.815578   4.246821
    14  H    2.824387   2.171883   1.094210   2.174972   2.793849
    15  H    2.805128   2.172460   1.094309   2.169797   2.812529
    16  H    4.237315   2.807346   2.168716   1.094535   2.175163
    17  H    4.247879   2.795229   2.175018   1.095149   2.167500
    18  H    5.307156   4.249689   2.822871   2.167371   1.092635
    19  H    5.270443   4.248134   2.787722   2.179307   1.091345
    20  H    7.844956   6.419872   5.453405   3.997197   3.351814
                    6          7          8          9         10
     6  C    0.000000
     7  O    1.251214   0.000000
     8  O    1.354860   2.244941   0.000000
     9  H    6.672434   7.419092   7.338067   0.000000
    10  H    6.638866   7.610899   7.022679   1.779281   0.000000
    11  H    7.260947   8.129481   7.659246   1.774141   1.773846
    12  H    5.199844   6.194908   5.362793   3.068442   2.501275
    13  H    5.243340   5.959731   5.768001   2.505258   3.068978
    14  H    4.187588   4.864090   5.057936   2.643635   3.193533
    15  H    4.158060   5.173461   4.618729   3.159519   2.624786
    16  H    2.732746   3.829438   2.793203   4.798231   4.432076
    17  H    2.782161   3.404791   3.468245   4.478865   4.794373
    18  H    2.112714   2.491193   3.347601   5.237851   5.548973
    19  H    2.090130   3.078310   2.708116   5.472699   5.202564
    20  H    2.037704   2.472561   0.980512   8.270522   7.970271
                   11         12         13         14         15
    11  H    0.000000
    12  H    2.473825   0.000000
    13  H    2.473233   1.770743   0.000000
    14  H    3.812207   3.069548   2.498979   0.000000
    15  H    3.799908   2.515850   3.070060   1.771694   0.000000
    16  H    4.892068   2.575598   3.161426   3.068879   2.490532
    17  H    4.892622   3.099966   2.587405   2.521249   3.069942
    18  H    6.254814   4.770759   4.409310   2.595008   3.181867
    19  H    6.236455   4.455374   4.769042   3.079109   2.577932
    20  H    8.543969   6.206692   6.585948   5.986425   5.595821
                   16         17         18         19         20
    16  H    0.000000
    17  H    1.773688   0.000000
    18  H    3.067670   2.477226   0.000000
    19  H    2.541529   3.070265   1.761873   0.000000
    20  H    3.658688   4.225773   4.142076   3.630607   0.000000
 Stoichiometry    C6H12O2
 Framework group  C1[X(C6H12O2)]
 Deg. of freedom    54
 Full point group                 C1      NOp   1
 Largest Abelian subgroup         C1      NOp   1
 Largest concise Abelian subgroup C1      NOp   1
                         Standard orientation:                         
 ---------------------------------------------------------------------
 Center     Atomic      Atomic             Coordinates (Angstroms)
 Number     Number       Type             X           Y           Z
 ---------------------------------------------------------------------
      1          6           0       -4.092667   -0.022415    0.095803
      2          6           0       -2.703027    0.350741   -0.467250
      3          6           0       -1.529587   -0.298607    0.315168
      4          6           0       -0.143674    0.120614   -0.245123
      5          6           0        1.029780   -0.555359    0.512044
      6          6           0        2.349313   -0.089062    0.043601
      7          8           0        3.148319   -0.874767   -0.512990
      8          8           0        2.718948    1.201877    0.223862
      9          1           0       -4.245599   -1.103172    0.053350
     10          1           0       -4.187530    0.310769    1.131887
     11          1           0       -4.870311    0.463071   -0.498188
     12          1           0       -2.597868    1.438723   -0.435618
     13          1           0       -2.656018    0.034884   -1.513295
     14          1           0       -1.625785   -1.387402    0.264517
     15          1           0       -1.591795   -0.000300    1.366194
     16          1           0       -0.046577    1.208126   -0.168328
     17          1           0       -0.084064   -0.154150   -1.303566
     18          1           0        0.954198   -1.638128    0.386543
     19          1           0        0.954505   -0.341680    1.579615
     20          1           0        3.597877    1.516905   -0.075544
 ---------------------------------------------------------------------
 Rotational constants (GHZ):           6.5397244           0.6419077           0.6174691
 Leave Link  202 at Mon Feb 22 21:02:23 2021, MaxMem=   104857600 cpu:               0.7 elap:               0.1
 (Enter /sw/arch/RedHatEnterpriseServer7/EB_production/2019/software/Gaussian/g16.c01/l301.exe)
 Standard basis: TZVP (5D, 7F)
 Ernie: Thresh=  0.10000D-02 Tol=  0.10000D-05 Strict=F.
 There are   232 symmetry adapted cartesian basis functions of A   symmetry.
 There are   224 symmetry adapted basis functions of A   symmetry.
   224 basis functions,   376 primitive gaussians,   232 cartesian basis functions
    32 alpha electrons       32 beta electrons
       nuclear repulsion energy       366.9829592474 Hartrees.
 IExCor=  404 DFT=T Ex=B Corr=P86 ExCW=0 ScaHFX=  0.000000
 ScaDFX=  1.000000  1.000000  1.000000  1.000000 ScalE2=  1.000000  1.000000
 IRadAn=      5 IRanWt=     -1 IRanGd=            0 ICorTp=0 IEmpDi=131
 NAtoms=   20 NActive=   20 NUniq=   20 SFac= 1.00D+00 NAtFMM=   60 NAOKFM=F Big=F
 Integral buffers will be    131072 words long.
 Raffenetti 2 integral format.
 Two-electron integral symmetry is turned on.
 R6Disp:  Grimme-D3 Dispersion energy=       -0.0159933568 Hartrees.
 Nuclear repulsion after empirical dispersion term =      366.9669658907 Hartrees.
 ------------------------------------------------------------------------------
 Polarizable Continuum Model (PCM)
 =================================
 Model                : PCM.
 Atomic radii         : UFF (Universal Force Field).
 Polarization charges : Total charges.
 Charge compensation  : None.
 Solution method      : On-the-fly selection.
 Cavity type          : Scaled VdW (van der Waals Surface) (Alpha=1.100).
 Cavity algorithm     : GePol (No added spheres)
                        Default sphere list used, NSphG=   20.
                        Lebedev-Laikov grids with approx.  5.0 points / Ang**2.
                        Smoothing algorithm: York/Karplus (Gamma=1.0000).
                        Polarization charges: spherical gaussians, with
                                              point-specific exponents (IZeta= 3).
                        Self-potential: point-specific (ISelfS= 7).
                        Self-field    : sphere-specific E.n sum rule (ISelfD= 2).
 1st derivatives      : Analytical E(r).r(x)/FMM algorithm (CHGder, D1EAlg=3).
                        Cavity 1st derivative terms included.
 Solvent              : Water, Eps=  78.355300 Eps(inf)=   1.777849
 ------------------------------------------------------------------------------
 Spheres list:
 ISph  on   Nord     Re0    Alpha      Xe            Ye            Ze
    1   C      1    1.9255  1.100     -4.092667     -0.022415      0.095803
    2   C      2    1.9255  1.100     -2.703027      0.350741     -0.467250
    3   C      3    1.9255  1.100     -1.529587     -0.298607      0.315168
    4   C      4    1.9255  1.100     -0.143674      0.120614     -0.245123
    5   C      5    1.9255  1.100      1.029780     -0.555359      0.512044
    6   C      6    1.9255  1.100      2.349313     -0.089062      0.043601
    7   O      7    1.7500  1.100      3.148319     -0.874767     -0.512990
    8   O      8    1.7500  1.100      2.718948      1.201877      0.223862
    9   H      9    1.4430  1.100     -4.245599     -1.103172      0.053350
   10   H     10    1.4430  1.100     -4.187530      0.310769      1.131887
   11   H     11    1.4430  1.100     -4.870311      0.463071     -0.498188
   12   H     12    1.4430  1.100     -2.597868      1.438723     -0.435618
   13   H     13    1.4430  1.100     -2.656018      0.034884     -1.513295
   14   H     14    1.4430  1.100     -1.625785     -1.387402      0.264517
   15   H     15    1.4430  1.100     -1.591795     -0.000300      1.366194
   16   H     16    1.4430  1.100     -0.046577      1.208126     -0.168328
   17   H     17    1.4430  1.100     -0.084064     -0.154150     -1.303566
   18   H     18    1.4430  1.100      0.954198     -1.638128      0.386543
   19   H     19    1.4430  1.100      0.954505     -0.341680      1.579615
   20   H     20    1.4430  1.100      3.597877      1.516905     -0.075544
 ------------------------------------------------------------------------------
 GePol: Number of generator spheres                  =      20
 GePol: Total number of spheres                      =      20
 GePol: Number of exposed spheres                    =      20 (100.00%)
 GePol: Number of points                             =    1577
 GePol: Average weight of points                     =       0.13
 GePol: Minimum weight of points                     =   0.47D-09
 GePol: Maximum weight of points                     =    0.20577
 GePol: Number of points with low weight             =     117
 GePol: Fraction of low-weight points (<1% of avg)   =       7.42%
 GePol: Cavity surface area                          =    210.214 Ang**2
 GePol: Cavity volume                                =    199.003 Ang**3
 Leave Link  301 at Mon Feb 22 21:02:23 2021, MaxMem=   104857600 cpu:               1.7 elap:               0.1
 (Enter /sw/arch/RedHatEnterpriseServer7/EB_production/2019/software/Gaussian/g16.c01/l302.exe)
 NPDir=0 NMtPBC=     1 NCelOv=     1 NCel=       1 NClECP=     1 NCelD=      1
         NCelK=      1 NCelE2=     1 NClLst=     1 CellRange=     0.0.
 One-electron integrals computed using PRISM.
 One-electron integral symmetry used in STVInt
 PrsmSu:  requested number of processors reduced to:  29 ShMem   1 Linda.
 NBasis=   224 RedAO= T EigKep=  1.27D-04  NBF=   224
 NBsUse=   224 1.00D-06 EigRej= -1.00D+00 NBFU=   224
 Precomputing XC quadrature grid using
 IXCGrd= 4 IRadAn=           5 IRanWt=          -1 IRanGd=           0 AccXCQ= 0.00D+00.
 Generated NRdTot=       0 NPtTot=           0 NUsed=           0 NTot=          32
 NSgBfM=   230   230   230   230   230 MxSgAt=    20 MxSgA2=    20.
 Leave Link  302 at Mon Feb 22 21:02:24 2021, MaxMem=   104857600 cpu:               6.7 elap:               0.3
 (Enter /sw/arch/RedHatEnterpriseServer7/EB_production/2019/software/Gaussian/g16.c01/l303.exe)
 DipDrv:  MaxL=1.
 Leave Link  303 at Mon Feb 22 21:02:24 2021, MaxMem=   104857600 cpu:               1.3 elap:               0.1
 (Enter /sw/arch/RedHatEnterpriseServer7/EB_production/2019/software/Gaussian/g16.c01/l401.exe)
 ExpMin= 9.52D-02 ExpMax= 2.70D+04 ExpMxC= 9.22D+02 IAcc=3 IRadAn=         5 AccDes= 0.00D+00
 Harris functional with IExCor=  404 and IRadAn=       5 diagonalized for initial guess.
 HarFok:  IExCor=  404 AccDes= 0.00D+00 IRadAn=         5 IDoV= 1 UseB2=F ITyADJ=14
 ICtDFT=  3500011 ScaDFX=  1.000000  1.000000  1.000000  1.000000
 FoFCou: FMM=F IPFlag=           0 FMFlag=      100000 FMFlg1=           0
         NFxFlg=           0 DoJE=T BraDBF=F KetDBF=T FulRan=T
         wScrn=  0.000000 ICntrl=       500 IOpCl=  0 I1Cent=   200000004 NGrid=           0
         NMat0=    1 NMatS0=      1 NMatT0=    0 NMatD0=    1 NMtDS0=    0 NMtDT0=    0
 Petite list used in FoFCou.
 Harris En= -386.690654826183    
 JPrj=0 DoOrth=F DoCkMO=F.
 Leave Link  401 at Mon Feb 22 21:02:24 2021, MaxMem=   104857600 cpu:              11.9 elap:               0.4
 (Enter /sw/arch/RedHatEnterpriseServer7/EB_production/2019/software/Gaussian/g16.c01/l502.exe)
 Integral symmetry usage will be decided dynamically.
 Closed shell SCF:
 Using DIIS extrapolation, IDIIS=  1040.
 NGot=   104857600 LenX=   104739546 LenY=   104685281
 Requested convergence on RMS density matrix=1.00D-08 within 128 cycles.
 Requested convergence on MAX density matrix=1.00D-06.
 Requested convergence on             energy=1.00D-06.
 No special actions if energy rises.
 Fock matrices will be formed incrementally for  20 cycles.

 Cycle   1  Pass 1  IDiag  1:
 FoFJK:  IHMeth= 1 ICntrl=     500 DoSepK=F KAlg= 0 I1Cent=           0 FoldK=F
 IRaf= 890000000 NMat=       1 IRICut=       1 DoRegI=T DoRafI=F ISym2E= 0 IDoP0=0 IntGTp=1.
 FoFCou: FMM=F IPFlag=           0 FMFlag=      100000 FMFlg1=           0
         NFxFlg=           0 DoJE=T BraDBF=F KetDBF=F FulRan=T
         wScrn=  0.000000 ICntrl=       500 IOpCl=  0 I1Cent=           0 NGrid=           0
         NMat0=    1 NMatS0=      1 NMatT0=    0 NMatD0=    1 NMtDS0=    0 NMtDT0=    0
 Symmetry not used in FoFCou.
 Inv3:  Mode=1 IEnd=     7460787.
 Iteration    1 A*A^-1 deviation from unit magnitude is 3.55D-15 for   1151.
 Iteration    1 A*A^-1 deviation from orthogonality  is 1.89D-15 for   1301     53.
 Iteration    1 A^-1*A deviation from unit magnitude is 3.55D-15 for   1151.
 Iteration    1 A^-1*A deviation from orthogonality  is 2.02D-15 for   1129    431.
 E= -386.193441603800    
 DIIS: error= 3.31D-02 at cycle   1 NSaved=   1.
 NSaved= 1 IEnMin= 1 EnMin= -386.193441603800     IErMin= 1 ErrMin= 3.31D-02
 ErrMax= 3.31D-02  0.00D+00 EMaxC= 1.00D-01 BMatC= 3.18D-01 BMatP= 3.18D-01
 IDIUse=3 WtCom= 6.69D-01 WtEn= 3.31D-01
 Coeff-Com:  0.100D+01
 Coeff-En:   0.100D+01
 Coeff:      0.100D+01
 Gap=     0.064 Goal=   None    Shift=    0.000
 GapD=    0.064 DampG=0.500 DampE=0.500 DampFc=0.2500 IDamp=-1.
 Damping current iteration by 2.50D-01
 RMSDP=8.40D-03 MaxDP=5.85D-01              OVMax= 2.94D-01

 Cycle   2  Pass 1  IDiag  1:
 RMSU=  2.10D-03    CP:  9.94D-01
 E= -386.298045278903     Delta-E=       -0.104603675102 Rises=F Damp=T
 DIIS: error= 1.36D-02 at cycle   2 NSaved=   2.
 NSaved= 2 IEnMin= 2 EnMin= -386.298045278903     IErMin= 2 ErrMin= 1.36D-02
 ErrMax= 1.36D-02  0.00D+00 EMaxC= 1.00D-01 BMatC= 4.30D-02 BMatP= 3.18D-01
 IDIUse=3 WtCom= 8.64D-01 WtEn= 1.36D-01
 Coeff-Com: -0.374D+00 0.137D+01
 Coeff-En:   0.000D+00 0.100D+01
 Coeff:     -0.323D+00 0.132D+01
 Gap=     0.168 Goal=   None    Shift=    0.000
 RMSDP=1.57D-03 MaxDP=5.20D-02 DE=-1.05D-01 OVMax= 2.36D-01

 Cycle   3  Pass 1  IDiag  1:
 RMSU=  1.56D-03    CP:  9.80D-01  9.75D-01
 E= -386.424810003909     Delta-E=       -0.126764725006 Rises=F Damp=F
 DIIS: error= 2.72D-02 at cycle   3 NSaved=   3.
 NSaved= 3 IEnMin= 3 EnMin= -386.424810003909     IErMin= 2 ErrMin= 1.36D-02
 ErrMax= 2.72D-02  0.00D+00 EMaxC= 1.00D-01 BMatC= 7.61D-02 BMatP= 4.30D-02
 IDIUse=2 WtCom= 0.00D+00 WtEn= 1.00D+00
 Coeff-En:   0.000D+00 0.000D+00 0.100D+01
 Coeff:      0.000D+00 0.000D+00 0.100D+01
 Gap=     0.137 Goal=   None    Shift=    0.000
 RMSDP=4.60D-03 MaxDP=2.50D-01 DE=-1.27D-01 OVMax= 4.45D-01

 Cycle   4  Pass 1  IDiag  1:
 RMSU=  2.06D-03    CP:  1.01D+00  2.28D+00 -9.57D-01
 E= -385.899230223112     Delta-E=        0.525579780797 Rises=F Damp=F
 DIIS: error= 8.69D-02 at cycle   4 NSaved=   4.
 NSaved= 4 IEnMin= 3 EnMin= -386.424810003909     IErMin= 2 ErrMin= 1.36D-02
 ErrMax= 8.69D-02  0.00D+00 EMaxC= 1.00D-01 BMatC= 7.34D-01 BMatP= 4.30D-02
 IDIUse=2 WtCom= 0.00D+00 WtEn= 1.00D+00
 Coeff-En:   0.000D+00 0.000D+00 0.844D+00 0.156D+00
 Coeff:      0.000D+00 0.000D+00 0.844D+00 0.156D+00
 Gap=     0.143 Goal=   None    Shift=    0.000
 RMSDP=2.96D-03 MaxDP=1.90D-01 DE= 5.26D-01 OVMax= 2.43D-01

 Cycle   5  Pass 1  IDiag  1:
 RMSU=  5.37D-04    CP:  9.96D-01  1.26D+00  6.77D-02  4.43D-01
 E= -386.429428868346     Delta-E=       -0.530198645234 Rises=F Damp=F
 DIIS: error= 2.66D-02 at cycle   5 NSaved=   5.
 NSaved= 5 IEnMin= 5 EnMin= -386.429428868346     IErMin= 2 ErrMin= 1.36D-02
 ErrMax= 2.66D-02  0.00D+00 EMaxC= 1.00D-01 BMatC= 7.35D-02 BMatP= 4.30D-02
 IDIUse=2 WtCom= 0.00D+00 WtEn= 1.00D+00
 Coeff-En:   0.000D+00 0.000D+00 0.487D+00 0.000D+00 0.513D+00
 Coeff:      0.000D+00 0.000D+00 0.487D+00 0.000D+00 0.513D+00
 Gap=     0.179 Goal=   None    Shift=    0.000
 RMSDP=1.04D-03 MaxDP=4.78D-02 DE=-5.30D-01 OVMax= 1.01D-01

 Cycle   6  Pass 1  IDiag  1:
 RMSU=  1.38D-04    CP:  9.88D-01  1.02D+00  5.35D-01  1.93D-01  7.17D-01
 E= -386.486739436786     Delta-E=       -0.057310568441 Rises=F Damp=F
 DIIS: error= 2.58D-03 at cycle   6 NSaved=   6.
 NSaved= 6 IEnMin= 6 EnMin= -386.486739436786     IErMin= 6 ErrMin= 2.58D-03
 ErrMax= 2.58D-03  0.00D+00 EMaxC= 1.00D-01 BMatC= 5.72D-04 BMatP= 4.30D-02
 IDIUse=3 WtCom= 9.74D-01 WtEn= 2.58D-02
 Coeff-Com: -0.293D-01 0.510D-01 0.233D+00-0.416D-01 0.373D+00 0.413D+00
 Coeff-En:   0.000D+00 0.000D+00 0.000D+00 0.000D+00 0.000D+00 0.100D+01
 Coeff:     -0.285D-01 0.497D-01 0.227D+00-0.405D-01 0.364D+00 0.428D+00
 Gap=     0.178 Goal=   None    Shift=    0.000
 RMSDP=1.55D-04 MaxDP=8.45D-03 DE=-5.73D-02 OVMax= 1.12D-02

 Cycle   7  Pass 1  IDiag  1:
 RMSU=  6.30D-05    CP:  9.89D-01  1.07D+00  5.10D-01  2.24D-01  7.32D-01
                    CP:  6.16D-01
 E= -386.487088072936     Delta-E=       -0.000348636150 Rises=F Damp=F
 DIIS: error= 1.13D-03 at cycle   7 NSaved=   7.
 NSaved= 7 IEnMin= 7 EnMin= -386.487088072936     IErMin= 7 ErrMin= 1.13D-03
 ErrMax= 1.13D-03  0.00D+00 EMaxC= 1.00D-01 BMatC= 1.27D-04 BMatP= 5.72D-04
 IDIUse=3 WtCom= 9.89D-01 WtEn= 1.13D-02
 Coeff-Com: -0.806D-02 0.104D-01 0.685D-01-0.159D-01 0.119D+00 0.310D+00
 Coeff-Com:  0.516D+00
 Coeff-En:   0.000D+00 0.000D+00 0.000D+00 0.000D+00 0.000D+00 0.229D+00
 Coeff-En:   0.771D+00
 Coeff:     -0.797D-02 0.103D-01 0.677D-01-0.157D-01 0.118D+00 0.309D+00
 Coeff:      0.518D+00
 Gap=     0.179 Goal=   None    Shift=    0.000
 RMSDP=3.50D-05 MaxDP=1.09D-03 DE=-3.49D-04 OVMax= 2.62D-03

 Cycle   8  Pass 1  IDiag  1:
 RMSU=  1.90D-05    CP:  9.89D-01  1.07D+00  5.15D-01  2.19D-01  7.31D-01
                    CP:  6.66D-01  6.75D-01
 E= -386.487176815415     Delta-E=       -0.000088742479 Rises=F Damp=F
 DIIS: error= 2.29D-04 at cycle   8 NSaved=   8.
 NSaved= 8 IEnMin= 8 EnMin= -386.487176815415     IErMin= 8 ErrMin= 2.29D-04
 ErrMax= 2.29D-04  0.00D+00 EMaxC= 1.00D-01 BMatC= 8.66D-06 BMatP= 1.27D-04
 IDIUse=3 WtCom= 9.98D-01 WtEn= 2.29D-03
 Coeff-Com:  0.188D-02-0.446D-02 0.761D-02-0.104D-02 0.824D-02 0.129D+00
 Coeff-Com:  0.264D+00 0.595D+00
 Coeff-En:   0.000D+00 0.000D+00 0.000D+00 0.000D+00 0.000D+00 0.000D+00
 Coeff-En:   0.000D+00 0.100D+01
 Coeff:      0.188D-02-0.445D-02 0.759D-02-0.104D-02 0.822D-02 0.129D+00
 Coeff:      0.263D+00 0.596D+00
 Gap=     0.179 Goal=   None    Shift=    0.000
 RMSDP=1.70D-05 MaxDP=1.07D-03 DE=-8.87D-05 OVMax= 8.25D-04

 Cycle   9  Pass 1  IDiag  1:
 RMSU=  5.00D-06    CP:  9.88D-01  1.06D+00  5.19D-01  2.17D-01  7.28D-01
                    CP:  7.01D-01  6.78D-01  6.55D-01
 E= -386.487183811911     Delta-E=       -0.000006996496 Rises=F Damp=F
 DIIS: error= 4.04D-05 at cycle   9 NSaved=   9.
 NSaved= 9 IEnMin= 9 EnMin= -386.487183811911     IErMin= 9 ErrMin= 4.04D-05
 ErrMax= 4.04D-05  0.00D+00 EMaxC= 1.00D-01 BMatC= 1.34D-07 BMatP= 8.66D-06
 IDIUse=1 WtCom= 1.00D+00 WtEn= 0.00D+00
 Coeff-Com:  0.897D-03-0.150D-02 0.109D-02-0.941D-04-0.348D-03 0.344D-01
 Coeff-Com:  0.754D-01 0.213D+00 0.678D+00
 Coeff:      0.897D-03-0.150D-02 0.109D-02-0.941D-04-0.348D-03 0.344D-01
 Coeff:      0.754D-01 0.213D+00 0.678D+00
 Gap=     0.179 Goal=   None    Shift=    0.000
 RMSDP=1.60D-06 MaxDP=3.06D-05 DE=-7.00D-06 OVMax= 8.12D-05

 Cycle  10  Pass 1  IDiag  1:
 RMSU=  9.22D-07    CP:  9.88D-01  1.06D+00  5.19D-01  2.17D-01  7.28D-01
                    CP:  7.00D-01  6.84D-01  6.80D-01  7.76D-01
 E= -386.487183917920     Delta-E=       -0.000000106008 Rises=F Damp=F
 DIIS: error= 6.41D-06 at cycle  10 NSaved=  10.
 NSaved=10 IEnMin=10 EnMin= -386.487183917920     IErMin=10 ErrMin= 6.41D-06
 ErrMax= 6.41D-06  0.00D+00 EMaxC= 1.00D-01 BMatC= 1.66D-08 BMatP= 1.34D-07
 IDIUse=1 WtCom= 1.00D+00 WtEn= 0.00D+00
 Coeff-Com:  0.444D-03-0.631D-03 0.329D-03-0.153D-04-0.552D-03 0.131D-01
 Coeff-Com:  0.302D-01 0.920D-01 0.395D+00 0.470D+00
 Coeff:      0.444D-03-0.631D-03 0.329D-03-0.153D-04-0.552D-03 0.131D-01
 Coeff:      0.302D-01 0.920D-01 0.395D+00 0.470D+00
 Gap=     0.179 Goal=   None    Shift=    0.000
 RMSDP=5.18D-07 MaxDP=2.35D-05 DE=-1.06D-07 OVMax= 2.57D-05

 Cycle  11  Pass 1  IDiag  1:
 RMSU=  3.06D-07    CP:  9.88D-01  1.06D+00  5.19D-01  2.17D-01  7.28D-01
                    CP:  7.01D-01  6.83D-01  6.76D-01  7.83D-01  6.71D-01
 E= -386.487183938237     Delta-E=       -0.000000020318 Rises=F Damp=F
 DIIS: error= 1.38D-06 at cycle  11 NSaved=  11.
 NSaved=11 IEnMin=11 EnMin= -386.487183938237     IErMin=11 ErrMin= 1.38D-06
 ErrMax= 1.38D-06  0.00D+00 EMaxC= 1.00D-01 BMatC= 5.39D-10 BMatP= 1.66D-08
 IDIUse=1 WtCom= 1.00D+00 WtEn= 0.00D+00
 Coeff-Com:  0.116D-03-0.149D-03 0.390D-04 0.657D-05-0.173D-03 0.197D-02
 Coeff-Com:  0.488D-02 0.148D-01 0.923D-01 0.186D+00 0.700D+00
 Coeff:      0.116D-03-0.149D-03 0.390D-04 0.657D-05-0.173D-03 0.197D-02
 Coeff:      0.488D-02 0.148D-01 0.923D-01 0.186D+00 0.700D+00
 Gap=     0.179 Goal=   None    Shift=    0.000
 RMSDP=1.28D-07 MaxDP=2.95D-06 DE=-2.03D-08 OVMax= 4.25D-06

 Cycle  12  Pass 1  IDiag  1:
 RMSU=  7.02D-08    CP:  9.88D-01  1.06D+00  5.19D-01  2.17D-01  7.28D-01
                    CP:  7.00D-01  6.83D-01  6.77D-01  7.91D-01  6.75D-01
                    CP:  7.63D-01
 E= -386.487183933038     Delta-E=        0.000000005200 Rises=F Damp=F
 DIIS: error= 2.93D-07 at cycle  12 NSaved=  12.
 NSaved=12 IEnMin=11 EnMin= -386.487183938237     IErMin=12 ErrMin= 2.93D-07
 ErrMax= 2.93D-07  0.00D+00 EMaxC= 1.00D-01 BMatC= 2.72D-11 BMatP= 5.39D-10
 IDIUse=1 WtCom= 1.00D+00 WtEn= 0.00D+00
 Coeff-Com:  0.355D-04-0.425D-04 0.108D-04 0.159D-05-0.457D-04 0.377D-03
 Coeff-Com:  0.105D-02 0.301D-02 0.263D-01 0.652D-01 0.315D+00 0.589D+00
 Coeff:      0.355D-04-0.425D-04 0.108D-04 0.159D-05-0.457D-04 0.377D-03
 Coeff:      0.105D-02 0.301D-02 0.263D-01 0.652D-01 0.315D+00 0.589D+00
 Gap=     0.179 Goal=   None    Shift=    0.000
 RMSDP=3.23D-08 MaxDP=1.43D-06 DE= 5.20D-09 OVMax= 1.16D-06

 Cycle  13  Pass 1  IDiag  1:
 RMSU=  2.04D-08    CP:  9.88D-01  1.06D+00  5.19D-01  2.17D-01  7.28D-01
                    CP:  7.00D-01  6.83D-01  6.77D-01  7.89D-01  6.80D-01
                    CP:  7.87D-01  7.60D-01
 E= -386.487183938762     Delta-E=       -0.000000005725 Rises=F Damp=F
 DIIS: error= 1.05D-07 at cycle  13 NSaved=  13.
 NSaved=13 IEnMin=13 EnMin= -386.487183938762     IErMin=13 ErrMin= 1.05D-07
 ErrMax= 1.05D-07  0.00D+00 EMaxC= 1.00D-01 BMatC= 3.75D-12 BMatP= 2.72D-11
 IDIUse=1 WtCom= 1.00D+00 WtEn= 0.00D+00
 Coeff-Com:  0.807D-05-0.808D-05 0.412D-05-0.277D-06-0.569D-05 0.179D-04
 Coeff-Com:  0.113D-03 0.221D-03 0.554D-02 0.178D-01 0.104D+00 0.320D+00
 Coeff-Com:  0.552D+00
 Coeff:      0.807D-05-0.808D-05 0.412D-05-0.277D-06-0.569D-05 0.179D-04
 Coeff:      0.113D-03 0.221D-03 0.554D-02 0.178D-01 0.104D+00 0.320D+00
 Coeff:      0.552D+00
 Gap=     0.179 Goal=   None    Shift=    0.000
 RMSDP=8.29D-09 MaxDP=1.92D-07 DE=-5.72D-09 OVMax= 3.92D-07

 Error on total polarization charges =  0.01316
 SCF Done:  E(RB-P86) =  -386.487183939     A.U. after   13 cycles
            NFock= 13  Conv=0.83D-08     -V/T= 2.0049
 KE= 3.846172856213D+02 PE=-1.635832406737D+03 EE= 4.977609712867D+02
 Leave Link  502 at Mon Feb 22 21:02:35 2021, MaxMem=   104857600 cpu:             332.6 elap:              10.7
 (Enter /sw/arch/RedHatEnterpriseServer7/EB_production/2019/software/Gaussian/g16.c01/l601.exe)
 Copying SCF densities to generalized density rwf, IOpCl= 0 IROHF=0.

 **********************************************************************

            Population analysis using the SCF Density.

 **********************************************************************

 Orbital symmetries:
       Occupied  (A) (A) (A) (A) (A) (A) (A) (A) (A) (A) (A) (A)
                 (A) (A) (A) (A) (A) (A) (A) (A) (A) (A) (A) (A)
                 (A) (A) (A) (A) (A) (A) (A) (A)
       Virtual   (A) (A) (A) (A) (A) (A) (A) (A) (A) (A) (A) (A)
                 (A) (A) (A) (A) (A) (A) (A) (A) (A) (A) (A) (A)
                 (A) (A) (A) (A) (A) (A) (A) (A) (A) (A) (A) (A)
                 (A) (A) (A) (A) (A) (A) (A) (A) (A) (A) (A) (A)
                 (A) (A) (A) (A) (A) (A) (A) (A) (A) (A) (A) (A)
                 (A) (A) (A) (A) (A) (A) (A) (A) (A) (A) (A) (A)
                 (A) (A) (A) (A) (A) (A) (A) (A) (A) (A) (A) (A)
                 (A) (A) (A) (A) (A) (A) (A) (A) (A) (A) (A) (A)
                 (A) (A) (A) (A) (A) (A) (A) (A) (A) (A) (A) (A)
                 (A) (A) (A) (A) (A) (A) (A) (A) (A) (A) (A) (A)
                 (A) (A) (A) (A) (A) (A) (A) (A) (A) (A) (A) (A)
                 (A) (A) (A) (A) (A) (A) (A) (A) (A) (A) (A) (A)
                 (A) (A) (A) (A) (A) (A) (A) (A) (A) (A) (A) (A)
                 (A) (A) (A) (A) (A) (A) (A) (A) (A) (A) (A) (A)
                 (A) (A) (A) (A) (A) (A) (A) (A) (A) (A) (A) (A)
                 (A) (A) (A) (A) (A) (A) (A) (A) (A) (A) (A) (A)
 The electronic state is 1-A.
 Alpha  occ. eigenvalues --  -18.82120 -18.75814 -10.03512  -9.91591  -9.90563
 Alpha  occ. eigenvalues --   -9.89516  -9.89259  -9.88296  -1.01564  -0.92269
 Alpha  occ. eigenvalues --   -0.74283  -0.70375  -0.64368  -0.58645  -0.55383
 Alpha  occ. eigenvalues --   -0.52359  -0.45323  -0.43701  -0.42413  -0.41296
 Alpha  occ. eigenvalues --   -0.39380  -0.37728  -0.36055  -0.34909  -0.33885
 Alpha  occ. eigenvalues --   -0.32360  -0.30754  -0.29450  -0.29160  -0.28999
 Alpha  occ. eigenvalues --   -0.28253  -0.23225
 Alpha virt. eigenvalues --   -0.05346   0.01157   0.02581   0.04897   0.05730
 Alpha virt. eigenvalues --    0.05882   0.07619   0.09621   0.09691   0.10320
 Alpha virt. eigenvalues --    0.10979   0.11564   0.12094   0.13531   0.13801
 Alpha virt. eigenvalues --    0.14824   0.16244   0.17651   0.18764   0.19151
 Alpha virt. eigenvalues --    0.20396   0.22402   0.23508   0.24436   0.25892
 Alpha virt. eigenvalues --    0.26646   0.27243   0.28157   0.29229   0.30952
 Alpha virt. eigenvalues --    0.33704   0.35439   0.35801   0.37165   0.37701
 Alpha virt. eigenvalues --    0.38463   0.39762   0.40252   0.41475   0.42227
 Alpha virt. eigenvalues --    0.42610   0.42996   0.43770   0.43886   0.44038
 Alpha virt. eigenvalues --    0.45471   0.46012   0.46556   0.47014   0.47910
 Alpha virt. eigenvalues --    0.49230   0.50613   0.51197   0.54271   0.55824
 Alpha virt. eigenvalues --    0.57033   0.58118   0.59571   0.62591   0.64563
 Alpha virt. eigenvalues --    0.68011   0.74030   0.78526   0.86951   1.03696
 Alpha virt. eigenvalues --    1.06476   1.12758   1.16398   1.17620   1.18230
 Alpha virt. eigenvalues --    1.19908   1.22004   1.23286   1.23725   1.25327
 Alpha virt. eigenvalues --    1.26532   1.28538   1.29215   1.30241   1.30821
 Alpha virt. eigenvalues --    1.31189   1.33167   1.34575   1.35193   1.36801
 Alpha virt. eigenvalues --    1.40282   1.41455   1.42140   1.44567   1.44839
 Alpha virt. eigenvalues --    1.47540   1.47870   1.49654   1.50381   1.52877
 Alpha virt. eigenvalues --    1.55367   1.58002   1.58927   1.62492   1.63025
 Alpha virt. eigenvalues --    1.66103   1.66827   1.69869   1.72889   1.73603
 Alpha virt. eigenvalues --    1.73724   1.75381   1.76769   1.77580   1.78448
 Alpha virt. eigenvalues --    1.78630   1.80073   1.81340   1.83786   1.84929
 Alpha virt. eigenvalues --    1.90410   1.93129   1.95848   2.04430   2.06070
 Alpha virt. eigenvalues --    2.07448   2.08495   2.10108   2.13395   2.14454
 Alpha virt. eigenvalues --    2.14869   2.18883   2.19796   2.24636   2.26480
 Alpha virt. eigenvalues --    2.29359   2.31717   2.35286   2.39066   2.41479
 Alpha virt. eigenvalues --    2.45004   2.45681   2.46853   2.48401   2.48574
 Alpha virt. eigenvalues --    2.50287   2.51011   2.52477   2.53009   2.53649
 Alpha virt. eigenvalues --    2.55760   2.56802   2.57178   2.57288   2.59543
 Alpha virt. eigenvalues --    2.60448   2.61214   2.63079   2.64427   2.65987
 Alpha virt. eigenvalues --    2.66684   2.67446   2.70729   2.76512   2.78813
 Alpha virt. eigenvalues --    2.86446   2.88643   2.92535   2.97086   3.01482
 Alpha virt. eigenvalues --    3.03632   3.07896   3.09368   3.13885   3.16912
 Alpha virt. eigenvalues --    3.22726   3.23736   3.28113   3.28796   3.30421
 Alpha virt. eigenvalues --    3.32182   3.34622   3.35732   3.37872   3.40211
 Alpha virt. eigenvalues --    3.46523   3.81869   4.00677   4.18174  21.65025
 Alpha virt. eigenvalues --   21.74883  21.77987  21.79588  21.82156  21.84511
 Alpha virt. eigenvalues --   43.04319  43.11646
          Condensed to atoms (all electrons):
               1          2          3          4          5          6
     1  C    5.055185   0.267073  -0.063420   0.014957  -0.001056  -0.000084
     2  C    0.267073   5.144619   0.240926  -0.044506   0.010920   0.000031
     3  C   -0.063420   0.240926   5.258835   0.202880  -0.006812  -0.011884
     4  C    0.014957  -0.044506   0.202880   5.355041   0.127895  -0.028701
     5  C   -0.001056   0.010920  -0.006812   0.127895   5.615395   0.075725
     6  C   -0.000084   0.000031  -0.011884  -0.028701   0.075725   4.858114
     7  O   -0.000001   0.000014  -0.001567  -0.009095  -0.138176   0.633446
     8  O   -0.000002   0.000117  -0.002493   0.011702  -0.133245   0.339262
     9  H    0.404783  -0.038752  -0.008073  -0.000046  -0.000019   0.000004
    10  H    0.409447  -0.042506  -0.006997  -0.000757  -0.000020  -0.000002
    11  H    0.404066  -0.045677   0.014039  -0.000853   0.000046  -0.000001
    12  H   -0.044250   0.417150  -0.046228  -0.005020  -0.000035  -0.000066
    13  H   -0.039675   0.414032  -0.039130  -0.010746  -0.000340  -0.000110
    14  H   -0.002056  -0.042702   0.413969  -0.043330  -0.001851  -0.001701
    15  H   -0.003234  -0.037980   0.412374  -0.042481  -0.007832   0.001208
    16  H    0.000026  -0.006473  -0.031308   0.408069  -0.032250  -0.013616
    17  H   -0.000868  -0.002691  -0.053784   0.405390  -0.050757   0.018164
    18  H   -0.000024  -0.000021  -0.001351  -0.030582   0.431529  -0.060320
    19  H   -0.000222   0.000653  -0.017556  -0.035332   0.341543   0.013722
    20  H    0.000000  -0.000006   0.000158   0.000186   0.014059  -0.019219
               7          8          9         10         11         12
     1  C   -0.000001  -0.000002   0.404783   0.409447   0.404066  -0.044250
     2  C    0.000014   0.000117  -0.038752  -0.042506  -0.045677   0.417150
     3  C   -0.001567  -0.002493  -0.008073  -0.006997   0.014039  -0.046228
     4  C   -0.009095   0.011702  -0.000046  -0.000757  -0.000853  -0.005020
     5  C   -0.138176  -0.133245  -0.000019  -0.000020   0.000046  -0.000035
     6  C    0.633446   0.339262   0.000004  -0.000002  -0.000001  -0.000066
     7  O    7.991603  -0.128421   0.000000   0.000000   0.000000   0.000000
     8  O   -0.128421   7.894900   0.000000   0.000000   0.000000  -0.000025
     9  H    0.000000   0.000000   0.561862  -0.030366  -0.025277   0.008652
    10  H    0.000000   0.000000  -0.030366   0.560146  -0.025371  -0.006849
    11  H    0.000000   0.000000  -0.025277  -0.025371   0.543057  -0.002857
    12  H    0.000000  -0.000025   0.008652  -0.006849  -0.002857   0.578488
    13  H   -0.000002   0.000002  -0.006872   0.008482  -0.002778  -0.033256
    14  H   -0.000094  -0.000037   0.005735  -0.000679  -0.000266   0.008729
    15  H    0.000041   0.000151  -0.000698   0.005697  -0.000101  -0.006890
    16  H    0.000313   0.005684   0.000007   0.000091  -0.000012   0.004778
    17  H    0.003843  -0.000447   0.000089   0.000019   0.000018  -0.000249
    18  H    0.007377   0.004691  -0.000014   0.000013   0.000000  -0.000035
    19  H    0.004893   0.005938   0.000018  -0.000009   0.000002   0.000101
    20  H    0.002023   0.289355  -0.000000  -0.000000  -0.000000   0.000001
              13         14         15         16         17         18
     1  C   -0.039675  -0.002056  -0.003234   0.000026  -0.000868  -0.000024
     2  C    0.414032  -0.042702  -0.037980  -0.006473  -0.002691  -0.000021
     3  C   -0.039130   0.413969   0.412374  -0.031308  -0.053784  -0.001351
     4  C   -0.010746  -0.043330  -0.042481   0.408069   0.405390  -0.030582
     5  C   -0.000340  -0.001851  -0.007832  -0.032250  -0.050757   0.431529
     6  C   -0.000110  -0.001701   0.001208  -0.013616   0.018164  -0.060320
     7  O   -0.000002  -0.000094   0.000041   0.000313   0.003843   0.007377
     8  O    0.000002  -0.000037   0.000151   0.005684  -0.000447   0.004691
     9  H   -0.006872   0.005735  -0.000698   0.000007   0.000089  -0.000014
    10  H    0.008482  -0.000679   0.005697   0.000091   0.000019   0.000013
    11  H   -0.002778  -0.000266  -0.000101  -0.000012   0.000018   0.000000
    12  H   -0.033256   0.008729  -0.006890   0.004778  -0.000249  -0.000035
    13  H    0.575803  -0.007477   0.008426  -0.000134   0.004651   0.000135
    14  H   -0.007477   0.574143  -0.034819   0.007759  -0.005931   0.003249
    15  H    0.008426  -0.034819   0.570142  -0.006164   0.007810   0.000084
    16  H   -0.000134   0.007759  -0.006164   0.541763  -0.027209   0.005844
    17  H    0.004651  -0.005931   0.007810  -0.027209   0.561762  -0.005015
    18  H    0.000135   0.003249   0.000084   0.005844  -0.005015   0.499275
    19  H   -0.000031  -0.000459   0.004788  -0.003744   0.008478  -0.020425
    20  H   -0.000000   0.000002  -0.000008  -0.000167  -0.000205  -0.000361
              19         20
     1  C   -0.000222   0.000000
     2  C    0.000653  -0.000006
     3  C   -0.017556   0.000158
     4  C   -0.035332   0.000186
     5  C    0.341543   0.014059
     6  C    0.013722  -0.019219
     7  O    0.004893   0.002023
     8  O    0.005938   0.289355
     9  H    0.000018  -0.000000
    10  H   -0.000009  -0.000000
    11  H    0.000002  -0.000000
    12  H    0.000101   0.000001
    13  H   -0.000031  -0.000000
    14  H   -0.000459   0.000002
    15  H    0.004788  -0.000008
    16  H   -0.003744  -0.000167
    17  H    0.008478  -0.000205
    18  H   -0.020425  -0.000361
    19  H    0.533939  -0.000606
    20  H   -0.000606   0.379353
 Mulliken charges:
               1
     1  C   -0.400645
     2  C   -0.234223
     3  C   -0.252579
     4  C   -0.274670
     5  C   -0.244718
     6  C    0.196028
     7  O   -0.366197
     8  O   -0.287133
     9  H    0.128965
    10  H    0.129660
    11  H    0.141964
    12  H    0.127862
    13  H    0.129018
    14  H    0.127816
    15  H    0.129485
    16  H    0.146742
    17  H    0.136931
    18  H    0.165951
    19  H    0.164310
    20  H    0.335433
 Sum of Mulliken charges =  -0.00000
 Mulliken charges with hydrogens summed into heavy atoms:
               1
     1  C   -0.000057
     2  C    0.022657
     3  C    0.004722
     4  C    0.009003
     5  C    0.085543
     6  C    0.196028
     7  O   -0.366197
     8  O    0.048300
 Electronic spatial extent (au):  <R**2>=           1827.9766
 Charge=             -0.0000 electrons
 Dipole moment (field-independent basis, Debye):
    X=             -1.8788    Y=              1.9313    Z=              1.0123  Tot=              2.8783
 Quadrupole moment (field-independent basis, Debye-Ang):
   XX=            -54.8906   YY=            -51.1112   ZZ=            -50.8150
   XY=              9.8938   XZ=              3.2363   YZ=             -2.1082
 Traceless Quadrupole moment (field-independent basis, Debye-Ang):
   XX=             -2.6183   YY=              1.1611   ZZ=              1.4573
   XY=              9.8938   XZ=              3.2363   YZ=             -2.1082
 Octapole moment (field-independent basis, Debye-Ang**2):
  XXX=             23.1173  YYY=              6.0878  ZZZ=              1.3173  XYY=              7.6853
  XXY=             45.3024  XXZ=              6.7049  XZZ=              5.1493  YZZ=              1.2258
  YYZ=             -0.3889  XYZ=             -8.3418
 Hexadecapole moment (field-independent basis, Debye-Ang**3):
 XXXX=          -2082.7045 YYYY=           -187.6207 ZZZZ=           -126.6229 XXXY=            169.1209
 XXXZ=             41.3724 YYYX=             32.7258 YYYZ=             -1.8571 ZZZX=             -0.0878
 ZZZY=              3.2477 XXYY=           -360.2993 XXZZ=           -376.1212 YYZZ=            -58.0804
 XXYZ=            -21.1487 YYXZ=             -0.7602 ZZXY=              2.6668
 N-N= 3.669669658907D+02 E-N=-1.635832408261D+03  KE= 3.846172856213D+02
 No NMR shielding tensors so no spin-rotation constants.
 Leave Link  601 at Mon Feb 22 21:02:35 2021, MaxMem=   104857600 cpu:               6.5 elap:               0.3
 (Enter /sw/arch/RedHatEnterpriseServer7/EB_production/2019/software/Gaussian/g16.c01/l701.exe)
 ... and contract with generalized density number  0.
 Compute integral first derivatives.
 R6Disp: Adding Grimme-D3 dispersion energy 1st derivatives to the gradient.
 PrsmSu:  requested number of processors reduced to:  29 ShMem   1 Linda.
 D1PCM: PCM CHGder 1st derivatives, ID1Alg=3 FixD1E=F DoIter=F DoCFld=F I1PDM=0.
 GePol: Maximum number of non-zero 1st derivatives   =     230
 CoulSu:  requested number of processors reduced to:  29 ShMem   1 Linda.
 CoulSu:  requested number of processors reduced to:  30 ShMem   1 Linda.
 Leave Link  701 at Mon Feb 22 21:02:36 2021, MaxMem=   104857600 cpu:              20.7 elap:               0.7
 (Enter /sw/arch/RedHatEnterpriseServer7/EB_production/2019/software/Gaussian/g16.c01/l702.exe)
 L702 exits ... SP integral derivatives will be done elsewhere.
 Leave Link  702 at Mon Feb 22 21:02:36 2021, MaxMem=   104857600 cpu:               0.6 elap:               0.0
 (Enter /sw/arch/RedHatEnterpriseServer7/EB_production/2019/software/Gaussian/g16.c01/l703.exe)
 Integral derivatives from FoFJK, PRISM(SPDF).
 Compute integral first derivatives, UseDBF=F ICtDFT=           0.
 Calling FoFJK, ICntrl=      2527 FMM=F ISym2X=0 I1Cent= 0 IOpClX= 0 NMat=1 NMatS=1 NMatT=0.
 FoFJK:  IHMeth= 1 ICntrl=    2527 DoSepK=F KAlg= 0 I1Cent=           0 FoldK=F
 IRaf=         0 NMat=       1 IRICut=       1 DoRegI=T DoRafI=F ISym2E= 0 IDoP0=0 IntGTp=1.
 FoFCou: FMM=F IPFlag=           0 FMFlag=      100000 FMFlg1=         800
         NFxFlg=           0 DoJE=F BraDBF=F KetDBF=F FulRan=T
         wScrn=  0.000000 ICntrl=      2527 IOpCl=  0 I1Cent=           0 NGrid=           0
         NMat0=    1 NMatS0=      1 NMatT0=    0 NMatD0=    1 NMtDS0=    0 NMtDT0=    0
 Symmetry not used in FoFCou.
 Leave Link  703 at Mon Feb 22 21:02:38 2021, MaxMem=   104857600 cpu:              41.6 elap:               1.4
 (Enter /sw/arch/RedHatEnterpriseServer7/EB_production/2019/software/Gaussian/g16.c01/l716.exe)
 Dipole        =-7.39164759D-01 7.59832538D-01 3.98255218D-01
 ***** Axes restored to original set *****
 -------------------------------------------------------------------
 Center     Atomic                   Forces (Hartrees/Bohr)
 Number     Number              X              Y              Z
 -------------------------------------------------------------------
      1        6           0.005527784    0.011424173   -0.003155162
      2        6           0.008106175   -0.012053765   -0.001259349
      3        6          -0.007694845    0.014436765    0.000720531
      4        6           0.000566122   -0.012337580    0.003944847
      5        6          -0.015740721   -0.004932073    0.018250849
      6        6           0.033808568    0.041098754   -0.056662249
      7        8          -0.008296078   -0.006966001    0.019288983
      8        8          -0.016274309   -0.019815865    0.032057195
      9        1          -0.000236351   -0.004653489   -0.003240124
     10        1           0.001956031   -0.003773748    0.003646590
     11        1          -0.005210960   -0.001397606    0.001775979
     12        1          -0.000101642    0.005691763    0.003119343
     13        1          -0.002211869    0.004833460   -0.003474056
     14        1           0.001070848   -0.004563578   -0.003804049
     15        1           0.003271650   -0.003785969    0.003107338
     16        1          -0.000637782    0.003685191    0.002717442
     17        1          -0.002286233    0.003228583   -0.002289946
     18        1           0.003784326    0.002553227   -0.004084159
     19        1           0.001889501   -0.004564108    0.007115665
     20        1          -0.001290216   -0.008108133   -0.017775668
 -------------------------------------------------------------------
 Cartesian Forces:  Max     0.056662249 RMS     0.013184601
 Leave Link  716 at Mon Feb 22 21:02:38 2021, MaxMem=   104857600 cpu:               1.0 elap:               0.1
 (Enter /sw/arch/RedHatEnterpriseServer7/EB_production/2019/software/Gaussian/g16.c01/l103.exe)

 GradGradGradGradGradGradGradGradGradGradGradGradGradGradGradGradGradGrad
 Berny optimization.
 FormGI is forming the generalized inverse of G from B-inverse, IUseBI=4.
 GSVD:  received Info=                   1 from GESDD.
 Internal  Forces:  Max     0.035069527 RMS     0.006721270
 Search for a local minimum.
 Step number   1 out of a maximum of  107
 All quantities printed in internal units (Hartrees-Bohrs-Radians)
 RMS Force = .67213D-02 SwitMx=.10000D-02 MixMth= 1
 Mixed Optimization -- RFO/linear search
 Second derivative matrix not updated -- first step.
 ITU=  0
     Eigenvalues ---    0.00230   0.00230   0.00230   0.00230   0.01086
     Eigenvalues ---    0.01378   0.02289   0.03430   0.03510   0.03514
     Eigenvalues ---    0.04199   0.04768   0.04788   0.04789   0.05439
     Eigenvalues ---    0.05515   0.05647   0.08157   0.08169   0.08311
     Eigenvalues ---    0.09487   0.12089   0.12098   0.12201   0.12869
     Eigenvalues ---    0.16000   0.16000   0.16000   0.16000   0.21962
     Eigenvalues ---    0.21967   0.21976   0.21985   0.24999   0.25000
     Eigenvalues ---    0.27425   0.27435   0.27522   0.28071   0.34224
     Eigenvalues ---    0.34294   0.34319   0.34331   0.34388   0.34410
     Eigenvalues ---    0.34510   0.34529   0.34541   0.34543   0.34658
     Eigenvalues ---    0.35053   0.51286   0.54000   0.82790
 RFO step:  Lambda=-1.73357429D-02 EMin= 2.30000000D-03
 Linear search not attempted -- first point.
 Iteration  1 RMS(Cart)=  0.04300101 RMS(Int)=  0.00172195
 Iteration  2 RMS(Cart)=  0.00233255 RMS(Int)=  0.00005708
 Iteration  3 RMS(Cart)=  0.00000294 RMS(Int)=  0.00005704
 Iteration  4 RMS(Cart)=  0.00000000 RMS(Int)=  0.00005704
 ITry= 1 IFail=0 DXMaxC= 1.99D-01 DCOld= 1.00D+10 DXMaxT= 3.00D-01 DXLimC= 3.00D+00 Rises=F
 Variable       Old X    -DE/DX   Delta X   Delta X   Delta X     New X
                                 (Linear)    (Quad)   (Total)
    R1        2.91984  -0.00252   0.00000  -0.00846  -0.00846   2.91137
    R2        2.06424   0.00544   0.00000   0.01499   0.01499   2.07923
    R3        2.06446   0.00536   0.00000   0.01478   0.01478   2.07924
    R4        2.06426   0.00517   0.00000   0.01425   0.01425   2.07851
    R5        2.93413  -0.00818   0.00000  -0.02805  -0.02805   2.90608
    R6        2.06643   0.00594   0.00000   0.01645   0.01645   2.08288
    R7        2.06680   0.00578   0.00000   0.01600   0.01600   2.08279
    R8        2.93391  -0.00789   0.00000  -0.02706  -0.02706   2.90685
    R9        2.06776   0.00580   0.00000   0.01609   0.01609   2.08384
   R10        2.06794   0.00564   0.00000   0.01565   0.01565   2.08360
   R11        2.93196  -0.00135   0.00000  -0.00462  -0.00462   2.92735
   R12        2.06837   0.00436   0.00000   0.01210   0.01210   2.08047
   R13        2.06953   0.00432   0.00000   0.01202   0.01202   2.08155
   R14        2.78889   0.01276   0.00000   0.03469   0.03469   2.82358
   R15        2.06478   0.00205   0.00000   0.00567   0.00567   2.07045
   R16        2.06234   0.00817   0.00000   0.02246   0.02246   2.08480
   R17        2.36445  -0.02201   0.00000  -0.02604  -0.02604   2.33841
   R18        2.56031  -0.00957   0.00000  -0.01717  -0.01717   2.54314
   R19        1.85290  -0.00500   0.00000  -0.00944  -0.00944   1.84346
    A1        1.92911   0.00120   0.00000   0.00567   0.00563   1.93474
    A2        1.92841   0.00120   0.00000   0.00579   0.00574   1.93416
    A3        1.91216   0.00300   0.00000   0.01897   0.01887   1.93103
    A4        1.90334  -0.00187   0.00000  -0.01448  -0.01447   1.88887
    A5        1.89539  -0.00185   0.00000  -0.00851  -0.00861   1.88678
    A6        1.89478  -0.00181   0.00000  -0.00806  -0.00816   1.88661
    A7        1.97695  -0.00327   0.00000  -0.01121  -0.01117   1.96578
    A8        1.89255   0.00221   0.00000   0.01618   0.01615   1.90871
    A9        1.89383   0.00208   0.00000   0.01497   0.01493   1.90876
   A10        1.90588   0.00029   0.00000  -0.00251  -0.00246   1.90341
   A11        1.90572   0.00037   0.00000  -0.00229  -0.00225   1.90347
   A12        1.88690  -0.00163   0.00000  -0.01543  -0.01557   1.87134
   A13        1.96044  -0.00092   0.00000  -0.00142  -0.00142   1.95901
   A14        1.90326   0.00047   0.00000   0.00289   0.00289   1.90615
   A15        1.90394   0.00053   0.00000   0.00410   0.00410   1.90804
   A16        1.90758   0.00045   0.00000   0.00271   0.00271   1.91029
   A17        1.90048   0.00051   0.00000   0.00395   0.00395   1.90443
   A18        1.88674  -0.00105   0.00000  -0.01277  -0.01277   1.87397
   A19        1.96209  -0.00241   0.00000  -0.00850  -0.00849   1.95360
   A20        1.89880   0.00134   0.00000   0.00982   0.00982   1.90862
   A21        1.90671   0.00082   0.00000   0.00316   0.00315   1.90986
   A22        1.90875   0.00072   0.00000   0.00437   0.00439   1.91313
   A23        1.89777   0.00073   0.00000   0.00149   0.00149   1.89926
   A24        1.88837  -0.00117   0.00000  -0.01057  -0.01058   1.87779
   A25        1.96456   0.00168   0.00000   0.00526   0.00527   1.96983
   A26        1.90009   0.00403   0.00000   0.02724   0.02726   1.92735
   A27        1.91762  -0.00352   0.00000  -0.01761  -0.01764   1.89998
   A28        1.91611  -0.00556   0.00000  -0.04402  -0.04392   1.87220
   A29        1.88631   0.00241   0.00000   0.01914   0.01922   1.90553
   A30        1.87718   0.00087   0.00000   0.00979   0.00996   1.88714
   A31        2.11035   0.01480   0.00000   0.05545   0.05524   2.16559
   A32        2.09758  -0.03419   0.00000  -0.12778  -0.12799   1.96958
   A33        2.07521   0.01940   0.00000   0.07270   0.07249   2.14769
   A34        2.10605  -0.03507   0.00000  -0.19776  -0.19776   1.90829
    D1       -1.05151   0.00038   0.00000   0.00535   0.00538  -1.04613
    D2        3.11322   0.00058   0.00000   0.00441   0.00449   3.11771
    D3        1.06764   0.00017   0.00000   0.00570   0.00568   1.07332
    D4        1.05688  -0.00039   0.00000  -0.00526  -0.00529   1.05158
    D5       -1.06157  -0.00019   0.00000  -0.00620  -0.00619  -1.06776
    D6       -3.10715  -0.00060   0.00000  -0.00492  -0.00499  -3.11215
    D7       -3.13950   0.00001   0.00000   0.00034   0.00034  -3.13916
    D8        1.02523   0.00022   0.00000  -0.00060  -0.00055   1.02468
    D9       -1.02035  -0.00019   0.00000   0.00069   0.00064  -1.01971
   D10       -3.11507  -0.00012   0.00000  -0.00360  -0.00360  -3.11867
   D11        1.05081  -0.00041   0.00000  -0.00809  -0.00809   1.04272
   D12       -1.00625   0.00029   0.00000   0.00327   0.00328  -1.00297
   D13       -1.00412   0.00073   0.00000   0.00781   0.00781  -0.99631
   D14       -3.12143   0.00044   0.00000   0.00332   0.00332  -3.11812
   D15        1.10470   0.00114   0.00000   0.01468   0.01468   1.11938
   D16        1.05566  -0.00087   0.00000  -0.01360  -0.01360   1.04206
   D17       -1.06165  -0.00115   0.00000  -0.01809  -0.01809  -1.07974
   D18       -3.11870  -0.00046   0.00000  -0.00673  -0.00672  -3.12543
   D19       -3.11610   0.00016   0.00000   0.00358   0.00358  -3.11252
   D20        1.05031  -0.00010   0.00000  -0.00319  -0.00318   1.04713
   D21       -1.00773   0.00007   0.00000   0.00209   0.00208  -1.00564
   D22       -1.00127   0.00045   0.00000   0.00818   0.00817  -0.99309
   D23       -3.11804   0.00019   0.00000   0.00141   0.00142  -3.11662
   D24        1.10711   0.00036   0.00000   0.00668   0.00668   1.11379
   D25        1.05627  -0.00026   0.00000  -0.00338  -0.00338   1.05289
   D26       -1.06050  -0.00052   0.00000  -0.01014  -0.01013  -1.07064
   D27       -3.11854  -0.00035   0.00000  -0.00487  -0.00487  -3.12341
   D28       -3.07316  -0.00201   0.00000  -0.02931  -0.02930  -3.10247
   D29        1.08140   0.00110   0.00000   0.00394   0.00394   1.08535
   D30       -0.97013  -0.00028   0.00000  -0.01375  -0.01375  -0.98389
   D31       -0.96208  -0.00141   0.00000  -0.01945  -0.01944  -0.98153
   D32       -3.09070   0.00171   0.00000   0.01380   0.01380  -3.07690
   D33        1.14095   0.00032   0.00000  -0.00389  -0.00389   1.13705
   D34        1.09652  -0.00199   0.00000  -0.02883  -0.02882   1.06770
   D35       -1.03210   0.00113   0.00000   0.00442   0.00442  -1.02767
   D36       -3.08363  -0.00026   0.00000  -0.01326  -0.01327  -3.09691
   D37       -2.01764  -0.00074   0.00000   0.01515   0.01514  -2.00251
   D38        1.13532  -0.00193   0.00000  -0.02284  -0.02278   1.11254
   D39        0.10188   0.00160   0.00000   0.02235   0.02238   0.12426
   D40       -3.02834   0.00042   0.00000  -0.01564  -0.01553  -3.04387
   D41        2.14460   0.00096   0.00000   0.02077   0.02065   2.16525
   D42       -0.98562  -0.00023   0.00000  -0.01722  -0.01727  -1.00289
   D43        3.12959   0.00092   0.00000   0.02713   0.02724  -3.12635
   D44       -0.00086  -0.00023   0.00000  -0.01002  -0.01013  -0.01099
         Item               Value     Threshold  Converged?
 Maximum Force            0.035070     0.000450     NO 
 RMS     Force            0.006721     0.000300     NO 
 Maximum Displacement     0.198726     0.001800     NO 
 RMS     Displacement     0.044551     0.001200     NO 
 Predicted change in Energy=-9.386837D-03
 Lowest energy point so far.  Saving SCF results.
 GradGradGradGradGradGradGradGradGradGradGradGradGradGradGradGradGradGrad

 Leave Link  103 at Mon Feb 22 21:02:38 2021, MaxMem=   104857600 cpu:               3.5 elap:               0.2
 (Enter /sw/arch/RedHatEnterpriseServer7/EB_production/2019/software/Gaussian/g16.c01/l202.exe)
                          Input orientation:                          
 ---------------------------------------------------------------------
 Center     Atomic      Atomic             Coordinates (Angstroms)
 Number     Number       Type             X           Y           Z
 ---------------------------------------------------------------------
      1          6           0       -3.169489   -3.586390    1.559684
      2          6           0       -2.494371   -2.250696    1.194051
      3          6           0       -1.032194   -2.428223    0.751956
      4          6           0       -0.357211   -1.086417    0.420102
      5          6           0        1.101975   -1.276805   -0.063830
      6          6           0        1.795135    0.017462   -0.341245
      7          8           0        2.174891    0.373965   -1.463714
      8          8           0        1.938191    0.779841    0.758490
      9          1           0       -3.171358   -4.272631    0.699630
     10          1           0       -2.640782   -4.077274    2.390427
     11          1           0       -4.212398   -3.422031    1.868074
     12          1           0       -2.527829   -1.574276    2.063654
     13          1           0       -3.059712   -1.765842    0.381600
     14          1           0       -0.997836   -3.085332   -0.132930
     15          1           0       -0.466256   -2.928146    1.555385
     16          1           0       -0.369539   -0.441287    1.312135
     17          1           0       -0.929375   -0.573841   -0.369336
     18          1           0        1.124573   -1.862765   -0.989334
     19          1           0        1.663939   -1.830950    0.707037
     20          1           0        2.382256    1.614329    0.517513
 ---------------------------------------------------------------------
                    Distance matrix (angstroms):
                    1          2          3          4          5
     1  C    0.000000
     2  C    1.540633   0.000000
     3  C    2.561602   1.537831   0.000000
     4  C    3.931592   2.553820   1.538236   0.000000
     5  C    5.120096   3.932484   2.558505   1.549084   0.000000
     6  C    6.422521   5.089355   3.894901   2.535901   1.494174
     7  O    7.306692   5.979512   4.800713   3.477502   2.415753
     8  O    6.767147   5.387158   4.372059   2.977633   2.367543
     9  H    1.100283   2.188832   2.824996   4.260225   5.274393
    10  H    1.100286   2.188410   2.826926   4.247599   5.279606
    11  H    1.099899   2.185852   3.513840   4.734362   6.047877
    12  H    2.171248   1.102213   2.164879   2.766017   4.217837
    13  H    2.171251   1.102167   2.164888   2.786864   4.213930
    14  H    2.798585   2.167282   1.102722   2.170692   2.772139
    15  H    2.782224   2.168583   1.102592   2.166269   2.794304
    16  H    4.218136   2.793352   2.168138   1.100939   2.180991
    17  H    4.220745   2.775831   2.169470   1.101508   2.171147
    18  H    5.282740   4.244339   2.829042   2.187443   1.095635
    19  H    5.212543   4.207720   2.761863   2.172949   1.103229
    20  H    7.678247   6.259202   5.296759   3.848142   3.214924
                    6          7          8          9         10
     6  C    0.000000
     7  O    1.237435   0.000000
     8  O    1.345773   2.271333   0.000000
     9  H    6.644876   7.406300   7.185988   0.000000
    10  H    6.626180   7.606486   6.871811   1.782826   0.000000
    11  H    7.266475   8.142963   7.531046   1.781164   1.781059
    12  H    5.196651   6.193023   5.214465   3.091248   2.526765
    13  H    5.222281   5.948531   5.621529   2.529347   3.090891
    14  H    4.179882   4.878926   4.935023   2.612859   3.170260
    15  H    4.169856   5.195628   4.490609   3.139671   2.597375
    16  H    2.762233   3.852803   2.668950   4.785869   4.420595
    17  H    2.788079   3.425268   3.365618   4.455359   4.776950
    18  H    2.098791   2.516180   3.271120   5.207214   5.523109
    19  H    2.129021   3.136061   2.625659   5.416822   5.139105
    20  H    1.905823   2.346649   0.975517   8.095189   7.818764
                   11         12         13         14         15
    11  H    0.000000
    12  H    2.508032   0.000000
    13  H    2.506243   1.774516   0.000000
    14  H    3.801420   3.073947   2.501425   0.000000
    15  H    3.791474   2.518211   3.074856   1.776990   0.000000
    16  H    4.895045   2.550815   3.139645   3.077977   2.500598
    17  H    4.888398   3.078208   2.554038   2.523522   3.076002
    18  H    6.251348   4.769067   4.404213   2.594748   3.184551
    19  H    6.197651   4.413299   4.735296   3.060076   2.541902
    20  H    8.407044   6.055302   6.407733   5.825368   5.461252
                   16         17         18         19         20
    16  H    0.000000
    17  H    1.777169   0.000000
    18  H    3.090263   2.502883   0.000000
    19  H    2.536205   3.076390   1.780337   0.000000
    20  H    3.525529   4.067123   3.992810   3.524463   0.000000
 Stoichiometry    C6H12O2
 Framework group  C1[X(C6H12O2)]
 Deg. of freedom    54
 Full point group                 C1      NOp   1
 RotChk:  IX=0 Diff= 1.20D-02
 Largest Abelian subgroup         C1      NOp   1
 Largest concise Abelian subgroup C1      NOp   1
                         Standard orientation:                         
 ---------------------------------------------------------------------
 Center     Atomic      Atomic             Coordinates (Angstroms)
 Number     Number       Type             X           Y           Z
 ---------------------------------------------------------------------
      1          6           0       -4.053283   -0.050763    0.091024
      2          6           0       -2.675003    0.341735   -0.474521
      3          6           0       -1.512230   -0.291093    0.308047
      4          6           0       -0.140259    0.132279   -0.243880
      5          6           0        1.024904   -0.541457    0.523020
      6          6           0        2.368807   -0.103514    0.038574
      7          8           0        3.184016   -0.851921   -0.515111
      8          8           0        2.594098    1.208246    0.237660
      9          1           0       -4.194484   -1.141415    0.056918
     10          1           0       -4.154700    0.276811    1.136509
     11          1           0       -4.859490    0.416696   -0.493176
     12          1           0       -2.569488    1.438644   -0.451504
     13          1           0       -2.610655    0.029828   -1.529673
     14          1           0       -1.601854   -1.389371    0.266245
     15          1           0       -1.581996    0.004773    1.367908
     16          1           0       -0.042274    1.226847   -0.177660
     17          1           0       -0.072222   -0.144248   -1.307940
     18          1           0        0.977641   -1.630298    0.410742
     19          1           0        0.930915   -0.302666    1.595988
     20          1           0        3.476082    1.440675   -0.108339
 ---------------------------------------------------------------------
 Rotational constants (GHZ):           6.5703195           0.6535643           0.6292012
 Leave Link  202 at Mon Feb 22 21:02:38 2021, MaxMem=   104857600 cpu:               0.3 elap:               0.0
 (Enter /sw/arch/RedHatEnterpriseServer7/EB_production/2019/software/Gaussian/g16.c01/l301.exe)
 Standard basis: TZVP (5D, 7F)
 Ernie: Thresh=  0.10000D-02 Tol=  0.10000D-05 Strict=F.
 There are   232 symmetry adapted cartesian basis functions of A   symmetry.
 There are   224 symmetry adapted basis functions of A   symmetry.
   224 basis functions,   376 primitive gaussians,   232 cartesian basis functions
    32 alpha electrons       32 beta electrons
       nuclear repulsion energy       368.9015958750 Hartrees.
 IExCor=  404 DFT=T Ex=B Corr=P86 ExCW=0 ScaHFX=  0.000000
 ScaDFX=  1.000000  1.000000  1.000000  1.000000 ScalE2=  1.000000  1.000000
 IRadAn=      5 IRanWt=     -1 IRanGd=            0 ICorTp=0 IEmpDi=131
 NAtoms=   20 NActive=   20 NUniq=   20 SFac= 1.00D+00 NAtFMM=   60 NAOKFM=F Big=F
 Integral buffers will be    131072 words long.
 Raffenetti 2 integral format.
 Two-electron integral symmetry is turned on.
 R6Disp:  Grimme-D3 Dispersion energy=       -0.0161976829 Hartrees.
 Nuclear repulsion after empirical dispersion term =      368.8853981921 Hartrees.
 ------------------------------------------------------------------------------
 Polarizable Continuum Model (PCM)
 =================================
 Model                : PCM.
 Atomic radii         : UFF (Universal Force Field).
 Polarization charges : Total charges.
 Charge compensation  : None.
 Solution method      : On-the-fly selection.
 Cavity type          : Scaled VdW (van der Waals Surface) (Alpha=1.100).
 Cavity algorithm     : GePol (No added spheres)
                        Default sphere list used, NSphG=   20.
                        Lebedev-Laikov grids with approx.  5.0 points / Ang**2.
                        Smoothing algorithm: York/Karplus (Gamma=1.0000).
                        Polarization charges: spherical gaussians, with
                                              point-specific exponents (IZeta= 3).
[...]
   11   H     11    1.3000  1.000     -4.861916      0.249325     -0.616200
   12   H     12    1.3000  1.000     -2.568693      1.256960     -0.874007
   13   H     13    1.3000  1.000     -2.588534     -0.401017     -1.481539
   14   H     14    1.3000  1.000     -1.613201     -1.211417      0.696011
   15   H     15    1.3000  1.000     -1.592056      0.448738      1.303542
   16   H     16    1.3000  1.000     -0.027785      1.113000     -0.557790
   17   H     17    1.3000  1.000     -0.050085     -0.549893     -1.168172
   18   H     18    1.3000  1.000      0.931199     -1.365822      1.010927
   19   H     19    1.3000  1.000      0.956202      0.316206      1.614940
   20   H     20    1.3000  1.000      3.605016      1.238371     -0.417544
 ------------------------------------------------------------------------------
 One-electron integrals computed using PRISM.
 PrsmSu:  requested number of processors reduced to:  29 ShMem   1 Linda.
 NBasis=   224 RedAO= T EigKep=  1.20D-04  NBF=   224
 NBsUse=   224 1.00D-06 EigRej= -1.00D+00 NBFU=   224
 Initial guess from the checkpoint file:  "FUZZWVXGSFPDMH-UHFFFAOYSA-N.chk"
 B after Tr=     0.000000    0.000000   -0.000000
         Rot=    1.000000    0.000000    0.000000   -0.000000 Ang=   0.00 deg.
 Requested convergence on RMS density matrix=1.00D-08 within 128 cycles.
 Requested convergence on MAX density matrix=1.00D-06.
 Requested convergence on             energy=1.00D-06.
 No special actions if energy rises.
 Inv3:  Mode=1 IEnd=     5516208.
 Iteration    1 A*A^-1 deviation from unit magnitude is 2.89D-15 for    557.
 Iteration    1 A*A^-1 deviation from orthogonality  is 1.67D-15 for   1092    806.
 Iteration    1 A^-1*A deviation from unit magnitude is 3.00D-15 for    636.
 Iteration    1 A^-1*A deviation from orthogonality  is 3.89D-15 for    557    308.
 Error on nuclear    polarization charges =  0.01923
 Error on electronic polarization charges = -0.05271
 SCF Done:  E(RB-P86) =  -386.486934330     A.U. after   10 cycles
            NFock= 10  Conv=0.43D-08     -V/T= 2.0049
 --------------------------------------------------------------------
 Variational C-PCM results
 =========================
 <psi(f)|   H    |psi(f)>                     (a.u.) =    -386.472694
 <psi(f)|H+V(f)/2|psi(f)>                     (a.u.) =    -386.486934
 Total free energy in solution:
 - with all non electrostatic terms           (a.u.) =    -386.473879
 --------------------------------------------------------------------
 (Polarized solute)-Solvent               (kcal/mol) =      -8.94
 --------------------------------------------------------------------
 Cavitation energy                        (kcal/mol) =      23.44
 Dispersion energy                        (kcal/mol) =     -16.69
 Repulsion energy                         (kcal/mol) =       1.45
 Total non electrostatic                  (kcal/mol) =       8.19
 --------------------------------------------------------------------
 Partition over spheres:
 Sphere  on Atom  Surface  Charge   GEl     GCav    GDR
    1      C1      18.35   0.049    0.04    2.16   -1.27
    2      C2       9.53   0.018    0.03    1.12   -0.44
    3      C3       8.13   0.010    0.02    0.95   -0.31
    4      C4       8.10  -0.002   -0.01    0.95   -0.32
    5      C5       9.12  -0.015   -0.08    1.07   -0.42
    6      C6       9.66  -0.024   -0.12    1.13   -0.55
    7      O7      20.46   0.253   -4.18    2.54   -1.77
    8      O8      17.08   0.096   -0.75    2.12   -1.34
    9      H9       6.56  -0.017   -0.08    0.93   -0.72
   10      H10      6.56  -0.017   -0.09    0.93   -0.72
   11      H11      6.54  -0.020   -0.09    0.92   -0.77
   12      H12      6.58  -0.016   -0.09    0.93   -0.77
   13      H13      6.58  -0.016   -0.08    0.93   -0.77
   14      H14      6.59  -0.016   -0.10    0.93   -0.70
   15      H15      6.59  -0.016   -0.12    0.93   -0.71
   16      H16      6.55  -0.023   -0.11    0.92   -0.63
   17      H17      6.57  -0.023   -0.09    0.93   -0.70
   18      H18      6.52  -0.035   -0.18    0.92   -0.72
   19      H19      6.54  -0.037   -0.30    0.92   -0.72
   20      H20      8.46  -0.150   -2.55    1.19   -0.90
 --------------------------------------------------------------------
 - cavitation energy not included in the total energy.
 - dispersion energy not included in the total energy.
 - repulsion  energy not included in the total energy.
 After PCM corrections, the energy is  -386.486934330     a.u.
 --------------------------------------------------------------------
 Writing COSMO formatted file "FUZZWVXGSFPDMH-UHFFFAOYSA-N.cosmo"
 Recomputed dielectric energy= -0.014239 old= -0.014240 diff= 1.79D-06

 **********************************************************************

            Population analysis using the SCF Density.

 **********************************************************************

 Orbital symmetries:
       Occupied  (A) (A) (A) (A) (A) (A) (A) (A) (A) (A) (A) (A)
                 (A) (A) (A) (A) (A) (A) (A) (A) (A) (A) (A) (A)
                 (A) (A) (A) (A) (A) (A) (A) (A)
       Virtual   (A) (A) (A) (A) (A) (A) (A) (A) (A) (A) (A) (A)
                 (A) (A) (A) (A) (A) (A) (A) (A) (A) (A) (A) (A)
                 (A) (A) (A) (A) (A) (A) (A) (A) (A) (A) (A) (A)
                 (A) (A) (A) (A) (A) (A) (A) (A) (A) (A) (A) (A)
                 (A) (A) (A) (A) (A) (A) (A) (A) (A) (A) (A) (A)
                 (A) (A) (A) (A) (A) (A) (A) (A) (A) (A) (A) (A)
                 (A) (A) (A) (A) (A) (A) (A) (A) (A) (A) (A) (A)
                 (A) (A) (A) (A) (A) (A) (A) (A) (A) (A) (A) (A)
                 (A) (A) (A) (A) (A) (A) (A) (A) (A) (A) (A) (A)
                 (A) (A) (A) (A) (A) (A) (A) (A) (A) (A) (A) (A)
                 (A) (A) (A) (A) (A) (A) (A) (A) (A) (A) (A) (A)
                 (A) (A) (A) (A) (A) (A) (A) (A) (A) (A) (A) (A)
                 (A) (A) (A) (A) (A) (A) (A) (A) (A) (A) (A) (A)
                 (A) (A) (A) (A) (A) (A) (A) (A) (A) (A) (A) (A)
                 (A) (A) (A) (A) (A) (A) (A) (A) (A) (A) (A) (A)
                 (A) (A) (A) (A) (A) (A) (A) (A) (A) (A) (A) (A)
 The electronic state is 1-A.
 Alpha  occ. eigenvalues --  -18.81963 -18.76905 -10.03179  -9.90960  -9.90113
 Alpha  occ. eigenvalues --   -9.89035  -9.88952  -9.88152  -1.02073  -0.93838
 Alpha  occ. eigenvalues --   -0.73838  -0.69846  -0.63691  -0.57026  -0.53651
 Alpha  occ. eigenvalues --   -0.51845  -0.45201  -0.43352  -0.42506  -0.41253
 Alpha  occ. eigenvalues --   -0.38775  -0.37723  -0.35827  -0.35277  -0.33826
 Alpha  occ. eigenvalues --   -0.31918  -0.30165  -0.29448  -0.29054  -0.28675
 Alpha  occ. eigenvalues --   -0.27997  -0.24471
 Alpha virt. eigenvalues --   -0.04823   0.02245   0.03139   0.05656   0.05983
 Alpha virt. eigenvalues --    0.05994   0.08224   0.09871   0.10088   0.10432
 Alpha virt. eigenvalues --    0.11393   0.11556   0.12234   0.13914   0.14169
 Alpha virt. eigenvalues --    0.15484   0.16992   0.17974   0.19146   0.19664
 Alpha virt. eigenvalues --    0.20785   0.22596   0.24051   0.25311   0.26490
 Alpha virt. eigenvalues --    0.26957   0.27610   0.28775   0.29831   0.32156
 Alpha virt. eigenvalues --    0.33712   0.35728   0.36271   0.37843   0.38100
 Alpha virt. eigenvalues --    0.38548   0.39538   0.40116   0.41099   0.42061
 Alpha virt. eigenvalues --    0.42806   0.43484   0.43858   0.43980   0.44739
 Alpha virt. eigenvalues --    0.45560   0.45962   0.46996   0.47819   0.48173
 Alpha virt. eigenvalues --    0.50085   0.50961   0.51150   0.54371   0.56261
 Alpha virt. eigenvalues --    0.58164   0.58315   0.60218   0.63558   0.64915
 Alpha virt. eigenvalues --    0.68718   0.73655   0.81568   0.85514   1.04124
 Alpha virt. eigenvalues --    1.06845   1.13169   1.16600   1.17531   1.18470
 Alpha virt. eigenvalues --    1.20271   1.22554   1.23018   1.24328   1.25642
 Alpha virt. eigenvalues --    1.26970   1.28048   1.29584   1.30677   1.31263
 Alpha virt. eigenvalues --    1.32369   1.33353   1.35247   1.35919   1.36653
 Alpha virt. eigenvalues --    1.40837   1.40959   1.42599   1.44095   1.45305
 Alpha virt. eigenvalues --    1.47686   1.48433   1.49623   1.51152   1.52986
 Alpha virt. eigenvalues --    1.54604   1.58423   1.62446   1.62992   1.65428
 Alpha virt. eigenvalues --    1.66486   1.67287   1.69744   1.72596   1.73192
 Alpha virt. eigenvalues --    1.73525   1.75560   1.76609   1.78039   1.78769
 Alpha virt. eigenvalues --    1.79672   1.80120   1.80987   1.83896   1.86259
 Alpha virt. eigenvalues --    1.90772   1.92280   1.97791   2.02611   2.06176
 Alpha virt. eigenvalues --    2.07758   2.09110   2.09964   2.14318   2.14674
 Alpha virt. eigenvalues --    2.16389   2.18533   2.20184   2.24868   2.25841
 Alpha virt. eigenvalues --    2.29256   2.31700   2.35416   2.39340   2.40160
 Alpha virt. eigenvalues --    2.44881   2.45992   2.46274   2.47776   2.48537
 Alpha virt. eigenvalues --    2.49804   2.51167   2.52445   2.53337   2.54008
 Alpha virt. eigenvalues --    2.55945   2.56614   2.57489   2.57614   2.59443
 Alpha virt. eigenvalues --    2.60532   2.61354   2.63297   2.64378   2.66495
 Alpha virt. eigenvalues --    2.66903   2.68170   2.70210   2.78899   2.80519
 Alpha virt. eigenvalues --    2.84437   2.85827   2.96068   2.98363   3.00737
 Alpha virt. eigenvalues --    3.06217   3.09177   3.10386   3.13509   3.16747
 Alpha virt. eigenvalues --    3.23204   3.23308   3.26856   3.27989   3.30203
 Alpha virt. eigenvalues --    3.31630   3.34483   3.35483   3.38864   3.41187
 Alpha virt. eigenvalues --    3.45176   3.79155   4.08103   4.17776  21.69079
 Alpha virt. eigenvalues --   21.72915  21.76028  21.78621  21.81852  21.85023
 Alpha virt. eigenvalues --   43.06318  43.11558
          Condensed to atoms (all electrons):
               1          2          3          4          5          6
     1  C    5.073841   0.271576  -0.069279   0.015735  -0.001291  -0.000045
     2  C    0.271576   5.130596   0.245301  -0.051843   0.015927  -0.000877
     3  C   -0.069279   0.245301   5.269941   0.216493  -0.020843  -0.006096
     4  C    0.015735  -0.051843   0.216493   5.258579   0.232445  -0.051355
     5  C   -0.001291   0.015927  -0.020843   0.232445   5.449859   0.150138
     6  C   -0.000045  -0.000877  -0.006096  -0.051355   0.150138   4.828422
     7  O   -0.000002   0.000006  -0.001743  -0.012740  -0.108438   0.607693
     8  O   -0.000003   0.000067  -0.002775  -0.004589  -0.131876   0.323017
     9  H    0.406695  -0.040401  -0.008073  -0.000266  -0.000032   0.000002
    10  H    0.407885  -0.041603  -0.007321  -0.000581  -0.000015  -0.000001
    11  H    0.400708  -0.042867   0.014184  -0.000863   0.000053  -0.000001
    12  H   -0.039907   0.416992  -0.045529  -0.007573  -0.000315  -0.000068
    13  H   -0.039366   0.415647  -0.043179  -0.008741  -0.000405  -0.000079
    14  H   -0.002236  -0.041939   0.418013  -0.045543  -0.004970  -0.001193
    15  H   -0.003830  -0.039874   0.410432  -0.039195  -0.006722   0.000625
    16  H   -0.000125  -0.003957  -0.038032   0.416371  -0.043537  -0.006603
    17  H   -0.000637  -0.004257  -0.051837   0.415444  -0.050571   0.010977
    18  H   -0.000085   0.000418  -0.005272  -0.029918   0.413543  -0.049487
    19  H   -0.000156   0.000263  -0.015740  -0.030040   0.358113   0.000031
    20  H    0.000000  -0.000007   0.000144   0.000222   0.014207  -0.016694
               7          8          9         10         11         12
     1  C   -0.000002  -0.000003   0.406695   0.407885   0.400708  -0.039907
     2  C    0.000006   0.000067  -0.040401  -0.041603  -0.042867   0.416992
     3  C   -0.001743  -0.002775  -0.008073  -0.007321   0.014184  -0.045529
     4  C   -0.012740  -0.004589  -0.000266  -0.000581  -0.000863  -0.007573
     5  C   -0.108438  -0.131876  -0.000032  -0.000015   0.000053  -0.000315
     6  C    0.607693   0.323017   0.000002  -0.000001  -0.000001  -0.000068
     7  O    7.975305  -0.111408   0.000000   0.000000   0.000000   0.000002
     8  O   -0.111408   7.907824   0.000000   0.000000   0.000000  -0.000024
     9  H    0.000000   0.000000   0.559702  -0.032186  -0.025102   0.008311
    10  H    0.000000   0.000000  -0.032186   0.559207  -0.025101  -0.006999
    11  H    0.000000   0.000000  -0.025102  -0.025101   0.538247  -0.002698
    12  H    0.000002  -0.000024   0.008311  -0.006999  -0.002698   0.578358
    13  H   -0.000008   0.000006  -0.007041   0.008298  -0.002663  -0.036631
    14  H    0.000017  -0.000029   0.005994  -0.000736  -0.000183   0.008912
    15  H    0.000012   0.000123  -0.000670   0.005953  -0.000143  -0.007788
    16  H    0.000405   0.006903   0.000000   0.000104  -0.000002   0.004584
    17  H    0.005221   0.000279   0.000117   0.000003   0.000007   0.000052
    18  H    0.005283   0.005102  -0.000021   0.000018   0.000001  -0.000059
    19  H    0.004691   0.005298   0.000020  -0.000019   0.000001   0.000164
    20  H    0.002259   0.283480  -0.000000  -0.000000  -0.000000   0.000000
              13         14         15         16         17         18
     1  C   -0.039366  -0.002236  -0.003830  -0.000125  -0.000637  -0.000085
     2  C    0.415647  -0.041939  -0.039874  -0.003957  -0.004257   0.000418
     3  C   -0.043179   0.418013   0.410432  -0.038032  -0.051837  -0.005272
     4  C   -0.008741  -0.045543  -0.039195   0.416371   0.415444  -0.029918
     5  C   -0.000405  -0.004970  -0.006722  -0.043537  -0.050571   0.413543
     6  C   -0.000079  -0.001193   0.000625  -0.006603   0.010977  -0.049487
     7  O   -0.000008   0.000017   0.000012   0.000405   0.005221   0.005283
     8  O    0.000006  -0.000029   0.000123   0.006903   0.000279   0.005102
     9  H   -0.007041   0.005994  -0.000670   0.000000   0.000117  -0.000021
    10  H    0.008298  -0.000736   0.005953   0.000104   0.000003   0.000018
    11  H   -0.002663  -0.000183  -0.000143  -0.000002   0.000007   0.000001
    12  H   -0.036631   0.008912  -0.007788   0.004584   0.000052  -0.000059
    13  H    0.578464  -0.007915   0.008892  -0.000111   0.004546   0.000153
    14  H   -0.007915   0.572419  -0.037312   0.007309  -0.005264   0.003057
    15  H    0.008892  -0.037312   0.572924  -0.005646   0.007408   0.000338
    16  H   -0.000111   0.007309  -0.005646   0.540375  -0.027421   0.006418
    17  H    0.004546  -0.005264   0.007408  -0.027421   0.551740  -0.003696
    18  H    0.000153   0.003057   0.000338   0.006418  -0.003696   0.509803
    19  H   -0.000056   0.000304   0.004089  -0.004074   0.007585  -0.019320
    20  H    0.000000   0.000000  -0.000002  -0.000416  -0.000133  -0.000670
              19         20
     1  C   -0.000156   0.000000
     2  C    0.000263  -0.000007
     3  C   -0.015740   0.000144
     4  C   -0.030040   0.000222
     5  C    0.358113   0.014207
     6  C    0.000031  -0.016694
     7  O    0.004691   0.002259
     8  O    0.005298   0.283480
     9  H    0.000020  -0.000000
    10  H   -0.000019  -0.000000
    11  H    0.000001  -0.000000
    12  H    0.000164   0.000000
    13  H   -0.000056   0.000000
    14  H    0.000304   0.000000
    15  H    0.004089  -0.000002
    16  H   -0.004074  -0.000416
    17  H    0.007585  -0.000133
    18  H   -0.019320  -0.000670
    19  H    0.524266  -0.000402
    20  H   -0.000402   0.388724
 Mulliken charges:
               1
     1  C   -0.419481
     2  C   -0.229169
     3  C   -0.258786
     4  C   -0.272041
     5  C   -0.265271
     6  C    0.211592
     7  O   -0.366556
     8  O   -0.281397
     9  H    0.132951
    10  H    0.133094
    11  H    0.146424
    12  H    0.130216
    13  H    0.130188
    14  H    0.131295
    15  H    0.130386
    16  H    0.147456
    17  H    0.140439
    18  H    0.164393
    19  H    0.164982
    20  H    0.329287
 Sum of Mulliken charges =  -0.00000
 Mulliken charges with hydrogens summed into heavy atoms:
               1
     1  C   -0.007013
     2  C    0.031235
     3  C    0.002895
     4  C    0.015853
     5  C    0.064104
     6  C    0.211592
     7  O   -0.366556
     8  O    0.047890
 Electronic spatial extent (au):  <R**2>=           1796.1790
 Charge=              0.0000 electrons
 Dipole moment (field-independent basis, Debye):
    X=             -1.5031    Y=              1.8519    Z=              0.6877  Tot=              2.4823
 Quadrupole moment (field-independent basis, Debye-Ang):
   XX=            -53.0475   YY=            -53.2452   ZZ=            -50.3850
   XY=              8.3995   XZ=              1.1797   YZ=             -2.6200
 Traceless Quadrupole moment (field-independent basis, Debye-Ang):
   XX=             -0.8216   YY=             -1.0193   ZZ=              1.8409
   XY=              8.3995   XZ=              1.1797   YZ=             -2.6200
 Octapole moment (field-independent basis, Debye-Ang**2):
  XXX=             32.8823  YYY=              3.6993  ZZZ=              0.0844  XYY=              0.1260
  XXY=             36.0404  XXZ=             -2.0741  XZZ=              7.8605  YZZ=              2.0576
  YYZ=             -0.0387  XYZ=             -9.7336
 Hexadecapole moment (field-independent basis, Debye-Ang**3):
 XXXX=          -1991.3215 YYYY=           -185.7702 ZZZZ=           -149.4286 XXXY=            137.5075
 XXXZ=              2.3982 YYYX=             20.2168 YYYZ=             -5.9672 ZZZX=             -2.3542
 ZZZY=              4.0986 XXYY=           -378.4260 XXZZ=           -364.9576 YYZZ=            -54.6042
 XXYZ=            -30.3622 YYXZ=             -4.1887 ZZXY=              4.5431
 N-N= 3.686121622114D+02 E-N=-1.639015171877D+03  KE= 3.846139861166D+02
 Unable to Open any file for archive entry.
 1\1\GINC-TCN1638\SP\RBP86\TZVP\C6H12O2\ELENAA\22-Feb-2021\0\\# BP86/TZ
 VP SCRF=COSMORS geom=CHECKPOINT guess=CHECKPOINT\\COSMO-file for #FUZZ
 WVXGSFPDMH-UHFFFAOYSA-N\\0,1\C,0,-3.1789760442,-3.590539765,1.52825767
 29\C,0,-2.5016906767,-2.256494181,1.1909829702\C,0,-1.0368829529,-2.42
 39490853,0.7643441694\C,0,-0.3559574287,-1.0922859387,0.4258154884\C,0
 ,1.1167560167,-1.2835223839,-0.0039366107\C,0,1.7504359617,0.037419103
 ,-0.3647854011\O,0,1.8605044005,0.4893084061,-1.4954697045\O,0,2.15979
 52368,0.7242650887,0.7415361422\H,0,-3.169895855,-4.2688807582,0.65984
 7654\H,0,-2.6575338554,-4.1007211532,2.3542041959\H,0,-4.2274297342,-3
 .446469104,1.8310039201\H,0,-2.5494371549,-1.5836404966,2.0652576301\H
 ,0,-3.0584877606,-1.7506748132,0.382598107\H,0,-0.9853251976,-3.094987
 3506,-0.1119403841\H,0,-0.4751208811,-2.9264170622,1.5723789253\H,0,-0
 .3948134972,-0.4219575183,1.3003908562\H,0,-0.9078899631,-0.5900811333
 ,-0.3868435635\H,0,1.1704809317,-1.9341586976,-0.8878006241\H,0,1.6829
 095661,-1.7528373972,0.8149072408\H,0,2.5111688882,1.5893142405,0.4386
 013155\\Version=ES64L-G16RevC.01\State=1-A\HF=-386.4869343\RMSD=4.285e
 -09\Dipole=-0.2380822,-0.2710165,0.9075433\Quadrupole=1.511342,3.34274
 69,-4.8540889,0.5354317,3.5031746,3.7286481\PG=C01 [X(C6H12O2)]\\@
 The archive entry for this job was punched.


 LORD, MAN... WERE YE BUT WHYLES WHERE I AM, 
 THE GENTILES YE WAD NE'ER ENVY 'EM.        
 IT'S TRUE, THEY NEEDNA STARVE OR SWEAT,     
 THRO' WINTER'S CAULD OR SIMMER'S HEAT...  
 THEY'VE NAE SAIR WARK TO CRAZE THEIR BANES, 
 AND FILL AULD AGE WITH GRIPS AN' GRANES...  
                                             
 BUT HUMAN BODIES ARE SIC FOOLS              
 FOR A' THEIR COLLEGES AND SCHOOLS,           
 THAT WHEN NAE REAL ILLS PERPLEX THEM,       
 THEY MAK ENOW THEMSELVES TO VEX THEM,       
 AN' AYE THE LESS THEY HAE TO STURT THEM,    
 IN LIKE PROPORTION LESS WILL HURT THEM....  
                                             
                (ROBERT BURNS 'THE TWA DOGS')
 Job cpu time:       0 days  0 hours  4 minutes 37.7 seconds.
 Elapsed time:       0 days  0 hours  0 minutes  9.2 seconds.
 File lengths (MBytes):  RWF=     48 Int=      0 D2E=      0 Chk=      8 Scr=      1
 Normal termination of Gaussian 16 at Mon Feb 22 21:06:47 2021.
