 Entering Gaussian System, Link 0=g16
 Input=GHVNFZFCNZKVNT-UHFFFAOYSA-N.gjf
 Output=GHVNFZFCNZKVNT-UHFFFAOYSA-N.log
 Initial command:
 /sw/arch/RedHatEnterpriseServer7/EB_production/2019/software/Gaussian/g16.c01/l1.exe "/scratch-local/elenaa.9715209/Gau-22292.inp" -scrdir="/scratch-local/elenaa.9715209/"
 Entering Link 1 = /sw/arch/RedHatEnterpriseServer7/EB_production/2019/software/Gaussian/g16.c01/l1.exe PID=     22293.
  
 Copyright (c) 1988-2019, Gaussian, Inc.  All Rights Reserved.
  
 This is part of the Gaussian(R) 16 program.  It is based on
 the Gaussian(R) 09 system (copyright 2009, Gaussian, Inc.),
 the Gaussian(R) 03 system (copyright 2003, Gaussian, Inc.),
 the Gaussian(R) 98 system (copyright 1998, Gaussian, Inc.),
 the Gaussian(R) 94 system (copyright 1995, Gaussian, Inc.),
 the Gaussian 92(TM) system (copyright 1992, Gaussian, Inc.),
 the Gaussian 90(TM) system (copyright 1990, Gaussian, Inc.),
 the Gaussian 88(TM) system (copyright 1988, Gaussian, Inc.),
 the Gaussian 86(TM) system (copyright 1986, Carnegie Mellon
 University), and the Gaussian 82(TM) system (copyright 1983,
 Carnegie Mellon University). Gaussian is a federally registered
 trademark of Gaussian, Inc.
  
 This software contains proprietary and confidential information,
 including trade secrets, belonging to Gaussian, Inc.
  
 This software is provided under written license and may be
 used, copied, transmitted, or stored only in accord with that
 written license.
  
 The following legend is applicable only to US Government
 contracts under FAR:
  
                    RESTRICTED RIGHTS LEGEND
  
 Use, reproduction and disclosure by the US Government is
 subject to restrictions as set forth in subparagraphs (a)
 and (c) of the Commercial Computer Software - Restricted
 Rights clause in FAR 52.227-19.
  
 Gaussian, Inc.
 340 Quinnipiac St., Bldg. 40, Wallingford CT 06492
  
  
 ---------------------------------------------------------------
 Warning -- This program may not be used in any manner that
 competes with the business of Gaussian, Inc. or will provide
 assistance to any competitor of Gaussian, Inc.  The licensee
 of this program is prohibited from giving any competitor of
 Gaussian, Inc. access to this program.  By using this program,
 the user acknowledges that Gaussian, Inc. is engaged in the
 business of creating and licensing software in the field of
 computational chemistry and represents and warrants to the
 licensee that it is not a competitor of Gaussian, Inc. and that
 it will not use this program in any manner prohibited above.
 ---------------------------------------------------------------
  

 Cite this work as:
 Gaussian 16, Revision C.01,
 M. J. Frisch, G. W. Trucks, H. B. Schlegel, G. E. Scuseria, 
 M. A. Robb, J. R. Cheeseman, G. Scalmani, V. Barone, 
 G. A. Petersson, H. Nakatsuji, X. Li, M. Caricato, A. V. Marenich, 
 J. Bloino, B. G. Janesko, R. Gomperts, B. Mennucci, H. P. Hratchian, 
 J. V. Ortiz, A. F. Izmaylov, J. L. Sonnenberg, D. Williams-Young, 
 F. Ding, F. Lipparini, F. Egidi, J. Goings, B. Peng, A. Petrone, 
 T. Henderson, D. Ranasinghe, V. G. Zakrzewski, J. Gao, N. Rega, 
 G. Zheng, W. Liang, M. Hada, M. Ehara, K. Toyota, R. Fukuda, 
 J. Hasegawa, M. Ishida, T. Nakajima, Y. Honda, O. Kitao, H. Nakai, 
 T. Vreven, K. Throssell, J. A. Montgomery, Jr., J. E. Peralta, 
 F. Ogliaro, M. J. Bearpark, J. J. Heyd, E. N. Brothers, K. N. Kudin, 
 V. N. Staroverov, T. A. Keith, R. Kobayashi, J. Normand, 
 K. Raghavachari, A. P. Rendell, J. C. Burant, S. S. Iyengar, 
 J. Tomasi, M. Cossi, J. M. Millam, M. Klene, C. Adamo, R. Cammi, 
 J. W. Ochterski, R. L. Martin, K. Morokuma, O. Farkas, 
 J. B. Foresman, and D. J. Fox, Gaussian, Inc., Wallingford CT, 2019.
 
 ******************************************
 Gaussian 16:  ES64L-G16RevC.01  3-Jul-2019
                22-Feb-2021 
 ******************************************
 %chk=GHVNFZFCNZKVNT-UHFFFAOYSA-N.chk
 %NProcShared=32
 Will use up to   32 processors via shared memory.
 -------------------------------------------------------------
 #P BP86/TZVP EmpiricalDispersion=GD3 SCRF=(Solvent=Water) Opt
 -------------------------------------------------------------
 1/18=20,19=15,26=3,38=1/1,3;
 2/9=110,12=2,17=6,18=5,40=1/2;
 3/5=19,7=101,11=2,25=1,30=1,70=2201,71=1,72=1,74=404,124=31/1,2,3;
 4//1;
 5/5=2,38=5,53=1/2;
 6/7=2,8=2,9=2,10=2,28=1/1;
 7//1,2,3,16;
 1/18=20,19=15,26=3/3(2);
 2/9=110/2;
 99//99;
 2/9=110/2;
 3/5=19,7=101,11=2,25=1,30=1,70=2205,71=1,72=1,74=404,124=31/1,2,3;
 4/5=5,16=3,69=1/1;
 5/5=2,38=5,53=1/2;
 7//1,2,3,16;
 1/18=20,19=15,26=3/3(-5);
 2/9=110/2;
 6/7=2,8=2,9=2,10=2,19=2,28=1/1;
 99/9=1/99;
 Leave Link    1 at Mon Feb 22 21:04:16 2021, MaxMem=           0 cpu:               1.7 elap:               0.1
 (Enter /sw/arch/RedHatEnterpriseServer7/EB_production/2019/software/Gaussian/g16.c01/l101.exe)
 -------------------------------------
 Particle #GHVNFZFCNZKVNT-UHFFFAOYSA-N
 -------------------------------------
 Symbolic Z-matrix:
 Charge =  0 Multiplicity = 1
 C                     2.15073  -2.49085  -7.69162 
 C                     1.7766   -2.75101  -6.21374 
 C                     1.63942  -1.43678  -5.40128 
 C                     1.26546  -1.67256  -3.91408 
 C                     1.13755  -0.34359  -3.12222 
 C                     0.76876  -0.59181  -1.63535 
 C                     0.64002   0.71275  -0.80432 
 C                     0.2513    0.43262   0.67389 
 C                     0.1334    1.72246   1.52963 
 C                    -0.35445   1.43765   2.89254 
 O                     0.3799    1.60857   3.89199 
 O                    -1.61353   0.98239   3.08843 
 H                     2.23678  -3.43884  -8.22438 
 H                     1.38187  -1.88655  -8.17733 
 H                     3.10692  -1.96744  -7.7549 
 H                     2.54971  -3.38029  -5.76387 
 H                     0.83091  -3.2995   -6.18453 
 H                     0.86786  -0.81445  -5.86328 
 H                     2.58838  -0.89479  -5.44344 
 H                     2.03436  -2.29488  -3.44754 
 H                     0.31498  -2.21155  -3.86615 
 H                     0.36625   0.27845  -3.58563 
 H                     2.08687   0.19723  -3.17138 
 H                    -0.18152  -1.13234  -1.59646 
 H                     1.54007  -1.22165  -1.18293 
 H                     1.59282   1.24945  -0.8263 
 H                    -0.1249    1.35026  -1.2571 
 H                     1.00293  -0.22159   1.12461 
 H                    -0.70669  -0.09441   0.68595 
 H                     1.11444   2.20525   1.58211 
 H                    -0.56578   2.41918   1.05975 
 H                    -1.93726   0.80158   3.99596 
 
 ITRead=  0  0  0  0  0  0  0  0  0  0  0  0  0  0  0  0  0  0  0  0
 ITRead=  0  0  0  0  0  0  0  0  0  0  0  0
 MicOpt= -1 -1 -1 -1 -1 -1 -1 -1 -1 -1 -1 -1 -1 -1 -1 -1 -1 -1 -1 -1
 MicOpt= -1 -1 -1 -1 -1 -1 -1 -1 -1 -1 -1 -1
 NAtoms=     32 NQM=       32 NQMF=       0 NMMI=      0 NMMIF=      0
                NMic=       0 NMicF=      0.
                    Isotopes and Nuclear Properties:
 (Nuclear quadrupole moments (NQMom) in fm**2, nuclear magnetic moments (NMagM)
  in nuclear magnetons)

  Atom         1           2           3           4           5           6           7           8           9          10
 IAtWgt=          12          12          12          12          12          12          12          12          12          12
 AtmWgt=  12.0000000  12.0000000  12.0000000  12.0000000  12.0000000  12.0000000  12.0000000  12.0000000  12.0000000  12.0000000
 NucSpn=           0           0           0           0           0           0           0           0           0           0
 AtZEff=  -0.0000000  -0.0000000  -0.0000000  -0.0000000  -0.0000000  -0.0000000  -0.0000000  -0.0000000  -0.0000000  -0.0000000
 NQMom=    0.0000000   0.0000000   0.0000000   0.0000000   0.0000000   0.0000000   0.0000000   0.0000000   0.0000000   0.0000000
 NMagM=    0.0000000   0.0000000   0.0000000   0.0000000   0.0000000   0.0000000   0.0000000   0.0000000   0.0000000   0.0000000
 AtZNuc=   6.0000000   6.0000000   6.0000000   6.0000000   6.0000000   6.0000000   6.0000000   6.0000000   6.0000000   6.0000000

  Atom        11          12          13          14          15          16          17          18          19          20
 IAtWgt=          16          16           1           1           1           1           1           1           1           1
 AtmWgt=  15.9949146  15.9949146   1.0078250   1.0078250   1.0078250   1.0078250   1.0078250   1.0078250   1.0078250   1.0078250
 NucSpn=           0           0           1           1           1           1           1           1           1           1
 AtZEff=  -0.0000000  -0.0000000  -0.0000000  -0.0000000  -0.0000000  -0.0000000  -0.0000000  -0.0000000  -0.0000000  -0.0000000
 NQMom=    0.0000000   0.0000000   0.0000000   0.0000000   0.0000000   0.0000000   0.0000000   0.0000000   0.0000000   0.0000000
 NMagM=    0.0000000   0.0000000   2.7928460   2.7928460   2.7928460   2.7928460   2.7928460   2.7928460   2.7928460   2.7928460
 AtZNuc=   8.0000000   8.0000000   1.0000000   1.0000000   1.0000000   1.0000000   1.0000000   1.0000000   1.0000000   1.0000000

  Atom        21          22          23          24          25          26          27          28          29          30
 IAtWgt=           1           1           1           1           1           1           1           1           1           1
 AtmWgt=   1.0078250   1.0078250   1.0078250   1.0078250   1.0078250   1.0078250   1.0078250   1.0078250   1.0078250   1.0078250
 NucSpn=           1           1           1           1           1           1           1           1           1           1
 AtZEff=  -0.0000000  -0.0000000  -0.0000000  -0.0000000  -0.0000000  -0.0000000  -0.0000000  -0.0000000  -0.0000000  -0.0000000
 NQMom=    0.0000000   0.0000000   0.0000000   0.0000000   0.0000000   0.0000000   0.0000000   0.0000000   0.0000000   0.0000000
 NMagM=    2.7928460   2.7928460   2.7928460   2.7928460   2.7928460   2.7928460   2.7928460   2.7928460   2.7928460   2.7928460
 AtZNuc=   1.0000000   1.0000000   1.0000000   1.0000000   1.0000000   1.0000000   1.0000000   1.0000000   1.0000000   1.0000000

  Atom        31          32
 IAtWgt=           1           1
 AtmWgt=   1.0078250   1.0078250
 NucSpn=           1           1
 AtZEff=  -0.0000000  -0.0000000
 NQMom=    0.0000000   0.0000000
 NMagM=    2.7928460   2.7928460
 AtZNuc=   1.0000000   1.0000000
 Leave Link  101 at Mon Feb 22 21:04:16 2021, MaxMem=   104857600 cpu:               3.0 elap:               0.1
 (Enter /sw/arch/RedHatEnterpriseServer7/EB_production/2019/software/Gaussian/g16.c01/l103.exe)

 GradGradGradGradGradGradGradGradGradGradGradGradGradGradGradGradGradGrad
 Berny optimization.
 Initialization pass.
                           ----------------------------
                           !    Initial Parameters    !
                           ! (Angstroms and Degrees)  !
 --------------------------                            --------------------------
 ! Name  Definition              Value          Derivative Info.                !
 --------------------------------------------------------------------------------
 ! R1    R(1,2)                  1.5465         estimate D2E/DX2                !
 ! R2    R(1,13)                 1.0908         estimate D2E/DX2                !
 ! R3    R(1,14)                 1.0919         estimate D2E/DX2                !
 ! R4    R(1,15)                 1.0919         estimate D2E/DX2                !
 ! R5    R(2,3)                  1.5512         estimate D2E/DX2                !
 ! R6    R(2,16)                 1.0937         estimate D2E/DX2                !
 ! R7    R(2,17)                 1.0936         estimate D2E/DX2                !
 ! R8    R(3,4)                  1.5515         estimate D2E/DX2                !
 ! R9    R(3,18)                 1.0936         estimate D2E/DX2                !
 ! R10   R(3,19)                 1.0936         estimate D2E/DX2                !
 ! R11   R(4,5)                  1.5523         estimate D2E/DX2                !
 ! R12   R(4,20)                 1.0937         estimate D2E/DX2                !
 ! R13   R(4,21)                 1.0937         estimate D2E/DX2                !
 ! R14   R(5,6)                  1.5519         estimate D2E/DX2                !
 ! R15   R(5,22)                 1.0939         estimate D2E/DX2                !
 ! R16   R(5,23)                 1.0937         estimate D2E/DX2                !
 ! R17   R(6,7)                  1.5521         estimate D2E/DX2                !
 ! R18   R(6,24)                 1.0939         estimate D2E/DX2                !
 ! R19   R(6,25)                 1.0938         estimate D2E/DX2                !
 ! R20   R(7,8)                  1.5539         estimate D2E/DX2                !
 ! R21   R(7,26)                 1.0938         estimate D2E/DX2                !
 ! R22   R(7,27)                 1.0939         estimate D2E/DX2                !
 ! R23   R(8,9)                  1.5524         estimate D2E/DX2                !
 ! R24   R(8,28)                 1.0937         estimate D2E/DX2                !
 ! R25   R(8,29)                 1.0935         estimate D2E/DX2                !
 ! R26   R(9,10)                 1.4753         estimate D2E/DX2                !
 ! R27   R(9,30)                 1.0947         estimate D2E/DX2                !
 ! R28   R(9,31)                 1.0932         estimate D2E/DX2                !
 ! R29   R(10,11)                1.252          estimate D2E/DX2                !
 ! R30   R(10,12)                1.3531         estimate D2E/DX2                !
 ! R31   R(12,32)                0.9804         estimate D2E/DX2                !
 ! A1    A(2,1,13)             109.8528         estimate D2E/DX2                !
 ! A2    A(2,1,14)             110.3552         estimate D2E/DX2                !
 ! A3    A(2,1,15)             110.3567         estimate D2E/DX2                !
 ! A4    A(13,1,14)            108.6182         estimate D2E/DX2                !
 ! A5    A(13,1,15)            108.6144         estimate D2E/DX2                !
 ! A6    A(14,1,15)            108.9992         estimate D2E/DX2                !
 ! A7    A(1,2,3)              112.2959         estimate D2E/DX2                !
 ! A8    A(1,2,16)             108.5944         estimate D2E/DX2                !
 ! A9    A(1,2,17)             108.6074         estimate D2E/DX2                !
 ! A10   A(3,2,16)             109.5463         estimate D2E/DX2                !
 ! A11   A(3,2,17)             109.5398         estimate D2E/DX2                !
 ! A12   A(16,2,17)            108.1627         estimate D2E/DX2                !
 ! A13   A(2,3,4)              113.2424         estimate D2E/DX2                !
 ! A14   A(2,3,18)             108.8598         estimate D2E/DX2                !
 ! A15   A(2,3,19)             108.8417         estimate D2E/DX2                !
 ! A16   A(4,3,18)             108.7453         estimate D2E/DX2                !
 ! A17   A(4,3,19)             108.748          estimate D2E/DX2                !
 ! A18   A(18,3,19)            108.2927         estimate D2E/DX2                !
 ! A19   A(3,4,5)              112.2554         estimate D2E/DX2                !
 ! A20   A(3,4,20)             109.0208         estimate D2E/DX2                !
 ! A21   A(3,4,21)             109.0479         estimate D2E/DX2                !
 ! A22   A(5,4,20)             109.1158         estimate D2E/DX2                !
 ! A23   A(5,4,21)             109.1442         estimate D2E/DX2                !
 ! A24   A(20,4,21)            108.1712         estimate D2E/DX2                !
 ! A25   A(4,5,6)              111.8018         estimate D2E/DX2                !
 ! A26   A(4,5,22)             109.1983         estimate D2E/DX2                !
 ! A27   A(4,5,23)             109.2025         estimate D2E/DX2                !
 ! A28   A(6,5,22)             109.225          estimate D2E/DX2                !
 ! A29   A(6,5,23)             109.1736         estimate D2E/DX2                !
 ! A30   A(22,5,23)            108.1675         estimate D2E/DX2                !
 ! A31   A(5,6,7)              113.4692         estimate D2E/DX2                !
 ! A32   A(5,6,24)             108.6339         estimate D2E/DX2                !
 ! A33   A(5,6,25)             108.7131         estimate D2E/DX2                !
 ! A34   A(7,6,24)             108.9181         estimate D2E/DX2                !
 ! A35   A(7,6,25)             108.7251         estimate D2E/DX2                !
 ! A36   A(24,6,25)            108.2608         estimate D2E/DX2                !
 ! A37   A(6,7,8)              112.2444         estimate D2E/DX2                !
 ! A38   A(6,7,26)             109.2329         estimate D2E/DX2                !
 ! A39   A(6,7,27)             109.0401         estimate D2E/DX2                !
 ! A40   A(8,7,26)             108.9949         estimate D2E/DX2                !
 ! A41   A(8,7,27)             108.8987         estimate D2E/DX2                !
 ! A42   A(26,7,27)            108.3523         estimate D2E/DX2                !
 ! A43   A(7,8,9)              113.1786         estimate D2E/DX2                !
 ! A44   A(7,8,28)             109.1448         estimate D2E/DX2                !
 ! A45   A(7,8,29)             108.454          estimate D2E/DX2                !
 ! A46   A(9,8,28)             108.7861         estimate D2E/DX2                !
 ! A47   A(9,8,29)             109.1385         estimate D2E/DX2                !
 ! A48   A(28,8,29)            108.0144         estimate D2E/DX2                !
 ! A49   A(8,9,10)             111.9594         estimate D2E/DX2                !
 ! A50   A(8,9,30)             108.9544         estimate D2E/DX2                !
 ! A51   A(8,9,31)             109.9488         estimate D2E/DX2                !
 ! A52   A(10,9,30)            109.7064         estimate D2E/DX2                !
 ! A53   A(10,9,31)            107.9758         estimate D2E/DX2                !
 ! A54   A(30,9,31)            108.2228         estimate D2E/DX2                !
 ! A55   A(9,10,11)            121.142          estimate D2E/DX2                !
 ! A56   A(9,10,12)            120.4228         estimate D2E/DX2                !
 ! A57   A(11,10,12)           118.4351         estimate D2E/DX2                !
 ! A58   A(10,12,32)           120.2209         estimate D2E/DX2                !
 ! D1    D(13,1,2,3)           179.992          estimate D2E/DX2                !
 ! D2    D(13,1,2,16)           58.6954         estimate D2E/DX2                !
 ! D3    D(13,1,2,17)          -58.7106         estimate D2E/DX2                !
 ! D4    D(14,1,2,3)           -60.2725         estimate D2E/DX2                !
 ! D5    D(14,1,2,16)          178.4309         estimate D2E/DX2                !
 ! D6    D(14,1,2,17)           61.0249         estimate D2E/DX2                !
 ! D7    D(15,1,2,3)            60.2601         estimate D2E/DX2                !
 ! D8    D(15,1,2,16)          -61.0365         estimate D2E/DX2                !
 ! D9    D(15,1,2,17)         -178.4425         estimate D2E/DX2                !
 ! D10   D(1,2,3,4)           -179.9491         estimate D2E/DX2                !
 ! D11   D(1,2,3,18)            58.9668         estimate D2E/DX2                !
 ! D12   D(1,2,3,19)           -58.8744         estimate D2E/DX2                !
 ! D13   D(16,2,3,4)           -59.1996         estimate D2E/DX2                !
 ! D14   D(16,2,3,18)          179.7163         estimate D2E/DX2                !
 ! D15   D(16,2,3,19)           61.8751         estimate D2E/DX2                !
 ! D16   D(17,2,3,4)            59.2895         estimate D2E/DX2                !
 ! D17   D(17,2,3,18)          -61.7946         estimate D2E/DX2                !
 ! D18   D(17,2,3,19)         -179.6358         estimate D2E/DX2                !
 ! D19   D(2,3,4,5)            179.8623         estimate D2E/DX2                !
 ! D20   D(2,3,4,20)            58.8418         estimate D2E/DX2                !
 ! D21   D(2,3,4,21)           -59.0627         estimate D2E/DX2                !
 ! D22   D(18,3,4,5)           -58.989          estimate D2E/DX2                !
 ! D23   D(18,3,4,20)          179.9905         estimate D2E/DX2                !
 ! D24   D(18,3,4,21)           62.0859         estimate D2E/DX2                !
 ! D25   D(19,3,4,5)            58.7348         estimate D2E/DX2                !
 ! D26   D(19,3,4,20)          -62.2858         estimate D2E/DX2                !
 ! D27   D(19,3,4,21)          179.8097         estimate D2E/DX2                !
 ! D28   D(3,4,5,6)           -179.7801         estimate D2E/DX2                !
 ! D29   D(3,4,5,22)            59.2349         estimate D2E/DX2                !
 ! D30   D(3,4,5,23)           -58.8568         estimate D2E/DX2                !
 ! D31   D(20,4,5,6)           -58.8142         estimate D2E/DX2                !
 ! D32   D(20,4,5,22)         -179.7992         estimate D2E/DX2                !
 ! D33   D(20,4,5,23)           62.1091         estimate D2E/DX2                !
 ! D34   D(21,4,5,6)            59.2003         estimate D2E/DX2                !
 ! D35   D(21,4,5,22)          -61.7847         estimate D2E/DX2                !
 ! D36   D(21,4,5,23)         -179.8764         estimate D2E/DX2                !
 ! D37   D(4,5,6,7)            179.6199         estimate D2E/DX2                !
 ! D38   D(4,5,6,24)           -59.0873         estimate D2E/DX2                !
 ! D39   D(4,5,6,25)            58.5165         estimate D2E/DX2                !
 ! D40   D(22,5,6,7)           -59.4105         estimate D2E/DX2                !
 ! D41   D(22,5,6,24)           61.8822         estimate D2E/DX2                !
 ! D42   D(22,5,6,25)          179.486          estimate D2E/DX2                !
 ! D43   D(23,5,6,7)            58.6799         estimate D2E/DX2                !
 ! D44   D(23,5,6,24)          179.9727         estimate D2E/DX2                !
 ! D45   D(23,5,6,25)          -62.4235         estimate D2E/DX2                !
 ! D46   D(5,6,7,8)            179.2149         estimate D2E/DX2                !
 ! D47   D(5,6,7,26)           -59.7788         estimate D2E/DX2                !
 ! D48   D(5,6,7,27)            58.4617         estimate D2E/DX2                !
 ! D49   D(24,6,7,8)            58.0816         estimate D2E/DX2                !
 ! D50   D(24,6,7,26)          179.0879         estimate D2E/DX2                !
 ! D51   D(24,6,7,27)          -62.6716         estimate D2E/DX2                !
 ! D52   D(25,6,7,8)           -59.6884         estimate D2E/DX2                !
 ! D53   D(25,6,7,26)           61.3179         estimate D2E/DX2                !
 ! D54   D(25,6,7,27)          179.5584         estimate D2E/DX2                !
 ! D55   D(6,7,8,9)            179.3021         estimate D2E/DX2                !
 ! D56   D(6,7,8,28)            58.006          estimate D2E/DX2                !
 ! D57   D(6,7,8,29)           -59.4427         estimate D2E/DX2                !
 ! D58   D(26,7,8,9)            58.1589         estimate D2E/DX2                !
 ! D59   D(26,7,8,28)          -63.1371         estimate D2E/DX2                !
 ! D60   D(26,7,8,29)          179.4141         estimate D2E/DX2                !
 ! D61   D(27,7,8,9)           -59.8631         estimate D2E/DX2                !
 ! D62   D(27,7,8,28)          178.8408         estimate D2E/DX2                !
 ! D63   D(27,7,8,29)           61.3921         estimate D2E/DX2                !
 ! D64   D(7,8,9,10)           174.8258         estimate D2E/DX2                !
 ! D65   D(7,8,9,30)           -63.6474         estimate D2E/DX2                !
 ! D66   D(7,8,9,31)            54.8031         estimate D2E/DX2                !
 ! D67   D(28,8,9,10)          -63.6762         estimate D2E/DX2                !
 ! D68   D(28,8,9,30)           57.8506         estimate D2E/DX2                !
 ! D69   D(28,8,9,31)          176.3011         estimate D2E/DX2                !
 ! D70   D(29,8,9,10)           53.9574         estimate D2E/DX2                !
 ! D71   D(29,8,9,30)          175.4842         estimate D2E/DX2                !
 ! D72   D(29,8,9,31)          -66.0653         estimate D2E/DX2                !
 ! D73   D(8,9,10,11)          113.4241         estimate D2E/DX2                !
 ! D74   D(8,9,10,12)          -66.536          estimate D2E/DX2                !
 ! D75   D(30,9,10,11)          -7.669          estimate D2E/DX2                !
 ! D76   D(30,9,10,12)         172.3709         estimate D2E/DX2                !
 ! D77   D(31,9,10,11)        -125.4067         estimate D2E/DX2                !
 ! D78   D(31,9,10,12)          54.6332         estimate D2E/DX2                !
 ! D79   D(9,10,12,32)        -179.4621         estimate D2E/DX2                !
 ! D80   D(11,10,12,32)          0.5768         estimate D2E/DX2                !
 --------------------------------------------------------------------------------
 Trust Radius=3.00D-01 FncErr=1.00D-07 GrdErr=1.00D-06 EigMax=2.50D+02 EigMin=1.00D-04
 Number of steps in this run=    179 maximum allowed number of steps=    192.
 GradGradGradGradGradGradGradGradGradGradGradGradGradGradGradGradGradGrad

 Leave Link  103 at Mon Feb 22 21:04:16 2021, MaxMem=   104857600 cpu:               0.5 elap:               0.0
 (Enter /sw/arch/RedHatEnterpriseServer7/EB_production/2019/software/Gaussian/g16.c01/l202.exe)
                          Input orientation:                          
 ---------------------------------------------------------------------
 Center     Atomic      Atomic             Coordinates (Angstroms)
 Number     Number       Type             X           Y           Z
 ---------------------------------------------------------------------
      1          6           0        2.150730   -2.490850   -7.691620
      2          6           0        1.776600   -2.751010   -6.213740
      3          6           0        1.639420   -1.436780   -5.401280
      4          6           0        1.265460   -1.672560   -3.914080
      5          6           0        1.137550   -0.343590   -3.122220
      6          6           0        0.768760   -0.591810   -1.635350
      7          6           0        0.640020    0.712750   -0.804320
      8          6           0        0.251300    0.432620    0.673890
      9          6           0        0.133400    1.722460    1.529630
     10          6           0       -0.354450    1.437650    2.892540
     11          8           0        0.379900    1.608570    3.891990
     12          8           0       -1.613530    0.982390    3.088430
     13          1           0        2.236780   -3.438840   -8.224380
     14          1           0        1.381870   -1.886550   -8.177330
     15          1           0        3.106920   -1.967440   -7.754900
     16          1           0        2.549710   -3.380290   -5.763870
     17          1           0        0.830910   -3.299500   -6.184530
     18          1           0        0.867860   -0.814450   -5.863280
     19          1           0        2.588380   -0.894790   -5.443440
     20          1           0        2.034360   -2.294880   -3.447540
     21          1           0        0.314980   -2.211550   -3.866150
     22          1           0        0.366250    0.278450   -3.585630
     23          1           0        2.086870    0.197230   -3.171380
     24          1           0       -0.181520   -1.132340   -1.596460
     25          1           0        1.540070   -1.221650   -1.182930
     26          1           0        1.592820    1.249450   -0.826300
     27          1           0       -0.124900    1.350260   -1.257100
     28          1           0        1.002930   -0.221590    1.124610
     29          1           0       -0.706690   -0.094410    0.685950
     30          1           0        1.114440    2.205250    1.582110
     31          1           0       -0.565780    2.419180    1.059750
     32          1           0       -1.937260    0.801580    3.995960
 ---------------------------------------------------------------------
                    Distance matrix (angstroms):
                    1          2          3          4          5
     1  C    0.000000
     2  C    1.546540   0.000000
     3  C    2.572578   1.551164   0.000000
     4  C    3.965238   2.590898   1.551516   0.000000
     5  C    5.149434   3.970082   2.577024   1.552277   0.000000
     6  C    6.495737   5.161351   3.956545   2.570475   1.551903
     7  C    7.744688   6.523134   5.172168   3.968814   2.595390
     8  C    9.062906   7.739605   6.506091   5.148764   3.974719
     9  C   10.336975   9.092404   7.764432   6.514729   5.188120
    10  C   11.564319  10.247467   9.001406   7.656866   6.447962
    11  O   12.414552  11.094255   9.860295   8.513798   7.320116
    12  O   11.934929  10.581192   9.407935   8.023247   6.920899
    13  H    1.090836   2.174293   3.512119   4.758350   6.068024
    14  H    1.091897   2.181465   2.824018   4.270204   5.290988
    15  H    1.091907   2.181492   2.823948   4.269640   5.289332
    16  H    2.160210   1.093652   2.176541   2.826192   4.265449
    17  H    2.160361   1.093629   2.176441   2.826785   4.267221
    18  H    2.792651   2.167694   1.093638   2.166522   2.794253
    19  H    2.791641   2.167464   1.093643   2.166561   2.792274
    20  H    4.250195   2.815379   2.170118   1.093686   2.172011
    21  H    4.252318   2.817540   2.170492   1.093718   2.172401
    22  H    5.264271   4.251315   2.803491   2.173223   1.093886
    23  H    5.259508   4.247863   2.800474   2.173116   1.093669
    24  H    6.666027   5.270067   4.229085   2.785130   2.165644
    25  H    6.659341   5.263453   4.225000   2.781710   2.166531
    26  H    7.837967   6.712821   5.305511   4.263765   2.831306
    27  H    7.831709   6.708532   5.296664   4.257944   2.818081
    28  H    9.175669   7.800507   6.668512   5.250013   4.250714
    29  H    9.170139   7.799357   6.660372   5.247877   4.238569
    30  H   10.446498   9.261655   7.893524   6.728174   5.350499
    31  H   10.395879   9.226119   7.840679   6.695876   5.293685
    32  H   12.812154  11.430294  10.301020   8.885242   7.838007
                    6          7          8          9         10
     6  C    0.000000
     7  C    1.552115   0.000000
     8  C    2.578723   1.553924   0.000000
     9  C    3.971980   2.592971   1.552378   0.000000
    10  C    5.087445   3.896309   2.509866   1.475343   0.000000
    11  O    5.961910   4.788056   3.428639   2.377915   1.251952
    12  O    5.519738   4.506073   3.099974   2.455468   1.353114
    13  H    7.326389   8.651164   9.905026  11.234053  12.412918
    14  H    6.696996   7.852896   9.219590  10.431141  11.687905
    15  H    6.693896   7.847266   9.217340  10.423995  11.702295
    16  H    5.290754   6.707982   7.827242   9.223435  10.323765
    17  H    5.294383   6.714257   7.829597   9.231190  10.307224
    18  H    4.234948   5.289360   6.683556   7.850507   9.123069
    19  H    4.231355   5.282208   6.681743   7.842234   9.142707
    20  H    2.790381   4.239886   5.254022   6.672697   7.735296
    21  H    2.793912   4.246408   5.254299   6.680108   7.710038
    22  H    2.173237   2.828295   4.263859   5.320270   6.620411
    23  H    2.172415   2.821721   4.267415   5.314308   6.653556
    24  H    1.093946   2.169509   2.791222   4.245173   5.175507
    25  H    1.093756   2.166873   2.800949   4.243169   5.222120
    26  H    2.173448   1.093781   2.171971   2.811414   4.202029
    27  H    2.171022   1.093861   2.170786   2.823316   4.156903
    28  H    2.794508   2.173814   1.093658   2.167822   2.778693
    29  H    2.795137   2.164726   1.093458   2.172226   2.709303
    30  H    4.277276   2.854414   2.170735   1.094660   2.112836
    31  H    4.255658   2.800110   2.182413   1.093187   2.089780
    32  H    6.401229   5.449124   3.995257   3.349393   2.031602
                   11         12         13         14         15
    11  O    0.000000
    12  O    2.238654   0.000000
    13  H   13.256348  12.741736   0.000000
    14  H   12.605090  12.005023   1.772763   0.000000
    15  H   12.484972  12.188599   1.772730   1.777860   0.000000
    16  H   11.082979  10.711151   2.481021   3.069185   2.504162
    17  H   11.217344  10.502269   2.481305   2.504244   3.069311
    18  H   10.063519   9.461450   3.786312   2.601621   3.149762
    19  H    9.914356   9.693950   3.785425   3.148557   2.600444
    20  H    8.476017   8.171077   4.916078   4.792013   4.450950
    21  H    8.647905   7.892185   4.918712   4.453106   4.793422
    22  H    7.595012   6.997009   6.231784   5.177105   5.471573
    23  H    7.402488   7.314004   6.227061   5.467970   5.170585
    24  H    6.160427   5.335816   7.422765   6.805944   7.031189
    25  H    5.925450   5.748696   7.415076   7.027713   6.797206
    26  H    4.884916   5.067259   8.782160   7.994788   7.787578
    27  H    5.180220   4.608143   8.778155   7.786968   7.979549
    28  H    3.375803   3.485975   9.963769   9.457366   9.290881
    29  H    3.789395   2.784559   9.962089   9.280710   9.449858
    30  H    2.496221   3.347567  11.370253  10.585888  10.419265
    31  H    3.094024   2.697719  11.329864  10.375755  10.508531
    32  H    2.455865   0.980359  13.591927  12.900839  13.084110
                   16         17         18         19         20
    16  H    0.000000
    17  H    1.771371   0.000000
    18  H    3.069534   2.506001   0.000000
    19  H    2.506368   3.069291   1.772825   0.000000
    20  H    2.609422   3.154151   3.064016   2.500161   0.000000
    21  H    3.156155   2.612414   2.499218   3.064319   1.771566
    22  H    4.785249   4.446562   2.575603   3.125030   3.069802
    23  H    4.442283   4.783684   3.123429   2.570268   2.507914
    24  H    5.466279   5.174165   4.405452   4.746370   3.112575
    25  H    5.163730   5.462268   4.745878   4.399743   2.554330
    26  H    6.835915   7.069942   5.491486   5.187185   4.430365
    27  H    7.059930   6.842032   5.185406   5.470611   4.769431
    28  H    7.734408   7.932632   7.014295   6.790150   5.125128
    29  H    7.937337   7.735652   6.774222   7.004821   5.425971
    30  H    9.339255   9.523831   8.038235   7.819277   6.811373
    31  H    9.481662   9.334540   7.774319   7.951264   7.021307
    32  H   11.527151  11.319187  10.377132  10.604780   8.987075
                   21         22         23         24         25
    21  H    0.000000
    22  H    2.506276   0.000000
    23  H    3.069938   1.771647   0.000000
    24  H    2.561777   2.499435   3.064918   0.000000
    25  H    3.111337   3.066125   2.503227   1.772810   0.000000
    26  H    4.780385   3.171942   2.617375   3.068282   2.497259
    27  H    4.437018   2.609992   3.144181   2.506327   3.064694
    28  H    5.416724   4.779306   4.450378   3.104289   2.571649
    29  H    5.123251   4.420025   4.771585   2.561737   3.132302
    30  H    7.059093   5.565778   5.251041   4.787727   4.423828
    31  H    6.817909   5.199131   5.465901   4.451562   4.766536
    32  H    8.715751   7.941053   8.241943   6.172344   6.557910
                   26         27         28         29         30
    26  H    0.000000
    27  H    1.773785   0.000000
    28  H    2.513559   3.068429   0.000000
    29  H    3.062777   2.490180   1.769576   0.000000
    30  H    2.634927   3.213734   2.472103   3.067255   0.000000
    31  H    3.095966   2.589355   3.072251   2.545136   1.772503
    32  H    5.993016   5.583936   4.235120   3.643249   4.136404
                   31         32
    31  H    0.000000
    32  H    3.622004   0.000000
 Stoichiometry    C10H20O2
 Framework group  C1[X(C10H20O2)]
 Deg. of freedom    90
 Full point group                 C1      NOp   1
 Largest Abelian subgroup         C1      NOp   1
 Largest concise Abelian subgroup C1      NOp   1
                         Standard orientation:                         
 ---------------------------------------------------------------------
 Center     Atomic      Atomic             Coordinates (Angstroms)
 Number     Number       Type             X           Y           Z
 ---------------------------------------------------------------------
      1          6           0       -6.742067   -0.091821   -0.119529
      2          6           0       -5.407932    0.535319    0.347979
      3          6           0       -4.174604   -0.240655   -0.183885
      4          6           0       -2.823416    0.369561    0.273421
      5          6           0       -1.605649   -0.426043   -0.268447
      6          6           0       -0.260292    0.189884    0.199581
      7          6           0        0.984651   -0.582197   -0.313322
      8          6           0        2.315235    0.069392    0.155357
      9          6           0        3.575065   -0.695884   -0.331530
     10          6           0        4.820921    0.010271    0.023190
     11          8           0        5.628865   -0.476091    0.846635
     12          8           0        5.114721    1.205668   -0.538614
     13          1           0       -7.580408    0.483211    0.276003
     14          1           0       -6.801337   -0.089575   -1.209814
     15          1           0       -6.824672   -1.119928    0.238846
     16          1           0       -5.391013    0.544151    1.441465
     17          1           0       -5.367476    1.570658   -0.001963
     18          1           0       -4.205349   -0.246922   -1.277072
     19          1           0       -4.229851   -1.275006    0.167003
     20          1           0       -2.787955    0.378159    1.366498
     21          1           0       -2.761529    1.403437   -0.077993
     22          1           0       -1.637835   -0.432447   -1.361841
     23          1           0       -1.667753   -1.460656    0.080596
     24          1           0       -0.207213    1.223618   -0.154387
     25          1           0       -0.240857    0.200645    1.293111
     26          1           0        0.945042   -1.612635    0.051353
     27          1           0        0.966196   -0.602900   -1.406831
     28          1           0        2.328835    0.110967    1.248139
     29          1           0        2.350380    1.094878   -0.222525
     30          1           0        3.577913   -1.695831    0.113865
     31          1           0        3.547544   -0.806023   -1.418807
     32          1           0        5.947185    1.668618   -0.306696
 ---------------------------------------------------------------------
 Rotational constants (GHZ):           4.6957454           0.1661550           0.1646016
 Leave Link  202 at Mon Feb 22 21:04:16 2021, MaxMem=   104857600 cpu:               1.1 elap:               0.1
 (Enter /sw/arch/RedHatEnterpriseServer7/EB_production/2019/software/Gaussian/g16.c01/l301.exe)
 Standard basis: TZVP (5D, 7F)
 Ernie: Thresh=  0.10000D-02 Tol=  0.10000D-05 Strict=F.
 There are   360 symmetry adapted cartesian basis functions of A   symmetry.
 There are   348 symmetry adapted basis functions of A   symmetry.
   348 basis functions,   580 primitive gaussians,   360 cartesian basis functions
    48 alpha electrons       48 beta electrons
       nuclear repulsion energy       661.5829917136 Hartrees.
 IExCor=  404 DFT=T Ex=B Corr=P86 ExCW=0 ScaHFX=  0.000000
 ScaDFX=  1.000000  1.000000  1.000000  1.000000 ScalE2=  1.000000  1.000000
 IRadAn=      5 IRanWt=     -1 IRanGd=            0 ICorTp=0 IEmpDi=131
 NAtoms=   32 NActive=   32 NUniq=   32 SFac= 1.00D+00 NAtFMM=   60 NAOKFM=F Big=F
 Integral buffers will be    131072 words long.
 Raffenetti 2 integral format.
 Two-electron integral symmetry is turned on.
 R6Disp:  Grimme-D3 Dispersion energy=       -0.0286568119 Hartrees.
 Nuclear repulsion after empirical dispersion term =      661.5543349017 Hartrees.
 ------------------------------------------------------------------------------
 Polarizable Continuum Model (PCM)
 =================================
 Model                : PCM.
 Atomic radii         : UFF (Universal Force Field).
 Polarization charges : Total charges.
 Charge compensation  : None.
 Solution method      : On-the-fly selection.
 Cavity type          : Scaled VdW (van der Waals Surface) (Alpha=1.100).
 Cavity algorithm     : GePol (No added spheres)
                        Default sphere list used, NSphG=   32.
                        Lebedev-Laikov grids with approx.  5.0 points / Ang**2.
                        Smoothing algorithm: York/Karplus (Gamma=1.0000).
                        Polarization charges: spherical gaussians, with
                                              point-specific exponents (IZeta= 3).
                        Self-potential: point-specific (ISelfS= 7).
                        Self-field    : sphere-specific E.n sum rule (ISelfD= 2).
 1st derivatives      : Analytical E(r).r(x)/FMM algorithm (CHGder, D1EAlg=3).
                        Cavity 1st derivative terms included.
 Solvent              : Water, Eps=  78.355300 Eps(inf)=   1.777849
 ------------------------------------------------------------------------------
 GePol: Number of generator spheres                  =      32
 GePol: Total number of spheres                      =      32
 GePol: Number of exposed spheres                    =      32 (100.00%)
 GePol: Number of points                             =    2316
 GePol: Average weight of points                     =       0.13
 GePol: Minimum weight of points                     =   0.62D-09
 GePol: Maximum weight of points                     =    0.20577
 GePol: Number of points with low weight             =     170
 GePol: Fraction of low-weight points (<1% of avg)   =       7.34%
 GePol: Cavity surface area                          =    303.793 Ang**2
 GePol: Cavity volume                                =    300.728 Ang**3
 Leave Link  301 at Mon Feb 22 21:04:16 2021, MaxMem=   104857600 cpu:               1.5 elap:               0.1
 (Enter /sw/arch/RedHatEnterpriseServer7/EB_production/2019/software/Gaussian/g16.c01/l302.exe)
 NPDir=0 NMtPBC=     1 NCelOv=     1 NCel=       1 NClECP=     1 NCelD=      1
         NCelK=      1 NCelE2=     1 NClLst=     1 CellRange=     0.0.
 One-electron integrals computed using PRISM.
 One-electron integral symmetry used in STVInt
 PrsmSu:  requested number of processors reduced to:  27 ShMem   1 Linda.
 NBasis=   348 RedAO= T EigKep=  6.36D-05  NBF=   348
 NBsUse=   348 1.00D-06 EigRej= -1.00D+00 NBFU=   348
 Precomputing XC quadrature grid using
 IXCGrd= 4 IRadAn=           5 IRanWt=          -1 IRanGd=           0 AccXCQ= 0.00D+00.
 Generated NRdTot=       0 NPtTot=           0 NUsed=           0 NTot=          32
 NSgBfM=   346   346   346   346   346 MxSgAt=    32 MxSgA2=    32.
 Leave Link  302 at Mon Feb 22 21:04:17 2021, MaxMem=   104857600 cpu:               9.3 elap:               0.3
 (Enter /sw/arch/RedHatEnterpriseServer7/EB_production/2019/software/Gaussian/g16.c01/l303.exe)
 DipDrv:  MaxL=1.
 Leave Link  303 at Mon Feb 22 21:04:17 2021, MaxMem=   104857600 cpu:               2.3 elap:               0.1
 (Enter /sw/arch/RedHatEnterpriseServer7/EB_production/2019/software/Gaussian/g16.c01/l401.exe)
 ExpMin= 9.52D-02 ExpMax= 2.70D+04 ExpMxC= 9.22D+02 IAcc=3 IRadAn=         5 AccDes= 0.00D+00
 Harris functional with IExCor=  404 and IRadAn=       5 diagonalized for initial guess.
 HarFok:  IExCor=  404 AccDes= 0.00D+00 IRadAn=         5 IDoV= 1 UseB2=F ITyADJ=14
 ICtDFT=  3500011 ScaDFX=  1.000000  1.000000  1.000000  1.000000
 FoFCou: FMM=F IPFlag=           0 FMFlag=      100000 FMFlg1=           0
         NFxFlg=           0 DoJE=T BraDBF=F KetDBF=T FulRan=T
         wScrn=  0.000000 ICntrl=       500 IOpCl=  0 I1Cent=   200000004 NGrid=           0
         NMat0=    1 NMatS0=      1 NMatT0=    0 NMatD0=    1 NMtDS0=    0 NMtDT0=    0
 Petite list used in FoFCou.
 Harris En= -544.125512513216    
 JPrj=0 DoOrth=F DoCkMO=F.
 Leave Link  401 at Mon Feb 22 21:04:18 2021, MaxMem=   104857600 cpu:              21.8 elap:               0.8
 (Enter /sw/arch/RedHatEnterpriseServer7/EB_production/2019/software/Gaussian/g16.c01/l502.exe)
 Integral symmetry usage will be decided dynamically.
 Closed shell SCF:
 Using DIIS extrapolation, IDIIS=  1040.
 NGot=   104857600 LenX=   104582290 LenY=   104452249
 Requested convergence on RMS density matrix=1.00D-08 within 128 cycles.
 Requested convergence on MAX density matrix=1.00D-06.
 Requested convergence on             energy=1.00D-06.
 No special actions if energy rises.
 Fock matrices will be formed incrementally for  20 cycles.

 Cycle   1  Pass 1  IDiag  1:
 FoFJK:  IHMeth= 1 ICntrl=     500 DoSepK=F KAlg= 0 I1Cent=           0 FoldK=F
 IRaf= 760000000 NMat=       1 IRICut=       1 DoRegI=T DoRafI=F ISym2E= 0 IDoP0=0 IntGTp=1.
 FoFCou: FMM=F IPFlag=           0 FMFlag=      100000 FMFlg1=           0
         NFxFlg=           0 DoJE=T BraDBF=F KetDBF=F FulRan=T
         wScrn=  0.000000 ICntrl=       500 IOpCl=  0 I1Cent=           0 NGrid=           0
         NMat0=    1 NMatS0=      1 NMatT0=    0 NMatD0=    1 NMtDS0=    0 NMtDT0=    0
 Symmetry not used in FoFCou.
 Inv3:  Mode=1 IEnd=    16091568.
 Iteration    1 A*A^-1 deviation from unit magnitude is 3.55D-15 for   2161.
 Iteration    1 A*A^-1 deviation from orthogonality  is 2.25D-15 for   1907   1510.
 Iteration    1 A^-1*A deviation from unit magnitude is 3.55D-15 for   2161.
 Iteration    1 A^-1*A deviation from orthogonality  is 2.89D-15 for   2161   1071.
 E= -543.357627154757    
 DIIS: error= 4.34D-02 at cycle   1 NSaved=   1.
 NSaved= 1 IEnMin= 1 EnMin= -543.357627154757     IErMin= 1 ErrMin= 4.34D-02
 ErrMax= 4.34D-02  0.00D+00 EMaxC= 1.00D-01 BMatC= 4.44D-01 BMatP= 4.44D-01
 IDIUse=3 WtCom= 5.66D-01 WtEn= 4.34D-01
 Coeff-Com:  0.100D+01
 Coeff-En:   0.100D+01
 Coeff:      0.100D+01
 Gap=     0.064 Goal=   None    Shift=    0.000
 GapD=    0.064 DampG=0.500 DampE=0.500 DampFc=0.2500 IDamp=-1.
 Damping current iteration by 2.50D-01
 RMSDP=6.42D-03 MaxDP=6.00D-01              OVMax= 2.88D-01

 Cycle   2  Pass 1  IDiag  1:
 RMSU=  1.60D-03    CP:  9.90D-01
 E= -543.515958224118     Delta-E=       -0.158331069361 Rises=F Damp=T
 DIIS: error= 1.75D-02 at cycle   2 NSaved=   2.
 NSaved= 2 IEnMin= 2 EnMin= -543.515958224118     IErMin= 2 ErrMin= 1.75D-02
 ErrMax= 1.75D-02  0.00D+00 EMaxC= 1.00D-01 BMatC= 6.60D-02 BMatP= 4.44D-01
 IDIUse=3 WtCom= 8.25D-01 WtEn= 1.75D-01
 Coeff-Com: -0.435D+00 0.143D+01
 Coeff-En:   0.000D+00 0.100D+01
 Coeff:     -0.359D+00 0.136D+01
 Gap=     0.165 Goal=   None    Shift=    0.000
 RMSDP=1.21D-03 MaxDP=6.10D-02 DE=-1.58D-01 OVMax= 2.35D-01

 Cycle   3  Pass 1  IDiag  1:
 RMSU=  1.20D-03    CP:  9.75D-01  1.01D+00
 E= -543.720221325690     Delta-E=       -0.204263101572 Rises=F Damp=F
 DIIS: error= 2.67D-02 at cycle   3 NSaved=   3.
 NSaved= 3 IEnMin= 3 EnMin= -543.720221325690     IErMin= 2 ErrMin= 1.75D-02
 ErrMax= 2.67D-02  0.00D+00 EMaxC= 1.00D-01 BMatC= 8.97D-02 BMatP= 6.60D-02
 IDIUse=2 WtCom= 0.00D+00 WtEn= 1.00D+00
 Coeff-En:   0.000D+00 0.000D+00 0.100D+01
 Coeff:      0.000D+00 0.000D+00 0.100D+01
 Gap=     0.197 Goal=   None    Shift=    0.000
 RMSDP=3.49D-03 MaxDP=2.85D-01 DE=-2.04D-01 OVMax= 4.76D-01

 Cycle   4  Pass 1  IDiag  1:
 RMSU=  1.88D-03    CP:  1.00D+00  2.09D+00 -9.65D-01
 E= -543.102930304846     Delta-E=        0.617291020844 Rises=F Damp=F
 DIIS: error= 8.98D-02 at cycle   4 NSaved=   4.
 NSaved= 4 IEnMin= 3 EnMin= -543.720221325690     IErMin= 2 ErrMin= 1.75D-02
 ErrMax= 8.98D-02  0.00D+00 EMaxC= 1.00D-01 BMatC= 8.52D-01 BMatP= 6.60D-02
 IDIUse=2 WtCom= 0.00D+00 WtEn= 1.00D+00
 Coeff-En:   0.000D+00 0.000D+00 0.844D+00 0.156D+00
 Coeff:      0.000D+00 0.000D+00 0.844D+00 0.156D+00
 Gap=     0.137 Goal=   None    Shift=    0.000
 RMSDP=2.29D-03 MaxDP=2.14D-01 DE= 6.17D-01 OVMax= 2.46D-01

 Cycle   5  Pass 1  IDiag  1:
 RMSU=  4.37D-04    CP:  9.91D-01  1.19D+00  1.02D-01  3.90D-01
 E= -543.727066265444     Delta-E=       -0.624135960598 Rises=F Damp=F
 DIIS: error= 2.72D-02 at cycle   5 NSaved=   5.
 NSaved= 5 IEnMin= 5 EnMin= -543.727066265444     IErMin= 2 ErrMin= 1.75D-02
 ErrMax= 2.72D-02  0.00D+00 EMaxC= 1.00D-01 BMatC= 8.46D-02 BMatP= 6.60D-02
 IDIUse=2 WtCom= 0.00D+00 WtEn= 1.00D+00
 Coeff-En:   0.000D+00 0.000D+00 0.483D+00 0.000D+00 0.517D+00
 Coeff:      0.000D+00 0.000D+00 0.483D+00 0.000D+00 0.517D+00
 Gap=     0.179 Goal=   None    Shift=    0.000
 RMSDP=7.87D-04 MaxDP=5.50D-02 DE=-6.24D-01 OVMax= 9.60D-02

 Cycle   6  Pass 1  IDiag  1:
 RMSU=  1.12D-04    CP:  9.82D-01  1.01D+00  5.63D-01  1.57D-01  7.10D-01
 E= -543.793502306244     Delta-E=       -0.066436040800 Rises=F Damp=F
 DIIS: error= 2.94D-03 at cycle   6 NSaved=   6.
 NSaved= 6 IEnMin= 6 EnMin= -543.793502306244     IErMin= 6 ErrMin= 2.94D-03
 ErrMax= 2.94D-03  0.00D+00 EMaxC= 1.00D-01 BMatC= 7.43D-04 BMatP= 6.60D-02
 IDIUse=3 WtCom= 9.71D-01 WtEn= 2.94D-02
 Coeff-Com: -0.280D-01 0.478D-01 0.219D+00-0.381D-01 0.359D+00 0.440D+00
 Coeff-En:   0.000D+00 0.000D+00 0.000D+00 0.000D+00 0.000D+00 0.100D+01
 Coeff:     -0.272D-01 0.464D-01 0.213D+00-0.370D-01 0.349D+00 0.456D+00
 Gap=     0.178 Goal=   None    Shift=    0.000
 RMSDP=1.20D-04 MaxDP=9.39D-03 DE=-6.64D-02 OVMax= 1.04D-02

 Cycle   7  Pass 1  IDiag  1:
 RMSU=  4.99D-05    CP:  9.83D-01  1.05D+00  5.34D-01  1.89D-01  7.35D-01
                    CP:  6.60D-01
 E= -543.793940490673     Delta-E=       -0.000438184429 Rises=F Damp=F
 DIIS: error= 1.37D-03 at cycle   7 NSaved=   7.
 NSaved= 7 IEnMin= 7 EnMin= -543.793940490673     IErMin= 7 ErrMin= 1.37D-03
 ErrMax= 1.37D-03  0.00D+00 EMaxC= 1.00D-01 BMatC= 1.87D-04 BMatP= 7.43D-04
 IDIUse=3 WtCom= 9.86D-01 WtEn= 1.37D-02
 Coeff-Com: -0.787D-02 0.919D-02 0.597D-01-0.136D-01 0.109D+00 0.345D+00
 Coeff-Com:  0.498D+00
 Coeff-En:   0.000D+00 0.000D+00 0.000D+00 0.000D+00 0.000D+00 0.252D+00
 Coeff-En:   0.748D+00
 Coeff:     -0.776D-02 0.906D-02 0.589D-01-0.134D-01 0.108D+00 0.344D+00
 Coeff:      0.501D+00
 Gap=     0.178 Goal=   None    Shift=    0.000
 RMSDP=2.79D-05 MaxDP=1.31D-03 DE=-4.38D-04 OVMax= 3.52D-03

 Cycle   8  Pass 1  IDiag  1:
 RMSU=  1.56D-05    CP:  9.83D-01  1.05D+00  5.39D-01  1.84D-01  7.30D-01
                    CP:  6.89D-01  6.59D-01
 E= -543.794070115797     Delta-E=       -0.000129625124 Rises=F Damp=F
 DIIS: error= 2.41D-04 at cycle   8 NSaved=   8.
 NSaved= 8 IEnMin= 8 EnMin= -543.794070115797     IErMin= 8 ErrMin= 2.41D-04
 ErrMax= 2.41D-04  0.00D+00 EMaxC= 1.00D-01 BMatC= 1.11D-05 BMatP= 1.87D-04
 IDIUse=3 WtCom= 9.98D-01 WtEn= 2.41D-03
 Coeff-Com:  0.131D-02-0.377D-02 0.651D-02-0.714D-03 0.746D-02 0.146D+00
 Coeff-Com:  0.255D+00 0.588D+00
 Coeff-En:   0.000D+00 0.000D+00 0.000D+00 0.000D+00 0.000D+00 0.000D+00
 Coeff-En:   0.000D+00 0.100D+01
 Coeff:      0.131D-02-0.376D-02 0.650D-02-0.712D-03 0.744D-02 0.146D+00
 Coeff:      0.255D+00 0.589D+00
 Gap=     0.178 Goal=   None    Shift=    0.000
 RMSDP=1.36D-05 MaxDP=1.25D-03 DE=-1.30D-04 OVMax= 7.80D-04

 Cycle   9  Pass 1  IDiag  1:
 RMSU=  4.45D-06    CP:  9.83D-01  1.04D+00  5.43D-01  1.81D-01  7.28D-01
                    CP:  7.27D-01  6.51D-01  6.55D-01
 E= -543.794078962841     Delta-E=       -0.000008847044 Rises=F Damp=F
 DIIS: error= 4.49D-05 at cycle   9 NSaved=   9.
 NSaved= 9 IEnMin= 9 EnMin= -543.794078962841     IErMin= 9 ErrMin= 4.49D-05
 ErrMax= 4.49D-05  0.00D+00 EMaxC= 1.00D-01 BMatC= 2.11D-07 BMatP= 1.11D-05
 IDIUse=1 WtCom= 1.00D+00 WtEn= 0.00D+00
 Coeff-Com:  0.766D-03-0.138D-02 0.861D-03-0.233D-04-0.710D-03 0.405D-01
 Coeff-Com:  0.771D-01 0.228D+00 0.655D+00
 Coeff:      0.766D-03-0.138D-02 0.861D-03-0.233D-04-0.710D-03 0.405D-01
 Coeff:      0.771D-01 0.228D+00 0.655D+00
 Gap=     0.178 Goal=   None    Shift=    0.000
 RMSDP=1.49D-06 MaxDP=5.44D-05 DE=-8.85D-06 OVMax= 9.82D-05

 Cycle  10  Pass 1  IDiag  1:
 RMSU=  7.71D-07    CP:  9.83D-01  1.04D+00  5.43D-01  1.81D-01  7.28D-01
                    CP:  7.26D-01  6.58D-01  6.78D-01  7.40D-01
 E= -543.794079155547     Delta-E=       -0.000000192706 Rises=F Damp=F
 DIIS: error= 5.96D-06 at cycle  10 NSaved=  10.
 NSaved=10 IEnMin=10 EnMin= -543.794079155547     IErMin=10 ErrMin= 5.96D-06
 ErrMax= 5.96D-06  0.00D+00 EMaxC= 1.00D-01 BMatC= 2.32D-08 BMatP= 2.11D-07
 IDIUse=1 WtCom= 1.00D+00 WtEn= 0.00D+00
 Coeff-Com:  0.394D-03-0.593D-03 0.285D-03 0.582D-06-0.681D-03 0.159D-01
 Coeff-Com:  0.320D-01 0.102D+00 0.381D+00 0.469D+00
 Coeff:      0.394D-03-0.593D-03 0.285D-03 0.582D-06-0.681D-03 0.159D-01
 Coeff:      0.320D-01 0.102D+00 0.381D+00 0.469D+00
 Gap=     0.178 Goal=   None    Shift=    0.000
 RMSDP=4.04D-07 MaxDP=2.18D-05 DE=-1.93D-07 OVMax= 2.71D-05

 Cycle  11  Pass 1  IDiag  1:
 RMSU=  2.55D-07    CP:  9.83D-01  1.04D+00  5.43D-01  1.81D-01  7.28D-01
                    CP:  7.27D-01  6.58D-01  6.75D-01  7.41D-01  6.87D-01
 E= -543.794079189391     Delta-E=       -0.000000033844 Rises=F Damp=F
 DIIS: error= 1.27D-06 at cycle  11 NSaved=  11.
 NSaved=11 IEnMin=11 EnMin= -543.794079189391     IErMin=11 ErrMin= 1.27D-06
 ErrMax= 1.27D-06  0.00D+00 EMaxC= 1.00D-01 BMatC= 6.91D-10 BMatP= 2.32D-08
 IDIUse=1 WtCom= 1.00D+00 WtEn= 0.00D+00
 Coeff-Com:  0.105D-03-0.141D-03 0.320D-04 0.979D-05-0.208D-03 0.237D-02
 Coeff-Com:  0.517D-02 0.166D-01 0.858D-01 0.182D+00 0.708D+00
 Coeff:      0.105D-03-0.141D-03 0.320D-04 0.979D-05-0.208D-03 0.237D-02
 Coeff:      0.517D-02 0.166D-01 0.858D-01 0.182D+00 0.708D+00
 Gap=     0.178 Goal=   None    Shift=    0.000
 RMSDP=1.19D-07 MaxDP=6.21D-06 DE=-3.38D-08 OVMax= 4.48D-06

 Cycle  12  Pass 1  IDiag  1:
 RMSU=  6.65D-08    CP:  9.83D-01  1.04D+00  5.43D-01  1.81D-01  7.28D-01
                    CP:  7.27D-01  6.58D-01  6.76D-01  7.51D-01  6.92D-01
                    CP:  7.69D-01
 E= -543.794079190006     Delta-E=       -0.000000000615 Rises=F Damp=F
 DIIS: error= 3.34D-07 at cycle  12 NSaved=  12.
 NSaved=12 IEnMin=12 EnMin= -543.794079190006     IErMin=12 ErrMin= 3.34D-07
 ErrMax= 3.34D-07  0.00D+00 EMaxC= 1.00D-01 BMatC= 5.05D-11 BMatP= 6.91D-10
 IDIUse=1 WtCom= 1.00D+00 WtEn= 0.00D+00
 Coeff-Com:  0.371D-04-0.469D-04 0.896D-05 0.315D-05-0.668D-04 0.576D-03
 Coeff-Com:  0.137D-02 0.425D-02 0.279D-01 0.719D-01 0.354D+00 0.540D+00
 Coeff:      0.371D-04-0.469D-04 0.896D-05 0.315D-05-0.668D-04 0.576D-03
 Coeff:      0.137D-02 0.425D-02 0.279D-01 0.719D-01 0.354D+00 0.540D+00
 Gap=     0.178 Goal=   None    Shift=    0.000
 RMSDP=3.02D-08 MaxDP=1.91D-06 DE=-6.15D-10 OVMax= 1.44D-06

 Cycle  13  Pass 1  IDiag  1:
 RMSU=  1.69D-08    CP:  9.83D-01  1.04D+00  5.43D-01  1.81D-01  7.28D-01
                    CP:  7.27D-01  6.58D-01  6.76D-01  7.51D-01  6.97D-01
                    CP:  7.94D-01  6.98D-01
 E= -543.794079190046     Delta-E=       -0.000000000040 Rises=F Damp=F
 DIIS: error= 1.20D-07 at cycle  13 NSaved=  13.
 NSaved=13 IEnMin=13 EnMin= -543.794079190046     IErMin=13 ErrMin= 1.20D-07
 ErrMax= 1.20D-07  0.00D+00 EMaxC= 1.00D-01 BMatC= 5.54D-12 BMatP= 5.05D-11
 IDIUse=1 WtCom= 1.00D+00 WtEn= 0.00D+00
 Coeff-Com:  0.827D-05-0.893D-05 0.319D-05 0.121D-06-0.103D-04 0.493D-04
 Coeff-Com:  0.180D-03 0.487D-03 0.581D-02 0.192D-01 0.114D+00 0.289D+00
 Coeff-Com:  0.571D+00
 Coeff:      0.827D-05-0.893D-05 0.319D-05 0.121D-06-0.103D-04 0.493D-04
 Coeff:      0.180D-03 0.487D-03 0.581D-02 0.192D-01 0.114D+00 0.289D+00
 Coeff:      0.571D+00
 Gap=     0.178 Goal=   None    Shift=    0.000
 RMSDP=8.90D-09 MaxDP=3.92D-07 DE=-4.04D-11 OVMax= 4.03D-07

 Error on total polarization charges =  0.01725
 SCF Done:  E(RB-P86) =  -543.794079190     A.U. after   13 cycles
            NFock= 13  Conv=0.89D-08     -V/T= 2.0051
 KE= 5.410419385620D+02 PE=-2.588889089089D+03 EE= 8.424987364353D+02
 Leave Link  502 at Mon Feb 22 21:04:42 2021, MaxMem=   104857600 cpu:             738.5 elap:              23.8
 (Enter /sw/arch/RedHatEnterpriseServer7/EB_production/2019/software/Gaussian/g16.c01/l601.exe)
 Copying SCF densities to generalized density rwf, IOpCl= 0 IROHF=0.

 **********************************************************************

            Population analysis using the SCF Density.

 **********************************************************************

 Orbital symmetries:
       Occupied  (A) (A) (A) (A) (A) (A) (A) (A) (A) (A) (A) (A)
                 (A) (A) (A) (A) (A) (A) (A) (A) (A) (A) (A) (A)
                 (A) (A) (A) (A) (A) (A) (A) (A) (A) (A) (A) (A)
                 (A) (A) (A) (A) (A) (A) (A) (A) (A) (A) (A) (A)
       Virtual   (A) (A) (A) (A) (A) (A) (A) (A) (A) (A) (A) (A)
                 (A) (A) (A) (A) (A) (A) (A) (A) (A) (A) (A) (A)
                 (A) (A) (A) (A) (A) (A) (A) (A) (A) (A) (A) (A)
                 (A) (A) (A) (A) (A) (A) (A) (A) (A) (A) (A) (A)
                 (A) (A) (A) (A) (A) (A) (A) (A) (A) (A) (A) (A)
                 (A) (A) (A) (A) (A) (A) (A) (A) (A) (A) (A) (A)
                 (A) (A) (A) (A) (A) (A) (A) (A) (A) (A) (A) (A)
                 (A) (A) (A) (A) (A) (A) (A) (A) (A) (A) (A) (A)
                 (A) (A) (A) (A) (A) (A) (A) (A) (A) (A) (A) (A)
                 (A) (A) (A) (A) (A) (A) (A) (A) (A) (A) (A) (A)
                 (A) (A) (A) (A) (A) (A) (A) (A) (A) (A) (A) (A)
                 (A) (A) (A) (A) (A) (A) (A) (A) (A) (A) (A) (A)
                 (A) (A) (A) (A) (A) (A) (A) (A) (A) (A) (A) (A)
                 (A) (A) (A) (A) (A) (A) (A) (A) (A) (A) (A) (A)
                 (A) (A) (A) (A) (A) (A) (A) (A) (A) (A) (A) (A)
                 (A) (A) (A) (A) (A) (A) (A) (A) (A) (A) (A) (A)
                 (A) (A) (A) (A) (A) (A) (A) (A) (A) (A) (A) (A)
                 (A) (A) (A) (A) (A) (A) (A) (A) (A) (A) (A) (A)
                 (A) (A) (A) (A) (A) (A) (A) (A) (A) (A) (A) (A)
                 (A) (A) (A) (A) (A) (A) (A) (A) (A) (A) (A) (A)
                 (A) (A) (A) (A) (A) (A) (A) (A) (A) (A) (A) (A)
                 (A) (A) (A) (A) (A) (A) (A) (A) (A) (A) (A) (A)
                 (A) (A) (A) (A) (A) (A) (A) (A) (A) (A) (A) (A)
                 (A) (A) (A) (A) (A) (A) (A) (A) (A) (A) (A) (A)
                 (A) (A) (A) (A) (A) (A) (A) (A) (A) (A) (A) (A)
 The electronic state is 1-A.
 Alpha  occ. eigenvalues --  -18.82115 -18.75764 -10.03485  -9.91672  -9.90567
 Alpha  occ. eigenvalues --   -9.89509  -9.89078  -9.88909  -9.88899  -9.88787
 Alpha  occ. eigenvalues --   -9.88717  -9.88088  -1.01648  -0.92186  -0.74429
 Alpha  occ. eigenvalues --   -0.72771  -0.70304  -0.66877  -0.62685  -0.58841
 Alpha  occ. eigenvalues --   -0.56394  -0.53397  -0.51952  -0.51552  -0.45296
 Alpha  occ. eigenvalues --   -0.44011  -0.42923  -0.42204  -0.41269  -0.39899
 Alpha  occ. eigenvalues --   -0.38327  -0.37247  -0.36909  -0.35801  -0.34577
 Alpha  occ. eigenvalues --   -0.33939  -0.33328  -0.31417  -0.31365  -0.31006
 Alpha  occ. eigenvalues --   -0.29727  -0.29236  -0.28780  -0.28442  -0.28358
 Alpha  occ. eigenvalues --   -0.28298  -0.26449  -0.23169
 Alpha virt. eigenvalues --   -0.05343   0.01153   0.02119   0.03101   0.04579
 Alpha virt. eigenvalues --    0.05017   0.05291   0.05901   0.06811   0.07368
 Alpha virt. eigenvalues --    0.08133   0.09484   0.09828   0.10653   0.10887
 Alpha virt. eigenvalues --    0.11203   0.11437   0.12005   0.12108   0.12310
 Alpha virt. eigenvalues --    0.12690   0.13616   0.14223   0.14517   0.15297
 Alpha virt. eigenvalues --    0.16044   0.16692   0.17072   0.18286   0.18889
 Alpha virt. eigenvalues --    0.19092   0.20506   0.22387   0.22796   0.23808
 Alpha virt. eigenvalues --    0.24683   0.25188   0.25404   0.26192   0.27048
 Alpha virt. eigenvalues --    0.27504   0.28292   0.28519   0.28823   0.29745
 Alpha virt. eigenvalues --    0.30499   0.30939   0.32877   0.34832   0.35335
 Alpha virt. eigenvalues --    0.35539   0.36038   0.37298   0.37747   0.38213
 Alpha virt. eigenvalues --    0.38785   0.39160   0.39606   0.40592   0.41086
 Alpha virt. eigenvalues --    0.41524   0.42173   0.42680   0.42888   0.43352
 Alpha virt. eigenvalues --    0.43445   0.43735   0.44719   0.45103   0.45878
 Alpha virt. eigenvalues --    0.46058   0.46545   0.46855   0.47344   0.47559
 Alpha virt. eigenvalues --    0.47994   0.48398   0.49177   0.49227   0.49855
 Alpha virt. eigenvalues --    0.50490   0.51597   0.53478   0.55010   0.55323
 Alpha virt. eigenvalues --    0.55815   0.57309   0.58444   0.58670   0.59662
 Alpha virt. eigenvalues --    0.62416   0.64315   0.65616   0.66352   0.71781
 Alpha virt. eigenvalues --    0.71893   0.72971   0.77736   0.79397   0.87354
 Alpha virt. eigenvalues --    1.05285   1.07556   1.08527   1.09786   1.15231
 Alpha virt. eigenvalues --    1.16512   1.17733   1.18107   1.18567   1.19117
 Alpha virt. eigenvalues --    1.19944   1.20988   1.22059   1.23173   1.23549
 Alpha virt. eigenvalues --    1.24085   1.24537   1.24933   1.25484   1.26665
 Alpha virt. eigenvalues --    1.28673   1.28928   1.29881   1.30771   1.31309
 Alpha virt. eigenvalues --    1.32693   1.32725   1.33343   1.35028   1.35206
 Alpha virt. eigenvalues --    1.35718   1.36243   1.36773   1.38690   1.39472
 Alpha virt. eigenvalues --    1.41746   1.42352   1.43484   1.44566   1.45289
 Alpha virt. eigenvalues --    1.45760   1.46456   1.47028   1.48307   1.48466
 Alpha virt. eigenvalues --    1.50294   1.52010   1.52407   1.53673   1.55491
 Alpha virt. eigenvalues --    1.57160   1.59091   1.59327   1.60266   1.61263
 Alpha virt. eigenvalues --    1.61968   1.65694   1.66668   1.66706   1.66927
 Alpha virt. eigenvalues --    1.68971   1.70174   1.71736   1.73466   1.73726
 Alpha virt. eigenvalues --    1.74090   1.74220   1.75729   1.76288   1.76983
 Alpha virt. eigenvalues --    1.77194   1.77809   1.77914   1.78821   1.79169
 Alpha virt. eigenvalues --    1.80131   1.80848   1.81424   1.81537   1.82126
 Alpha virt. eigenvalues --    1.82458   1.82626   1.82916   1.88558   1.89832
 Alpha virt. eigenvalues --    1.92742   1.94845   1.97816   2.01498   2.02390
 Alpha virt. eigenvalues --    2.06257   2.07527   2.08101   2.09835   2.10669
 Alpha virt. eigenvalues --    2.12160   2.12757   2.13787   2.15300   2.15520
 Alpha virt. eigenvalues --    2.17560   2.19145   2.19654   2.20879   2.25574
 Alpha virt. eigenvalues --    2.25830   2.27147   2.29559   2.30977   2.32608
 Alpha virt. eigenvalues --    2.34220   2.36792   2.38736   2.39903   2.42698
 Alpha virt. eigenvalues --    2.44873   2.45616   2.46734   2.47862   2.48670
 Alpha virt. eigenvalues --    2.49726   2.50157   2.50370   2.51047   2.51502
 Alpha virt. eigenvalues --    2.51796   2.52677   2.53019   2.53827   2.54349
 Alpha virt. eigenvalues --    2.54845   2.56002   2.56255   2.57020   2.58023
 Alpha virt. eigenvalues --    2.58531   2.59060   2.60064   2.60692   2.61024
 Alpha virt. eigenvalues --    2.62885   2.63676   2.64410   2.66297   2.66548
 Alpha virt. eigenvalues --    2.67610   2.68036   2.68173   2.70613   2.71719
 Alpha virt. eigenvalues --    2.76219   2.77264   2.80097   2.85028   2.88296
 Alpha virt. eigenvalues --    2.90653   2.93071   2.98079   3.01113   3.03018
 Alpha virt. eigenvalues --    3.05270   3.07103   3.08293   3.11930   3.14226
 Alpha virt. eigenvalues --    3.17195   3.20573   3.23904   3.26366   3.28122
 Alpha virt. eigenvalues --    3.28178   3.28976   3.29525   3.31089   3.33417
 Alpha virt. eigenvalues --    3.33580   3.34199   3.35176   3.35797   3.35884
 Alpha virt. eigenvalues --    3.37868   3.43056   3.43277   3.45983   3.50171
 Alpha virt. eigenvalues --    3.81952   4.00774   4.18165  21.65402  21.74807
 Alpha virt. eigenvalues --   21.75775  21.77977  21.79484  21.81481  21.82714
 Alpha virt. eigenvalues --   21.83444  21.85784  21.88300  43.04938  43.11856
          Condensed to atoms (all electrons):
               1          2          3          4          5          6
     1  C    5.070097   0.266132  -0.074765   0.019853  -0.001795   0.000131
     2  C    0.266132   5.142687   0.253264  -0.055984   0.017692  -0.001494
     3  C   -0.074765   0.253264   5.233776   0.231073  -0.048145   0.014726
     4  C    0.019853  -0.055984   0.231073   5.227040   0.220387  -0.041587
     5  C   -0.001795   0.017692  -0.048145   0.220387   5.244227   0.192479
     6  C    0.000131  -0.001494   0.014726  -0.041587   0.192479   5.284477
     7  C   -0.000005   0.000110  -0.001173   0.014186  -0.023520   0.174451
     8  C    0.000000  -0.000005   0.000060  -0.000965   0.008139  -0.020790
     9  C   -0.000000   0.000000  -0.000004   0.000069  -0.000595   0.008549
    10  C    0.000000  -0.000000  -0.000000  -0.000002  -0.000185   0.000174
    11  O   -0.000000   0.000000  -0.000000   0.000000  -0.000002   0.000010
    12  O    0.000000  -0.000000  -0.000000   0.000000  -0.000004   0.000175
    13  H    0.399561  -0.043901   0.014299  -0.000955   0.000067  -0.000003
    14  H    0.407517  -0.041884  -0.006958  -0.000528  -0.000028  -0.000001
    15  H    0.407566  -0.041888  -0.006970  -0.000539  -0.000026  -0.000002
    16  H   -0.043477   0.415951  -0.044136  -0.007379  -0.000216  -0.000054
    17  H   -0.043432   0.415752  -0.043967  -0.007404  -0.000201  -0.000054
    18  H   -0.003286  -0.042650   0.413879  -0.044251  -0.005691  -0.000213
    19  H   -0.003266  -0.042946   0.414344  -0.044652  -0.005616  -0.000167
    20  H   -0.000284  -0.004579  -0.043081   0.416511  -0.044494  -0.005186
    21  H   -0.000296  -0.004807  -0.042935   0.415766  -0.044630  -0.004030
    22  H    0.000003  -0.000277  -0.003663  -0.044857   0.420036  -0.045930
    23  H   -0.000004  -0.000312  -0.004548  -0.044617   0.414569  -0.040607
    24  H   -0.000001  -0.000009  -0.000260  -0.004372  -0.045824   0.418517
    25  H   -0.000000  -0.000002  -0.000084  -0.004167  -0.040977   0.414650
    26  H    0.000000  -0.000001   0.000009  -0.000508  -0.002619  -0.046577
    27  H    0.000000  -0.000000  -0.000025  -0.000086  -0.004436  -0.040635
    28  H   -0.000000   0.000000  -0.000005  -0.000001  -0.001195  -0.002831
    29  H   -0.000000  -0.000000   0.000001  -0.000068   0.000182  -0.005551
    30  H    0.000000  -0.000000  -0.000000   0.000001  -0.000050   0.000190
    31  H   -0.000000   0.000000  -0.000000   0.000005  -0.000307   0.000752
    32  H    0.000000  -0.000000   0.000000  -0.000000   0.000000  -0.000007
               7          8          9         10         11         12
     1  C   -0.000005   0.000000  -0.000000   0.000000  -0.000000   0.000000
     2  C    0.000110  -0.000005   0.000000  -0.000000   0.000000  -0.000000
     3  C   -0.001173   0.000060  -0.000004  -0.000000  -0.000000  -0.000000
     4  C    0.014186  -0.000965   0.000069  -0.000002   0.000000   0.000000
     5  C   -0.023520   0.008139  -0.000595  -0.000185  -0.000002  -0.000004
     6  C    0.174451  -0.020790   0.008549   0.000174   0.000010   0.000175
     7  C    5.297130   0.160963   0.004690  -0.013802  -0.001583  -0.002986
     8  C    0.160963   5.402361   0.119037  -0.035238  -0.011416   0.011159
     9  C    0.004690   0.119037   5.610106   0.068478  -0.133079  -0.131736
    10  C   -0.013802  -0.035238   0.068478   4.873166   0.632591   0.341779
    11  O   -0.001583  -0.011416  -0.133079   0.632591   7.993375  -0.130574
    12  O   -0.002986   0.011159  -0.131736   0.341779  -0.130574   7.891770
    13  H    0.000000  -0.000000   0.000000  -0.000000  -0.000000  -0.000000
    14  H    0.000000  -0.000000   0.000000  -0.000000   0.000000   0.000000
    15  H    0.000000  -0.000000   0.000000   0.000000   0.000000   0.000000
    16  H   -0.000000  -0.000000  -0.000000  -0.000000  -0.000000   0.000000
    17  H   -0.000000  -0.000000  -0.000000   0.000000   0.000000  -0.000000
    18  H   -0.000029  -0.000001  -0.000000  -0.000000   0.000000   0.000000
    19  H   -0.000030   0.000001   0.000000   0.000000   0.000000  -0.000000
    20  H   -0.000159  -0.000059  -0.000000  -0.000000   0.000000   0.000000
    21  H   -0.000267   0.000016   0.000000   0.000000  -0.000000  -0.000000
    22  H   -0.004276  -0.000579  -0.000015  -0.000003   0.000000   0.000000
    23  H   -0.005721   0.000314  -0.000003   0.000007   0.000000  -0.000000
    24  H   -0.045379  -0.002892  -0.000034  -0.000024   0.000000  -0.000033
    25  H   -0.039451  -0.008733  -0.000335  -0.000145  -0.000004   0.000004
    26  H    0.419298  -0.043902  -0.001454  -0.001401  -0.000077  -0.000037
    27  H    0.417548  -0.043431  -0.006932   0.001023   0.000041   0.000174
    28  H   -0.052945   0.403287  -0.046901   0.017831   0.004156  -0.000379
    29  H   -0.034581   0.413653  -0.036630  -0.012604   0.000336   0.005495
    30  H   -0.002170  -0.027550   0.428582  -0.059454   0.006558   0.004546
    31  H   -0.017291  -0.037795   0.342552   0.013295   0.005189   0.006147
    32  H    0.000168   0.000241   0.014038  -0.019532   0.002237   0.289707
              13         14         15         16         17         18
     1  C    0.399561   0.407517   0.407566  -0.043477  -0.043432  -0.003286
     2  C   -0.043901  -0.041884  -0.041888   0.415951   0.415752  -0.042650
     3  C    0.014299  -0.006958  -0.006970  -0.044136  -0.043967   0.413879
     4  C   -0.000955  -0.000528  -0.000539  -0.007379  -0.007404  -0.044251
     5  C    0.000067  -0.000028  -0.000026  -0.000216  -0.000201  -0.005691
     6  C   -0.000003  -0.000001  -0.000002  -0.000054  -0.000054  -0.000213
     7  C    0.000000   0.000000   0.000000  -0.000000  -0.000000  -0.000029
     8  C   -0.000000  -0.000000  -0.000000  -0.000000  -0.000000  -0.000001
     9  C    0.000000   0.000000   0.000000  -0.000000  -0.000000  -0.000000
    10  C   -0.000000  -0.000000   0.000000  -0.000000   0.000000  -0.000000
    11  O   -0.000000   0.000000   0.000000  -0.000000   0.000000   0.000000
    12  O   -0.000000   0.000000   0.000000   0.000000  -0.000000   0.000000
    13  H    0.547638  -0.025400  -0.025398  -0.002558  -0.002554  -0.000163
    14  H   -0.025400   0.563156  -0.030873   0.008687  -0.006820   0.006092
    15  H   -0.025398  -0.030873   0.563103  -0.006814   0.008682  -0.000684
    16  H   -0.002558   0.008687  -0.006814   0.580863  -0.033021   0.008860
    17  H   -0.002554  -0.006820   0.008682  -0.033021   0.580897  -0.007047
    18  H   -0.000163   0.006092  -0.000684   0.008860  -0.007047   0.582759
    19  H   -0.000163  -0.000688   0.006100  -0.007028   0.008870  -0.035041
    20  H    0.000010   0.000013   0.000088   0.005263  -0.000172   0.008710
    21  H    0.000010   0.000088   0.000013  -0.000165   0.005253  -0.006733
    22  H   -0.000000  -0.000022   0.000017  -0.000035   0.000152   0.004503
    23  H   -0.000000   0.000017  -0.000022   0.000156  -0.000035   0.000114
    24  H    0.000000   0.000000  -0.000000   0.000026  -0.000036   0.000202
    25  H    0.000000  -0.000000   0.000000  -0.000038   0.000025  -0.000064
    26  H   -0.000000   0.000000  -0.000000   0.000001  -0.000000   0.000026
    27  H   -0.000000  -0.000000   0.000000  -0.000000   0.000001  -0.000041
    28  H    0.000000  -0.000000   0.000000  -0.000000   0.000000  -0.000000
    29  H    0.000000   0.000000  -0.000000   0.000000  -0.000000   0.000001
    30  H   -0.000000   0.000000   0.000000   0.000000  -0.000000   0.000000
    31  H   -0.000000   0.000000   0.000000  -0.000000   0.000000  -0.000000
    32  H   -0.000000  -0.000000  -0.000000   0.000000  -0.000000  -0.000000
              19         20         21         22         23         24
     1  C   -0.003266  -0.000284  -0.000296   0.000003  -0.000004  -0.000001
     2  C   -0.042946  -0.004579  -0.004807  -0.000277  -0.000312  -0.000009
     3  C    0.414344  -0.043081  -0.042935  -0.003663  -0.004548  -0.000260
     4  C   -0.044652   0.416511   0.415766  -0.044857  -0.044617  -0.004372
     5  C   -0.005616  -0.044494  -0.044630   0.420036   0.414569  -0.045824
     6  C   -0.000167  -0.005186  -0.004030  -0.045930  -0.040607   0.418517
     7  C   -0.000030  -0.000159  -0.000267  -0.004276  -0.005721  -0.045379
     8  C    0.000001  -0.000059   0.000016  -0.000579   0.000314  -0.002892
     9  C    0.000000  -0.000000   0.000000  -0.000015  -0.000003  -0.000034
    10  C    0.000000  -0.000000   0.000000  -0.000003   0.000007  -0.000024
    11  O    0.000000   0.000000  -0.000000   0.000000   0.000000   0.000000
    12  O   -0.000000   0.000000  -0.000000   0.000000  -0.000000  -0.000033
    13  H   -0.000163   0.000010   0.000010  -0.000000  -0.000000   0.000000
    14  H   -0.000688   0.000013   0.000088  -0.000022   0.000017   0.000000
    15  H    0.006100   0.000088   0.000013   0.000017  -0.000022  -0.000000
    16  H   -0.007028   0.005263  -0.000165  -0.000035   0.000156   0.000026
    17  H    0.008870  -0.000172   0.005253   0.000152  -0.000035  -0.000036
    18  H   -0.035041   0.008710  -0.006733   0.004503   0.000114   0.000202
    19  H    0.582840  -0.006693   0.008708   0.000105   0.004569  -0.000062
    20  H   -0.006693   0.578020  -0.033903   0.008255  -0.006048   0.000253
    21  H    0.008708  -0.033903   0.577960  -0.006040   0.008280   0.004158
    22  H    0.000105   0.008255  -0.006040   0.573071  -0.032911  -0.005951
    23  H    0.004569  -0.006048   0.008280  -0.032911   0.574764   0.008202
    24  H   -0.000062   0.000253   0.004158  -0.005951   0.008202   0.572883
    25  H    0.000201   0.004221   0.000246   0.008119  -0.005976  -0.032764
    26  H   -0.000042   0.000203  -0.000059   0.000224   0.003779   0.008095
    27  H    0.000028  -0.000064   0.000195   0.003788   0.000317  -0.005764
    28  H    0.000001  -0.000047   0.000031  -0.000056   0.000215   0.000322
    29  H   -0.000000   0.000030  -0.000042   0.000192  -0.000063   0.003614
    30  H   -0.000000   0.000001  -0.000000   0.000019  -0.000026  -0.000056
    31  H    0.000000  -0.000000   0.000001  -0.000026   0.000030   0.000137
    32  H   -0.000000   0.000000  -0.000000  -0.000000  -0.000000   0.000001
              25         26         27         28         29         30
     1  C   -0.000000   0.000000   0.000000  -0.000000  -0.000000   0.000000
     2  C   -0.000002  -0.000001  -0.000000   0.000000  -0.000000  -0.000000
     3  C   -0.000084   0.000009  -0.000025  -0.000005   0.000001  -0.000000
     4  C   -0.004167  -0.000508  -0.000086  -0.000001  -0.000068   0.000001
     5  C   -0.040977  -0.002619  -0.004436  -0.001195   0.000182  -0.000050
     6  C    0.414650  -0.046577  -0.040635  -0.002831  -0.005551   0.000190
     7  C   -0.039451   0.419298   0.417548  -0.052945  -0.034581  -0.002170
     8  C   -0.008733  -0.043902  -0.043431   0.403287   0.413653  -0.027550
     9  C   -0.000335  -0.001454  -0.006932  -0.046901  -0.036630   0.428582
    10  C   -0.000145  -0.001401   0.001023   0.017831  -0.012604  -0.059454
    11  O   -0.000004  -0.000077   0.000041   0.004156   0.000336   0.006558
    12  O    0.000004  -0.000037   0.000174  -0.000379   0.005495   0.004546
    13  H    0.000000  -0.000000  -0.000000   0.000000   0.000000  -0.000000
    14  H   -0.000000   0.000000  -0.000000  -0.000000   0.000000   0.000000
    15  H    0.000000  -0.000000   0.000000   0.000000  -0.000000   0.000000
    16  H   -0.000038   0.000001  -0.000000  -0.000000   0.000000   0.000000
    17  H    0.000025  -0.000000   0.000001   0.000000  -0.000000  -0.000000
    18  H   -0.000064   0.000026  -0.000041  -0.000000   0.000001   0.000000
    19  H    0.000201  -0.000042   0.000028   0.000001  -0.000000  -0.000000
    20  H    0.004221   0.000203  -0.000064  -0.000047   0.000030   0.000001
    21  H    0.000246  -0.000059   0.000195   0.000031  -0.000042  -0.000000
    22  H    0.008119   0.000224   0.003788  -0.000056   0.000192   0.000019
    23  H   -0.005976   0.003779   0.000317   0.000215  -0.000063  -0.000026
    24  H   -0.032764   0.008095  -0.005764   0.000322   0.003614  -0.000056
    25  H    0.572595  -0.006206   0.007935   0.003208   0.000288   0.000160
    26  H   -0.006206   0.567118  -0.031856  -0.005073   0.007429   0.002871
    27  H    0.007935  -0.031856   0.563143   0.007263  -0.005195   0.000243
    28  H    0.003208  -0.005073   0.007263   0.557003  -0.026054  -0.005042
    29  H    0.000288   0.007429  -0.005195  -0.026054   0.538839   0.005808
    30  H    0.000160   0.002871   0.000243  -0.005042   0.005808   0.498912
    31  H   -0.000069  -0.000082   0.004152   0.008322  -0.003363  -0.019642
    32  H   -0.000000   0.000002  -0.000008  -0.000207  -0.000158  -0.000353
              31         32
     1  C   -0.000000   0.000000
     2  C    0.000000  -0.000000
     3  C   -0.000000   0.000000
     4  C    0.000005  -0.000000
     5  C   -0.000307   0.000000
     6  C    0.000752  -0.000007
     7  C   -0.017291   0.000168
     8  C   -0.037795   0.000241
     9  C    0.342552   0.014038
    10  C    0.013295  -0.019532
    11  O    0.005189   0.002237
    12  O    0.006147   0.289707
    13  H   -0.000000  -0.000000
    14  H    0.000000  -0.000000
    15  H    0.000000  -0.000000
    16  H   -0.000000   0.000000
    17  H    0.000000  -0.000000
    18  H   -0.000000  -0.000000
    19  H    0.000000  -0.000000
    20  H   -0.000000   0.000000
    21  H    0.000001  -0.000000
    22  H   -0.000026  -0.000000
    23  H    0.000030  -0.000000
    24  H    0.000137   0.000001
    25  H   -0.000069  -0.000000
    26  H   -0.000082   0.000002
    27  H    0.004152  -0.000008
    28  H    0.008322  -0.000207
    29  H   -0.003363  -0.000158
    30  H   -0.019642  -0.000353
    31  H    0.535206  -0.000657
    32  H   -0.000657   0.379418
 Mulliken charges:
               1
     1  C   -0.400248
     2  C   -0.230850
     3  C   -0.254713
     4  C   -0.241968
     5  C   -0.247222
     6  C   -0.253561
     7  C   -0.243177
     8  C   -0.285875
     9  C   -0.238382
    10  C    0.194046
    11  O   -0.367757
    12  O   -0.285207
    13  H    0.139510
    14  H    0.127634
    15  H    0.127648
    16  H    0.125116
    17  H    0.125113
    18  H    0.120748
    19  H    0.120629
    20  H    0.123192
    21  H    0.123182
    22  H    0.126158
    23  H    0.125559
    24  H    0.127050
    25  H    0.127363
    26  H    0.130841
    27  H    0.132625
    28  H    0.139097
    29  H    0.148440
    30  H    0.166456
    31  H    0.163443
    32  H    0.335109
 Sum of Mulliken charges =  -0.00000
 Mulliken charges with hydrogens summed into heavy atoms:
               1
     1  C   -0.005456
     2  C    0.019380
     3  C   -0.013337
     4  C    0.004406
     5  C    0.004495
     6  C    0.000852
     7  C    0.020290
     8  C    0.001663
     9  C    0.091516
    10  C    0.194046
    11  O   -0.367757
    12  O    0.049902
 Electronic spatial extent (au):  <R**2>=           6415.0815
 Charge=              0.0000 electrons
 Dipole moment (field-independent basis, Debye):
    X=             -1.9807    Y=              1.3223    Z=             -1.6567  Tot=              2.9011
 Quadrupole moment (field-independent basis, Debye-Ang):
   XX=            -93.3922   YY=            -75.7871   ZZ=            -79.1745
   XY=             10.8233   XZ=            -10.6963   YZ=              0.9267
 Traceless Quadrupole moment (field-independent basis, Debye-Ang):
   XX=            -10.6076   YY=              6.9975   ZZ=              3.6101
   XY=             10.8233   XZ=            -10.6963   YZ=              0.9267
 Octapole moment (field-independent basis, Debye-Ang**2):
  XXX=            -19.3094  YYY=              8.2619  ZZZ=             -2.4743  XYY=             30.4892
  XXY=             89.0881  XXZ=            -59.7038  XZZ=              1.0596  YZZ=              0.9149
  YYZ=              0.1125  XYZ=             12.9057
 Hexadecapole moment (field-independent basis, Debye-Ang**3):
[...]
 Alpha virt. eigenvalues --    2.49398   2.49966   2.50298   2.50710   2.51058
 Alpha virt. eigenvalues --    2.51337   2.52126   2.52645   2.53424   2.54104
 Alpha virt. eigenvalues --    2.54865   2.55858   2.56693   2.57006   2.58428
 Alpha virt. eigenvalues --    2.58817   2.59448   2.60113   2.60311   2.60994
 Alpha virt. eigenvalues --    2.62701   2.63978   2.64731   2.65774   2.66494
 Alpha virt. eigenvalues --    2.67621   2.68205   2.69849   2.70344   2.71072
 Alpha virt. eigenvalues --    2.77383   2.78831   2.80982   2.84674   2.86280
 Alpha virt. eigenvalues --    2.88929   2.97736   2.98534   3.00506   3.03662
 Alpha virt. eigenvalues --    3.06113   3.08061   3.10404   3.12557   3.14005
 Alpha virt. eigenvalues --    3.17356   3.21949   3.22964   3.25480   3.26470
 Alpha virt. eigenvalues --    3.26949   3.28428   3.28991   3.30158   3.32935
 Alpha virt. eigenvalues --    3.33033   3.33921   3.34825   3.35836   3.36952
 Alpha virt. eigenvalues --    3.39270   3.42981   3.44424   3.45020   3.52580
 Alpha virt. eigenvalues --    3.79152   4.08141   4.17772  21.69666  21.71540
 Alpha virt. eigenvalues --   21.73162  21.75720  21.77896  21.80613  21.82378
 Alpha virt. eigenvalues --   21.83539  21.86192  21.88698  43.06834  43.11792
          Condensed to atoms (all electrons):
               1          2          3          4          5          6
     1  C    5.086214   0.266041  -0.073930   0.019352  -0.001778   0.000133
     2  C    0.266041   5.137182   0.254177  -0.057724   0.017721  -0.001488
     3  C   -0.073930   0.254177   5.240463   0.235717  -0.046264   0.014724
     4  C    0.019352  -0.057724   0.235717   5.223839   0.219298  -0.037934
     5  C   -0.001778   0.017721  -0.046264   0.219298   5.250885   0.193918
     6  C    0.000133  -0.001488   0.014724  -0.037934   0.193918   5.273076
     7  C   -0.000006   0.000117  -0.001094   0.013430  -0.022498   0.177280
     8  C    0.000000  -0.000006   0.000057  -0.000899   0.007245  -0.026695
     9  C   -0.000000   0.000000  -0.000005   0.000092  -0.000698   0.014666
    10  C    0.000000  -0.000000  -0.000000  -0.000005  -0.000127  -0.000870
    11  O   -0.000000  -0.000000  -0.000000  -0.000000  -0.000003   0.000000
    12  O   -0.000000   0.000000  -0.000000   0.000000  -0.000006   0.000088
    13  H    0.396743  -0.040624   0.013973  -0.000863   0.000064  -0.000002
    14  H    0.407465  -0.042027  -0.007191  -0.000536  -0.000029  -0.000002
    15  H    0.407515  -0.042056  -0.007176  -0.000534  -0.000028  -0.000002
    16  H   -0.041169   0.416941  -0.046809  -0.007433  -0.000267  -0.000061
    17  H   -0.041159   0.416892  -0.046752  -0.007423  -0.000252  -0.000059
    18  H   -0.003188  -0.043203   0.414179  -0.044790  -0.005890  -0.000228
    19  H   -0.003223  -0.043292   0.414232  -0.044823  -0.005813  -0.000197
    20  H   -0.000211  -0.004968  -0.044199   0.417661  -0.045154  -0.005207
    21  H   -0.000217  -0.005069  -0.044285   0.417633  -0.045440  -0.004705
    22  H   -0.000005  -0.000268  -0.004454  -0.045608   0.419772  -0.045621
    23  H   -0.000007  -0.000288  -0.004763  -0.045400   0.417764  -0.043549
    24  H   -0.000001  -0.000009  -0.000205  -0.004393  -0.043983   0.418318
    25  H   -0.000001  -0.000007  -0.000203  -0.004287  -0.043361   0.417117
    26  H    0.000000  -0.000001  -0.000001  -0.000301  -0.002982  -0.045268
    27  H    0.000000  -0.000001  -0.000034  -0.000159  -0.005330  -0.041454
    28  H   -0.000000   0.000000  -0.000003  -0.000024  -0.000876  -0.003252
    29  H   -0.000000   0.000000  -0.000001  -0.000029  -0.000246  -0.003177
    30  H   -0.000000   0.000000  -0.000000   0.000004  -0.000146   0.000705
    31  H   -0.000000  -0.000000  -0.000000   0.000002  -0.000224   0.000437
    32  H    0.000000  -0.000000   0.000000  -0.000000   0.000000  -0.000007
               7          8          9         10         11         12
     1  C   -0.000006   0.000000  -0.000000   0.000000  -0.000000  -0.000000
     2  C    0.000117  -0.000006   0.000000  -0.000000  -0.000000   0.000000
     3  C   -0.001094   0.000057  -0.000005  -0.000000  -0.000000  -0.000000
     4  C    0.013430  -0.000899   0.000092  -0.000005  -0.000000   0.000000
     5  C   -0.022498   0.007245  -0.000698  -0.000127  -0.000003  -0.000006
     6  C    0.177280  -0.026695   0.014666  -0.000870   0.000000   0.000088
     7  C    5.308985   0.175201  -0.012996  -0.007123  -0.001788  -0.003026
     8  C    0.175201   5.291398   0.225201  -0.051745  -0.013520  -0.006468
     9  C   -0.012996   0.225201   5.438215   0.151614  -0.106534  -0.127967
    10  C   -0.007123  -0.051745   0.151614   4.829818   0.606763   0.322651
    11  O   -0.001788  -0.013520  -0.106534   0.606763   7.974528  -0.111335
    12  O   -0.003026  -0.006468  -0.127967   0.322651  -0.111335   7.907076
    13  H    0.000000  -0.000000   0.000000  -0.000000  -0.000000  -0.000000
    14  H    0.000000  -0.000000  -0.000000  -0.000000   0.000000   0.000000
    15  H    0.000000  -0.000000  -0.000000   0.000000   0.000000   0.000000
    16  H   -0.000001  -0.000000  -0.000000  -0.000000  -0.000000   0.000000
    17  H   -0.000000  -0.000000  -0.000000   0.000000   0.000000  -0.000000
    18  H   -0.000045  -0.000001  -0.000000  -0.000000   0.000000   0.000000
    19  H   -0.000040   0.000001  -0.000000   0.000000   0.000000  -0.000000
    20  H   -0.000189  -0.000050  -0.000000  -0.000000   0.000000   0.000000
    21  H   -0.000245  -0.000006  -0.000000   0.000000   0.000000  -0.000000
    22  H   -0.004847  -0.000339  -0.000009  -0.000003   0.000000   0.000000
    23  H   -0.005759   0.000116  -0.000018   0.000005   0.000000   0.000000
    24  H   -0.043772  -0.005438  -0.000241  -0.000040   0.000003  -0.000030
    25  H   -0.041930  -0.006455  -0.000370  -0.000084  -0.000012   0.000006
    26  H    0.423508  -0.046641  -0.003879  -0.001036   0.000024  -0.000032
    27  H    0.413784  -0.038510  -0.006061   0.000516   0.000009   0.000133
    28  H   -0.053264   0.418699  -0.050876   0.009797   0.005529   0.000508
    29  H   -0.040305   0.417425  -0.043547  -0.005141   0.000383   0.006382
    30  H   -0.006037  -0.029923   0.413721  -0.048288   0.004636   0.004858
    31  H   -0.015830  -0.028712   0.358653  -0.002305   0.004905   0.005631
    32  H    0.000138   0.000258   0.013825  -0.016622   0.002173   0.283554
              13         14         15         16         17         18
     1  C    0.396743   0.407465   0.407515  -0.041169  -0.041159  -0.003188
     2  C   -0.040624  -0.042027  -0.042056   0.416941   0.416892  -0.043203
     3  C    0.013973  -0.007191  -0.007176  -0.046809  -0.046752   0.414179
     4  C   -0.000863  -0.000536  -0.000534  -0.007433  -0.007423  -0.044790
     5  C    0.000064  -0.000029  -0.000028  -0.000267  -0.000252  -0.005890
     6  C   -0.000002  -0.000002  -0.000002  -0.000061  -0.000059  -0.000228
     7  C    0.000000   0.000000   0.000000  -0.000001  -0.000000  -0.000045
     8  C   -0.000000  -0.000000  -0.000000  -0.000000  -0.000000  -0.000001
     9  C    0.000000  -0.000000  -0.000000  -0.000000  -0.000000  -0.000000
    10  C   -0.000000  -0.000000   0.000000  -0.000000   0.000000  -0.000000
    11  O   -0.000000   0.000000   0.000000  -0.000000   0.000000   0.000000
    12  O   -0.000000   0.000000   0.000000   0.000000  -0.000000   0.000000
    13  H    0.542368  -0.025304  -0.025309  -0.002625  -0.002623  -0.000166
    14  H   -0.025304   0.561408  -0.032426   0.008462  -0.007040   0.006193
    15  H   -0.025309  -0.032426   0.561288  -0.007035   0.008459  -0.000711
    16  H   -0.002625   0.008462  -0.007035   0.582984  -0.036697   0.009258
    17  H   -0.002623  -0.007040   0.008459  -0.036697   0.582834  -0.007838
    18  H   -0.000166   0.006193  -0.000711   0.009258  -0.007838   0.585894
    19  H   -0.000167  -0.000708   0.006198  -0.007836   0.009254  -0.038919
    20  H    0.000007   0.000005   0.000096   0.005807  -0.000308   0.008956
    21  H    0.000007   0.000096   0.000005  -0.000305   0.005809  -0.007398
    22  H   -0.000000  -0.000027   0.000019  -0.000044   0.000170   0.004872
    23  H   -0.000000   0.000019  -0.000027   0.000171  -0.000044   0.000027
    24  H    0.000000   0.000001  -0.000000   0.000030  -0.000044   0.000205
    25  H    0.000000  -0.000000   0.000001  -0.000045   0.000030  -0.000066
    26  H   -0.000000   0.000000  -0.000000   0.000001  -0.000000   0.000032
    27  H   -0.000000  -0.000000   0.000000  -0.000000   0.000001  -0.000050
    28  H    0.000000  -0.000000   0.000000  -0.000000   0.000000  -0.000000
    29  H    0.000000   0.000000  -0.000000   0.000000  -0.000000   0.000001
    30  H   -0.000000   0.000000   0.000000   0.000000  -0.000000   0.000000
    31  H   -0.000000   0.000000   0.000000  -0.000000   0.000000  -0.000000
    32  H   -0.000000  -0.000000  -0.000000  -0.000000   0.000000  -0.000000
              19         20         21         22         23         24
     1  C   -0.003223  -0.000211  -0.000217  -0.000005  -0.000007  -0.000001
     2  C   -0.043292  -0.004968  -0.005069  -0.000268  -0.000288  -0.000009
     3  C    0.414232  -0.044199  -0.044285  -0.004454  -0.004763  -0.000205
     4  C   -0.044823   0.417661   0.417633  -0.045608  -0.045400  -0.004393
     5  C   -0.005813  -0.045154  -0.045440   0.419772   0.417764  -0.043983
     6  C   -0.000197  -0.005207  -0.004705  -0.045621  -0.043549   0.418318
     7  C   -0.000040  -0.000189  -0.000245  -0.004847  -0.005759  -0.043772
     8  C    0.000001  -0.000050  -0.000006  -0.000339   0.000116  -0.005438
     9  C   -0.000000  -0.000000  -0.000000  -0.000009  -0.000018  -0.000241
    10  C    0.000000  -0.000000   0.000000  -0.000003   0.000005  -0.000040
    11  O    0.000000   0.000000   0.000000   0.000000   0.000000   0.000003
    12  O   -0.000000   0.000000  -0.000000   0.000000   0.000000  -0.000030
    13  H   -0.000167   0.000007   0.000007  -0.000000  -0.000000   0.000000
    14  H   -0.000708   0.000005   0.000096  -0.000027   0.000019   0.000001
    15  H    0.006198   0.000096   0.000005   0.000019  -0.000027  -0.000000
    16  H   -0.007836   0.005807  -0.000305  -0.000044   0.000171   0.000030
    17  H    0.009254  -0.000308   0.005809   0.000170  -0.000044  -0.000044
    18  H   -0.038919   0.008956  -0.007398   0.004872   0.000027   0.000205
    19  H    0.585751  -0.007396   0.008958   0.000022   0.004899  -0.000066
    20  H   -0.007396   0.582420  -0.037991   0.008673  -0.006920   0.000194
    21  H    0.008958  -0.037991   0.582270  -0.006907   0.008681   0.004435
    22  H    0.000022   0.008673  -0.006907   0.578365  -0.036890  -0.006574
    23  H    0.004899  -0.006920   0.008681  -0.036890   0.578576   0.008402
    24  H   -0.000066   0.000194   0.004435  -0.006574   0.008402   0.574732
    25  H    0.000205   0.004433   0.000180   0.008414  -0.006612  -0.036463
    26  H   -0.000051   0.000217  -0.000072   0.000237   0.004139   0.008212
    27  H    0.000033  -0.000076   0.000219   0.004067   0.000331  -0.006542
    28  H    0.000001  -0.000052   0.000034  -0.000081   0.000248   0.000626
    29  H   -0.000000   0.000033  -0.000051   0.000231  -0.000080   0.003085
    30  H   -0.000000   0.000001  -0.000000   0.000032  -0.000043  -0.000090
    31  H    0.000000  -0.000000   0.000001  -0.000043   0.000034   0.000202
    32  H   -0.000000  -0.000000   0.000000  -0.000000   0.000000   0.000000
              25         26         27         28         29         30
     1  C   -0.000001   0.000000   0.000000  -0.000000  -0.000000  -0.000000
     2  C   -0.000007  -0.000001  -0.000001   0.000000   0.000000   0.000000
     3  C   -0.000203  -0.000001  -0.000034  -0.000003  -0.000001  -0.000000
     4  C   -0.004287  -0.000301  -0.000159  -0.000024  -0.000029   0.000004
     5  C   -0.043361  -0.002982  -0.005330  -0.000876  -0.000246  -0.000146
     6  C    0.417117  -0.045268  -0.041454  -0.003252  -0.003177   0.000705
     7  C   -0.041930   0.423508   0.413784  -0.053264  -0.040305  -0.006037
     8  C   -0.006455  -0.046641  -0.038510   0.418699   0.417425  -0.029923
     9  C   -0.000370  -0.003879  -0.006061  -0.050876  -0.043547   0.413721
    10  C   -0.000084  -0.001036   0.000516   0.009797  -0.005141  -0.048288
    11  O   -0.000012   0.000024   0.000009   0.005529   0.000383   0.004636
    12  O    0.000006  -0.000032   0.000133   0.000508   0.006382   0.004858
    13  H    0.000000  -0.000000  -0.000000   0.000000   0.000000  -0.000000
    14  H   -0.000000   0.000000  -0.000000  -0.000000   0.000000   0.000000
    15  H    0.000001  -0.000000   0.000000   0.000000  -0.000000   0.000000
    16  H   -0.000045   0.000001  -0.000000  -0.000000   0.000000   0.000000
    17  H    0.000030  -0.000000   0.000001   0.000000  -0.000000  -0.000000
    18  H   -0.000066   0.000032  -0.000050  -0.000000   0.000001   0.000000
    19  H    0.000205  -0.000051   0.000033   0.000001  -0.000000  -0.000000
    20  H    0.004433   0.000217  -0.000076  -0.000052   0.000033   0.000001
    21  H    0.000180  -0.000072   0.000219   0.000034  -0.000051  -0.000000
    22  H    0.008414   0.000237   0.004067  -0.000081   0.000231   0.000032
    23  H   -0.006612   0.004139   0.000331   0.000248  -0.000080  -0.000043
    24  H   -0.036463   0.008212  -0.006542   0.000626   0.003085  -0.000090
    25  H    0.575337  -0.006631   0.008185   0.002891   0.000473   0.000191
    26  H   -0.006631   0.565503  -0.034935  -0.004374   0.006882   0.002724
    27  H    0.008185  -0.034935   0.566483   0.006926  -0.004819   0.000576
    28  H    0.002891  -0.004374   0.006926   0.546913  -0.025949  -0.003409
    29  H    0.000473   0.006882  -0.004819  -0.025949   0.537280   0.006311
    30  H    0.000191   0.002724   0.000576  -0.003409   0.006311   0.508628
    31  H   -0.000092   0.000536   0.003618   0.007424  -0.003894  -0.019065
    32  H    0.000000  -0.000000  -0.000002  -0.000125  -0.000412  -0.000669
              31         32
     1  C   -0.000000   0.000000
     2  C   -0.000000  -0.000000
     3  C   -0.000000   0.000000
     4  C    0.000002  -0.000000
     5  C   -0.000224   0.000000
     6  C    0.000437  -0.000007
     7  C   -0.015830   0.000138
     8  C   -0.028712   0.000258
     9  C    0.358653   0.013825
    10  C   -0.002305  -0.016622
    11  O    0.004905   0.002173
    12  O    0.005631   0.283554
    13  H   -0.000000  -0.000000
    14  H    0.000000  -0.000000
    15  H    0.000000  -0.000000
    16  H   -0.000000  -0.000000
    17  H    0.000000   0.000000
    18  H   -0.000000  -0.000000
    19  H    0.000000  -0.000000
    20  H   -0.000000  -0.000000
    21  H    0.000001   0.000000
    22  H   -0.000043  -0.000000
    23  H    0.000034   0.000000
    24  H    0.000202   0.000000
    25  H   -0.000092   0.000000
    26  H    0.000536  -0.000000
    27  H    0.003618  -0.000002
    28  H    0.007424  -0.000125
    29  H   -0.003894  -0.000412
    30  H   -0.019065  -0.000669
    31  H    0.525008  -0.000399
    32  H   -0.000399   0.388279
 Mulliken charges:
               1
     1  C   -0.418568
     2  C   -0.228041
     3  C   -0.260153
     4  C   -0.243862
     5  C   -0.255272
     6  C   -0.250681
     7  C   -0.251645
     8  C   -0.280191
     9  C   -0.262786
    10  C    0.212226
    11  O   -0.365760
    12  O   -0.282025
    13  H    0.144522
    14  H    0.131641
    15  H    0.131723
    16  H    0.126674
    17  H    0.126792
    18  H    0.122875
    19  H    0.122977
    20  H    0.124219
    21  H    0.124361
    22  H    0.126843
    23  H    0.126988
    24  H    0.129447
    25  H    0.129154
    26  H    0.134190
    27  H    0.133093
    28  H    0.142688
    29  H    0.149163
    30  H    0.165286
    31  H    0.164113
    32  H    0.330010
 Sum of Mulliken charges =  -0.00000
 Mulliken charges with hydrogens summed into heavy atoms:
               1
     1  C   -0.010681
     2  C    0.025424
     3  C   -0.014302
     4  C    0.004718
     5  C   -0.001441
     6  C    0.007920
     7  C    0.015637
     8  C    0.011661
     9  C    0.066613
    10  C    0.212226
    11  O   -0.365760
    12  O    0.047985
 Electronic spatial extent (au):  <R**2>=           6323.9472
 Charge=             -0.0000 electrons
 Dipole moment (field-independent basis, Debye):
    X=             -1.4713    Y=              1.0129    Z=             -1.7015  Tot=              2.4670
 Quadrupole moment (field-independent basis, Debye-Ang):
   XX=            -88.2246   YY=            -76.3568   ZZ=            -81.0452
   XY=              8.1748   XZ=            -10.1261   YZ=              1.5719
 Traceless Quadrupole moment (field-independent basis, Debye-Ang):
   XX=             -6.3491   YY=              5.5188   ZZ=              0.8303
   XY=              8.1748   XZ=            -10.1261   YZ=              1.5719
 Octapole moment (field-independent basis, Debye-Ang**2):
  XXX=             24.8398  YYY=              5.2267  ZZZ=             -3.6673  XYY=             26.9289
  XXY=             67.4664  XXZ=            -54.7792  XZZ=             -6.8162  YZZ=              1.0313
  YYZ=              0.6040  XYZ=             14.6842
 Hexadecapole moment (field-independent basis, Debye-Ang**3):
 XXXX=          -8115.5179 YYYY=           -254.5617 ZZZZ=           -235.0267 XXXY=            421.6612
 XXXZ=           -358.5044 YYYX=             39.5364 YYYZ=             -9.1710 ZZZX=            -13.5838
 ZZZY=             -0.2249 XXYY=          -1295.1821 XXZZ=          -1480.2796 YYZZ=            -89.8019
 XXYZ=             50.7545 YYXZ=             -1.0603 ZZXY=              6.3278
 N-N= 6.646054042128D+02 E-N=-2.594840929339D+03  KE= 5.410108722036D+02
 Unable to Open any file for archive entry.
 1\1\GINC-TCN1789\SP\RBP86\TZVP\C10H20O2\ELENAA\22-Feb-2021\0\\# BP86/T
 ZVP SCRF=COSMORS geom=CHECKPOINT guess=CHECKPOINT\\COSMO-file for #GHV
 NFZFCNZKVNT-UHFFFAOYSA-N\\0,1\C,0,2.1749515418,-2.4546509304,-7.659251
 8761\C,0,1.7899760689,-2.714577564,-6.1975182484\C,0,1.6476990398,-1.4
 261707058,-5.3756835662\C,0,1.2627481554,-1.6719774653,-3.9110897786\C
 ,0,1.1216841025,-0.382702992,-3.091418888\C,0,0.7370164754,-0.62998863
 57,-1.6267903347\C,0,0.5974241851,0.6614311481,-0.8103325372\C,0,0.213
 8494629,0.4049016209,0.6521479095\C,0,0.0806876587,1.7172856455,1.4587
 061918\C,0,-0.2598066734,1.4300418312,2.9001770917\O,0,0.5445437617,1.
 337818392,3.8163410736\O,0,-1.5978757535,1.2260918204,3.0768992949\H,0
 ,2.2712988081,-3.3926277181,-8.2276356331\H,0,1.4166152319,-1.83320812
 77,-8.1627189402\H,0,3.1373638098,-1.9215840606,-7.7251934414\H,0,2.54
 7887108,-3.3635434311,-5.7236969694\H,0,0.8391267836,-3.2753123387,-6.
 1580111181\H,0,0.8890679666,-0.7753401795,-5.8483790043\H,0,2.59893554
 55,-0.8638048286,-5.4137625724\H,0,2.0214432735,-2.3228230956,-3.43893
 2524\H,0,0.3113904702,-2.2338122905,-3.8734196245\H,0,0.3627262854,0.2
 681379817,-3.5628806873\H,0,2.0729263576,0.1791223797,-3.1286401378\H,
 0,-0.2146405091,-1.1907094023,-1.5888503326\H,0,1.496002735,-1.2800964
 484,-1.154773636\H,0,1.548398779,1.2226068598,-0.8457746218\H,0,-0.163
 5574078,1.3113442924,-1.2784317728\H,0,0.9751605797,-0.2364110159,1.12
 78067947\H,0,-0.7403472321,-0.1460522483,0.6948855067\H,0,1.0317173451
 ,2.2676567083,1.4415462577\H,0,-0.7016156502,2.3490712379,1.0117210572
 \H,0,-1.738638305,0.9928435607,4.0199850671\\Version=ES64L-G16RevC.01\
 State=1-A\HF=-543.7829808\RMSD=4.133e-09\Dipole=-0.6152595,-0.1048832,
 -0.7432852\Quadrupole=4.9334551,2.7812722,-7.7147273,-1.3313727,-7.509
 138,-3.2828692\PG=C01 [X(C10H20O2)]\\@
 The archive entry for this job was punched.


 REPARTEE - WHAT YOU THINK OF AFTER YOU BECOME A DEPARTEE.
 Job cpu time:       0 days  0 hours  9 minutes 39.1 seconds.
 Elapsed time:       0 days  0 hours  0 minutes 18.9 seconds.
 File lengths (MBytes):  RWF=    104 Int=      0 D2E=      0 Chk=     15 Scr=      1
 Normal termination of Gaussian 16 at Mon Feb 22 21:12:08 2021.
