 Entering Gaussian System, Link 0=g16
 Input=GKCBAIGFKIBETG-UHFFFAOYSA-N.gjf
 Output=GKCBAIGFKIBETG-UHFFFAOYSA-N.log
 Initial command:
 /sw/arch/RedHatEnterpriseServer7/EB_production/2019/software/Gaussian/g16.c01/l1.exe "/scratch-local/elenaa.9715212/Gau-23739.inp" -scrdir="/scratch-local/elenaa.9715212/"
 Entering Link 1 = /sw/arch/RedHatEnterpriseServer7/EB_production/2019/software/Gaussian/g16.c01/l1.exe PID=     23740.
  
 Copyright (c) 1988-2019, Gaussian, Inc.  All Rights Reserved.
  
 This is part of the Gaussian(R) 16 program.  It is based on
 the Gaussian(R) 09 system (copyright 2009, Gaussian, Inc.),
 the Gaussian(R) 03 system (copyright 2003, Gaussian, Inc.),
 the Gaussian(R) 98 system (copyright 1998, Gaussian, Inc.),
 the Gaussian(R) 94 system (copyright 1995, Gaussian, Inc.),
 the Gaussian 92(TM) system (copyright 1992, Gaussian, Inc.),
 the Gaussian 90(TM) system (copyright 1990, Gaussian, Inc.),
 the Gaussian 88(TM) system (copyright 1988, Gaussian, Inc.),
 the Gaussian 86(TM) system (copyright 1986, Carnegie Mellon
 University), and the Gaussian 82(TM) system (copyright 1983,
 Carnegie Mellon University). Gaussian is a federally registered
 trademark of Gaussian, Inc.
  
 This software contains proprietary and confidential information,
 including trade secrets, belonging to Gaussian, Inc.
  
 This software is provided under written license and may be
 used, copied, transmitted, or stored only in accord with that
 written license.
  
 The following legend is applicable only to US Government
 contracts under FAR:
  
                    RESTRICTED RIGHTS LEGEND
  
 Use, reproduction and disclosure by the US Government is
 subject to restrictions as set forth in subparagraphs (a)
 and (c) of the Commercial Computer Software - Restricted
 Rights clause in FAR 52.227-19.
  
 Gaussian, Inc.
 340 Quinnipiac St., Bldg. 40, Wallingford CT 06492
  
  
 ---------------------------------------------------------------
 Warning -- This program may not be used in any manner that
 competes with the business of Gaussian, Inc. or will provide
 assistance to any competitor of Gaussian, Inc.  The licensee
 of this program is prohibited from giving any competitor of
 Gaussian, Inc. access to this program.  By using this program,
 the user acknowledges that Gaussian, Inc. is engaged in the
 business of creating and licensing software in the field of
 computational chemistry and represents and warrants to the
 licensee that it is not a competitor of Gaussian, Inc. and that
 it will not use this program in any manner prohibited above.
 ---------------------------------------------------------------
  

 Cite this work as:
 Gaussian 16, Revision C.01,
 M. J. Frisch, G. W. Trucks, H. B. Schlegel, G. E. Scuseria, 
 M. A. Robb, J. R. Cheeseman, G. Scalmani, V. Barone, 
 G. A. Petersson, H. Nakatsuji, X. Li, M. Caricato, A. V. Marenich, 
 J. Bloino, B. G. Janesko, R. Gomperts, B. Mennucci, H. P. Hratchian, 
 J. V. Ortiz, A. F. Izmaylov, J. L. Sonnenberg, D. Williams-Young, 
 F. Ding, F. Lipparini, F. Egidi, J. Goings, B. Peng, A. Petrone, 
 T. Henderson, D. Ranasinghe, V. G. Zakrzewski, J. Gao, N. Rega, 
 G. Zheng, W. Liang, M. Hada, M. Ehara, K. Toyota, R. Fukuda, 
 J. Hasegawa, M. Ishida, T. Nakajima, Y. Honda, O. Kitao, H. Nakai, 
 T. Vreven, K. Throssell, J. A. Montgomery, Jr., J. E. Peralta, 
 F. Ogliaro, M. J. Bearpark, J. J. Heyd, E. N. Brothers, K. N. Kudin, 
 V. N. Staroverov, T. A. Keith, R. Kobayashi, J. Normand, 
 K. Raghavachari, A. P. Rendell, J. C. Burant, S. S. Iyengar, 
 J. Tomasi, M. Cossi, J. M. Millam, M. Klene, C. Adamo, R. Cammi, 
 J. W. Ochterski, R. L. Martin, K. Morokuma, O. Farkas, 
 J. B. Foresman, and D. J. Fox, Gaussian, Inc., Wallingford CT, 2019.
 
 ******************************************
 Gaussian 16:  ES64L-G16RevC.01  3-Jul-2019
                22-Feb-2021 
 ******************************************
 %chk=GKCBAIGFKIBETG-UHFFFAOYSA-N.chk
 %NProcShared=32
 Will use up to   32 processors via shared memory.
 -------------------------------------------------------------
 #P BP86/TZVP EmpiricalDispersion=GD3 SCRF=(Solvent=Water) Opt
 -------------------------------------------------------------
 1/18=20,19=15,26=3,38=1/1,3;
 2/9=110,12=2,17=6,18=5,40=1/2;
 3/5=19,7=101,11=2,25=1,30=1,70=2201,71=1,72=1,74=404,124=31/1,2,3;
 4//1;
 5/5=2,38=5,53=1/2;
 6/7=2,8=2,9=2,10=2,28=1/1;
 7//1,2,3,16;
 1/18=20,19=15,26=3/3(2);
 2/9=110/2;
 99//99;
 2/9=110/2;
 3/5=19,7=101,11=2,25=1,30=1,70=2205,71=1,72=1,74=404,124=31/1,2,3;
 4/5=5,16=3,69=1/1;
 5/5=2,38=5,53=1/2;
 7//1,2,3,16;
 1/18=20,19=15,26=3/3(-5);
 2/9=110/2;
 6/7=2,8=2,9=2,10=2,19=2,28=1/1;
 99/9=1/99;
 Leave Link    1 at Mon Feb 22 21:04:48 2021, MaxMem=           0 cpu:               1.7 elap:               0.1
 (Enter /sw/arch/RedHatEnterpriseServer7/EB_production/2019/software/Gaussian/g16.c01/l101.exe)
 -------------------------------------
 Particle #GKCBAIGFKIBETG-UHFFFAOYSA-N
 -------------------------------------
 Symbolic Z-matrix:
 Charge =  0 Multiplicity = 1
 C                    -10.80886   5.56225  -4.26082 
 C                    -9.30156   5.29026  -4.05241 
 C                    -9.05082   4.21847  -2.95787 
 C                    -7.54755   4.02017  -2.64093 
 N                    -7.35499   2.82271  -1.88424 
 C                    -6.16764   2.33019  -1.43136 
 C                    -6.14959   0.98952  -0.99395 
 C                    -4.95168   0.38429  -0.57648 
 C                    -3.73842   1.11404  -0.55263 
 C                    -2.51464   0.50532  -0.16678 
 O                    -2.45534  -0.71493   0.11343 
 O                    -1.37281   1.25581  -0.13699 
 C                    -0.03925   0.83148   0.15742 
 C                     0.90607   2.04452  -0.01363 
 N                     2.32613   1.7518    0.36895 
 C                     3.07196   2.96639   0.81721 
 C                     3.08911   0.98278  -0.65999 
 C                    -3.77371   2.47485  -0.94355 
 C                    -4.9655    3.07401  -1.3876 
 H                    -11.34304   4.62979  -4.45946 
 H                    -11.22912   6.02919  -3.36752 
 H                    -10.95306   6.23545  -5.10792 
 H                    -8.80961   6.22521  -3.76626 
 H                    -8.86743   4.95016  -4.99959 
 H                    -9.48243   3.26968  -3.29611 
 H                    -9.5602    4.51377  -2.03412 
 H                    -7.18723   4.88647  -2.07808 
 H                    -6.98029   3.94331  -3.57304 
 H                    -8.14458   2.28345  -1.71288 
 H                    -7.01057   0.43502  -0.99055 
 H                    -4.97792  -0.59953  -0.2957 
 H                     0.2368    0.03258  -0.53249 
 H                     0.00835   0.45519   1.18255 
 H                     0.50223   2.84048   0.61905 
 H                     0.85254   2.39983  -1.04721 
 H                     2.5711    3.42159   1.67443 
 H                     4.08368   2.70736   1.13814 
 H                     3.13788   3.70828   0.01687 
 H                     2.58658   0.04518  -0.89935 
 H                     4.0826    0.72699  -0.28464 
 H                     3.20446   1.56061  -1.58099 
 H                    -2.92758   3.04974  -0.91796 
 H                    -4.94495   4.05352  -1.67785 
 
 ITRead=  0  0  0  0  0  0  0  0  0  0  0  0  0  0  0  0  0  0  0  0
 ITRead=  0  0  0  0  0  0  0  0  0  0  0  0  0  0  0  0  0  0  0  0
 ITRead=  0  0  0
 MicOpt= -1 -1 -1 -1 -1 -1 -1 -1 -1 -1 -1 -1 -1 -1 -1 -1 -1 -1 -1 -1
 MicOpt= -1 -1 -1 -1 -1 -1 -1 -1 -1 -1 -1 -1 -1 -1 -1 -1 -1 -1 -1 -1
 MicOpt= -1 -1 -1
 NAtoms=     43 NQM=       43 NQMF=       0 NMMI=      0 NMMIF=      0
                NMic=       0 NMicF=      0.
                    Isotopes and Nuclear Properties:
 (Nuclear quadrupole moments (NQMom) in fm**2, nuclear magnetic moments (NMagM)
  in nuclear magnetons)

  Atom         1           2           3           4           5           6           7           8           9          10
 IAtWgt=          12          12          12          12          14          12          12          12          12          12
 AtmWgt=  12.0000000  12.0000000  12.0000000  12.0000000  14.0030740  12.0000000  12.0000000  12.0000000  12.0000000  12.0000000
 NucSpn=           0           0           0           0           2           0           0           0           0           0
 AtZEff=  -0.0000000  -0.0000000  -0.0000000  -0.0000000  -0.0000000  -0.0000000  -0.0000000  -0.0000000  -0.0000000  -0.0000000
 NQMom=    0.0000000   0.0000000   0.0000000   0.0000000   2.0440000   0.0000000   0.0000000   0.0000000   0.0000000   0.0000000
 NMagM=    0.0000000   0.0000000   0.0000000   0.0000000   0.4037610   0.0000000   0.0000000   0.0000000   0.0000000   0.0000000
 AtZNuc=   6.0000000   6.0000000   6.0000000   6.0000000   7.0000000   6.0000000   6.0000000   6.0000000   6.0000000   6.0000000

  Atom        11          12          13          14          15          16          17          18          19          20
 IAtWgt=          16          16          12          12          14          12          12          12          12           1
 AtmWgt=  15.9949146  15.9949146  12.0000000  12.0000000  14.0030740  12.0000000  12.0000000  12.0000000  12.0000000   1.0078250
 NucSpn=           0           0           0           0           2           0           0           0           0           1
 AtZEff=  -0.0000000  -0.0000000  -0.0000000  -0.0000000  -0.0000000  -0.0000000  -0.0000000  -0.0000000  -0.0000000  -0.0000000
 NQMom=    0.0000000   0.0000000   0.0000000   0.0000000   2.0440000   0.0000000   0.0000000   0.0000000   0.0000000   0.0000000
 NMagM=    0.0000000   0.0000000   0.0000000   0.0000000   0.4037610   0.0000000   0.0000000   0.0000000   0.0000000   2.7928460
 AtZNuc=   8.0000000   8.0000000   6.0000000   6.0000000   7.0000000   6.0000000   6.0000000   6.0000000   6.0000000   1.0000000

  Atom        21          22          23          24          25          26          27          28          29          30
 IAtWgt=           1           1           1           1           1           1           1           1           1           1
 AtmWgt=   1.0078250   1.0078250   1.0078250   1.0078250   1.0078250   1.0078250   1.0078250   1.0078250   1.0078250   1.0078250
 NucSpn=           1           1           1           1           1           1           1           1           1           1
 AtZEff=  -0.0000000  -0.0000000  -0.0000000  -0.0000000  -0.0000000  -0.0000000  -0.0000000  -0.0000000  -0.0000000  -0.0000000
 NQMom=    0.0000000   0.0000000   0.0000000   0.0000000   0.0000000   0.0000000   0.0000000   0.0000000   0.0000000   0.0000000
 NMagM=    2.7928460   2.7928460   2.7928460   2.7928460   2.7928460   2.7928460   2.7928460   2.7928460   2.7928460   2.7928460
 AtZNuc=   1.0000000   1.0000000   1.0000000   1.0000000   1.0000000   1.0000000   1.0000000   1.0000000   1.0000000   1.0000000

  Atom        31          32          33          34          35          36          37          38          39          40
 IAtWgt=           1           1           1           1           1           1           1           1           1           1
 AtmWgt=   1.0078250   1.0078250   1.0078250   1.0078250   1.0078250   1.0078250   1.0078250   1.0078250   1.0078250   1.0078250
 NucSpn=           1           1           1           1           1           1           1           1           1           1
 AtZEff=  -0.0000000  -0.0000000  -0.0000000  -0.0000000  -0.0000000  -0.0000000  -0.0000000  -0.0000000  -0.0000000  -0.0000000
 NQMom=    0.0000000   0.0000000   0.0000000   0.0000000   0.0000000   0.0000000   0.0000000   0.0000000   0.0000000   0.0000000
 NMagM=    2.7928460   2.7928460   2.7928460   2.7928460   2.7928460   2.7928460   2.7928460   2.7928460   2.7928460   2.7928460
 AtZNuc=   1.0000000   1.0000000   1.0000000   1.0000000   1.0000000   1.0000000   1.0000000   1.0000000   1.0000000   1.0000000

  Atom        41          42          43
 IAtWgt=           1           1           1
 AtmWgt=   1.0078250   1.0078250   1.0078250
 NucSpn=           1           1           1
 AtZEff=  -0.0000000  -0.0000000  -0.0000000
 NQMom=    0.0000000   0.0000000   0.0000000
 NMagM=    2.7928460   2.7928460   2.7928460
 AtZNuc=   1.0000000   1.0000000   1.0000000
 Leave Link  101 at Mon Feb 22 21:04:48 2021, MaxMem=   104857600 cpu:               2.7 elap:               0.2
 (Enter /sw/arch/RedHatEnterpriseServer7/EB_production/2019/software/Gaussian/g16.c01/l103.exe)

 GradGradGradGradGradGradGradGradGradGradGradGradGradGradGradGradGradGrad
 Berny optimization.
 Initialization pass.
                           ----------------------------
                           !    Initial Parameters    !
                           ! (Angstroms and Degrees)  !
 --------------------------                            --------------------------
 ! Name  Definition              Value          Derivative Info.                !
 --------------------------------------------------------------------------------
 ! R1    R(1,2)                  1.5458         estimate D2E/DX2                !
 ! R2    R(1,20)                 1.0928         estimate D2E/DX2                !
 ! R3    R(1,21)                 1.0921         estimate D2E/DX2                !
 ! R4    R(1,22)                 1.0916         estimate D2E/DX2                !
 ! R5    R(2,3)                  1.5523         estimate D2E/DX2                !
 ! R6    R(2,23)                 1.0945         estimate D2E/DX2                !
 ! R7    R(2,24)                 1.096          estimate D2E/DX2                !
 ! R8    R(3,4)                  1.5491         estimate D2E/DX2                !
 ! R9    R(3,25)                 1.0959         estimate D2E/DX2                !
 ! R10   R(3,26)                 1.0954         estimate D2E/DX2                !
 ! R11   R(4,5)                  1.4295         estimate D2E/DX2                !
 ! R12   R(4,27)                 1.0941         estimate D2E/DX2                !
 ! R13   R(4,28)                 1.0939         estimate D2E/DX2                !
 ! R14   R(5,6)                  1.3629         estimate D2E/DX2                !
 ! R15   R(5,29)                 0.9714         estimate D2E/DX2                !
 ! R16   R(6,7)                  1.4103         estimate D2E/DX2                !
 ! R17   R(6,19)                 1.4143         estimate D2E/DX2                !
 ! R18   R(7,8)                  1.4056         estimate D2E/DX2                !
 ! R19   R(7,30)                 1.0241         estimate D2E/DX2                !
 ! R20   R(8,9)                  1.416          estimate D2E/DX2                !
 ! R21   R(8,31)                 1.0234         estimate D2E/DX2                !
 ! R22   R(9,10)                 1.4202         estimate D2E/DX2                !
 ! R23   R(9,18)                 1.4163         estimate D2E/DX2                !
 ! R24   R(10,11)                1.2534         estimate D2E/DX2                !
 ! R25   R(10,12)                1.3667         estimate D2E/DX2                !
 ! R26   R(12,13)                1.4301         estimate D2E/DX2                !
 ! R27   R(13,14)                1.5474         estimate D2E/DX2                !
 ! R28   R(13,32)                1.0911         estimate D2E/DX2                !
 ! R29   R(13,33)                1.093          estimate D2E/DX2                !
 ! R30   R(14,15)                1.4995         estimate D2E/DX2                !
 ! R31   R(14,34)                1.094          estimate D2E/DX2                !
 ! R32   R(14,35)                1.0943         estimate D2E/DX2                !
 ! R33   R(15,16)                1.4941         estimate D2E/DX2                !
 ! R34   R(15,17)                1.4941         estimate D2E/DX2                !
 ! R35   R(16,36)                1.0922         estimate D2E/DX2                !
 ! R36   R(16,37)                1.0926         estimate D2E/DX2                !
 ! R37   R(16,38)                1.0933         estimate D2E/DX2                !
 ! R38   R(17,39)                1.0904         estimate D2E/DX2                !
 ! R39   R(17,40)                1.0924         estimate D2E/DX2                !
 ! R40   R(17,41)                1.0934         estimate D2E/DX2                !
 ! R41   R(18,19)                1.4059         estimate D2E/DX2                !
 ! R42   R(18,42)                1.0233         estimate D2E/DX2                !
 ! R43   R(19,43)                1.0218         estimate D2E/DX2                !
 ! A1    A(2,1,20)             110.5492         estimate D2E/DX2                !
 ! A2    A(2,1,21)             109.8891         estimate D2E/DX2                !
 ! A3    A(2,1,22)             109.9963         estimate D2E/DX2                !
 ! A4    A(20,1,21)            108.9899         estimate D2E/DX2                !
 ! A5    A(20,1,22)            108.6983         estimate D2E/DX2                !
 ! A6    A(21,1,22)            108.6779         estimate D2E/DX2                !
 ! A7    A(1,2,3)              111.9668         estimate D2E/DX2                !
 ! A8    A(1,2,23)             108.8578         estimate D2E/DX2                !
 ! A9    A(1,2,24)             108.9245         estimate D2E/DX2                !
 ! A10   A(3,2,23)             109.4413         estimate D2E/DX2                !
 ! A11   A(3,2,24)             109.3368         estimate D2E/DX2                !
 ! A12   A(23,2,24)            108.2376         estimate D2E/DX2                !
 ! A13   A(2,3,4)              112.9176         estimate D2E/DX2                !
 ! A14   A(2,3,25)             108.4539         estimate D2E/DX2                !
 ! A15   A(2,3,26)             109.4728         estimate D2E/DX2                !
 ! A16   A(4,3,25)             109.5441         estimate D2E/DX2                !
 ! A17   A(4,3,26)             108.254          estimate D2E/DX2                !
 ! A18   A(25,3,26)            108.0912         estimate D2E/DX2                !
 ! A19   A(3,4,5)              110.2582         estimate D2E/DX2                !
 ! A20   A(3,4,27)             108.8737         estimate D2E/DX2                !
 ! A21   A(3,4,28)             109.7493         estimate D2E/DX2                !
 ! A22   A(5,4,27)             110.278          estimate D2E/DX2                !
 ! A23   A(5,4,28)             108.8047         estimate D2E/DX2                !
 ! A24   A(27,4,28)            108.8574         estimate D2E/DX2                !
 ! A25   A(4,5,6)              126.5807         estimate D2E/DX2                !
 ! A26   A(4,5,29)             116.6731         estimate D2E/DX2                !
 ! A27   A(6,5,29)             116.6738         estimate D2E/DX2                !
 ! A28   A(5,6,7)              117.2412         estimate D2E/DX2                !
 ! A29   A(5,6,19)             124.1057         estimate D2E/DX2                !
 ! A30   A(7,6,19)             118.6504         estimate D2E/DX2                !
 ! A31   A(6,7,8)              120.8208         estimate D2E/DX2                !
 ! A32   A(6,7,30)             120.3299         estimate D2E/DX2                !
 ! A33   A(8,7,30)             118.8415         estimate D2E/DX2                !
 ! A34   A(7,8,9)              120.8857         estimate D2E/DX2                !
 ! A35   A(7,8,31)             118.266          estimate D2E/DX2                !
 ! A36   A(9,8,31)             120.8472         estimate D2E/DX2                !
 ! A37   A(8,9,10)             121.4656         estimate D2E/DX2                !
 ! A38   A(8,9,18)             117.9804         estimate D2E/DX2                !
 ! A39   A(10,9,18)            120.5491         estimate D2E/DX2                !
 ! A40   A(9,10,11)            121.2497         estimate D2E/DX2                !
 ! A41   A(9,10,12)            119.3708         estimate D2E/DX2                !
 ! A42   A(11,10,12)           119.3533         estimate D2E/DX2                !
 ! A43   A(10,12,13)           128.3619         estimate D2E/DX2                !
 ! A44   A(12,13,14)           108.32           estimate D2E/DX2                !
 ! A45   A(12,13,32)           108.8457         estimate D2E/DX2                !
 ! A46   A(12,13,33)           109.6233         estimate D2E/DX2                !
 ! A47   A(14,13,32)           110.4596         estimate D2E/DX2                !
 ! A48   A(14,13,33)           110.3006         estimate D2E/DX2                !
 ! A49   A(32,13,33)           109.2656         estimate D2E/DX2                !
 ! A50   A(13,14,15)           113.4099         estimate D2E/DX2                !
 ! A51   A(13,14,34)           106.3147         estimate D2E/DX2                !
 ! A52   A(13,14,35)           109.2126         estimate D2E/DX2                !
 ! A53   A(15,14,34)           110.1233         estimate D2E/DX2                !
 ! A54   A(15,14,35)           110.5298         estimate D2E/DX2                !
 ! A55   A(34,14,35)           106.9739         estimate D2E/DX2                !
 ! A56   A(14,15,16)           112.9902         estimate D2E/DX2                !
 ! A57   A(14,15,17)           114.1028         estimate D2E/DX2                !
 ! A58   A(16,15,17)           111.7228         estimate D2E/DX2                !
 ! A59   A(15,16,36)           110.2036         estimate D2E/DX2                !
 ! A60   A(15,16,37)           110.9553         estimate D2E/DX2                !
 ! A61   A(15,16,38)           111.2291         estimate D2E/DX2                !
 ! A62   A(36,16,37)           107.0327         estimate D2E/DX2                !
 ! A63   A(36,16,38)           108.6258         estimate D2E/DX2                !
 ! A64   A(37,16,38)           108.6679         estimate D2E/DX2                !
 ! A65   A(15,17,39)           111.0031         estimate D2E/DX2                !
 ! A66   A(15,17,40)           110.3848         estimate D2E/DX2                !
 ! A67   A(15,17,41)           111.2213         estimate D2E/DX2                !
 ! A68   A(39,17,40)           107.0514         estimate D2E/DX2                !
 ! A69   A(39,17,41)           108.5511         estimate D2E/DX2                !
 ! A70   A(40,17,41)           108.4958         estimate D2E/DX2                !
 ! A71   A(9,18,19)            121.1839         estimate D2E/DX2                !
 ! A72   A(9,18,42)            120.8173         estimate D2E/DX2                !
 ! A73   A(19,18,42)           117.997          estimate D2E/DX2                !
 ! A74   A(6,19,18)            120.409          estimate D2E/DX2                !
 ! A75   A(6,19,43)            120.8271         estimate D2E/DX2                !
 ! A76   A(18,19,43)           118.7639         estimate D2E/DX2                !
 ! D1    D(20,1,2,3)           -53.7644         estimate D2E/DX2                !
 ! D2    D(20,1,2,23)         -174.897          estimate D2E/DX2                !
 ! D3    D(20,1,2,24)           67.2821         estimate D2E/DX2                !
 ! D4    D(21,1,2,3)            66.5784         estimate D2E/DX2                !
 ! D5    D(21,1,2,23)          -54.5541         estimate D2E/DX2                !
 ! D6    D(21,1,2,24)         -172.375          estimate D2E/DX2                !
 ! D7    D(22,1,2,3)          -173.8138         estimate D2E/DX2                !
 ! D8    D(22,1,2,23)           65.0537         estimate D2E/DX2                !
 ! D9    D(22,1,2,24)          -52.7672         estimate D2E/DX2                !
 ! D10   D(1,2,3,4)           -174.8436         estimate D2E/DX2                !
 ! D11   D(1,2,3,25)            63.5574         estimate D2E/DX2                !
 ! D12   D(1,2,3,26)           -54.1668         estimate D2E/DX2                !
 ! D13   D(23,2,3,4)           -54.0488         estimate D2E/DX2                !
 ! D14   D(23,2,3,25)         -175.6477         estimate D2E/DX2                !
 ! D15   D(23,2,3,26)           66.628          estimate D2E/DX2                !
 ! D16   D(24,2,3,4)            64.3486         estimate D2E/DX2                !
 ! D17   D(24,2,3,25)          -57.2504         estimate D2E/DX2                !
 ! D18   D(24,2,3,26)         -174.9747         estimate D2E/DX2                !
 ! D19   D(2,3,4,5)           -166.0274         estimate D2E/DX2                !
 ! D20   D(2,3,4,27)            72.8685         estimate D2E/DX2                !
 ! D21   D(2,3,4,28)           -46.1874         estimate D2E/DX2                !
 ! D22   D(25,3,4,5)           -45.0461         estimate D2E/DX2                !
 ! D23   D(25,3,4,27)         -166.1501         estimate D2E/DX2                !
 ! D24   D(25,3,4,28)           74.7939         estimate D2E/DX2                !
 ! D25   D(26,3,4,5)            72.6033         estimate D2E/DX2                !
 ! D26   D(26,3,4,27)          -48.5007         estimate D2E/DX2                !
 ! D27   D(26,3,4,28)         -167.5566         estimate D2E/DX2                !
 ! D28   D(3,4,5,6)            179.8813         estimate D2E/DX2                !
 ! D29   D(3,4,5,29)             3.0959         estimate D2E/DX2                !
 ! D30   D(27,4,5,6)           -59.8563         estimate D2E/DX2                !
 ! D31   D(27,4,5,29)          123.3583         estimate D2E/DX2                !
 ! D32   D(28,4,5,6)            59.4719         estimate D2E/DX2                !
 ! D33   D(28,4,5,29)         -117.3134         estimate D2E/DX2                !
 ! D34   D(4,5,6,7)           -164.9242         estimate D2E/DX2                !
 ! D35   D(4,5,6,19)            14.4627         estimate D2E/DX2                !
 ! D36   D(29,5,6,7)            11.8611         estimate D2E/DX2                !
 ! D37   D(29,5,6,19)         -168.7519         estimate D2E/DX2                !
 ! D38   D(5,6,7,8)            176.7261         estimate D2E/DX2                !
 ! D39   D(5,6,7,30)            -2.2461         estimate D2E/DX2                !
 ! D40   D(19,6,7,8)            -2.6954         estimate D2E/DX2                !
 ! D41   D(19,6,7,30)          178.3324         estimate D2E/DX2                !
 ! D42   D(5,6,19,18)         -178.0119         estimate D2E/DX2                !
 ! D43   D(5,6,19,43)            1.9158         estimate D2E/DX2                !
 ! D44   D(7,6,19,18)            1.3669         estimate D2E/DX2                !
 ! D45   D(7,6,19,43)         -178.7053         estimate D2E/DX2                !
 ! D46   D(6,7,8,9)              1.5805         estimate D2E/DX2                !
 ! D47   D(6,7,8,31)          -178.0401         estimate D2E/DX2                !
 ! D48   D(30,7,8,9)          -179.4323         estimate D2E/DX2                !
 ! D49   D(30,7,8,31)            0.9471         estimate D2E/DX2                !
 ! D50   D(7,8,9,10)          -178.3166         estimate D2E/DX2                !
 ! D51   D(7,8,9,18)             0.881          estimate D2E/DX2                !
 ! D52   D(31,8,9,10)            1.2941         estimate D2E/DX2                !
 ! D53   D(31,8,9,18)         -179.5083         estimate D2E/DX2                !
 ! D54   D(8,9,10,11)            2.9937         estimate D2E/DX2                !
 ! D55   D(8,9,10,12)         -178.8797         estimate D2E/DX2                !
 ! D56   D(18,9,10,11)        -176.1834         estimate D2E/DX2                !
 ! D57   D(18,9,10,12)           1.9431         estimate D2E/DX2                !
 ! D58   D(8,9,18,19)           -2.2124         estimate D2E/DX2                !
 ! D59   D(8,9,18,42)          178.2972         estimate D2E/DX2                !
 ! D60   D(10,9,18,19)         176.9929         estimate D2E/DX2                !
 ! D61   D(10,9,18,42)          -2.4975         estimate D2E/DX2                !
 ! D62   D(9,10,12,13)        -176.7721         estimate D2E/DX2                !
 ! D63   D(11,10,12,13)          1.3903         estimate D2E/DX2                !
 ! D64   D(10,12,13,14)        177.0644         estimate D2E/DX2                !
 ! D65   D(10,12,13,32)         56.9268         estimate D2E/DX2                !
 ! D66   D(10,12,13,33)        -62.5341         estimate D2E/DX2                !
 ! D67   D(12,13,14,15)        175.6347         estimate D2E/DX2                !
 ! D68   D(12,13,14,34)         54.4798         estimate D2E/DX2                !
 ! D69   D(12,13,14,35)        -60.6156         estimate D2E/DX2                !
 ! D70   D(32,13,14,15)        -65.241          estimate D2E/DX2                !
 ! D71   D(32,13,14,34)        173.6041         estimate D2E/DX2                !
 ! D72   D(32,13,14,35)         58.5086         estimate D2E/DX2                !
 ! D73   D(33,13,14,15)         55.656          estimate D2E/DX2                !
 ! D74   D(33,13,14,34)        -65.4989         estimate D2E/DX2                !
 ! D75   D(33,13,14,35)        179.4056         estimate D2E/DX2                !
 ! D76   D(13,14,15,16)       -153.1742         estimate D2E/DX2                !
 ! D77   D(13,14,15,17)         77.7563         estimate D2E/DX2                !
 ! D78   D(34,14,15,16)        -34.1848         estimate D2E/DX2                !
 ! D79   D(34,14,15,17)       -163.2543         estimate D2E/DX2                !
 ! D80   D(35,14,15,16)         83.7985         estimate D2E/DX2                !
 ! D81   D(35,14,15,17)        -45.271          estimate D2E/DX2                !
 ! D82   D(14,15,16,36)         58.5876         estimate D2E/DX2                !
 ! D83   D(14,15,16,37)        176.9573         estimate D2E/DX2                !
 ! D84   D(14,15,16,38)        -61.9467         estimate D2E/DX2                !
 ! D85   D(17,15,16,36)       -171.13           estimate D2E/DX2                !
 ! D86   D(17,15,16,37)        -52.7603         estimate D2E/DX2                !
 ! D87   D(17,15,16,38)         68.3357         estimate D2E/DX2                !
 ! D88   D(14,15,17,39)        -56.4494         estimate D2E/DX2                !
 ! D89   D(14,15,17,40)       -174.9878         estimate D2E/DX2                !
 ! D90   D(14,15,17,41)         64.5254         estimate D2E/DX2                !
 ! D91   D(16,15,17,39)        173.8461         estimate D2E/DX2                !
 ! D92   D(16,15,17,40)         55.3078         estimate D2E/DX2                !
 ! D93   D(16,15,17,41)        -65.179          estimate D2E/DX2                !
 ! D94   D(9,18,19,6)            1.1007         estimate D2E/DX2                !
 ! D95   D(9,18,19,43)        -178.8285         estimate D2E/DX2                !
 ! D96   D(42,18,19,6)        -179.395          estimate D2E/DX2                !
 ! D97   D(42,18,19,43)          0.6758         estimate D2E/DX2                !
 --------------------------------------------------------------------------------
 Trust Radius=3.00D-01 FncErr=1.00D-07 GrdErr=1.00D-06 EigMax=2.50D+02 EigMin=1.00D-04
 Number of steps in this run=    226 maximum allowed number of steps=    258.
 GradGradGradGradGradGradGradGradGradGradGradGradGradGradGradGradGradGrad

 Leave Link  103 at Mon Feb 22 21:04:49 2021, MaxMem=   104857600 cpu:               0.7 elap:               0.1
 (Enter /sw/arch/RedHatEnterpriseServer7/EB_production/2019/software/Gaussian/g16.c01/l202.exe)
                          Input orientation:                          
 ---------------------------------------------------------------------
 Center     Atomic      Atomic             Coordinates (Angstroms)
 Number     Number       Type             X           Y           Z
 ---------------------------------------------------------------------
      1          6           0      -10.808860    5.562250   -4.260820
      2          6           0       -9.301560    5.290260   -4.052410
      3          6           0       -9.050820    4.218470   -2.957870
      4          6           0       -7.547550    4.020170   -2.640930
      5          7           0       -7.354990    2.822710   -1.884240
      6          6           0       -6.167640    2.330190   -1.431360
      7          6           0       -6.149590    0.989520   -0.993950
      8          6           0       -4.951680    0.384290   -0.576480
      9          6           0       -3.738420    1.114040   -0.552630
     10          6           0       -2.514640    0.505320   -0.166780
     11          8           0       -2.455340   -0.714930    0.113430
     12          8           0       -1.372810    1.255810   -0.136990
     13          6           0       -0.039250    0.831480    0.157420
     14          6           0        0.906070    2.044520   -0.013630
     15          7           0        2.326130    1.751800    0.368950
     16          6           0        3.071960    2.966390    0.817210
     17          6           0        3.089110    0.982780   -0.659990
     18          6           0       -3.773710    2.474850   -0.943550
     19          6           0       -4.965500    3.074010   -1.387600
     20          1           0      -11.343040    4.629790   -4.459460
     21          1           0      -11.229120    6.029190   -3.367520
     22          1           0      -10.953060    6.235450   -5.107920
     23          1           0       -8.809610    6.225210   -3.766260
     24          1           0       -8.867430    4.950160   -4.999590
     25          1           0       -9.482430    3.269680   -3.296110
     26          1           0       -9.560200    4.513770   -2.034120
     27          1           0       -7.187230    4.886470   -2.078080
     28          1           0       -6.980290    3.943310   -3.573040
     29          1           0       -8.144580    2.283450   -1.712880
     30          1           0       -7.010570    0.435020   -0.990550
     31          1           0       -4.977920   -0.599530   -0.295700
     32          1           0        0.236800    0.032580   -0.532490
     33          1           0        0.008350    0.455190    1.182550
     34          1           0        0.502230    2.840480    0.619050
     35          1           0        0.852540    2.399830   -1.047210
     36          1           0        2.571100    3.421590    1.674430
     37          1           0        4.083680    2.707360    1.138140
     38          1           0        3.137880    3.708280    0.016870
     39          1           0        2.586580    0.045180   -0.899350
     40          1           0        4.082600    0.726990   -0.284640
     41          1           0        3.204460    1.560610   -1.580990
     42          1           0       -2.927580    3.049740   -0.917960
     43          1           0       -4.944950    4.053520   -1.677850
 ---------------------------------------------------------------------
                    Distance matrix (angstroms):
                    1          2          3          4          5
     1  C    0.000000
     2  C    1.545758   0.000000
     3  C    2.567903   1.552296   0.000000
     4  C    3.954516   2.584948   1.549062   0.000000
     5  N    5.008236   3.818232   2.444722   1.429535   0.000000
     6  C    6.324000   5.045134   3.769424   2.494643   1.362893
     7  C    7.300075   6.146988   4.764476   3.721784   2.367740
     8  C    8.642464   7.421057   6.097123   4.921394   3.664973
     9  C    9.139385   7.787028   6.606380   5.226477   4.215723
    10  C   10.541717   9.168209   8.018685   6.618593   5.634621
    11  O   11.327769  10.014353   8.790431   7.479189   6.364916
    12  O   11.162009   9.719690   8.699802   7.213793   6.426082
    13  C   12.565251  11.108275  10.118554   8.623983   7.851969
    14  C   12.948074  11.447370  10.608217   9.070259   8.505873
    15  N   14.438915  12.933379  12.107319  10.568559   9.997390
    16  C   15.006733  13.498799  12.758555  11.217985  10.772175
    17  C   15.069542  13.549598  12.772151  11.237811  10.675362
    18  C    8.368372   6.938924   5.911479   4.417124   3.719069
    19  C    6.970767   5.551071   4.523867   3.022092   2.453460
    20  H    1.092835   2.183930   2.770962   4.252579   5.079551
    21  H    1.092079   2.174990   2.862082   4.256531   5.243140
    22  H    1.091591   2.175991   3.508481   4.752999   5.914813
    23  H    2.163586   1.094545   2.176851   2.778734   4.151497
    24  H    2.165545   1.096032   2.176608   2.858363   4.064348
    25  H    2.818858   2.165051   1.095854   2.176294   2.592134
    26  H    2.759829   2.177918   1.095438   2.159310   2.783002
    27  H    4.282200   2.920859   2.166385   1.094124   2.079621
    28  H    4.213307   2.726236   2.177439   1.093856   2.061114
    29  H    4.933651   3.981571   2.472969   2.057649   0.971400
    30  H    7.170088   6.180370   4.727310   3.983140   2.572619
    31  H    9.364271   8.215617   6.847539   5.783142   4.459333
    32  H   12.902880  11.446106  10.472059   8.996805   8.200447
    33  H   13.142464  11.724211  10.647719   9.188020   8.320404
    34  H   12.615939  11.132756  10.293395   8.764593   8.246374
    35  H   12.502657  10.976865  10.248640   8.702124   8.260932
    36  H   14.793003  13.313477  12.536437  11.016701  10.561726
    37  H   16.096177  14.586906  13.841093  12.300014  11.831790
    38  H   14.705353  13.183375  12.556822  11.015425  10.700410
    39  H   14.871965  13.370883  12.533273  11.024257  10.369161
    40  H   16.153802  14.634045  13.850029  12.314931  11.737514
    41  H   14.817819  13.282272  12.615542  11.080552  10.638930
    42  H    8.921995   7.447975   6.559057   5.025384   4.537312
    43  H    6.582814   5.113522   4.303932   2.775277   2.713998
                    6          7          8          9         10
     6  C    0.000000
     7  C    1.410337   0.000000
     8  C    2.448654   1.405551   0.000000
     9  C    2.855223   2.454386   1.416017   0.000000
    10  C    4.274777   3.759192   2.474200   1.420232   0.000000
    11  O    5.043838   4.216506   2.813534   2.331322   1.253413
    12  O    5.081346   4.860341   3.709583   2.406027   1.366711
    13  C    6.505960   6.219878   4.987039   3.777283   2.517745
    14  C    7.220037   7.201138   6.114442   4.767347   3.754177
    15  N    8.701711   8.618376   7.465282   6.167237   5.027303
    16  C    9.530531   9.603400   8.543326   7.189502   6.183462
    17  C    9.386051   9.244736   8.063465   6.829636   5.645639
    18  C    2.447404   2.802419   2.427508   1.416287   2.463266
    19  C    1.414328   2.429430   2.809395   2.458533   3.754369
    20  H    6.422018   7.227257   8.599493   9.244137  10.647958
    21  H    6.561242   7.538815   8.891628   9.391107  10.802779
    22  H    7.188073   8.216925   9.528199   9.951409  11.333851
    23  H    5.253850   6.494140   7.692507   7.884697   9.235802
    24  H    5.185111   6.254476   7.466202   7.797308   9.136224
    25  H    3.917623   4.648321   6.020761   6.720649   8.123084
    26  H    4.079314   5.013437   6.357340   6.902615   8.318326
    27  H    2.827079   4.175914   5.246152   5.334090   6.684358
    28  H    2.801669   4.008322   5.075555   5.257125   6.585166
    29  H    1.997431   2.484170   3.884948   4.704035   6.103146
    30  H    2.120498   1.024094   2.100727   3.370431   4.571316
    31  H    3.359824   2.094145   1.023439   2.130421   2.702788
    32  H    6.863223   6.474153   5.200573   4.119749   2.815608
    33  H    6.963548   6.553082   5.263184   4.181294   2.861587
    34  H    6.996552   7.090454   6.099778   4.726155   3.895126
    35  H    7.031028   7.142943   6.162220   4.793201   3.962603
    36  H    9.338237   9.438520   8.419264   7.077756   6.144871
    37  H   10.575167  10.593234   9.485479   8.159817   7.077402
    38  H    9.517836   9.729877   8.765954   7.371425   6.499512
    39  H    9.063149   8.787570   7.552788   6.424041   5.174054
    40  H   10.438038  10.260105   9.045487   7.835176   6.602015
    41  H    9.404834   9.389836   8.301529   7.032818   5.985126
    42  H    3.358470   3.825131   3.364255   2.130226   2.684933
    43  H    2.127344   3.362584   3.830967   3.370813   4.558450
                   11         12         13         14         15
    11  O    0.000000
    12  O    2.262388   0.000000
    13  C    2.868939   1.430075   0.000000
    14  C    4.350837   2.414658   1.547370   0.000000
    15  N    5.386326   3.766184   2.546911   1.499541   0.000000
    16  C    6.678208   4.857218   3.830508   2.496241   1.494131
    17  C    5.849899   4.500756   3.236926   2.512118   1.494071
    18  C    3.609709   2.810857   4.225990   4.790645   6.281203
    19  C    4.786446   4.216313   5.628851   6.117432   7.615877
    20  H   11.334397  11.378619  12.787432  13.284943  14.779803
    21  H   11.600835  11.417895  12.831780  13.205643  14.697009
    22  H   12.156542  11.886469  13.267929  13.570359  15.047794
    23  H   10.178128   9.652592  11.018476  11.222960  12.693150
    24  H    9.967503   9.667597  11.022479  11.350059  12.819770
    25  H    8.768242   8.933177  10.346272  10.963422  12.457075
    26  H    9.079114   9.013698  10.440814  10.941772  12.437366
    27  H    7.653050   7.124395   8.516691   8.822706  10.311068
    28  H    7.467559   7.104430   8.472181   8.858300  10.341734
    29  H    6.685293   7.028253   8.444087   9.211884  10.688893
    30  H    4.826104   5.760781   7.076321   8.137448   9.526600
    31  H    2.558147   4.057622   5.161741   6.456927   7.701926
    32  H    2.867682   2.059989   1.091064   2.182897   2.851949
    33  H    2.929499   2.071179   1.093047   2.182365   2.777633
    34  H    4.652291   2.568764   2.131287   1.094040   2.138781
    35  H    4.689444   2.662605   2.169365   1.094257   2.144043
    36  H    6.694223   4.850389   3.977929   2.741932   2.133656
    37  H    7.451234   5.788457   4.634575   3.444290   2.143299
    38  H    7.131495   5.136595   4.288343   2.783883   2.147257
    39  H    5.198504   4.209939   2.937688   2.757893   2.142188
    40  H    6.706881   5.482969   4.146804   3.449590   2.136025
    41  H    6.331072   4.809308   3.751714   2.823718   2.147157
    42  H    3.931859   2.499082   3.797311   4.065114   5.562576
    43  H    5.669652   4.791828   6.149443   6.406258   7.896576
                   16         17         18         19         20
    16  C    0.000000
    17  C    2.473282   0.000000
    18  C    7.085555   7.028867   0.000000
    19  C    8.335078   8.353407   1.405893   0.000000
    20  H   15.440284  15.363060   8.619753   7.247744   0.000000
    21  H   15.212284  15.421047   8.607677   7.203201   1.778660
    22  H   15.572254  15.638323   9.111924   7.725695   1.775029
    23  H   13.145334  13.368303   6.884271   5.510469   3.073135
    24  H   13.428311  13.324079   6.965960   5.638392   2.554021
    25  H   13.214541  13.046941   6.225414   4.907479   2.581696
    26  H   13.042083  13.204589   6.231373   4.858206   3.012350
    27  H   10.831454  11.083904   4.330726   2.949213   4.796625
    28  H   11.012556  10.892356   4.399176   3.096968   4.504507
    29  H   11.518617  11.357645   4.442185   3.292012   4.824848
    30  H   10.551457  10.119923   3.826275   3.362176   6.956991
    31  H    8.874397   8.228814   3.364765   3.832401   9.230246
    32  H    4.297332   3.009121   4.713581   6.086496  13.063236
    33  H    3.978103   3.628276   4.785740   6.180863  13.345921
    34  H    2.580433   3.432046   4.567173   5.829001  13.011661
    35  H    2.953452   2.675858   4.628019   5.866854  12.858785
    36  H    1.092197   3.415501   6.928690   8.142308  15.254103
    37  H    1.092552   2.682651   8.131794   9.402205  16.523092
    38  H    1.093293   2.808713   7.086172   8.248612  15.184985
    39  H    3.422812   1.090378   6.808711   8.151448  15.090638
    40  H    2.692653   1.092400   8.075319   9.412393  16.450269
    41  H    2.783009   1.093359   7.066613   8.311199  15.143818
    42  H    6.245978   6.367058   1.023274   2.091475   9.266000
    43  H    8.466287   8.660924   2.098380   1.021816   7.000357
                   21         22         23         24         25
    21  H    0.000000
    22  H    1.774188   0.000000
    23  H    2.459969   2.528742   0.000000
    24  H    3.066845   2.452256   1.774880   0.000000
    25  H    3.266638   3.773751   3.067391   2.470644   0.000000
    26  H    2.619112   3.788468   2.548082   3.076423   1.773817
    27  H    4.393784   5.018083   2.697090   3.370808   3.060319
    28  H    4.737688   4.836596   2.931009   2.571009   2.605988
    29  H    5.126674   5.918797   4.494008   4.293753   2.295454
    30  H    7.398709   8.132709   6.668389   6.317184   4.411462
    31  H    9.615275  10.275053   8.561759   8.249480   6.653109
    32  H   13.246284  13.587609  11.429937  11.270518  10.610365
    33  H   13.343663  13.897263  11.642176  11.713372  10.865296
    34  H   12.793951  13.249441  10.835022  11.127012  10.733412
    35  H   12.826636  13.060380  10.741690  10.798301  10.612530
    36  H   14.922028  15.388989  12.922150  13.331130  13.039054
    37  H   16.303907  16.660259  14.236058  14.506314  14.283491
    38  H   14.941600  15.205415  12.782391  13.070371  13.055284
    39  H   15.256926  15.471049  13.277240  13.117360  12.720175
    40  H   16.494431  16.723583  14.441647  14.414201  14.126014
    41  H   15.214734  15.320860  13.071793  12.996400  12.915871
    42  H    9.153853   9.597544   7.265996   7.453396   6.976391
    43  H    6.800665   7.254212   4.900336   5.217640   4.880768
                   26         27         28         29         30
    26  H    0.000000
    27  H    2.402462   0.000000
    28  H    3.057717   1.779685   0.000000
    29  H    2.661109   2.797428   2.751527   0.000000
    30  H    4.921977   4.585776   4.356406   2.285702   0.000000
    31  H    7.082742   6.176903   5.948768   4.510843   2.384277
    32  H   10.877369   9.003628   8.753579   8.758268   7.272974
    33  H   10.880082   9.057832   9.144600   8.842868   7.347653
    34  H   10.540005   8.401689   8.647425   8.973043   8.051038
    35  H   10.670890   8.478442   8.373492   9.022462   8.105072
    36  H   12.732425  10.557093  10.910416  11.295797  10.384128
    37  H   14.123803  11.921661  12.088599  12.563374  11.522900
    38  H   12.887847  10.601172  10.738718  11.502873  10.710750
    39  H   12.992316  10.970636  10.670944  10.992246   9.605497
    40  H   14.266267  12.146060  11.981061  12.408318  11.119441
    41  H   13.109654  10.922255  10.647754  11.372801  10.293804
    42  H    6.883375   4.781639   4.926700   5.332559   4.849004
    43  H    4.651805   2.425244   2.783254   3.656775   4.222879
                   31         32         33         34         35
    31  H    0.000000
    32  H    5.258226   0.000000
    33  H    5.306651   1.781053   0.000000
    34  H    6.534713   3.046441   2.500212   0.000000
    35  H    6.599636   2.499589   3.076705   1.758781   0.000000
    36  H    8.777159   4.669565   3.950843   2.394105   3.377094
    37  H    9.752129   4.974328   4.656453   3.621320   3.912876
    38  H    9.193538   4.714746   4.662120   2.839427   2.840262
    39  H    7.615885   2.378279   3.339115   3.803124   2.927991
    40  H    9.157117   3.915841   4.338898   4.254709   3.716611
    41  H    8.559762   3.498747   4.367405   3.712181   2.553574
    42  H    4.231817   4.389207   4.445618   3.764278   3.837759
    43  H    4.854101   6.658103   6.757592   6.034814   6.061624
                   36         37         38         39         40
    36  H    0.000000
    37  H    1.756596   0.000000
    38  H    1.775088   1.775845   0.000000
    39  H    4.245554   3.671495   3.815979   0.000000
    40  H    3.658341   2.438477   3.141893   1.755223   0.000000
    41  H    3.802913   3.079242   2.677700   1.772833   1.773859
    42  H    6.090504   7.314543   6.172308   6.279625   7.412077
    43  H    8.253976   9.552911   8.265797   8.567193   9.721291
                   41         42         43
    41  H    0.000000
    42  H    6.345001   0.000000
    43  H    8.522726   2.377980   0.000000
 Stoichiometry    C15H24N2O2
 Framework group  C1[X(C15H24N2O2)]
 Deg. of freedom   123
 Full point group                 C1      NOp   1
 Largest Abelian subgroup         C1      NOp   1
 Largest concise Abelian subgroup C1      NOp   1
                         Standard orientation:                         
 ---------------------------------------------------------------------
 Center     Atomic      Atomic             Coordinates (Angstroms)
 Number     Number       Type             X           Y           Z
 ---------------------------------------------------------------------
      1          6           0       -8.311810   -1.472216    0.262809
      2          6           0       -6.790817   -1.672894    0.451682
      3          6           0       -5.974840   -0.466478   -0.085312
      4          6           0       -4.444418   -0.698000   -0.023659
      5          7           0       -3.748957    0.535893   -0.217082
      6          6           0       -2.397810    0.714317   -0.223657
      7          6           0       -1.920608    2.036132   -0.104774
      8          6           0       -0.541930    2.300431   -0.034301
      9          6           0        0.404530    1.250222   -0.114153
     10          6           0        1.798808    1.499199   -0.008994
     11          8           0        2.238552    2.651593    0.213850
     12          8           0        2.675825    0.456378   -0.115126
     13          6           0        4.099132    0.476182    0.022424
     14          6           0        4.621188   -0.974054   -0.114054
     15          7           0        6.117259   -1.073356   -0.090944
     16          6           0        6.634275   -2.267342   -0.825465
     17          6           0        6.715125   -0.962023    1.273757
     18          6           0       -0.080126   -0.069418   -0.285988
     19          6           0       -1.459350   -0.338551   -0.328944
     20          1           0       -8.631028   -0.523725    0.701845
     21          1           0       -8.557167   -1.471659   -0.801351
     22          1           0       -8.858359   -2.283554    0.747150
     23          1           0       -6.485851   -2.582476   -0.075276
     24          1           0       -6.579840   -1.807591    1.518749
     25          1           0       -6.235717    0.419104    0.505098
     26          1           0       -6.251003   -0.273808   -1.127711
     27          1           0       -4.163722   -1.417079   -0.799057
     28          1           0       -4.171552   -1.107135    0.953414
     29          1           0       -4.294681    1.334134   -0.309892
     30          1           0       -2.577241    2.820270   -0.052534
     31          1           0       -0.239898    3.271324    0.082196
     32          1           0        4.352846    0.882171    1.002844
     33          1           0        4.534187    1.110506   -0.754179
     34          1           0        4.233515   -1.352059   -1.064709
     35          1           0        4.183422   -1.590309    0.677140
     36          1           0        6.306892   -2.240331   -1.867091
     37          1           0        7.726743   -2.278277   -0.833546
     38          1           0        6.278365   -3.196094   -0.371551
     39          1           0        6.414618   -0.032129    1.757405
     40          1           0        7.805730   -0.952968    1.211812
     41          1           0        6.410707   -1.798495    1.908642
     42          1           0        0.566123   -0.857791   -0.374982
     43          1           0       -1.768315   -1.306607   -0.436248
 ---------------------------------------------------------------------
 Rotational constants (GHZ):           0.8547874           0.0910759           0.0839315
 Leave Link  202 at Mon Feb 22 21:04:49 2021, MaxMem=   104857600 cpu:               0.9 elap:               0.1
 (Enter /sw/arch/RedHatEnterpriseServer7/EB_production/2019/software/Gaussian/g16.c01/l301.exe)
 Standard basis: TZVP (5D, 7F)
 Ernie: Thresh=  0.10000D-02 Tol=  0.10000D-05 Strict=F.
 There are   524 symmetry adapted cartesian basis functions of A   symmetry.
 There are   505 symmetry adapted basis functions of A   symmetry.
   505 basis functions,   857 primitive gaussians,   524 cartesian basis functions
    72 alpha electrons       72 beta electrons
       nuclear repulsion energy      1324.3305949068 Hartrees.
 IExCor=  404 DFT=T Ex=B Corr=P86 ExCW=0 ScaHFX=  0.000000
 ScaDFX=  1.000000  1.000000  1.000000  1.000000 ScalE2=  1.000000  1.000000
 IRadAn=      5 IRanWt=     -1 IRanGd=            0 ICorTp=0 IEmpDi=131
 NAtoms=   43 NActive=   43 NUniq=   43 SFac= 1.00D+00 NAtFMM=   60 NAOKFM=F Big=F
 Integral buffers will be    131072 words long.
 Raffenetti 2 integral format.
 Two-electron integral symmetry is turned on.
 R6Disp:  Grimme-D3 Dispersion energy=       -0.0404122842 Hartrees.
 Nuclear repulsion after empirical dispersion term =     1324.2901826226 Hartrees.
 ------------------------------------------------------------------------------
 Polarizable Continuum Model (PCM)
 =================================
 Model                : PCM.
 Atomic radii         : UFF (Universal Force Field).
 Polarization charges : Total charges.
 Charge compensation  : None.
 Solution method      : On-the-fly selection.
 Cavity type          : Scaled VdW (van der Waals Surface) (Alpha=1.100).
 Cavity algorithm     : GePol (No added spheres)
                        Default sphere list used, NSphG=   43.
                        Lebedev-Laikov grids with approx.  5.0 points / Ang**2.
                        Smoothing algorithm: York/Karplus (Gamma=1.0000).
                        Polarization charges: spherical gaussians, with
                                              point-specific exponents (IZeta= 3).
                        Self-potential: point-specific (ISelfS= 7).
                        Self-field    : sphere-specific E.n sum rule (ISelfD= 2).
 1st derivatives      : Analytical E(r).r(x)/FMM algorithm (CHGder, D1EAlg=3).
                        Cavity 1st derivative terms included.
 Solvent              : Water, Eps=  78.355300 Eps(inf)=   1.777849
 ------------------------------------------------------------------------------
 GePol: Number of generator spheres                  =      43
 GePol: Total number of spheres                      =      43
 GePol: Number of exposed spheres                    =      43 (100.00%)
 GePol: Number of points                             =    3149
 GePol: Average weight of points                     =       0.13
 GePol: Minimum weight of points                     =   0.93D-09
 GePol: Maximum weight of points                     =    0.20577
 GePol: Number of points with low weight             =     219
 GePol: Fraction of low-weight points (<1% of avg)   =       6.95%
 GePol: Cavity surface area                          =    406.643 Ang**2
 GePol: Cavity volume                                =    419.880 Ang**3
 Leave Link  301 at Mon Feb 22 21:04:49 2021, MaxMem=   104857600 cpu:               2.7 elap:               0.1
 (Enter /sw/arch/RedHatEnterpriseServer7/EB_production/2019/software/Gaussian/g16.c01/l302.exe)
 NPDir=0 NMtPBC=     1 NCelOv=     1 NCel=       1 NClECP=     1 NCelD=      1
         NCelK=      1 NCelE2=     1 NClLst=     1 CellRange=     0.0.
 One-electron integrals computed using PRISM.
 One-electron integral symmetry used in STVInt
 PrsmSu:  requested number of processors reduced to:  25 ShMem   1 Linda.
 NBasis=   505 RedAO= T EigKep=  8.40D-06  NBF=   505
 NBsUse=   505 1.00D-06 EigRej= -1.00D+00 NBFU=   505
 Precomputing XC quadrature grid using
 IXCGrd= 4 IRadAn=           5 IRanWt=          -1 IRanGd=           0 AccXCQ= 0.00D+00.
 Generated NRdTot=       0 NPtTot=           0 NUsed=           0 NTot=          32
 NSgBfM=   484   484   484   484   484 MxSgAt=    43 MxSgA2=    43.
 Leave Link  302 at Mon Feb 22 21:04:50 2021, MaxMem=   104857600 cpu:              22.4 elap:               0.8
 (Enter /sw/arch/RedHatEnterpriseServer7/EB_production/2019/software/Gaussian/g16.c01/l303.exe)
 DipDrv:  MaxL=1.
 Leave Link  303 at Mon Feb 22 21:04:50 2021, MaxMem=   104857600 cpu:               4.4 elap:               0.2
 (Enter /sw/arch/RedHatEnterpriseServer7/EB_production/2019/software/Gaussian/g16.c01/l401.exe)
 ExpMin= 9.52D-02 ExpMax= 2.70D+04 ExpMxC= 9.22D+02 IAcc=3 IRadAn=         5 AccDes= 0.00D+00
 Harris functional with IExCor=  404 and IRadAn=       5 diagonalized for initial guess.
 HarFok:  IExCor=  404 AccDes= 0.00D+00 IRadAn=         5 IDoV= 1 UseB2=F ITyADJ=14
 ICtDFT=  3500011 ScaDFX=  1.000000  1.000000  1.000000  1.000000
 FoFCou: FMM=F IPFlag=           0 FMFlag=      100000 FMFlg1=           0
         NFxFlg=           0 DoJE=T BraDBF=F KetDBF=T FulRan=T
         wScrn=  0.000000 ICntrl=       500 IOpCl=  0 I1Cent=   200000004 NGrid=           0
         NMat0=    1 NMatS0=      1 NMatT0=    0 NMatD0=    1 NMtDS0=    0 NMtDT0=    0
 Petite list used in FoFCou.
 Harris En= -846.673658500294    
 JPrj=0 DoOrth=F DoCkMO=F.
 Leave Link  401 at Mon Feb 22 21:04:52 2021, MaxMem=   104857600 cpu:              38.3 elap:               1.3
 (Enter /sw/arch/RedHatEnterpriseServer7/EB_production/2019/software/Gaussian/g16.c01/l502.exe)
 Integral symmetry usage will be decided dynamically.
 Closed shell SCF:
 Using DIIS extrapolation, IDIIS=  1040.
 NGot=   104857600 LenX=   104285276 LenY=   104010176
 Requested convergence on RMS density matrix=1.00D-08 within 128 cycles.
 Requested convergence on MAX density matrix=1.00D-06.
 Requested convergence on             energy=1.00D-06.
 No special actions if energy rises.
 Fock matrices will be formed incrementally for  20 cycles.

 Cycle   1  Pass 1  IDiag  1:
 FoFJK:  IHMeth= 1 ICntrl=     500 DoSepK=F KAlg= 0 I1Cent=           0 FoldK=F
 IRaf= 650000000 NMat=       1 IRICut=       1 DoRegI=T DoRafI=F ISym2E= 0 IDoP0=0 IntGTp=1.
 FoFCou: FMM=F IPFlag=           0 FMFlag=      100000 FMFlg1=           0
         NFxFlg=           0 DoJE=T BraDBF=F KetDBF=F FulRan=T
         wScrn=  0.000000 ICntrl=       500 IOpCl=  0 I1Cent=           0 NGrid=           0
         NMat0=    1 NMatS0=      1 NMatT0=    0 NMatD0=    1 NMtDS0=    0 NMtDT0=    0
 Symmetry not used in FoFCou.
 Inv3:  Mode=1 IEnd=    29748603.
 Iteration    1 A*A^-1 deviation from unit magnitude is 4.00D-15 for   2809.
 Iteration    1 A*A^-1 deviation from orthogonality  is 1.78D-15 for   1785    936.
 Iteration    1 A^-1*A deviation from unit magnitude is 3.77D-15 for   2809.
 Iteration    1 A^-1*A deviation from orthogonality  is 3.00D-15 for   2835    969.
 E= -845.819422394361    
 DIIS: error= 2.86D-02 at cycle   1 NSaved=   1.
 NSaved= 1 IEnMin= 1 EnMin= -845.819422394361     IErMin= 1 ErrMin= 2.86D-02
 ErrMax= 2.86D-02  0.00D+00 EMaxC= 1.00D-01 BMatC= 4.95D-01 BMatP= 4.95D-01
 IDIUse=3 WtCom= 7.14D-01 WtEn= 2.86D-01
 Coeff-Com:  0.100D+01
 Coeff-En:   0.100D+01
 Coeff:      0.100D+01
 Gap=     0.078 Goal=   None    Shift=    0.000
 GapD=    0.078 DampG=0.500 DampE=0.500 DampFc=0.2500 IDamp=-1.
 Damping current iteration by 2.50D-01
 RMSDP=6.26D-03 MaxDP=9.13D-01              OVMax= 2.89D-01

 Cycle   2  Pass 1  IDiag  1:
 RMSU=  1.56D-03    CP:  1.00D+00
 E= -845.990781869006     Delta-E=       -0.171359474645 Rises=F Damp=T
 DIIS: error= 1.08D-02 at cycle   2 NSaved=   2.
 NSaved= 2 IEnMin= 2 EnMin= -845.990781869006     IErMin= 2 ErrMin= 1.08D-02
 ErrMax= 1.08D-02  0.00D+00 EMaxC= 1.00D-01 BMatC= 9.13D-02 BMatP= 4.95D-01
 IDIUse=3 WtCom= 8.92D-01 WtEn= 1.08D-01
 Coeff-Com: -0.470D+00 0.147D+01
 Coeff-En:   0.000D+00 0.100D+01
 Coeff:     -0.419D+00 0.142D+01
 Gap=     0.161 Goal=   None    Shift=    0.000
 RMSDP=1.59D-03 MaxDP=8.25D-02 DE=-1.71D-01 OVMax= 2.43D-01

 Cycle   3  Pass 1  IDiag  1:
 RMSU=  1.54D-03    CP:  9.75D-01  8.10D-01
 E= -846.193569853694     Delta-E=       -0.202787984687 Rises=F Damp=F
 DIIS: error= 2.34D-02 at cycle   3 NSaved=   3.
 NSaved= 3 IEnMin= 3 EnMin= -846.193569853694     IErMin= 2 ErrMin= 1.08D-02
 ErrMax= 2.34D-02  0.00D+00 EMaxC= 1.00D-01 BMatC= 1.32D-01 BMatP= 9.13D-02
 IDIUse=2 WtCom= 0.00D+00 WtEn= 1.00D+00
 Coeff-En:   0.000D+00 0.000D+00 0.100D+01
 Coeff:      0.000D+00 0.000D+00 0.100D+01
 Gap=     0.119 Goal=   None    Shift=    0.000
 RMSDP=5.25D-03 MaxDP=5.68D-01 DE=-2.03D-01 OVMax= 5.09D-01

 Cycle   4  Pass 1  IDiag  1:
 RMSU=  2.65D-03    CP:  1.04D+00  2.91D+00 -9.85D-01
 E= -845.140717692662     Delta-E=        1.052852161032 Rises=F Damp=F
 DIIS: error= 5.50D-02 at cycle   4 NSaved=   4.
 NSaved= 4 IEnMin= 3 EnMin= -846.193569853694     IErMin= 2 ErrMin= 1.08D-02
 ErrMax= 5.50D-02  0.00D+00 EMaxC= 1.00D-01 BMatC= 1.34D+00 BMatP= 9.13D-02
 IDIUse=2 WtCom= 0.00D+00 WtEn= 1.00D+00
 Coeff-En:   0.000D+00 0.000D+00 0.856D+00 0.144D+00
 Coeff:      0.000D+00 0.000D+00 0.856D+00 0.144D+00
 Gap=     0.107 Goal=   None    Shift=    0.000
 RMSDP=3.61D-03 MaxDP=4.60D-01 DE= 1.05D+00 OVMax= 2.36D-01

 Cycle   5  Pass 1  IDiag  1:
 RMSU=  6.86D-04    CP:  1.00D+00  1.32D+00  1.24D-01  3.11D-01
 E= -846.174885309446     Delta-E=       -1.034167616784 Rises=F Damp=F
 DIIS: error= 2.36D-02 at cycle   5 NSaved=   5.
 NSaved= 5 IEnMin= 3 EnMin= -846.193569853694     IErMin= 2 ErrMin= 1.08D-02
 ErrMax= 2.36D-02  0.00D+00 EMaxC= 1.00D-01 BMatC= 1.60D-01 BMatP= 9.13D-02
 IDIUse=2 WtCom= 0.00D+00 WtEn= 1.00D+00
 Coeff-En:   0.000D+00 0.000D+00 0.528D+00 0.000D+00 0.472D+00
 Coeff:      0.000D+00 0.000D+00 0.528D+00 0.000D+00 0.472D+00
 Gap=     0.097 Goal=   None    Shift=    0.000
 RMSDP=1.10D-03 MaxDP=1.12D-01 DE=-1.03D+00 OVMax= 1.41D-01

 Cycle   6  Pass 1  IDiag  1:
 RMSU=  1.46D-04    CP:  9.87D-01  9.19D-01  5.43D-01  1.12D-01  6.07D-01
 E= -846.299841010430     Delta-E=       -0.124955700985 Rises=F Damp=F
 DIIS: error= 1.48D-03 at cycle   6 NSaved=   6.
 NSaved= 6 IEnMin= 6 EnMin= -846.299841010430     IErMin= 6 ErrMin= 1.48D-03
 ErrMax= 1.48D-03  0.00D+00 EMaxC= 1.00D-01 BMatC= 7.43D-04 BMatP= 9.13D-02
 IDIUse=3 WtCom= 9.85D-01 WtEn= 1.48D-02
 Coeff-Com: -0.246D-01 0.349D-01 0.179D+00-0.296D-01 0.244D+00 0.597D+00
 Coeff-En:   0.000D+00 0.000D+00 0.000D+00 0.000D+00 0.000D+00 0.100D+01
 Coeff:     -0.243D-01 0.344D-01 0.176D+00-0.291D-01 0.240D+00 0.603D+00
 Gap=     0.102 Goal=   None    Shift=    0.000
 RMSDP=1.37D-04 MaxDP=1.40D-02 DE=-1.25D-01 OVMax= 1.37D-02

 Cycle   7  Pass 1  IDiag  1:
 RMSU=  8.05D-05    CP:  9.86D-01  9.84D-01  5.39D-01  1.17D-01  6.45D-01
                    CP:  7.90D-01
 E= -846.300203776481     Delta-E=       -0.000362766051 Rises=F Damp=F
 DIIS: error= 1.62D-03 at cycle   7 NSaved=   7.
 NSaved= 7 IEnMin= 7 EnMin= -846.300203776481     IErMin= 6 ErrMin= 1.48D-03
 ErrMax= 1.62D-03  0.00D+00 EMaxC= 1.00D-01 BMatC= 4.49D-04 BMatP= 7.43D-04
 IDIUse=3 WtCom= 9.85D-01 WtEn= 1.48D-02
 Coeff-Com: -0.125D-01 0.126D-01 0.484D-01-0.748D-02 0.530D-01 0.427D+00
 Coeff-Com:  0.479D+00
 Coeff-En:   0.000D+00 0.000D+00 0.000D+00 0.000D+00 0.000D+00 0.344D+00
 Coeff-En:   0.656D+00
 Coeff:     -0.123D-01 0.124D-01 0.477D-01-0.737D-02 0.522D-01 0.425D+00
 Coeff:      0.482D+00
 Gap=     0.101 Goal=   None    Shift=    0.000
 RMSDP=4.90D-05 MaxDP=3.18D-03 DE=-3.63D-04 OVMax= 6.04D-03

 Cycle   8  Pass 1  IDiag  1:
 RMSU=  2.30D-05    CP:  9.86D-01  9.76D-01  5.51D-01  1.18D-01  6.31D-01
                    CP:  7.89D-01  5.54D-01
 E= -846.300517101275     Delta-E=       -0.000313324794 Rises=F Damp=F
 DIIS: error= 3.32D-04 at cycle   8 NSaved=   8.
 NSaved= 8 IEnMin= 8 EnMin= -846.300517101275     IErMin= 8 ErrMin= 3.32D-04
 ErrMax= 3.32D-04  0.00D+00 EMaxC= 1.00D-01 BMatC= 3.81D-05 BMatP= 4.49D-04
 IDIUse=3 WtCom= 9.97D-01 WtEn= 3.32D-03
 Coeff-Com: -0.408D-02 0.328D-02 0.110D-01-0.355D-05-0.936D-03 0.208D+00
 Coeff-Com:  0.300D+00 0.482D+00
 Coeff-En:   0.000D+00 0.000D+00 0.000D+00 0.000D+00 0.000D+00 0.000D+00
 Coeff-En:   0.000D+00 0.100D+01
 Coeff:     -0.407D-02 0.327D-02 0.109D-01-0.354D-05-0.933D-03 0.208D+00
 Coeff:      0.299D+00 0.484D+00
 Gap=     0.101 Goal=   None    Shift=    0.000
 RMSDP=1.70D-05 MaxDP=2.07D-03 DE=-3.13D-04 OVMax= 1.46D-03

 Cycle   9  Pass 1  IDiag  1:
 RMSU=  7.18D-06    CP:  9.86D-01  9.69D-01  5.52D-01  1.16D-01  6.29D-01
                    CP:  8.11D-01  5.66D-01  5.98D-01
 E= -846.300547283481     Delta-E=       -0.000030182206 Rises=F Damp=F
 DIIS: error= 6.14D-05 at cycle   9 NSaved=   9.
 NSaved= 9 IEnMin= 9 EnMin= -846.300547283481     IErMin= 9 ErrMin= 6.14D-05
 ErrMax= 6.14D-05  0.00D+00 EMaxC= 1.00D-01 BMatC= 1.71D-06 BMatP= 3.81D-05
 IDIUse=1 WtCom= 1.00D+00 WtEn= 0.00D+00
 Coeff-Com: -0.132D-02 0.113D-02 0.360D-02 0.346D-03-0.374D-02 0.839D-01
 Coeff-Com:  0.132D+00 0.264D+00 0.521D+00
 Coeff:     -0.132D-02 0.113D-02 0.360D-02 0.346D-03-0.374D-02 0.839D-01
 Coeff:      0.132D+00 0.264D+00 0.521D+00
 Gap=     0.101 Goal=   None    Shift=    0.000
 RMSDP=4.47D-06 MaxDP=3.55D-04 DE=-3.02D-05 OVMax= 8.30D-04

 Cycle  10  Pass 1  IDiag  1:
 RMSU=  2.74D-06    CP:  9.86D-01  9.68D-01  5.52D-01  1.16D-01  6.28D-01
                    CP:  8.19D-01  5.69D-01  5.91D-01  6.20D-01
 E= -846.300548518557     Delta-E=       -0.000001235075 Rises=F Damp=F
 DIIS: error= 5.63D-05 at cycle  10 NSaved=  10.
 NSaved=10 IEnMin=10 EnMin= -846.300548518557     IErMin=10 ErrMin= 5.63D-05
 ErrMax= 5.63D-05  0.00D+00 EMaxC= 1.00D-01 BMatC= 4.41D-07 BMatP= 1.71D-06
 IDIUse=1 WtCom= 1.00D+00 WtEn= 0.00D+00
 Coeff-Com: -0.508D-03 0.536D-03 0.160D-02 0.113D-03-0.210D-02 0.364D-01
 Coeff-Com:  0.608D-01 0.132D+00 0.378D+00 0.394D+00
 Coeff:     -0.508D-03 0.536D-03 0.160D-02 0.113D-03-0.210D-02 0.364D-01
 Coeff:      0.608D-01 0.132D+00 0.378D+00 0.394D+00
 Gap=     0.101 Goal=   None    Shift=    0.000
 RMSDP=2.04D-06 MaxDP=1.20D-04 DE=-1.24D-06 OVMax= 4.32D-04

 Cycle  11  Pass 1  IDiag  1:
 RMSU=  1.00D-06    CP:  9.86D-01  9.69D-01  5.52D-01  1.16D-01  6.28D-01
                    CP:  8.18D-01  5.77D-01  6.02D-01  6.96D-01  4.98D-01
 E= -846.300549028664     Delta-E=       -0.000000510107 Rises=F Damp=F
 DIIS: error= 8.60D-06 at cycle  11 NSaved=  11.
 NSaved=11 IEnMin=11 EnMin= -846.300549028664     IErMin=11 ErrMin= 8.60D-06
 ErrMax= 8.60D-06  0.00D+00 EMaxC= 1.00D-01 BMatC= 2.40D-08 BMatP= 4.41D-07
 IDIUse=1 WtCom= 1.00D+00 WtEn= 0.00D+00
 Coeff-Com: -0.110D-03 0.120D-03 0.571D-03 0.537D-04-0.933D-03 0.123D-01
 Coeff-Com:  0.219D-01 0.495D-01 0.173D+00 0.238D+00 0.506D+00
 Coeff:     -0.110D-03 0.120D-03 0.571D-03 0.537D-04-0.933D-03 0.123D-01
 Coeff:      0.219D-01 0.495D-01 0.173D+00 0.238D+00 0.506D+00
 Gap=     0.101 Goal=   None    Shift=    0.000
 RMSDP=5.12D-07 MaxDP=3.32D-05 DE=-5.10D-07 OVMax= 1.14D-04

 Cycle  12  Pass 1  IDiag  1:
 RMSU=  2.85D-07    CP:  9.86D-01  9.69D-01  5.52D-01  1.16D-01  6.28D-01
                    CP:  8.18D-01  5.76D-01  6.02D-01  7.03D-01  5.61D-01
                    CP:  6.99D-01
 E= -846.300549048225     Delta-E=       -0.000000019561 Rises=F Damp=F
 DIIS: error= 2.68D-06 at cycle  12 NSaved=  12.
 NSaved=12 IEnMin=12 EnMin= -846.300549048225     IErMin=12 ErrMin= 2.68D-06
 ErrMax= 2.68D-06  0.00D+00 EMaxC= 1.00D-01 BMatC= 4.26D-09 BMatP= 2.40D-08
 IDIUse=1 WtCom= 1.00D+00 WtEn= 0.00D+00
 Coeff-Com:  0.186D-04-0.281D-04 0.106D-03 0.154D-04-0.260D-03 0.210D-02
 Coeff-Com:  0.440D-02 0.103D-01 0.512D-01 0.932D-01 0.338D+00 0.501D+00
 Coeff:      0.186D-04-0.281D-04 0.106D-03 0.154D-04-0.260D-03 0.210D-02
 Coeff:      0.440D-02 0.103D-01 0.512D-01 0.932D-01 0.338D+00 0.501D+00
 Gap=     0.101 Goal=   None    Shift=    0.000
 RMSDP=1.67D-07 MaxDP=1.26D-05 DE=-1.96D-08 OVMax= 3.37D-05

 Cycle  13  Pass 1  IDiag  1:
 RMSU=  9.93D-08    CP:  9.86D-01  9.69D-01  5.52D-01  1.16D-01  6.28D-01
                    CP:  8.18D-01  5.76D-01  6.04D-01  7.08D-01  5.60D-01
                    CP:  7.24D-01  6.73D-01
 E= -846.300549053005     Delta-E=       -0.000000004780 Rises=F Damp=F
 DIIS: error= 5.60D-07 at cycle  13 NSaved=  13.
 NSaved=13 IEnMin=13 EnMin= -846.300549053005     IErMin=13 ErrMin= 5.60D-07
 ErrMax= 5.60D-07  0.00D+00 EMaxC= 1.00D-01 BMatC= 2.49D-10 BMatP= 4.26D-09
 IDIUse=1 WtCom= 1.00D+00 WtEn= 0.00D+00
 Coeff-Com:  0.135D-04-0.214D-04 0.281D-04 0.656D-05-0.938D-04 0.585D-03
 Coeff-Com:  0.136D-02 0.323D-02 0.198D-01 0.394D-01 0.163D+00 0.282D+00
 Coeff-Com:  0.491D+00
 Coeff:      0.135D-04-0.214D-04 0.281D-04 0.656D-05-0.938D-04 0.585D-03
 Coeff:      0.136D-02 0.323D-02 0.198D-01 0.394D-01 0.163D+00 0.282D+00
 Coeff:      0.491D+00
 Gap=     0.101 Goal=   None    Shift=    0.000
 RMSDP=4.35D-08 MaxDP=2.68D-06 DE=-4.78D-09 OVMax= 7.49D-06

 Cycle  14  Pass 1  IDiag  1:
 RMSU=  2.93D-08    CP:  9.86D-01  9.69D-01  5.52D-01  1.16D-01  6.28D-01
                    CP:  8.18D-01  5.76D-01  6.04D-01  7.09D-01  5.62D-01
                    CP:  7.30D-01  7.17D-01  7.88D-01
 E= -846.300549052143     Delta-E=        0.000000000862 Rises=F Damp=F
 DIIS: error= 2.67D-07 at cycle  14 NSaved=  14.
 NSaved=14 IEnMin=13 EnMin= -846.300549053005     IErMin=14 ErrMin= 2.67D-07
 ErrMax= 2.67D-07  0.00D+00 EMaxC= 1.00D-01 BMatC= 4.48D-11 BMatP= 2.49D-10
 IDIUse=1 WtCom= 1.00D+00 WtEn= 0.00D+00
 Coeff-Com:  0.408D-05-0.585D-05-0.282D-05 0.467D-06-0.677D-05-0.652D-04
 Coeff-Com:  0.876D-06 0.852D-04 0.332D-02 0.847D-02 0.451D-01 0.917D-01
 Coeff-Com:  0.312D+00 0.539D+00
 Coeff:      0.408D-05-0.585D-05-0.282D-05 0.467D-06-0.677D-05-0.652D-04
 Coeff:      0.876D-06 0.852D-04 0.332D-02 0.847D-02 0.451D-01 0.917D-01
 Coeff:      0.312D+00 0.539D+00
 Gap=     0.101 Goal=   None    Shift=    0.000
 RMSDP=1.70D-08 MaxDP=7.21D-07 DE= 8.62D-10 OVMax= 2.24D-06

 Cycle  15  Pass 1  IDiag  1:
 RMSU=  8.74D-09    CP:  9.86D-01  9.69D-01  5.52D-01  1.16D-01  6.28D-01
                    CP:  8.18D-01  5.76D-01  6.04D-01  7.09D-01  5.62D-01
                    CP:  7.35D-01  7.13D-01  7.95D-01  6.71D-01
 E= -846.300549053249     Delta-E=       -0.000000001106 Rises=F Damp=F
 DIIS: error= 6.71D-08 at cycle  15 NSaved=  15.
 NSaved=15 IEnMin=15 EnMin= -846.300549053249     IErMin=15 ErrMin= 6.71D-08
 ErrMax= 6.71D-08  0.00D+00 EMaxC= 1.00D-01 BMatC= 2.25D-12 BMatP= 4.48D-11
 IDIUse=1 WtCom= 1.00D+00 WtEn= 0.00D+00
 Coeff-Com:  0.140D-05-0.178D-05-0.310D-05-0.136D-06 0.944D-06-0.702D-04
 Coeff-Com: -0.701D-04-0.984D-04 0.104D-02 0.310D-02 0.188D-01 0.390D-01
 Coeff-Com:  0.153D+00 0.304D+00 0.481D+00
 Coeff:      0.140D-05-0.178D-05-0.310D-05-0.136D-06 0.944D-06-0.702D-04
 Coeff:     -0.701D-04-0.984D-04 0.104D-02 0.310D-02 0.188D-01 0.390D-01
 Coeff:      0.153D+00 0.304D+00 0.481D+00
 Gap=     0.101 Goal=   None    Shift=    0.000
 RMSDP=4.12D-09 MaxDP=3.15D-07 DE=-1.11D-09 OVMax= 4.86D-07

 Error on total polarization charges =  0.02159
 SCF Done:  E(RB-P86) =  -846.300549053     A.U. after   15 cycles
            NFock= 15  Conv=0.41D-08     -V/T= 2.0044
 KE= 8.426347143793D+02 PE=-4.618961378717D+03 EE= 1.605735932662D+03
 Leave Link  502 at Mon Feb 22 21:05:48 2021, MaxMem=   104857600 cpu:            1758.4 elap:              56.3
 (Enter /sw/arch/RedHatEnterpriseServer7/EB_production/2019/software/Gaussian/g16.c01/l601.exe)
 Copying SCF densities to generalized density rwf, IOpCl= 0 IROHF=0.

 **********************************************************************

            Population analysis using the SCF Density.

 **********************************************************************

 Orbital symmetries:
       Occupied  (A) (A) (A) (A) (A) (A) (A) (A) (A) (A) (A) (A)
                 (A) (A) (A) (A) (A) (A) (A) (A) (A) (A) (A) (A)
                 (A) (A) (A) (A) (A) (A) (A) (A) (A) (A) (A) (A)
                 (A) (A) (A) (A) (A) (A) (A) (A) (A) (A) (A) (A)
                 (A) (A) (A) (A) (A) (A) (A) (A) (A) (A) (A) (A)
                 (A) (A) (A) (A) (A) (A) (A) (A) (A) (A) (A) (A)
       Virtual   (A) (A) (A) (A) (A) (A) (A) (A) (A) (A) (A) (A)
                 (A) (A) (A) (A) (A) (A) (A) (A) (A) (A) (A) (A)
                 (A) (A) (A) (A) (A) (A) (A) (A) (A) (A) (A) (A)
                 (A) (A) (A) (A) (A) (A) (A) (A) (A) (A) (A) (A)
                 (A) (A) (A) (A) (A) (A) (A) (A) (A) (A) (A) (A)
                 (A) (A) (A) (A) (A) (A) (A) (A) (A) (A) (A) (A)
                 (A) (A) (A) (A) (A) (A) (A) (A) (A) (A) (A) (A)
                 (A) (A) (A) (A) (A) (A) (A) (A) (A) (A) (A) (A)
                 (A) (A) (A) (A) (A) (A) (A) (A) (A) (A) (A) (A)
                 (A) (A) (A) (A) (A) (A) (A) (A) (A) (A) (A) (A)
                 (A) (A) (A) (A) (A) (A) (A) (A) (A) (A) (A) (A)
                 (A) (A) (A) (A) (A) (A) (A) (A) (A) (A) (A) (A)
                 (A) (A) (A) (A) (A) (A) (A) (A) (A) (A) (A) (A)
                 (A) (A) (A) (A) (A) (A) (A) (A) (A) (A) (A) (A)
                 (A) (A) (A) (A) (A) (A) (A) (A) (A) (A) (A) (A)
                 (A) (A) (A) (A) (A) (A) (A) (A) (A) (A) (A) (A)
                 (A) (A) (A) (A) (A) (A) (A) (A) (A) (A) (A) (A)
                 (A) (A) (A) (A) (A) (A) (A) (A) (A) (A) (A) (A)
                 (A) (A) (A) (A) (A) (A) (A) (A) (A) (A) (A) (A)
                 (A) (A) (A) (A) (A) (A) (A) (A) (A) (A) (A) (A)
                 (A) (A) (A) (A) (A) (A) (A) (A) (A) (A) (A) (A)
                 (A) (A) (A) (A) (A) (A) (A) (A) (A) (A) (A) (A)
                 (A) (A) (A) (A) (A) (A) (A) (A) (A) (A) (A) (A)
                 (A) (A) (A) (A) (A) (A) (A) (A) (A) (A) (A) (A)
                 (A) (A) (A) (A) (A) (A) (A) (A) (A) (A) (A) (A)
                 (A) (A) (A) (A) (A) (A) (A) (A) (A) (A) (A) (A)
                 (A) (A) (A) (A) (A) (A) (A) (A) (A) (A) (A) (A)
                 (A) (A) (A) (A) (A) (A) (A) (A) (A) (A) (A) (A)
                 (A) (A) (A) (A) (A) (A) (A) (A) (A) (A) (A) (A)
                 (A) (A) (A) (A) (A) (A) (A) (A) (A) (A) (A) (A)
                 (A) (A) (A) (A) (A) (A) (A) (A) (A) (A) (A) (A)
                 (A) (A) (A) (A) (A) (A) (A) (A) (A) (A) (A) (A)
                 (A) (A) (A) (A) (A) (A) (A) (A) (A) (A) (A) (A)
                 (A) (A) (A) (A) (A) (A) (A) (A) (A) (A) (A) (A)
                 (A) (A) (A) (A) (A) (A) (A) (A) (A) (A) (A) (A)
                 (A) (A) (A) (A) (A) (A) (A) (A) (A) (A) (A) (A)
                 (A)
 The electronic state is 1-A.
 Alpha  occ. eigenvalues --  -18.81103 -18.74513 -14.02384 -14.00614 -10.01913
 Alpha  occ. eigenvalues --   -9.95823  -9.95448  -9.93259  -9.92892  -9.91374
 Alpha  occ. eigenvalues --   -9.91348  -9.91211  -9.90988  -9.90973  -9.90230
 Alpha  occ. eigenvalues --   -9.90133  -9.90036  -9.89727  -9.88470  -1.00590
 Alpha  occ. eigenvalues --   -0.91696  -0.88328  -0.83123  -0.78594  -0.73213
 Alpha  occ. eigenvalues --   -0.71251  -0.69223  -0.69010  -0.65491  -0.64038
 Alpha  occ. eigenvalues --   -0.61599  -0.59271  -0.58192  -0.55476  -0.53358
 Alpha  occ. eigenvalues --   -0.53199  -0.51958  -0.50031  -0.48565  -0.45053
 Alpha  occ. eigenvalues --   -0.44873  -0.43982  -0.42336  -0.41785  -0.41490
 Alpha  occ. eigenvalues --   -0.41056  -0.40603  -0.39824  -0.39248  -0.38591
 Alpha  occ. eigenvalues --   -0.38058  -0.37746  -0.36255  -0.35363  -0.35138
 Alpha  occ. eigenvalues --   -0.34506  -0.34190  -0.33267  -0.32988  -0.32664
 Alpha  occ. eigenvalues --   -0.32195  -0.31586  -0.30138  -0.29921  -0.29481
 Alpha  occ. eigenvalues --   -0.29396  -0.27262  -0.26094  -0.24011  -0.22877
 Alpha  occ. eigenvalues --   -0.18976  -0.18162
 Alpha virt. eigenvalues --   -0.08064  -0.05570   0.01431   0.01911   0.02229
 Alpha virt. eigenvalues --    0.03109   0.03774   0.04317   0.05092   0.05828
 Alpha virt. eigenvalues --    0.06313   0.06568   0.07191   0.07392   0.07655
 Alpha virt. eigenvalues --    0.07765   0.08459   0.09060   0.09544   0.10072
 Alpha virt. eigenvalues --    0.10181   0.10450   0.10967   0.11314   0.11392
 Alpha virt. eigenvalues --    0.11453   0.11842   0.12438   0.12805   0.13131
 Alpha virt. eigenvalues --    0.14173   0.14182   0.14585   0.15026   0.15764
 Alpha virt. eigenvalues --    0.16099   0.16757   0.17246   0.17492   0.17733
 Alpha virt. eigenvalues --    0.18297   0.18759   0.19591   0.19904   0.20423
 Alpha virt. eigenvalues --    0.20765   0.21208   0.21782   0.22109   0.22485
 Alpha virt. eigenvalues --    0.23095   0.23715   0.24275   0.24598   0.24964
 Alpha virt. eigenvalues --    0.25345   0.26249   0.26496   0.27255   0.27652
 Alpha virt. eigenvalues --    0.28394   0.29122   0.29656   0.29777   0.30186
 Alpha virt. eigenvalues --    0.30809   0.31440   0.31657   0.32203   0.32579
 Alpha virt. eigenvalues --    0.32960   0.33930   0.34046   0.34943   0.35288
 Alpha virt. eigenvalues --    0.35918   0.36748   0.37019   0.37394   0.37858
 Alpha virt. eigenvalues --    0.38468   0.38984   0.39392   0.39725   0.40229
 Alpha virt. eigenvalues --    0.40756   0.40996   0.41397   0.41782   0.42160
 Alpha virt. eigenvalues --    0.42357   0.42428   0.42858   0.43205   0.43399
 Alpha virt. eigenvalues --    0.43755   0.44090   0.44327   0.44802   0.45197
 Alpha virt. eigenvalues --    0.45557   0.45938   0.46096   0.46486   0.46642
 Alpha virt. eigenvalues --    0.46950   0.48143   0.48547   0.49017   0.49742
 Alpha virt. eigenvalues --    0.49993   0.50521   0.51336   0.52734   0.52927
 Alpha virt. eigenvalues --    0.53866   0.54378   0.55194   0.55869   0.56743
 Alpha virt. eigenvalues --    0.57485   0.57987   0.58604   0.59751   0.60462
 Alpha virt. eigenvalues --    0.61625   0.62204   0.62518   0.63525   0.64524
 Alpha virt. eigenvalues --    0.64988   0.65256   0.66756   0.67798   0.68202
 Alpha virt. eigenvalues --    0.69325   0.71408   0.72648   0.74594   0.75599
 Alpha virt. eigenvalues --    0.76408   0.78862   0.80148   0.85578   0.86898
 Alpha virt. eigenvalues --    0.89580   0.94038   1.05548   1.08764   1.09591
 Alpha virt. eigenvalues --    1.11478   1.14551   1.15247   1.16650   1.16941
 Alpha virt. eigenvalues --    1.18073   1.18603   1.19553   1.19997   1.20359
 Alpha virt. eigenvalues --    1.20454   1.20922   1.21294   1.21695   1.21872
 Alpha virt. eigenvalues --    1.22304   1.22555   1.22824   1.23196   1.23341
 Alpha virt. eigenvalues --    1.25179   1.25728   1.26323   1.26595   1.27346
 Alpha virt. eigenvalues --    1.28028   1.29084   1.29428   1.30227   1.30316
 Alpha virt. eigenvalues --    1.30879   1.31286   1.31814   1.33129   1.33844
 Alpha virt. eigenvalues --    1.34177   1.34529   1.36537   1.37251   1.37341
 Alpha virt. eigenvalues --    1.38089   1.38366   1.38426   1.38878   1.39084
 Alpha virt. eigenvalues --    1.39228   1.40153   1.41255   1.41916   1.42424
 Alpha virt. eigenvalues --    1.43528   1.44166   1.44878   1.45200   1.45596
 Alpha virt. eigenvalues --    1.46821   1.47304   1.47466   1.47623   1.47691
 Alpha virt. eigenvalues --    1.48731   1.49947   1.50145   1.50528   1.51792
 Alpha virt. eigenvalues --    1.52355   1.53061   1.53686   1.54087   1.55316
 Alpha virt. eigenvalues --    1.55721   1.57252   1.58644   1.59786   1.60996
 Alpha virt. eigenvalues --    1.61844   1.62240   1.63356   1.65268   1.66350
 Alpha virt. eigenvalues --    1.67034   1.68483   1.69571   1.69904   1.71118
 Alpha virt. eigenvalues --    1.71534   1.71856   1.72124   1.72279   1.73302
 Alpha virt. eigenvalues --    1.73506   1.73821   1.74262   1.74328   1.75104
 Alpha virt. eigenvalues --    1.75555   1.75804   1.76340   1.77715   1.78086
 Alpha virt. eigenvalues --    1.78449   1.78928   1.79380   1.80257   1.81490
 Alpha virt. eigenvalues --    1.81876   1.82374   1.82605   1.83366   1.83885
 Alpha virt. eigenvalues --    1.85030   1.86074   1.87258   1.88329   1.89359
 Alpha virt. eigenvalues --    1.90493   1.91535   1.92321   1.94182   1.96704
 Alpha virt. eigenvalues --    1.97140   1.97517   1.98740   1.99340   2.00883
 Alpha virt. eigenvalues --    2.01269   2.02343   2.06985   2.07901   2.09493
 Alpha virt. eigenvalues --    2.11044   2.12504   2.13243   2.13560   2.13914
 Alpha virt. eigenvalues --    2.16395   2.16723   2.17654   2.18046   2.18925
[...]
     5  N   -0.078365  -0.000019  -0.000018   0.000011  -0.000040  -0.000026
     6  C    0.349899   0.000002   0.000001  -0.000001   0.000052   0.000045
     7  C   -0.103313   0.000000  -0.000000   0.000000  -0.000000  -0.000001
     8  C   -0.064382  -0.000000  -0.000000  -0.000000  -0.000000   0.000000
     9  C    0.010009   0.000000   0.000000   0.000000   0.000000   0.000000
    10  C    0.037604   0.000000   0.000000   0.000000   0.000000   0.000000
    11  O   -0.001918   0.000000   0.000000  -0.000000   0.000000   0.000000
    12  O   -0.002913  -0.000000  -0.000000   0.000000  -0.000000  -0.000000
    13  C   -0.000426  -0.000000   0.000000  -0.000000  -0.000000   0.000000
    14  C    0.000117   0.000000  -0.000000   0.000000   0.000000  -0.000000
    15  N    0.000001   0.000000  -0.000000  -0.000000   0.000000  -0.000000
    16  C   -0.000001  -0.000000   0.000000   0.000000  -0.000000  -0.000000
    17  C   -0.000000  -0.000000   0.000000  -0.000000  -0.000000  -0.000000
    18  C    0.243472  -0.000000  -0.000000  -0.000000  -0.000004  -0.000004
    19  C    5.537547  -0.000000   0.000000   0.000000  -0.000021  -0.000015
    20  H   -0.000000   0.558271  -0.032555  -0.024810   0.008212  -0.007194
    21  H    0.000000  -0.032555   0.558456  -0.024850  -0.007193   0.008216
    22  H    0.000000  -0.024810  -0.024850   0.537687  -0.002850  -0.002876
    23  H   -0.000021   0.008212  -0.007193  -0.002850   0.572407  -0.035734
    24  H   -0.000015  -0.007194   0.008216  -0.002876  -0.035734   0.572503
    25  H    0.000026   0.005311  -0.000575  -0.000120   0.008236  -0.007145
    26  H   -0.000125  -0.000587   0.005284  -0.000119  -0.007152   0.008239
    27  H    0.009071  -0.000025   0.000144   0.000008   0.005369  -0.000346
    28  H    0.005617   0.000141  -0.000026   0.000009  -0.000352   0.005376
    29  H    0.012238  -0.000002  -0.000000   0.000004  -0.000001  -0.000001
    30  H    0.007208   0.000000   0.000000   0.000000   0.000000   0.000000
    31  H   -0.005327  -0.000000  -0.000000   0.000000  -0.000000  -0.000000
    32  H    0.000057  -0.000000   0.000000   0.000000  -0.000000   0.000000
    33  H    0.000057   0.000000  -0.000000   0.000000   0.000000  -0.000000
    34  H   -0.000010  -0.000000   0.000000  -0.000000  -0.000000   0.000000
    35  H    0.000046   0.000000  -0.000000  -0.000000   0.000000  -0.000000
    36  H   -0.000000   0.000000  -0.000000  -0.000000   0.000000  -0.000000
    37  H    0.000000   0.000000   0.000000   0.000000   0.000000   0.000000
    38  H    0.000000  -0.000000   0.000000  -0.000000   0.000000   0.000000
    39  H   -0.000000  -0.000000   0.000000  -0.000000  -0.000000   0.000000
    40  H    0.000000   0.000000   0.000000   0.000000  -0.000000   0.000000
    41  H    0.000000   0.000000  -0.000000   0.000000   0.000000   0.000000
    42  H   -0.056277  -0.000000  -0.000000  -0.000000  -0.000000  -0.000000
    43  H    0.385888   0.000000   0.000000   0.000000   0.000020   0.000023
              25         26         27         28         29         30
     1  C   -0.001661  -0.001351  -0.000351  -0.000291  -0.000094  -0.000000
     2  C   -0.040468  -0.041080  -0.000349  -0.000189   0.001050   0.000008
     3  C    0.424964   0.427250  -0.034996  -0.032971  -0.003915  -0.000083
     4  C   -0.054379  -0.056251   0.417029   0.417167  -0.039341   0.000695
     5  N    0.003432   0.003914  -0.051456  -0.055620   0.365148   0.000565
     6  C   -0.000100   0.000162  -0.016103  -0.010954  -0.031258  -0.093870
     7  C   -0.000188  -0.000066  -0.000831   0.000139  -0.012499   0.445195
     8  C   -0.000001  -0.000003   0.000094   0.000030   0.001862  -0.041046
     9  C    0.000001   0.000002  -0.000064  -0.000076   0.000180   0.017528
    10  C    0.000000   0.000000  -0.000001   0.000001   0.000007  -0.001760
    11  O   -0.000000  -0.000000   0.000000   0.000000   0.000000  -0.000064
    12  O   -0.000000  -0.000000   0.000000   0.000000   0.000000  -0.000002
    13  C    0.000000  -0.000000   0.000000   0.000000   0.000000  -0.000001
    14  C    0.000000   0.000000  -0.000000  -0.000000  -0.000000   0.000000
    15  N   -0.000000   0.000000  -0.000000   0.000000  -0.000000  -0.000000
    16  C    0.000000  -0.000000   0.000000  -0.000000  -0.000000  -0.000000
    17  C    0.000000  -0.000000   0.000000  -0.000000   0.000000  -0.000000
    18  C   -0.000003  -0.000011   0.000214  -0.000310  -0.001329   0.000997
    19  C    0.000026  -0.000125   0.009071   0.005617   0.012238   0.007208
    20  H    0.005311  -0.000587  -0.000025   0.000141  -0.000002   0.000000
    21  H   -0.000575   0.005284   0.000144  -0.000026  -0.000000   0.000000
    22  H   -0.000120  -0.000119   0.000008   0.000009   0.000004   0.000000
    23  H    0.008236  -0.007152   0.005369  -0.000352  -0.000001   0.000000
    24  H   -0.007145   0.008239  -0.000346   0.005376  -0.000001   0.000000
    25  H    0.558494  -0.038480   0.009092  -0.011333   0.001895   0.000016
    26  H   -0.038480   0.558180  -0.011302   0.009113   0.001346   0.000021
    27  H    0.009092  -0.011302   0.567690  -0.055495   0.003378  -0.000019
    28  H   -0.011333   0.009113  -0.055495   0.568024   0.002809  -0.000004
    29  H    0.001895   0.001346   0.003378   0.002809   0.395305   0.003070
    30  H    0.000016   0.000021  -0.000019  -0.000004   0.003070   0.517268
    31  H   -0.000000  -0.000000  -0.000000  -0.000000  -0.000043  -0.007544
    32  H    0.000000  -0.000000   0.000000  -0.000000  -0.000000   0.000000
    33  H   -0.000000   0.000000  -0.000000   0.000000  -0.000000  -0.000000
    34  H    0.000000  -0.000000   0.000000  -0.000000   0.000000   0.000000
    35  H   -0.000000   0.000000  -0.000000   0.000000  -0.000000  -0.000000
    36  H   -0.000000   0.000000  -0.000000   0.000000   0.000000  -0.000000
    37  H    0.000000  -0.000000   0.000000  -0.000000  -0.000000   0.000000
    38  H   -0.000000  -0.000000   0.000000  -0.000000   0.000000  -0.000000
    39  H    0.000000  -0.000000   0.000000  -0.000000   0.000000   0.000000
    40  H    0.000000  -0.000000   0.000000  -0.000000   0.000000   0.000000
    41  H   -0.000000   0.000000  -0.000000   0.000000  -0.000000  -0.000000
    42  H   -0.000000   0.000000  -0.000013  -0.000006   0.000012   0.000055
    43  H   -0.000015  -0.000013  -0.000659  -0.000710  -0.000192  -0.000218
              31         32         33         34         35         36
     1  C   -0.000000  -0.000000   0.000000  -0.000000   0.000000  -0.000000
     2  C    0.000000  -0.000000  -0.000000   0.000000  -0.000000   0.000000
     3  C   -0.000000   0.000000   0.000000  -0.000000   0.000000  -0.000000
     4  C    0.000027   0.000000   0.000000  -0.000000   0.000000  -0.000000
     5  N   -0.000122   0.000000   0.000000  -0.000000  -0.000000   0.000000
     6  C    0.017281  -0.000003  -0.000002  -0.000001   0.000001  -0.000000
     7  C   -0.052592  -0.000001  -0.000001  -0.000000   0.000002  -0.000000
     8  C    0.441317  -0.000033  -0.000109   0.000008  -0.000033   0.000000
     9  C   -0.073435  -0.000026  -0.004107  -0.000068  -0.001592   0.000001
    10  C   -0.030625  -0.007601  -0.009794  -0.000769   0.002105  -0.000018
    11  O    0.020624   0.009733   0.007442   0.000039   0.000074  -0.000001
    12  O    0.001451  -0.036894  -0.033714   0.007205   0.011865  -0.000068
    13  C    0.000001   0.418212   0.364397  -0.010575  -0.084486   0.001119
    14  C   -0.000023  -0.045675  -0.027887   0.382441   0.411607  -0.007617
    15  N   -0.000000  -0.000864   0.025428  -0.036284  -0.062001  -0.034589
    16  C   -0.000000  -0.000609   0.000184  -0.009302  -0.003699   0.391451
    17  C    0.000000   0.007953  -0.004729   0.015987  -0.021999   0.013717
    18  C    0.017297   0.000089   0.000551  -0.000080   0.000462  -0.000001
    19  C   -0.005327   0.000057   0.000057  -0.000010   0.000046  -0.000000
    20  H   -0.000000  -0.000000   0.000000  -0.000000   0.000000   0.000000
    21  H   -0.000000   0.000000  -0.000000   0.000000  -0.000000  -0.000000
    22  H    0.000000   0.000000   0.000000  -0.000000  -0.000000  -0.000000
    23  H   -0.000000  -0.000000   0.000000  -0.000000   0.000000   0.000000
    24  H   -0.000000   0.000000  -0.000000   0.000000  -0.000000  -0.000000
    25  H   -0.000000   0.000000  -0.000000   0.000000  -0.000000  -0.000000
    26  H   -0.000000  -0.000000   0.000000  -0.000000   0.000000   0.000000
    27  H   -0.000000   0.000000  -0.000000   0.000000  -0.000000  -0.000000
    28  H   -0.000000  -0.000000   0.000000  -0.000000   0.000000   0.000000
    29  H   -0.000043  -0.000000  -0.000000   0.000000  -0.000000   0.000000
    30  H   -0.007544   0.000000  -0.000000   0.000000  -0.000000  -0.000000
    31  H    0.529277  -0.000030  -0.000024  -0.000001  -0.000000   0.000000
    32  H   -0.000030   0.539953  -0.045237   0.006842  -0.008297  -0.000051
    33  H   -0.000024  -0.045237   0.582201  -0.013978   0.013826  -0.000304
    34  H   -0.000001   0.006842  -0.013978   0.543162  -0.044568   0.007439
    35  H   -0.000000  -0.008297   0.013826  -0.044568   0.625771  -0.002738
    36  H    0.000000  -0.000051  -0.000304   0.007439  -0.002738   0.534170
    37  H   -0.000000   0.000025  -0.000118   0.000681  -0.001176  -0.013800
    38  H    0.000000   0.000090   0.000496  -0.004067   0.021063  -0.042996
    39  H   -0.000000  -0.000500  -0.001881   0.000161  -0.003454  -0.000387
    40  H   -0.000000   0.000042  -0.000334  -0.000289  -0.001015   0.000311
    41  H    0.000000  -0.000077   0.001637  -0.001411   0.026998  -0.001255
    42  H   -0.000131   0.000069   0.000121   0.000071   0.000426  -0.000001
    43  H    0.000040  -0.000000  -0.000001   0.000000  -0.000001   0.000000
              37         38         39         40         41         42
     1  C    0.000000   0.000000   0.000000   0.000000   0.000000   0.000000
     2  C   -0.000000  -0.000000   0.000000  -0.000000  -0.000000  -0.000000
     3  C    0.000000   0.000000  -0.000000   0.000000   0.000000   0.000005
     4  C    0.000000   0.000000  -0.000000   0.000000   0.000000  -0.000082
     5  N   -0.000000  -0.000000   0.000000   0.000000  -0.000000  -0.000268
     6  C   -0.000000   0.000000  -0.000000   0.000000   0.000000   0.012600
     7  C    0.000000   0.000000  -0.000000  -0.000000   0.000000   0.000800
     8  C   -0.000000  -0.000000   0.000001  -0.000000  -0.000000   0.005793
     9  C   -0.000000  -0.000003   0.000010   0.000000  -0.000013  -0.058582
    10  C   -0.000000   0.000028  -0.000042  -0.000002   0.000070  -0.031011
    11  O    0.000000  -0.000000  -0.000012  -0.000001   0.000004   0.000422
    12  O    0.000007   0.000047  -0.000304  -0.000009   0.000172   0.010902
    13  C   -0.000588  -0.001358   0.005342   0.000676  -0.006047  -0.001063
    14  C    0.013966  -0.019698  -0.003118   0.013559  -0.018696  -0.000020
    15  N   -0.035216  -0.062766  -0.039203  -0.034450  -0.062392   0.000008
    16  C    0.392671   0.399777   0.012997  -0.006805  -0.010062  -0.000000
    17  C   -0.006002  -0.013395   0.393835   0.393299   0.388596  -0.000001
    18  C    0.000000   0.000002  -0.000003   0.000000   0.000004   0.450667
    19  C    0.000000   0.000000  -0.000000   0.000000   0.000000  -0.056277
    20  H    0.000000  -0.000000  -0.000000   0.000000   0.000000  -0.000000
    21  H    0.000000   0.000000   0.000000   0.000000  -0.000000  -0.000000
    22  H    0.000000  -0.000000  -0.000000   0.000000   0.000000  -0.000000
    23  H    0.000000   0.000000  -0.000000  -0.000000   0.000000  -0.000000
    24  H    0.000000   0.000000   0.000000   0.000000   0.000000  -0.000000
    25  H    0.000000  -0.000000   0.000000   0.000000  -0.000000  -0.000000
    26  H   -0.000000  -0.000000  -0.000000  -0.000000   0.000000   0.000000
    27  H    0.000000   0.000000   0.000000   0.000000  -0.000000  -0.000013
    28  H   -0.000000  -0.000000  -0.000000  -0.000000   0.000000  -0.000006
    29  H   -0.000000   0.000000   0.000000   0.000000  -0.000000   0.000012
    30  H    0.000000  -0.000000   0.000000   0.000000  -0.000000   0.000055
    31  H   -0.000000   0.000000  -0.000000  -0.000000   0.000000  -0.000131
    32  H    0.000025   0.000090  -0.000500   0.000042  -0.000077   0.000069
    33  H   -0.000118   0.000496  -0.001881  -0.000334   0.001637   0.000121
    34  H    0.000681  -0.004067   0.000161  -0.000289  -0.001411   0.000071
    35  H   -0.001176   0.021063  -0.003454  -0.001015   0.026998   0.000426
    36  H   -0.013800  -0.042996  -0.000387   0.000311  -0.001255  -0.000001
    37  H    0.535320  -0.043826   0.000406   0.006602  -0.003207  -0.000000
    38  H   -0.043826   0.636155  -0.001375  -0.003164   0.024265   0.000004
    39  H    0.000406  -0.001375   0.533932  -0.014808  -0.044373  -0.000001
    40  H    0.006602  -0.003164  -0.014808   0.530641  -0.039967   0.000000
    41  H   -0.003207   0.024265  -0.044373  -0.039967   0.634209   0.000003
    42  H   -0.000000   0.000004  -0.000001   0.000000   0.000003   0.512349
    43  H   -0.000000  -0.000000   0.000000  -0.000000  -0.000000  -0.004371
              43
     1  C   -0.000001
     2  C    0.000149
     3  C    0.001331
     4  C    0.011415
     5  N   -0.005168
     6  C   -0.043545
     7  C    0.003939
     8  C    0.002250
     9  C    0.007293
    10  C   -0.001372
    11  O   -0.000000
    12  O   -0.000091
    13  C    0.000010
    14  C   -0.000004
    15  N   -0.000000
    16  C   -0.000000
    17  C    0.000000
    18  C   -0.012767
    19  C    0.385888
    20  H    0.000000
    21  H    0.000000
    22  H    0.000000
    23  H    0.000020
    24  H    0.000023
    25  H   -0.000015
    26  H   -0.000013
    27  H   -0.000659
    28  H   -0.000710
    29  H   -0.000192
    30  H   -0.000218
    31  H    0.000040
    32  H   -0.000000
    33  H   -0.000001
    34  H    0.000000
    35  H   -0.000001
    36  H    0.000000
    37  H   -0.000000
    38  H   -0.000000
    39  H    0.000000
    40  H   -0.000000
    41  H   -0.000000
    42  H   -0.004371
    43  H    0.477121
 Mulliken charges:
               1
     1  C   -0.421369
     2  C   -0.233938
     3  C   -0.299344
     4  C   -0.200859
     5  N   -0.229473
     6  C    0.232241
     7  C   -0.288806
     8  C   -0.111970
     9  C   -0.149887
    10  C    0.219312
    11  O   -0.399364
    12  O   -0.189208
    13  C   -0.141895
    14  C   -0.204282
    15  N   -0.210880
    16  C   -0.334384
    17  C   -0.340541
    18  C   -0.069649
    19  C   -0.284425
    20  H    0.134379
    21  H    0.134306
    22  H    0.147764
    23  H    0.133393
    24  H    0.133377
    25  H    0.143000
    26  H    0.143029
    27  H    0.159921
    28  H    0.159914
    29  H    0.300373
    30  H    0.151985
    31  H    0.142583
    32  H    0.162834
    33  H    0.145880
    34  H    0.157368
    35  H    0.120815
    36  H    0.155618
    37  H    0.154255
    38  H    0.110722
    39  H    0.162778
    40  H    0.155713
    41  H    0.111544
    42  H    0.157522
    43  H    0.179649
 Sum of Mulliken charges =  -0.00000
 Mulliken charges with hydrogens summed into heavy atoms:
               1
     1  C   -0.004921
     2  C    0.032832
     3  C   -0.013315
     4  C    0.118975
     5  N    0.070900
     6  C    0.232241
     7  C   -0.136821
     8  C    0.030613
     9  C   -0.149887
    10  C    0.219312
    11  O   -0.399364
    12  O   -0.189208
    13  C    0.166819
    14  C    0.073902
    15  N   -0.210880
    16  C    0.086211
    17  C    0.089494
    18  C    0.087872
    19  C   -0.104775
 Electronic spatial extent (au):  <R**2>=          12570.3535
 Charge=             -0.0000 electrons
 Dipole moment (field-independent basis, Debye):
    X=             -6.7303    Y=             -4.0822    Z=              0.9270  Tot=              7.9260
 Quadrupole moment (field-independent basis, Debye-Ang):
   XX=            -81.1864   YY=           -119.5364   ZZ=           -120.6865
   XY=            -16.5456   XZ=              5.1292   YZ=              1.3949
 Traceless Quadrupole moment (field-independent basis, Debye-Ang):
   XX=             25.9500   YY=            -12.3999   ZZ=            -13.5501
   XY=            -16.5456   XZ=              5.1292   YZ=              1.3949
 Octapole moment (field-independent basis, Debye-Ang**2):
  XXX=            -53.3485  YYY=            -19.4604  ZZZ=             -1.1024  XYY=            -32.1984
  XXY=            -44.7103  XXZ=             36.2316  XZZ=              7.0713  YZZ=             -3.2632
  YYZ=             -2.4919  XYZ=              7.0792
 Hexadecapole moment (field-independent basis, Debye-Ang**3):
 XXXX=         -14141.5982 YYYY=          -1612.2229 ZZZZ=           -253.9905 XXXY=           -302.7296
 XXXZ=            216.1070 YYYX=           -147.6602 YYYZ=             12.7520 ZZZX=             -8.4486
 ZZZY=              3.7993 XXYY=          -2728.0525 XXZZ=          -2627.9617 YYZZ=           -311.0387
 XXYZ=             36.4612 YYXZ=            -16.4345 ZZXY=              7.8090
 N-N= 1.330866678379D+03 E-N=-4.631829330416D+03  KE= 8.421418440141D+02
 Unable to Open any file for archive entry.
 1\1\GINC-TCN1683\SP\RBP86\TZVP\C15H24N2O2\ELENAA\22-Feb-2021\0\\# BP86
 /TZVP SCRF=COSMORS geom=CHECKPOINT guess=CHECKPOINT\\COSMO-file for #G
 KCBAIGFKIBETG-UHFFFAOYSA-N\\0,1\C,0,-10.7922993425,5.6714297732,-4.093
 2577576\C,0,-9.3211755497,5.488590852,-3.7014092033\C,0,-9.04764625,4.
 1195788427,-3.0648042573\C,0,-7.579320366,3.9401508465,-2.6748413689\N
 ,0,-7.3581695443,2.6294563113,-2.0723494052\C,0,-6.1563000763,2.168748
 6603,-1.6211290971\C,0,-6.055314731,0.862194982,-1.0626536959\C,0,-4.8
 431204185,0.3829854626,-0.5987395808\C,0,-3.6697222776,1.1696363416,-0
 .6629508712\C,0,-2.4076392103,0.6064462514,-0.1536824051\O,0,-2.276015
 3836,-0.5170803475,0.3334719418\O,0,-1.3580566929,1.4772922094,-0.2747
 815535\C,0,-0.0735984269,0.9978370053,0.2056220047\C,0,0.9229955898,2.
 1211677911,-0.0638253647\N,0,2.2443483925,1.8365950849,0.508341256\C,0
 ,3.0700483824,3.0489653381,0.513159068\C,0,2.9328260687,0.7548503372,-
 0.2064125822\C,0,-3.766948481,2.4634756043,-1.2158331194\C,0,-4.976655
 4143,2.9598941216,-1.6865447898\H,0,-11.105760321,4.9058021878,-4.8209
 062044\H,0,-11.4495661093,5.5842836801,-3.2133012837\H,0,-10.967177903
 5,6.6584771153,-4.5472647559\H,0,-9.0228290636,6.2834301589,-2.9959798
 876\H,0,-8.6812359671,5.6092852324,-4.5926608308\H,0,-9.3367571047,3.3
 21255177,-3.771079232\H,0,-9.6798015545,3.9978934017,-2.1674923357\H,0
 ,-7.2844256584,4.733653768,-1.9632837584\H,0,-6.9397186116,4.055780959
 6,-3.5699042875\H,0,-8.1585252565,2.0064609908,-2.0078734274\H,0,-6.94
 97152288,0.2365006482,-1.0028602661\H,0,-4.7808571515,-0.6204662357,-0
 .1731158931\H,0,0.1807019897,0.0669773069,-0.3225693067\H,0,-0.1332265
 661,0.7805935617,1.283520372\H,0,0.535840041,3.0372060572,0.4088155461
 \H,0,0.9769439547,2.3127224564,-1.1604853352\H,0,2.5728017126,3.838711
 2554,1.0953514423\H,0,4.039745421,2.832487728,0.9851540168\H,0,3.26512
 60491,3.4412765265,-0.5109509846\H,0,2.3667174764,-0.1837453907,-0.132
 8140578\H,0,3.9188785997,0.585431292,0.2497711823\H,0,3.0838460266,0.9
 872440107,-1.28544574\H,0,-2.8756732608,3.0892465353,-1.2766569082\H,0
 ,-5.0144477817,3.9645261086,-2.108247283\\Version=ES64L-G16RevC.01\Sta
 te=1-A\HF=-846.3028178\RMSD=4.139e-09\Dipole=-1.8413601,1.9785174,-1.5
 552291\Quadrupole=23.815313,-11.7477098,-12.0676032,1.2301434,3.249417
 1,2.9693785\PG=C01 [X(C15H24N2O2)]\\@
 The archive entry for this job was punched.


  DISAPPOINTMENT IS THE NURSE OF WISDOM.               
                              SIR BOYLE ROCHE                 
 Job cpu time:       0 days  0 hours 21 minutes 43.7 seconds.
 Elapsed time:       0 days  0 hours  0 minutes 42.0 seconds.
 File lengths (MBytes):  RWF=    195 Int=      0 D2E=      0 Chk=     24 Scr=      1
 Normal termination of Gaussian 16 at Mon Feb 22 21:17:06 2021.
