 Entering Gaussian System, Link 0=g16
 Input=GLDOVTGHNKAZLK-UHFFFAOYSA-N.gjf
 Output=GLDOVTGHNKAZLK-UHFFFAOYSA-N.log
 Initial command:
 /sw/arch/RedHatEnterpriseServer7/EB_production/2019/software/Gaussian/g16.c01/l1.exe "/scratch-local/elenaa.9715213/Gau-24098.inp" -scrdir="/scratch-local/elenaa.9715213/"
 Entering Link 1 = /sw/arch/RedHatEnterpriseServer7/EB_production/2019/software/Gaussian/g16.c01/l1.exe PID=     24099.
  
 Copyright (c) 1988-2019, Gaussian, Inc.  All Rights Reserved.
  
 This is part of the Gaussian(R) 16 program.  It is based on
 the Gaussian(R) 09 system (copyright 2009, Gaussian, Inc.),
 the Gaussian(R) 03 system (copyright 2003, Gaussian, Inc.),
 the Gaussian(R) 98 system (copyright 1998, Gaussian, Inc.),
 the Gaussian(R) 94 system (copyright 1995, Gaussian, Inc.),
 the Gaussian 92(TM) system (copyright 1992, Gaussian, Inc.),
 the Gaussian 90(TM) system (copyright 1990, Gaussian, Inc.),
 the Gaussian 88(TM) system (copyright 1988, Gaussian, Inc.),
 the Gaussian 86(TM) system (copyright 1986, Carnegie Mellon
 University), and the Gaussian 82(TM) system (copyright 1983,
 Carnegie Mellon University). Gaussian is a federally registered
 trademark of Gaussian, Inc.
  
 This software contains proprietary and confidential information,
 including trade secrets, belonging to Gaussian, Inc.
  
 This software is provided under written license and may be
 used, copied, transmitted, or stored only in accord with that
 written license.
  
 The following legend is applicable only to US Government
 contracts under FAR:
  
                    RESTRICTED RIGHTS LEGEND
  
 Use, reproduction and disclosure by the US Government is
 subject to restrictions as set forth in subparagraphs (a)
 and (c) of the Commercial Computer Software - Restricted
 Rights clause in FAR 52.227-19.
  
 Gaussian, Inc.
 340 Quinnipiac St., Bldg. 40, Wallingford CT 06492
  
  
 ---------------------------------------------------------------
 Warning -- This program may not be used in any manner that
 competes with the business of Gaussian, Inc. or will provide
 assistance to any competitor of Gaussian, Inc.  The licensee
 of this program is prohibited from giving any competitor of
 Gaussian, Inc. access to this program.  By using this program,
 the user acknowledges that Gaussian, Inc. is engaged in the
 business of creating and licensing software in the field of
 computational chemistry and represents and warrants to the
 licensee that it is not a competitor of Gaussian, Inc. and that
 it will not use this program in any manner prohibited above.
 ---------------------------------------------------------------
  

 Cite this work as:
 Gaussian 16, Revision C.01,
 M. J. Frisch, G. W. Trucks, H. B. Schlegel, G. E. Scuseria, 
 M. A. Robb, J. R. Cheeseman, G. Scalmani, V. Barone, 
 G. A. Petersson, H. Nakatsuji, X. Li, M. Caricato, A. V. Marenich, 
 J. Bloino, B. G. Janesko, R. Gomperts, B. Mennucci, H. P. Hratchian, 
 J. V. Ortiz, A. F. Izmaylov, J. L. Sonnenberg, D. Williams-Young, 
 F. Ding, F. Lipparini, F. Egidi, J. Goings, B. Peng, A. Petrone, 
 T. Henderson, D. Ranasinghe, V. G. Zakrzewski, J. Gao, N. Rega, 
 G. Zheng, W. Liang, M. Hada, M. Ehara, K. Toyota, R. Fukuda, 
 J. Hasegawa, M. Ishida, T. Nakajima, Y. Honda, O. Kitao, H. Nakai, 
 T. Vreven, K. Throssell, J. A. Montgomery, Jr., J. E. Peralta, 
 F. Ogliaro, M. J. Bearpark, J. J. Heyd, E. N. Brothers, K. N. Kudin, 
 V. N. Staroverov, T. A. Keith, R. Kobayashi, J. Normand, 
 K. Raghavachari, A. P. Rendell, J. C. Burant, S. S. Iyengar, 
 J. Tomasi, M. Cossi, J. M. Millam, M. Klene, C. Adamo, R. Cammi, 
 J. W. Ochterski, R. L. Martin, K. Morokuma, O. Farkas, 
 J. B. Foresman, and D. J. Fox, Gaussian, Inc., Wallingford CT, 2019.
 
 ******************************************
 Gaussian 16:  ES64L-G16RevC.01  3-Jul-2019
                22-Feb-2021 
 ******************************************
 %chk=GLDOVTGHNKAZLK-UHFFFAOYSA-N.chk
 %NProcShared=32
 Will use up to   32 processors via shared memory.
 -------------------------------------------------------------
 #P BP86/TZVP EmpiricalDispersion=GD3 SCRF=(Solvent=Water) Opt
 -------------------------------------------------------------
 1/18=20,19=15,26=3,38=1/1,3;
 2/9=110,12=2,17=6,18=5,40=1/2;
 3/5=19,7=101,11=2,25=1,30=1,70=2201,71=1,72=1,74=404,124=31/1,2,3;
 4//1;
 5/5=2,38=5,53=1/2;
 6/7=2,8=2,9=2,10=2,28=1/1;
 7//1,2,3,16;
 1/18=20,19=15,26=3/3(2);
 2/9=110/2;
 99//99;
 2/9=110/2;
 3/5=19,7=101,11=2,25=1,30=1,70=2205,71=1,72=1,74=404,124=31/1,2,3;
 4/5=5,16=3,69=1/1;
 5/5=2,38=5,53=1/2;
 7//1,2,3,16;
 1/18=20,19=15,26=3/3(-5);
 2/9=110/2;
 6/7=2,8=2,9=2,10=2,19=2,28=1/1;
 99/9=1/99;
 Leave Link    1 at Mon Feb 22 21:05:34 2021, MaxMem=           0 cpu:               1.4 elap:               0.1
 (Enter /sw/arch/RedHatEnterpriseServer7/EB_production/2019/software/Gaussian/g16.c01/l101.exe)
 -------------------------------------
 Particle #GLDOVTGHNKAZLK-UHFFFAOYSA-N
 -------------------------------------
 Symbolic Z-matrix:
 Charge =  0 Multiplicity = 1
 C                    -5.10483   10.64956   14.91494 
 C                    -4.74566   9.14813   14.98125 
 C                    -4.21364   8.5952    13.63123 
 C                    -3.85408   7.0847    13.70407 
 C                    -3.32153   6.53013   12.35361 
 C                    -2.9562    5.02123   12.40521 
 C                    -2.42603   4.48481   11.04722 
 C                    -2.06168   2.97748   11.10081 
 C                    -1.53189   2.43965   9.74537 
 C                    -1.17071   0.93318   9.80913 
 C                    -0.64113   0.39607   8.45374 
 C                    -0.27872  -1.1104    8.51328 
 C                     0.25123  -1.64836   7.1574 
 C                     0.61546  -3.15636   7.21199 
 C                     1.14654  -3.69962   5.8568 
 C                     1.50902  -5.2089    5.91854 
 C                     2.04094  -5.76122   4.56831 
 C                     2.39787  -7.26246   4.64217 
 O                     2.87759  -7.70847   3.37926 
 H                    -5.47182   10.98533   15.8858 
 H                    -4.22567   11.24087   14.65312 
 H                    -5.88412   10.82283   14.17078 
 H                    -5.63858   8.59003   15.27476 
 H                    -3.98677   9.00639   15.75517 
 H                    -3.32317   9.15993   13.34085 
 H                    -4.9752    8.74351   12.86037 
 H                    -3.09327   6.93888   14.47601 
 H                    -4.74566   6.52237   13.99543 
 H                    -4.08537   6.68248   11.58647 
 H                    -2.43302   7.09898   12.06704 
 H                    -3.8433    4.44947   12.69009 
 H                    -2.19127   4.86589   13.17056 
 H                    -3.18948   4.63732   10.2794 
 H                    -1.53753   5.05371   10.75985 
 H                    -2.94918   2.40554   11.38571 
 H                    -1.29638   2.82215   11.86641 
 H                    -0.64275   3.00807   9.45804 
 H                    -2.29563   2.59144   8.97732 
 H                    -2.05946   0.36448   10.09586 
 H                    -0.40684   0.78104   10.57651 
 H                    -1.40584   0.54985   7.68772 
 H                     0.24684   0.96643   8.16839 
 H                    -1.16754  -1.67907   8.80032 
 H                     0.48504  -1.26251   9.28095 
 H                    -0.51336  -1.49444   6.39095 
 H                     1.13925  -1.07788   6.87159 
 H                    -0.27307  -3.72577   7.49909 
 H                     1.3793   -3.30926   7.97966 
 H                     2.03648  -3.13283   5.56906 
 H                     0.38314  -3.54957   5.0882 
 H                     2.27299  -5.35924   6.68667 
 H                     0.61902  -5.77615   6.20563 
 H                     2.93535  -5.20564   4.27308 
 H                     1.28293  -5.62215   3.79249 
 H                     1.51721  -7.84944   4.9116 
 H                     3.17252  -7.43219   5.39303 
 H                     3.07809  -8.65874   3.51344 
 
 ITRead=  0  0  0  0  0  0  0  0  0  0  0  0  0  0  0  0  0  0  0  0
 ITRead=  0  0  0  0  0  0  0  0  0  0  0  0  0  0  0  0  0  0  0  0
 ITRead=  0  0  0  0  0  0  0  0  0  0  0  0  0  0  0  0  0
 MicOpt= -1 -1 -1 -1 -1 -1 -1 -1 -1 -1 -1 -1 -1 -1 -1 -1 -1 -1 -1 -1
 MicOpt= -1 -1 -1 -1 -1 -1 -1 -1 -1 -1 -1 -1 -1 -1 -1 -1 -1 -1 -1 -1
 MicOpt= -1 -1 -1 -1 -1 -1 -1 -1 -1 -1 -1 -1 -1 -1 -1 -1 -1
 NAtoms=     57 NQM=       57 NQMF=       0 NMMI=      0 NMMIF=      0
                NMic=       0 NMicF=      0.
                    Isotopes and Nuclear Properties:
 (Nuclear quadrupole moments (NQMom) in fm**2, nuclear magnetic moments (NMagM)
  in nuclear magnetons)

  Atom         1           2           3           4           5           6           7           8           9          10
 IAtWgt=          12          12          12          12          12          12          12          12          12          12
 AtmWgt=  12.0000000  12.0000000  12.0000000  12.0000000  12.0000000  12.0000000  12.0000000  12.0000000  12.0000000  12.0000000
 NucSpn=           0           0           0           0           0           0           0           0           0           0
 AtZEff=  -0.0000000  -0.0000000  -0.0000000  -0.0000000  -0.0000000  -0.0000000  -0.0000000  -0.0000000  -0.0000000  -0.0000000
 NQMom=    0.0000000   0.0000000   0.0000000   0.0000000   0.0000000   0.0000000   0.0000000   0.0000000   0.0000000   0.0000000
 NMagM=    0.0000000   0.0000000   0.0000000   0.0000000   0.0000000   0.0000000   0.0000000   0.0000000   0.0000000   0.0000000
 AtZNuc=   6.0000000   6.0000000   6.0000000   6.0000000   6.0000000   6.0000000   6.0000000   6.0000000   6.0000000   6.0000000

  Atom        11          12          13          14          15          16          17          18          19          20
 IAtWgt=          12          12          12          12          12          12          12          12          16           1
 AtmWgt=  12.0000000  12.0000000  12.0000000  12.0000000  12.0000000  12.0000000  12.0000000  12.0000000  15.9949146   1.0078250
 NucSpn=           0           0           0           0           0           0           0           0           0           1
 AtZEff=  -0.0000000  -0.0000000  -0.0000000  -0.0000000  -0.0000000  -0.0000000  -0.0000000  -0.0000000  -0.0000000  -0.0000000
 NQMom=    0.0000000   0.0000000   0.0000000   0.0000000   0.0000000   0.0000000   0.0000000   0.0000000   0.0000000   0.0000000
 NMagM=    0.0000000   0.0000000   0.0000000   0.0000000   0.0000000   0.0000000   0.0000000   0.0000000   0.0000000   2.7928460
 AtZNuc=   6.0000000   6.0000000   6.0000000   6.0000000   6.0000000   6.0000000   6.0000000   6.0000000   8.0000000   1.0000000

  Atom        21          22          23          24          25          26          27          28          29          30
 IAtWgt=           1           1           1           1           1           1           1           1           1           1
 AtmWgt=   1.0078250   1.0078250   1.0078250   1.0078250   1.0078250   1.0078250   1.0078250   1.0078250   1.0078250   1.0078250
 NucSpn=           1           1           1           1           1           1           1           1           1           1
 AtZEff=  -0.0000000  -0.0000000  -0.0000000  -0.0000000  -0.0000000  -0.0000000  -0.0000000  -0.0000000  -0.0000000  -0.0000000
 NQMom=    0.0000000   0.0000000   0.0000000   0.0000000   0.0000000   0.0000000   0.0000000   0.0000000   0.0000000   0.0000000
 NMagM=    2.7928460   2.7928460   2.7928460   2.7928460   2.7928460   2.7928460   2.7928460   2.7928460   2.7928460   2.7928460
 AtZNuc=   1.0000000   1.0000000   1.0000000   1.0000000   1.0000000   1.0000000   1.0000000   1.0000000   1.0000000   1.0000000

  Atom        31          32          33          34          35          36          37          38          39          40
 IAtWgt=           1           1           1           1           1           1           1           1           1           1
 AtmWgt=   1.0078250   1.0078250   1.0078250   1.0078250   1.0078250   1.0078250   1.0078250   1.0078250   1.0078250   1.0078250
 NucSpn=           1           1           1           1           1           1           1           1           1           1
 AtZEff=  -0.0000000  -0.0000000  -0.0000000  -0.0000000  -0.0000000  -0.0000000  -0.0000000  -0.0000000  -0.0000000  -0.0000000
 NQMom=    0.0000000   0.0000000   0.0000000   0.0000000   0.0000000   0.0000000   0.0000000   0.0000000   0.0000000   0.0000000
 NMagM=    2.7928460   2.7928460   2.7928460   2.7928460   2.7928460   2.7928460   2.7928460   2.7928460   2.7928460   2.7928460
 AtZNuc=   1.0000000   1.0000000   1.0000000   1.0000000   1.0000000   1.0000000   1.0000000   1.0000000   1.0000000   1.0000000

  Atom        41          42          43          44          45          46          47          48          49          50
 IAtWgt=           1           1           1           1           1           1           1           1           1           1
 AtmWgt=   1.0078250   1.0078250   1.0078250   1.0078250   1.0078250   1.0078250   1.0078250   1.0078250   1.0078250   1.0078250
 NucSpn=           1           1           1           1           1           1           1           1           1           1
 AtZEff=  -0.0000000  -0.0000000  -0.0000000  -0.0000000  -0.0000000  -0.0000000  -0.0000000  -0.0000000  -0.0000000  -0.0000000
 NQMom=    0.0000000   0.0000000   0.0000000   0.0000000   0.0000000   0.0000000   0.0000000   0.0000000   0.0000000   0.0000000
 NMagM=    2.7928460   2.7928460   2.7928460   2.7928460   2.7928460   2.7928460   2.7928460   2.7928460   2.7928460   2.7928460
 AtZNuc=   1.0000000   1.0000000   1.0000000   1.0000000   1.0000000   1.0000000   1.0000000   1.0000000   1.0000000   1.0000000

  Atom        51          52          53          54          55          56          57
 IAtWgt=           1           1           1           1           1           1           1
 AtmWgt=   1.0078250   1.0078250   1.0078250   1.0078250   1.0078250   1.0078250   1.0078250
 NucSpn=           1           1           1           1           1           1           1
 AtZEff=  -0.0000000  -0.0000000  -0.0000000  -0.0000000  -0.0000000  -0.0000000  -0.0000000
 NQMom=    0.0000000   0.0000000   0.0000000   0.0000000   0.0000000   0.0000000   0.0000000
 NMagM=    2.7928460   2.7928460   2.7928460   2.7928460   2.7928460   2.7928460   2.7928460
 AtZNuc=   1.0000000   1.0000000   1.0000000   1.0000000   1.0000000   1.0000000   1.0000000
 Leave Link  101 at Mon Feb 22 21:05:34 2021, MaxMem=   104857600 cpu:               3.4 elap:               0.1
 (Enter /sw/arch/RedHatEnterpriseServer7/EB_production/2019/software/Gaussian/g16.c01/l103.exe)

 GradGradGradGradGradGradGradGradGradGradGradGradGradGradGradGradGradGrad
 Berny optimization.
 Initialization pass.
                           ----------------------------
                           !    Initial Parameters    !
                           ! (Angstroms and Degrees)  !
 --------------------------                            --------------------------
 ! Name  Definition              Value          Derivative Info.                !
 --------------------------------------------------------------------------------
 ! R1    R(1,2)                  1.5452         estimate D2E/DX2                !
 ! R2    R(1,20)                 1.0909         estimate D2E/DX2                !
 ! R3    R(1,21)                 1.0914         estimate D2E/DX2                !
 ! R4    R(1,22)                 1.0914         estimate D2E/DX2                !
 ! R5    R(2,3)                  1.5528         estimate D2E/DX2                !
 ! R6    R(2,23)                 1.0931         estimate D2E/DX2                !
 ! R7    R(2,24)                 1.0931         estimate D2E/DX2                !
 ! R8    R(3,4)                  1.5544         estimate D2E/DX2                !
 ! R9    R(3,25)                 1.0937         estimate D2E/DX2                !
 ! R10   R(3,26)                 1.0937         estimate D2E/DX2                !
 ! R11   R(4,5)                  1.554          estimate D2E/DX2                !
 ! R12   R(4,27)                 1.0936         estimate D2E/DX2                !
 ! R13   R(4,28)                 1.0936         estimate D2E/DX2                !
 ! R14   R(5,6)                  1.5534         estimate D2E/DX2                !
 ! R15   R(5,29)                 1.0932         estimate D2E/DX2                !
 ! R16   R(5,30)                 1.0932         estimate D2E/DX2                !
 ! R17   R(6,7)                  1.5534         estimate D2E/DX2                !
 ! R18   R(6,31)                 1.0932         estimate D2E/DX2                !
 ! R19   R(6,32)                 1.0932         estimate D2E/DX2                !
 ! R20   R(7,8)                  1.5517         estimate D2E/DX2                !
 ! R21   R(7,33)                 1.0935         estimate D2E/DX2                !
 ! R22   R(7,34)                 1.0935         estimate D2E/DX2                !
 ! R23   R(8,9)                  1.5515         estimate D2E/DX2                !
 ! R24   R(8,35)                 1.0936         estimate D2E/DX2                !
 ! R25   R(8,36)                 1.0936         estimate D2E/DX2                !
 ! R26   R(9,10)                 1.5505         estimate D2E/DX2                !
 ! R27   R(9,37)                 1.0937         estimate D2E/DX2                !
 ! R28   R(9,38)                 1.0937         estimate D2E/DX2                !
 ! R29   R(10,11)                1.5511         estimate D2E/DX2                !
 ! R30   R(10,39)                1.0934         estimate D2E/DX2                !
 ! R31   R(10,40)                1.0934         estimate D2E/DX2                !
 ! R32   R(11,12)                1.5506         estimate D2E/DX2                !
 ! R33   R(11,41)                1.0933         estimate D2E/DX2                !
 ! R34   R(11,42)                1.0933         estimate D2E/DX2                !
 ! R35   R(12,13)                1.552          estimate D2E/DX2                !
 ! R36   R(12,43)                1.0935         estimate D2E/DX2                !
 ! R37   R(12,44)                1.0935         estimate D2E/DX2                !
 ! R38   R(13,14)                1.5523         estimate D2E/DX2                !
 ! R39   R(13,45)                1.0935         estimate D2E/DX2                !
 ! R40   R(13,46)                1.0935         estimate D2E/DX2                !
 ! R41   R(14,15)                1.5536         estimate D2E/DX2                !
 ! R42   R(14,47)                1.0937         estimate D2E/DX2                !
 ! R43   R(14,48)                1.0937         estimate D2E/DX2                !
 ! R44   R(15,16)                1.5534         estimate D2E/DX2                !
 ! R45   R(15,49)                1.0936         estimate D2E/DX2                !
 ! R46   R(15,50)                1.0936         estimate D2E/DX2                !
 ! R47   R(16,17)                1.5528         estimate D2E/DX2                !
 ! R48   R(16,51)                1.0937         estimate D2E/DX2                !
 ! R49   R(16,52)                1.0938         estimate D2E/DX2                !
 ! R50   R(17,18)                1.5449         estimate D2E/DX2                !
 ! R51   R(17,53)                1.0935         estimate D2E/DX2                !
 ! R52   R(17,54)                1.0935         estimate D2E/DX2                !
 ! R53   R(18,19)                1.4227         estimate D2E/DX2                !
 ! R54   R(18,55)                1.0921         estimate D2E/DX2                !
 ! R55   R(18,56)                1.0921         estimate D2E/DX2                !
 ! R56   R(19,57)                0.9804         estimate D2E/DX2                !
 ! A1    A(2,1,20)             109.8211         estimate D2E/DX2                !
 ! A2    A(2,1,21)             110.4567         estimate D2E/DX2                !
 ! A3    A(2,1,22)             110.4567         estimate D2E/DX2                !
 ! A4    A(20,1,21)            108.5264         estimate D2E/DX2                !
 ! A5    A(20,1,22)            108.5274         estimate D2E/DX2                !
 ! A6    A(21,1,22)            109.0022         estimate D2E/DX2                !
 ! A7    A(1,2,3)              112.8496         estimate D2E/DX2                !
 ! A8    A(1,2,23)             108.5263         estimate D2E/DX2                !
 ! A9    A(1,2,24)             108.5261         estimate D2E/DX2                !
 ! A10   A(3,2,23)             109.3598         estimate D2E/DX2                !
 ! A11   A(3,2,24)             109.359          estimate D2E/DX2                !
 ! A12   A(23,2,24)            108.1065         estimate D2E/DX2                !
 ! A13   A(2,3,4)              112.6144         estimate D2E/DX2                !
 ! A14   A(2,3,25)             109.0208         estimate D2E/DX2                !
 ! A15   A(2,3,26)             109.0205         estimate D2E/DX2                !
 ! A16   A(4,3,25)             109.0183         estimate D2E/DX2                !
 ! A17   A(4,3,26)             109.0181         estimate D2E/DX2                !
 ! A18   A(25,3,26)            108.0457         estimate D2E/DX2                !
 ! A19   A(3,4,5)              112.6645         estimate D2E/DX2                !
 ! A20   A(3,4,27)             108.879          estimate D2E/DX2                !
 ! A21   A(3,4,28)             108.8787         estimate D2E/DX2                !
 ! A22   A(5,4,27)             109.1122         estimate D2E/DX2                !
 ! A23   A(5,4,28)             109.1116         estimate D2E/DX2                !
 ! A24   A(27,4,28)            108.092          estimate D2E/DX2                !
 ! A25   A(4,5,6)              113.4773         estimate D2E/DX2                !
 ! A26   A(4,5,29)             108.7013         estimate D2E/DX2                !
 ! A27   A(4,5,30)             108.701          estimate D2E/DX2                !
 ! A28   A(6,5,29)             108.8447         estimate D2E/DX2                !
 ! A29   A(6,5,30)             108.8449         estimate D2E/DX2                !
 ! A30   A(29,5,30)            108.1437         estimate D2E/DX2                !
 ! A31   A(5,6,7)              112.7477         estimate D2E/DX2                !
 ! A32   A(5,6,31)             109.018          estimate D2E/DX2                !
 ! A33   A(5,6,32)             109.0178         estimate D2E/DX2                !
 ! A34   A(7,6,31)             108.9154         estimate D2E/DX2                !
 ! A35   A(7,6,32)             108.9152         estimate D2E/DX2                !
 ! A36   A(31,6,32)            108.1231         estimate D2E/DX2                !
 ! A37   A(6,7,8)              112.6691         estimate D2E/DX2                !
 ! A38   A(6,7,33)             109.1117         estimate D2E/DX2                !
 ! A39   A(6,7,34)             109.112          estimate D2E/DX2                !
 ! A40   A(8,7,33)             108.8859         estimate D2E/DX2                !
 ! A41   A(8,7,34)             108.886          estimate D2E/DX2                !
 ! A42   A(33,7,34)            108.0723         estimate D2E/DX2                !
 ! A43   A(7,8,9)              112.7527         estimate D2E/DX2                !
 ! A44   A(7,8,35)             109.0556         estimate D2E/DX2                !
 ! A45   A(7,8,36)             109.0551         estimate D2E/DX2                !
 ! A46   A(9,8,35)             108.8698         estimate D2E/DX2                !
 ! A47   A(9,8,36)             108.8693         estimate D2E/DX2                !
 ! A48   A(35,8,36)            108.1349         estimate D2E/DX2                !
 ! A49   A(8,9,10)             112.3604         estimate D2E/DX2                !
 ! A50   A(8,9,37)             109.0837         estimate D2E/DX2                !
 ! A51   A(8,9,38)             109.083          estimate D2E/DX2                !
 ! A52   A(10,9,37)            109.0498         estimate D2E/DX2                !
 ! A53   A(10,9,38)            109.0496         estimate D2E/DX2                !
 ! A54   A(37,9,38)            108.1235         estimate D2E/DX2                !
 ! A55   A(9,10,11)            112.3361         estimate D2E/DX2                !
 ! A56   A(9,10,39)            109.0745         estimate D2E/DX2                !
 ! A57   A(9,10,40)            109.0746         estimate D2E/DX2                !
 ! A58   A(11,10,39)           109.0599         estimate D2E/DX2                !
 ! A59   A(11,10,40)           109.0603         estimate D2E/DX2                !
 ! A60   A(39,10,40)           108.1463         estimate D2E/DX2                !
 ! A61   A(10,11,12)           112.4985         estimate D2E/DX2                !
 ! A62   A(10,11,41)           108.9495         estimate D2E/DX2                !
 ! A63   A(10,11,42)           108.9488         estimate D2E/DX2                !
 ! A64   A(12,11,41)           109.0897         estimate D2E/DX2                !
 ! A65   A(12,11,42)           109.0896         estimate D2E/DX2                !
 ! A66   A(41,11,42)           108.1716         estimate D2E/DX2                !
 ! A67   A(11,12,13)           112.5212         estimate D2E/DX2                !
 ! A68   A(11,12,43)           108.9866         estimate D2E/DX2                !
 ! A69   A(11,12,44)           108.9863         estimate D2E/DX2                !
 ! A70   A(13,12,43)           109.0633         estimate D2E/DX2                !
 ! A71   A(13,12,44)           109.0627         estimate D2E/DX2                !
 ! A72   A(43,12,44)           108.1248         estimate D2E/DX2                !
 ! A73   A(12,13,14)           112.7137         estimate D2E/DX2                !
 ! A74   A(12,13,45)           108.9535         estimate D2E/DX2                !
 ! A75   A(12,13,46)           108.9543         estimate D2E/DX2                !
 ! A76   A(14,13,45)           108.9928         estimate D2E/DX2                !
 ! A77   A(14,13,46)           108.9932         estimate D2E/DX2                !
 ! A78   A(45,13,46)           108.1313         estimate D2E/DX2                !
 ! A79   A(13,14,15)           112.9061         estimate D2E/DX2                !
 ! A80   A(13,14,47)           108.928          estimate D2E/DX2                !
 ! A81   A(13,14,48)           108.9272         estimate D2E/DX2                !
 ! A82   A(15,14,47)           108.9439         estimate D2E/DX2                !
 ! A83   A(15,14,48)           108.9437         estimate D2E/DX2                !
 ! A84   A(47,14,48)           108.0809         estimate D2E/DX2                !
 ! A85   A(14,15,16)           112.6334         estimate D2E/DX2                !
 ! A86   A(14,15,49)           109.0531         estimate D2E/DX2                !
 ! A87   A(14,15,50)           109.053          estimate D2E/DX2                !
 ! A88   A(16,15,49)           108.9117         estimate D2E/DX2                !
 ! A89   A(16,15,50)           108.9121         estimate D2E/DX2                !
 ! A90   A(49,15,50)           108.1804         estimate D2E/DX2                !
 ! A91   A(15,16,17)           113.0145         estimate D2E/DX2                !
 ! A92   A(15,16,51)           108.9321         estimate D2E/DX2                !
 ! A93   A(15,16,52)           108.9321         estimate D2E/DX2                !
 ! A94   A(17,16,51)           108.8153         estimate D2E/DX2                !
 ! A95   A(17,16,52)           108.815          estimate D2E/DX2                !
 ! A96   A(51,16,52)           108.2247         estimate D2E/DX2                !
 ! A97   A(16,17,18)           112.5338         estimate D2E/DX2                !
 ! A98   A(16,17,53)           109.5258         estimate D2E/DX2                !
 ! A99   A(16,17,54)           109.5256         estimate D2E/DX2                !
 ! A100  A(18,17,53)           108.521          estimate D2E/DX2                !
 ! A101  A(18,17,54)           108.5214         estimate D2E/DX2                !
 ! A102  A(53,17,54)           108.1077         estimate D2E/DX2                !
 ! A103  A(17,18,19)           109.884          estimate D2E/DX2                !
 ! A104  A(17,18,55)           110.3519         estimate D2E/DX2                !
 ! A105  A(17,18,56)           110.3519         estimate D2E/DX2                !
 ! A106  A(19,18,55)           108.8089         estimate D2E/DX2                !
 ! A107  A(19,18,56)           108.8097         estimate D2E/DX2                !
 ! A108  A(55,18,56)           108.5925         estimate D2E/DX2                !
 ! A109  A(18,19,57)           104.5562         estimate D2E/DX2                !
 ! D1    D(20,1,2,3)          -179.9992         estimate D2E/DX2                !
 ! D2    D(20,1,2,23)           58.6286         estimate D2E/DX2                !
 ! D3    D(20,1,2,24)          -58.6281         estimate D2E/DX2                !
 ! D4    D(21,1,2,3)           -60.3336         estimate D2E/DX2                !
 ! D5    D(21,1,2,23)          178.2942         estimate D2E/DX2                !
 ! D6    D(21,1,2,24)           61.0375         estimate D2E/DX2                !
 ! D7    D(22,1,2,3)            60.334          estimate D2E/DX2                !
 ! D8    D(22,1,2,23)          -61.0382         estimate D2E/DX2                !
 ! D9    D(22,1,2,24)         -178.2949         estimate D2E/DX2                !
 ! D10   D(1,2,3,4)            179.9999         estimate D2E/DX2                !
 ! D11   D(1,2,3,25)            58.8687         estimate D2E/DX2                !
 ! D12   D(1,2,3,26)           -58.8693         estimate D2E/DX2                !
 ! D13   D(23,2,3,4)           -59.1015         estimate D2E/DX2                !
 ! D14   D(23,2,3,25)          179.7673         estimate D2E/DX2                !
 ! D15   D(23,2,3,26)           62.0293         estimate D2E/DX2                !
 ! D16   D(24,2,3,4)            59.102          estimate D2E/DX2                !
 ! D17   D(24,2,3,25)          -62.0292         estimate D2E/DX2                !
 ! D18   D(24,2,3,26)         -179.7672         estimate D2E/DX2                !
 ! D19   D(2,3,4,5)            179.9996         estimate D2E/DX2                !
 ! D20   D(2,3,4,27)           -58.8162         estimate D2E/DX2                !
 ! D21   D(2,3,4,28)            58.8163         estimate D2E/DX2                !
 ! D22   D(25,3,4,5)           -58.8678         estimate D2E/DX2                !
 ! D23   D(25,3,4,27)           62.3164         estimate D2E/DX2                !
 ! D24   D(25,3,4,28)          179.9489         estimate D2E/DX2                !
 ! D25   D(26,3,4,5)            58.8674         estimate D2E/DX2                !
 ! D26   D(26,3,4,27)         -179.9484         estimate D2E/DX2                !
 ! D27   D(26,3,4,28)          -62.3159         estimate D2E/DX2                !
 ! D28   D(3,4,5,6)           -179.9998         estimate D2E/DX2                !
 ! D29   D(3,4,5,29)           -58.7473         estimate D2E/DX2                !
 ! D30   D(3,4,5,30)            58.7475         estimate D2E/DX2                !
 ! D31   D(27,4,5,6)            58.9489         estimate D2E/DX2                !
 ! D32   D(27,4,5,29)         -179.7985         estimate D2E/DX2                !
 ! D33   D(27,4,5,30)          -62.3038         estimate D2E/DX2                !
 ! D34   D(28,4,5,6)           -58.9494         estimate D2E/DX2                !
 ! D35   D(28,4,5,29)           62.3032         estimate D2E/DX2                !
 ! D36   D(28,4,5,30)          179.798          estimate D2E/DX2                !
 ! D37   D(4,5,6,7)           -179.9998         estimate D2E/DX2                !
 ! D38   D(4,5,6,31)            58.9139         estimate D2E/DX2                !
 ! D39   D(4,5,6,32)           -58.914          estimate D2E/DX2                !
 ! D40   D(29,5,6,7)            58.828          estimate D2E/DX2                !
 ! D41   D(29,5,6,31)          -62.2583         estimate D2E/DX2                !
 ! D42   D(29,5,6,32)          179.9139         estimate D2E/DX2                !
 ! D43   D(30,5,6,7)           -58.8279         estimate D2E/DX2                !
 ! D44   D(30,5,6,31)         -179.9142         estimate D2E/DX2                !
 ! D45   D(30,5,6,32)           62.2579         estimate D2E/DX2                !
 ! D46   D(5,6,7,8)           -179.9998         estimate D2E/DX2                !
 ! D47   D(5,6,7,33)           -58.9371         estimate D2E/DX2                !
 ! D48   D(5,6,7,34)            58.9372         estimate D2E/DX2                !
 ! D49   D(31,6,7,8)           -58.8551         estimate D2E/DX2                !
 ! D50   D(31,6,7,33)           62.2076         estimate D2E/DX2                !
 ! D51   D(31,6,7,34)         -179.918          estimate D2E/DX2                !
 ! D52   D(32,6,7,8)            58.8559         estimate D2E/DX2                !
 ! D53   D(32,6,7,33)          179.9186         estimate D2E/DX2                !
 ! D54   D(32,6,7,34)          -62.207          estimate D2E/DX2                !
 ! D55   D(6,7,8,9)           -179.9998         estimate D2E/DX2                !
 ! D56   D(6,7,8,35)            58.9422         estimate D2E/DX2                !
 ! D57   D(6,7,8,36)           -58.9428         estimate D2E/DX2                !
 ! D58   D(33,7,8,9)            58.8089         estimate D2E/DX2                !
 ! D59   D(33,7,8,35)          -62.2491         estimate D2E/DX2                !
 ! D60   D(33,7,8,36)          179.8659         estimate D2E/DX2                !
 ! D61   D(34,7,8,9)           -58.808          estimate D2E/DX2                !
 ! D62   D(34,7,8,35)         -179.866          estimate D2E/DX2                !
 ! D63   D(34,7,8,36)           62.249          estimate D2E/DX2                !
 ! D64   D(7,8,9,10)           179.9998         estimate D2E/DX2                !
 ! D65   D(7,8,9,37)            58.9511         estimate D2E/DX2                !
 ! D66   D(7,8,9,38)           -58.9522         estimate D2E/DX2                !
 ! D67   D(35,8,9,10)          -58.8363         estimate D2E/DX2                !
 ! D68   D(35,8,9,37)         -179.885          estimate D2E/DX2                !
 ! D69   D(35,8,9,38)           62.2117         estimate D2E/DX2                !
 ! D70   D(36,8,9,10)           58.837          estimate D2E/DX2                !
 ! D71   D(36,8,9,37)          -62.2117         estimate D2E/DX2                !
 ! D72   D(36,8,9,38)          179.885          estimate D2E/DX2                !
 ! D73   D(8,9,10,11)          179.9995         estimate D2E/DX2                !
 ! D74   D(8,9,10,39)           58.9601         estimate D2E/DX2                !
 ! D75   D(8,9,10,40)          -58.9606         estimate D2E/DX2                !
 ! D76   D(37,9,10,11)         -58.9324         estimate D2E/DX2                !
 ! D77   D(37,9,10,39)        -179.9717         estimate D2E/DX2                !
 ! D78   D(37,9,10,40)          62.1075         estimate D2E/DX2                !
 ! D79   D(38,9,10,11)          58.9323         estimate D2E/DX2                !
 ! D80   D(38,9,10,39)         -62.107          estimate D2E/DX2                !
 ! D81   D(38,9,10,40)         179.9722         estimate D2E/DX2                !
 ! D82   D(9,10,11,12)         179.9999         estimate D2E/DX2                !
 ! D83   D(9,10,11,41)         -58.9036         estimate D2E/DX2                !
 ! D84   D(9,10,11,42)          58.9041         estimate D2E/DX2                !
 ! D85   D(39,10,11,12)        -58.9524         estimate D2E/DX2                !
 ! D86   D(39,10,11,41)         62.1441         estimate D2E/DX2                !
 ! D87   D(39,10,11,42)        179.9518         estimate D2E/DX2                !
 ! D88   D(40,10,11,12)         58.9518         estimate D2E/DX2                !
 ! D89   D(40,10,11,41)       -179.9517         estimate D2E/DX2                !
 ! D90   D(40,10,11,42)        -62.1441         estimate D2E/DX2                !
 ! D91   D(10,11,12,13)       -179.9995         estimate D2E/DX2                !
 ! D92   D(10,11,12,43)         58.897          estimate D2E/DX2                !
 ! D93   D(10,11,12,44)        -58.897          estimate D2E/DX2                !
 ! D94   D(41,11,12,13)         58.9842         estimate D2E/DX2                !
 ! D95   D(41,11,12,43)        -62.1193         estimate D2E/DX2                !
 ! D96   D(41,11,12,44)       -179.9132         estimate D2E/DX2                !
 ! D97   D(42,11,12,13)        -58.9843         estimate D2E/DX2                !
 ! D98   D(42,11,12,43)        179.9122         estimate D2E/DX2                !
 ! D99   D(42,11,12,44)         62.1183         estimate D2E/DX2                !
 ! D100  D(11,12,13,14)       -179.9998         estimate D2E/DX2                !
 ! D101  D(11,12,13,45)        -58.8826         estimate D2E/DX2                !
 ! D102  D(11,12,13,46)         58.8821         estimate D2E/DX2                !
 ! D103  D(43,12,13,14)        -58.9402         estimate D2E/DX2                !
 ! D104  D(43,12,13,45)         62.177          estimate D2E/DX2                !
 ! D105  D(43,12,13,46)        179.9417         estimate D2E/DX2                !
 ! D106  D(44,12,13,14)         58.9413         estimate D2E/DX2                !
 ! D107  D(44,12,13,45)       -179.9415         estimate D2E/DX2                !
 ! D108  D(44,12,13,46)        -62.1768         estimate D2E/DX2                !
 ! D109  D(12,13,14,15)        179.9998         estimate D2E/DX2                !
 ! D110  D(12,13,14,47)         58.8365         estimate D2E/DX2                !
 ! D111  D(12,13,14,48)        -58.8377         estimate D2E/DX2                !
 ! D112  D(45,13,14,15)         58.905          estimate D2E/DX2                !
 ! D113  D(45,13,14,47)        -62.2582         estimate D2E/DX2                !
 ! D114  D(45,13,14,48)       -179.9325         estimate D2E/DX2                !
 ! D115  D(46,13,14,15)        -58.9042         estimate D2E/DX2                !
 ! D116  D(46,13,14,47)        179.9325         estimate D2E/DX2                !
 ! D117  D(46,13,14,48)         62.2583         estimate D2E/DX2                !
 ! D118  D(13,14,15,16)        179.9997         estimate D2E/DX2                !
 ! D119  D(13,14,15,49)         58.9686         estimate D2E/DX2                !
 ! D120  D(13,14,15,50)        -58.9685         estimate D2E/DX2                !
 ! D121  D(47,14,15,16)        -58.846          estimate D2E/DX2                !
 ! D122  D(47,14,15,49)       -179.8772         estimate D2E/DX2                !
 ! D123  D(47,14,15,50)         62.1857         estimate D2E/DX2                !
 ! D124  D(48,14,15,16)         58.8466         estimate D2E/DX2                !
 ! D125  D(48,14,15,49)        -62.1845         estimate D2E/DX2                !
 ! D126  D(48,14,15,50)        179.8784         estimate D2E/DX2                !
 ! D127  D(14,15,16,17)        180.0            estimate D2E/DX2                !
 ! D128  D(14,15,16,51)        -58.9259         estimate D2E/DX2                !
 ! D129  D(14,15,16,52)         58.9261         estimate D2E/DX2                !
 ! D130  D(49,15,16,17)        -58.8881         estimate D2E/DX2                !
 ! D131  D(49,15,16,51)         62.186          estimate D2E/DX2                !
 ! D132  D(49,15,16,52)       -179.962          estimate D2E/DX2                !
 ! D133  D(50,15,16,17)         58.8878         estimate D2E/DX2                !
 ! D134  D(50,15,16,51)        179.9619         estimate D2E/DX2                !
 ! D135  D(50,15,16,52)        -62.186          estimate D2E/DX2                !
 ! D136  D(15,16,17,18)        179.9999         estimate D2E/DX2                !
 ! D137  D(15,16,17,53)         59.2008         estimate D2E/DX2                !
 ! D138  D(15,16,17,54)        -59.2007         estimate D2E/DX2                !
 ! D139  D(51,16,17,18)         58.8596         estimate D2E/DX2                !
 ! D140  D(51,16,17,53)        -61.9395         estimate D2E/DX2                !
 ! D141  D(51,16,17,54)        179.659          estimate D2E/DX2                !
 ! D142  D(52,16,17,18)        -58.8599         estimate D2E/DX2                !
 ! D143  D(52,16,17,53)       -179.659          estimate D2E/DX2                !
 ! D144  D(52,16,17,54)         61.9395         estimate D2E/DX2                !
 ! D145  D(16,17,18,19)        179.9997         estimate D2E/DX2                !
 ! D146  D(16,17,18,55)         60.0102         estimate D2E/DX2                !
 ! D147  D(16,17,18,56)        -60.0098         estimate D2E/DX2                !
 ! D148  D(53,17,18,19)        -58.6266         estimate D2E/DX2                !
 ! D149  D(53,17,18,55)       -178.6161         estimate D2E/DX2                !
 ! D150  D(53,17,18,56)         61.3639         estimate D2E/DX2                !
 ! D151  D(54,17,18,19)         58.6261         estimate D2E/DX2                !
 ! D152  D(54,17,18,55)        -61.3635         estimate D2E/DX2                !
 ! D153  D(54,17,18,56)        178.6165         estimate D2E/DX2                !
 ! D154  D(17,18,19,57)       -179.9996         estimate D2E/DX2                !
 ! D155  D(55,18,19,57)        -59.0767         estimate D2E/DX2                !
 ! D156  D(56,18,19,57)         59.077          estimate D2E/DX2                !
 --------------------------------------------------------------------------------
 Trust Radius=3.00D-01 FncErr=1.00D-07 GrdErr=1.00D-06 EigMax=2.50D+02 EigMin=1.00D-04
 Number of steps in this run=    331 maximum allowed number of steps=    342.
 GradGradGradGradGradGradGradGradGradGradGradGradGradGradGradGradGradGrad

 Leave Link  103 at Mon Feb 22 21:05:34 2021, MaxMem=   104857600 cpu:               0.5 elap:               0.0
 (Enter /sw/arch/RedHatEnterpriseServer7/EB_production/2019/software/Gaussian/g16.c01/l202.exe)
 Stoichiometry    C18H38O
 Framework group  C1[X(C18H38O)]
 Deg. of freedom   165
 Full point group                 C1      NOp   1
 Largest Abelian subgroup         C1      NOp   1
 Largest concise Abelian subgroup C1      NOp   1
                         Standard orientation:                         
 ---------------------------------------------------------------------
 Center     Atomic      Atomic             Coordinates (Angstroms)
 Number     Number       Type             X           Y           Z
 ---------------------------------------------------------------------
      1          6           0       11.616724   -0.400189   -0.000005
      2          6           0       10.332652    0.459375   -0.000004
      3          6           0        9.035544   -0.394347    0.000003
      4          6           0        7.747389    0.475628    0.000005
      5          6           0        6.448575   -0.377591    0.000002
      6          6           0        5.149095    0.473444    0.000001
      7          6           0        3.861767   -0.395895    0.000002
      8          6           0        2.564867    0.455995   -0.000004
      9          6           0        1.277823   -0.410419    0.000003
     10          6           0       -0.012222    0.449670    0.000001
     11          6           0       -1.298596   -0.417085   -0.000005
     12          6           0       -2.591173    0.439411   -0.000004
     13          6           0       -3.878595   -0.427309    0.000002
     14          6           0       -5.175487    0.425791   -0.000002
     15          6           0       -6.467167   -0.437505   -0.000001
     16          6           0       -7.760902    0.422367    0.000001
     17          6           0       -9.057595   -0.431860    0.000001
     18          6           0      -10.336974    0.434031    0.000005
     19          8           0      -11.487566   -0.402711   -0.000001
     20          1           0       12.494978    0.246851    0.000004
     21          1           0       11.652163   -1.032950    0.888521
     22          1           0       11.652160   -1.032944   -0.888517
     23          1           0       10.344176    1.100978   -0.884958
     24          1           0       10.344175    1.100977    0.884965
     25          1           0        9.031697   -1.036845    0.885079
     26          1           0        9.031691   -1.036846   -0.885082
     27          1           0        7.754018    1.117695    0.885269
     28          1           0        7.754016    1.117697   -0.885276
     29          1           0        6.450578   -1.019066   -0.885251
     30          1           0        6.450581   -1.019066    0.885252
     31          1           0        5.143446    1.115019   -0.885077
     32          1           0        5.143447    1.115012    0.885082
     33          1           0        3.863423   -1.038057   -0.885033
     34          1           0        3.863417   -1.038055    0.885038
     35          1           0        2.559223    1.097727   -0.885492
     36          1           0        2.559223    1.097727    0.885492
     37          1           0        1.278890   -1.052341    0.885534
     38          1           0        1.278892   -1.052339   -0.885535
     39          1           0       -0.013946    1.091217   -0.885394
     40          1           0       -0.013948    1.091222    0.885396
     41          1           0       -1.294598   -1.058353   -0.885429
     42          1           0       -1.294595   -1.058348    0.885428
     43          1           0       -2.592694    1.081202   -0.885374
     44          1           0       -2.592692    1.081195    0.885374
     45          1           0       -3.874741   -1.069020   -0.885394
     46          1           0       -3.874745   -1.069023    0.885385
     47          1           0       -5.177666    1.068018   -0.885259
     48          1           0       -5.177662    1.068010    0.885265
     49          1           0       -6.467876   -1.078931    0.885782
     50          1           0       -6.467873   -1.078937   -0.885780
     51          1           0       -7.760858    1.063518    0.886117
     52          1           0       -7.760862    1.063521   -0.886122
     53          1           0       -9.072496   -1.073614    0.885286
     54          1           0       -9.072493   -1.073618   -0.885290
     55          1           0      -10.364655    1.070777   -0.886836
     56          1           0      -10.364649    1.070774    0.886839
     57          1           0      -12.244969    0.219830   -0.000004
 ---------------------------------------------------------------------
 Rotational constants (GHZ):           4.4849722           0.0364022           0.0362566
 Leave Link  202 at Mon Feb 22 21:05:34 2021, MaxMem=   104857600 cpu:               0.7 elap:               0.0
 (Enter /sw/arch/RedHatEnterpriseServer7/EB_production/2019/software/Gaussian/g16.c01/l301.exe)
 Standard basis: TZVP (5D, 7F)
 Ernie: Thresh=  0.10000D-02 Tol=  0.10000D-05 Strict=F.
 There are   608 symmetry adapted cartesian basis functions of A   symmetry.
 There are   589 symmetry adapted basis functions of A   symmetry.
   589 basis functions,   969 primitive gaussians,   608 cartesian basis functions
    77 alpha electrons       77 beta electrons
       nuclear repulsion energy      1258.9632961721 Hartrees.
 IExCor=  404 DFT=T Ex=B Corr=P86 ExCW=0 ScaHFX=  0.000000
 ScaDFX=  1.000000  1.000000  1.000000  1.000000 ScalE2=  1.000000  1.000000
 IRadAn=      5 IRanWt=     -1 IRanGd=            0 ICorTp=0 IEmpDi=131
 NAtoms=   57 NActive=   57 NUniq=   57 SFac= 1.00D+00 NAtFMM=   60 NAOKFM=F Big=F
 Integral buffers will be    131072 words long.
 Raffenetti 2 integral format.
 Two-electron integral symmetry is turned on.
 R6Disp:  Grimme-D3 Dispersion energy=       -0.0539403862 Hartrees.
 Nuclear repulsion after empirical dispersion term =     1258.9093557859 Hartrees.
 ------------------------------------------------------------------------------
 Polarizable Continuum Model (PCM)
 =================================
 Model                : PCM.
 Atomic radii         : UFF (Universal Force Field).
 Polarization charges : Total charges.
 Charge compensation  : None.
 Solution method      : On-the-fly selection.
 Cavity type          : Scaled VdW (van der Waals Surface) (Alpha=1.100).
 Cavity algorithm     : GePol (No added spheres)
                        Default sphere list used, NSphG=   57.
                        Lebedev-Laikov grids with approx.  5.0 points / Ang**2.
                        Smoothing algorithm: York/Karplus (Gamma=1.0000).
                        Polarization charges: spherical gaussians, with
                                              point-specific exponents (IZeta= 3).
                        Self-potential: point-specific (ISelfS= 7).
                        Self-field    : sphere-specific E.n sum rule (ISelfD= 2).
 1st derivatives      : Analytical E(r).r(x)/FMM algorithm (CHGder, D1EAlg=3).
                        Cavity 1st derivative terms included.
 Solvent              : Water, Eps=  78.355300 Eps(inf)=   1.777849
 ------------------------------------------------------------------------------
 GePol: Number of generator spheres                  =      57
 GePol: Total number of spheres                      =      57
 GePol: Number of exposed spheres                    =      57 (100.00%)
 GePol: Number of points                             =    3832
 GePol: Average weight of points                     =       0.13
 GePol: Minimum weight of points                     =   0.85D-10
 GePol: Maximum weight of points                     =    0.20577
 GePol: Number of points with low weight             =     203
 GePol: Fraction of low-weight points (<1% of avg)   =       5.30%
 GePol: Cavity surface area                          =    499.707 Ang**2
 GePol: Cavity volume                                =    507.128 Ang**3
 Leave Link  301 at Mon Feb 22 21:05:34 2021, MaxMem=   104857600 cpu:               3.0 elap:               0.1
 (Enter /sw/arch/RedHatEnterpriseServer7/EB_production/2019/software/Gaussian/g16.c01/l302.exe)
 NPDir=0 NMtPBC=     1 NCelOv=     1 NCel=       1 NClECP=     1 NCelD=      1
         NCelK=      1 NCelE2=     1 NClLst=     1 CellRange=     0.0.
 One-electron integrals computed using PRISM.
 One-electron integral symmetry used in STVInt
 PrsmSu:  requested number of processors reduced to:  24 ShMem   1 Linda.
 NBasis=   589 RedAO= T EigKep=  4.61D-05  NBF=   589
 NBsUse=   589 1.00D-06 EigRej= -1.00D+00 NBFU=   589
 Precomputing XC quadrature grid using
 IXCGrd= 4 IRadAn=           5 IRanWt=          -1 IRanGd=           0 AccXCQ= 0.00D+00.
 Generated NRdTot=       0 NPtTot=           0 NUsed=           0 NTot=          32
 NSgBfM=   476   476   476   476   476 MxSgAt=    57 MxSgA2=    57.
 Leave Link  302 at Mon Feb 22 21:05:35 2021, MaxMem=   104857600 cpu:              21.8 elap:               0.7
 (Enter /sw/arch/RedHatEnterpriseServer7/EB_production/2019/software/Gaussian/g16.c01/l303.exe)
 DipDrv:  MaxL=1.
 Leave Link  303 at Mon Feb 22 21:05:35 2021, MaxMem=   104857600 cpu:               2.9 elap:               0.1
 (Enter /sw/arch/RedHatEnterpriseServer7/EB_production/2019/software/Gaussian/g16.c01/l401.exe)
 ExpMin= 9.52D-02 ExpMax= 2.70D+04 ExpMxC= 9.22D+02 IAcc=3 IRadAn=         5 AccDes= 0.00D+00
 Harris functional with IExCor=  404 and IRadAn=       5 diagonalized for initial guess.
 HarFok:  IExCor=  404 AccDes= 0.00D+00 IRadAn=         5 IDoV= 1 UseB2=F ITyADJ=14
 ICtDFT=  3500011 ScaDFX=  1.000000  1.000000  1.000000  1.000000
 FoFCou: FMM=F IPFlag=           0 FMFlag=      100000 FMFlg1=           0
         NFxFlg=           0 DoJE=T BraDBF=F KetDBF=T FulRan=T
         wScrn=  0.000000 ICntrl=       500 IOpCl=  0 I1Cent=   200000004 NGrid=           0
         NMat0=    1 NMatS0=      1 NMatT0=    0 NMatD0=    1 NMtDS0=    0 NMtDT0=    0
 Petite list used in FoFCou.
 Harris En= -784.937833792462    
 JPrj=0 DoOrth=F DoCkMO=F.
 Leave Link  401 at Mon Feb 22 21:05:37 2021, MaxMem=   104857600 cpu:              38.9 elap:               1.3
 (Enter /sw/arch/RedHatEnterpriseServer7/EB_production/2019/software/Gaussian/g16.c01/l502.exe)
 Integral symmetry usage will be decided dynamically.
 Closed shell SCF:
 Using DIIS extrapolation, IDIIS=  1040.
 NGot=   104857600 LenX=   104091012 LenY=   103720740
 Requested convergence on RMS density matrix=1.00D-08 within 128 cycles.
 Requested convergence on MAX density matrix=1.00D-06.
 Requested convergence on             energy=1.00D-06.
 No special actions if energy rises.
 Fock matrices will be formed incrementally for  20 cycles.

 Cycle   1  Pass 1  IDiag  1:
 FoFJK:  IHMeth= 1 ICntrl=     500 DoSepK=F KAlg= 0 I1Cent=           0 FoldK=F
 IRaf= 540000000 NMat=       1 IRICut=       1 DoRegI=T DoRafI=F ISym2E= 0 IDoP0=0 IntGTp=1.
 FoFCou: FMM=F IPFlag=           0 FMFlag=      100000 FMFlg1=           0
         NFxFlg=           0 DoJE=T BraDBF=F KetDBF=F FulRan=T
         wScrn=  0.000000 ICntrl=       500 IOpCl=  0 I1Cent=           0 NGrid=           0
         NMat0=    1 NMatS0=      1 NMatT0=    0 NMatD0=    1 NMtDS0=    0 NMtDT0=    0
 Symmetry not used in FoFCou.
 CoulSu:  requested number of processors reduced to:  28 ShMem   1 Linda.
 Inv3:  Mode=1 IEnd=    44052672.
 Iteration    1 A*A^-1 deviation from unit magnitude is 3.33D-15 for   1779.
 Iteration    1 A*A^-1 deviation from orthogonality  is 2.11D-15 for   3081    329.
 Iteration    1 A^-1*A deviation from unit magnitude is 3.33D-15 for   3681.
 Iteration    1 A^-1*A deviation from orthogonality  is 1.78D-15 for   3800   1504.
 CoulSu:  requested number of processors reduced to:  28 ShMem   1 Linda.
 CoulSu:  requested number of processors reduced to:  28 ShMem   1 Linda.
 E= -783.639616840474    
 DIIS: error= 4.39D-02 at cycle   1 NSaved=   1.
 NSaved= 1 IEnMin= 1 EnMin= -783.639616840474     IErMin= 1 ErrMin= 4.39D-02
 ErrMax= 4.39D-02  0.00D+00 EMaxC= 1.00D-01 BMatC= 6.36D-01 BMatP= 6.36D-01
 IDIUse=3 WtCom= 5.61D-01 WtEn= 4.39D-01
 Coeff-Com:  0.100D+01
 Coeff-En:   0.100D+01
 Coeff:      0.100D+01
 Gap=     0.170 Goal=   None    Shift=    0.000
 GapD=    0.170 DampG=1.000 DampE=0.500 DampFc=0.5000 IDamp=-1.
 Damping current iteration by 5.00D-01
 RMSDP=5.31D-03 MaxDP=8.96D-01              OVMax= 2.45D-01

 Cycle   2  Pass 1  IDiag  1:
 RMSU=  2.65D-03    CP:  9.89D-01
 E= -783.859414801746     Delta-E=       -0.219797961272 Rises=F Damp=T
 DIIS: error= 1.24D-02 at cycle   2 NSaved=   2.
 NSaved= 2 IEnMin= 2 EnMin= -783.859414801746     IErMin= 2 ErrMin= 1.24D-02
 ErrMax= 1.24D-02  0.00D+00 EMaxC= 1.00D-01 BMatC= 5.85D-02 BMatP= 6.36D-01
 IDIUse=3 WtCom= 8.76D-01 WtEn= 1.24D-01
 Coeff-Com:  0.195D+00 0.805D+00
 Coeff-En:   0.317D+00 0.683D+00
 Coeff:      0.210D+00 0.790D+00
 Gap=     0.262 Goal=   None    Shift=    0.000
 RMSDP=1.61D-03 MaxDP=3.30D-01 DE=-2.20D-01 OVMax= 1.45D-01

 Cycle   3  Pass 1  IDiag  1:
 RMSU=  6.48D-04    CP:  9.81D-01  4.44D-01
 E= -784.324900575696     Delta-E=       -0.465485773951 Rises=F Damp=F
 DIIS: error= 5.85D-03 at cycle   3 NSaved=   3.
 NSaved= 3 IEnMin= 3 EnMin= -784.324900575696     IErMin= 3 ErrMin= 5.85D-03
 ErrMax= 5.85D-03  0.00D+00 EMaxC= 1.00D-01 BMatC= 9.53D-03 BMatP= 5.85D-02
 IDIUse=3 WtCom= 9.42D-01 WtEn= 5.85D-02
 Coeff-Com:  0.616D-01 0.299D+00 0.640D+00
 Coeff-En:   0.000D+00 0.000D+00 0.100D+01
 Coeff:      0.580D-01 0.281D+00 0.661D+00
 Gap=     0.241 Goal=   None    Shift=    0.000
 RMSDP=6.02D-04 MaxDP=1.05D-01 DE=-4.65D-01 OVMax= 3.37D-02

 Cycle   4  Pass 1  IDiag  1:
 RMSU=  3.64D-04    CP:  9.90D-01  5.97D-01  6.18D-01
 E= -784.326386088934     Delta-E=       -0.001485513238 Rises=F Damp=F
 DIIS: error= 5.59D-03 at cycle   4 NSaved=   4.
 NSaved= 4 IEnMin= 4 EnMin= -784.326386088934     IErMin= 4 ErrMin= 5.59D-03
 ErrMax= 5.59D-03  0.00D+00 EMaxC= 1.00D-01 BMatC= 7.77D-03 BMatP= 9.53D-03
 IDIUse=3 WtCom= 9.44D-01 WtEn= 5.59D-02
 Coeff-Com:  0.143D-01 0.810D-01 0.463D+00 0.442D+00
 Coeff-En:   0.000D+00 0.000D+00 0.451D+00 0.549D+00
 Coeff:      0.135D-01 0.765D-01 0.462D+00 0.448D+00
 Gap=     0.250 Goal=   None    Shift=    0.000
 RMSDP=3.29D-04 MaxDP=5.82D-02 DE=-1.49D-03 OVMax= 1.64D-02

 Cycle   5  Pass 1  IDiag  1:
 RMSU=  9.18D-05    CP:  9.84D-01  5.14D-01  8.12D-01  4.91D-01
 E= -784.331867236862     Delta-E=       -0.005481147928 Rises=F Damp=F
 DIIS: error= 3.62D-04 at cycle   5 NSaved=   5.
 NSaved= 5 IEnMin= 5 EnMin= -784.331867236862     IErMin= 5 ErrMin= 3.62D-04
 ErrMax= 3.62D-04  0.00D+00 EMaxC= 1.00D-01 BMatC= 5.83D-05 BMatP= 7.77D-03
 IDIUse=3 WtCom= 9.96D-01 WtEn= 3.62D-03
 Coeff-Com:  0.222D-02 0.103D-01 0.121D+00 0.155D+00 0.712D+00
 Coeff-En:   0.000D+00 0.000D+00 0.000D+00 0.000D+00 0.100D+01
 Coeff:      0.221D-02 0.102D-01 0.121D+00 0.154D+00 0.713D+00
 Gap=     0.248 Goal=   None    Shift=    0.000
 RMSDP=2.73D-05 MaxDP=3.08D-03 DE=-5.48D-03 OVMax= 1.01D-03

 Cycle   6  Pass 1  IDiag  1:
 RMSU=  1.52D-05    CP:  9.85D-01  5.18D-01  8.06D-01  5.13D-01  8.13D-01
 E= -784.331910305176     Delta-E=       -0.000043068314 Rises=F Damp=F
 DIIS: error= 1.17D-04 at cycle   6 NSaved=   6.
 NSaved= 6 IEnMin= 6 EnMin= -784.331910305176     IErMin= 6 ErrMin= 1.17D-04
 ErrMax= 1.17D-04  0.00D+00 EMaxC= 1.00D-01 BMatC= 8.88D-06 BMatP= 5.83D-05
 IDIUse=3 WtCom= 9.99D-01 WtEn= 1.17D-03
 EnCoef did     4 forward-backward iterations
 Coeff-Com:  0.103D-02 0.377D-02 0.588D-01 0.786D-01 0.416D+00 0.441D+00
 Coeff-En:   0.000D+00 0.000D+00 0.000D+00 0.000D+00 0.207D-02 0.998D+00
 Coeff:      0.103D-02 0.376D-02 0.587D-01 0.785D-01 0.416D+00 0.442D+00
 Gap=     0.248 Goal=   None    Shift=    0.000
 RMSDP=5.62D-06 MaxDP=3.81D-04 DE=-4.31D-05 OVMax= 4.04D-04

 Cycle   7  Pass 1  IDiag  1:
 RMSU=  4.31D-06    CP:  9.85D-01  5.18D-01  8.06D-01  5.12D-01  8.22D-01
                    CP:  8.00D-01
 E= -784.331918846869     Delta-E=       -0.000008541693 Rises=F Damp=F
 DIIS: error= 1.71D-05 at cycle   7 NSaved=   7.
 NSaved= 7 IEnMin= 7 EnMin= -784.331918846869     IErMin= 7 ErrMin= 1.71D-05
 ErrMax= 1.71D-05  0.00D+00 EMaxC= 1.00D-01 BMatC= 1.83D-07 BMatP= 8.88D-06
 IDIUse=1 WtCom= 1.00D+00 WtEn= 0.00D+00
 Coeff-Com:  0.207D-03 0.812D-04 0.584D-02 0.861D-02 0.560D-01 0.146D+00
 Coeff-Com:  0.784D+00
 Coeff:      0.207D-03 0.812D-04 0.584D-02 0.861D-02 0.560D-01 0.146D+00
 Coeff:      0.784D+00
 Gap=     0.248 Goal=   None    Shift=    0.000
 RMSDP=1.24D-06 MaxDP=5.64D-05 DE=-8.54D-06 OVMax= 6.48D-05

 Cycle   8  Pass 1  IDiag  1:
 RMSU=  9.13D-07    CP:  9.85D-01  5.18D-01  8.06D-01  5.13D-01  8.26D-01
                    CP:  8.07D-01  8.68D-01
 E= -784.331919073233     Delta-E=       -0.000000226365 Rises=F Damp=F
 DIIS: error= 4.44D-06 at cycle   8 NSaved=   8.
 NSaved= 8 IEnMin= 8 EnMin= -784.331919073233     IErMin= 8 ErrMin= 4.44D-06
 ErrMax= 4.44D-06  0.00D+00 EMaxC= 1.00D-01 BMatC= 1.62D-08 BMatP= 1.83D-07
 IDIUse=1 WtCom= 1.00D+00 WtEn= 0.00D+00
 Coeff-Com:  0.612D-04-0.103D-03 0.395D-03 0.766D-03 0.856D-02 0.465D-01
 Coeff-Com:  0.348D+00 0.596D+00
 Coeff:      0.612D-04-0.103D-03 0.395D-03 0.766D-03 0.856D-02 0.465D-01
 Coeff:      0.348D+00 0.596D+00
 Gap=     0.248 Goal=   None    Shift=    0.000
 RMSDP=3.76D-07 MaxDP=2.38D-05 DE=-2.26D-07 OVMax= 2.14D-05

 Cycle   9  Pass 1  IDiag  1:
 RMSU=  2.42D-07    CP:  9.85D-01  5.18D-01  8.06D-01  5.13D-01  8.26D-01
                    CP:  8.13D-01  8.79D-01  7.52D-01
 E= -784.331919108755     Delta-E=       -0.000000035521 Rises=F Damp=F
 DIIS: error= 2.48D-06 at cycle   9 NSaved=   9.
 NSaved= 9 IEnMin= 9 EnMin= -784.331919108755     IErMin= 9 ErrMin= 2.48D-06
 ErrMax= 2.48D-06  0.00D+00 EMaxC= 1.00D-01 BMatC= 3.14D-09 BMatP= 1.62D-08
 IDIUse=1 WtCom= 1.00D+00 WtEn= 0.00D+00
 Coeff-Com:  0.199D-04-0.610D-04-0.179D-03-0.204D-03 0.717D-03 0.151D-01
 Coeff-Com:  0.137D+00 0.352D+00 0.495D+00
 Coeff:      0.199D-04-0.610D-04-0.179D-03-0.204D-03 0.717D-03 0.151D-01
 Coeff:      0.137D+00 0.352D+00 0.495D+00
 Gap=     0.248 Goal=   None    Shift=    0.000
 RMSDP=1.14D-07 MaxDP=4.11D-06 DE=-3.55D-08 OVMax= 8.32D-06

 Cycle  10  Pass 1  IDiag  1:
 RMSU=  8.55D-08    CP:  9.85D-01  5.18D-01  8.06D-01  5.13D-01  8.26D-01
                    CP:  8.15D-01  8.83D-01  7.46D-01  7.17D-01
 E= -784.331919111845     Delta-E=       -0.000000003090 Rises=F Damp=F
 DIIS: error= 2.20D-07 at cycle  10 NSaved=  10.
 NSaved=10 IEnMin=10 EnMin= -784.331919111845     IErMin=10 ErrMin= 2.20D-07
 ErrMax= 2.20D-07  0.00D+00 EMaxC= 1.00D-01 BMatC= 4.38D-11 BMatP= 3.14D-09
 IDIUse=1 WtCom= 1.00D+00 WtEn= 0.00D+00
 Coeff-Com:  0.205D-05-0.949D-05-0.397D-04-0.750D-04-0.936D-04 0.171D-02
 Coeff-Com:  0.191D-01 0.688D-01 0.158D+00 0.752D+00
 Coeff:      0.205D-05-0.949D-05-0.397D-04-0.750D-04-0.936D-04 0.171D-02
 Coeff:      0.191D-01 0.688D-01 0.158D+00 0.752D+00
 Gap=     0.248 Goal=   None    Shift=    0.000
 RMSDP=2.24D-08 MaxDP=1.15D-06 DE=-3.09D-09 OVMax= 9.61D-07

 Cycle  11  Pass 1  IDiag  1:
 RMSU=  7.61D-09    CP:  9.85D-01  5.18D-01  8.06D-01  5.13D-01  8.26D-01
                    CP:  8.15D-01  8.84D-01  7.60D-01  7.30D-01  8.13D-01
 E= -784.331919111898     Delta-E=       -0.000000000052 Rises=F Damp=F
 DIIS: error= 7.20D-08 at cycle  11 NSaved=  11.
 NSaved=11 IEnMin=11 EnMin= -784.331919111898     IErMin=11 ErrMin= 7.20D-08
 ErrMax= 7.20D-08  0.00D+00 EMaxC= 1.00D-01 BMatC= 3.48D-12 BMatP= 4.38D-11
 IDIUse=1 WtCom= 1.00D+00 WtEn= 0.00D+00
 Coeff-Com:  0.635D-06-0.389D-05-0.169D-04-0.354D-04-0.589D-04 0.612D-03
 Coeff-Com:  0.738D-02 0.291D-01 0.729D-01 0.390D+00 0.500D+00
 Coeff:      0.635D-06-0.389D-05-0.169D-04-0.354D-04-0.589D-04 0.612D-03
 Coeff:      0.738D-02 0.291D-01 0.729D-01 0.390D+00 0.500D+00
 Gap=     0.248 Goal=   None    Shift=    0.000
 RMSDP=3.86D-09 MaxDP=2.36D-07 DE=-5.23D-11 OVMax= 2.87D-07

 Error on total polarization charges =  0.02496
 SCF Done:  E(RB-P86) =  -784.331919112     A.U. after   11 cycles
            NFock= 11  Conv=0.39D-08     -V/T= 2.0054
 KE= 7.800951612361D+02 PE=-4.336383533299D+03 EE= 1.513047097165D+03
 Leave Link  502 at Mon Feb 22 21:06:35 2021, MaxMem=   104857600 cpu:            1777.4 elap:              57.5
 (Enter /sw/arch/RedHatEnterpriseServer7/EB_production/2019/software/Gaussian/g16.c01/l601.exe)
 Copying SCF densities to generalized density rwf, IOpCl= 0 IROHF=0.

 **********************************************************************

            Population analysis using the SCF Density.

 **********************************************************************

 Orbital symmetries:
       Occupied  (A) (A) (A) (A) (A) (A) (A) (A) (A) (A) (A) (A)
                 (A) (A) (A) (A) (A) (A) (A) (A) (A) (A) (A) (A)
                 (A) (A) (A) (A) (A) (A) (A) (A) (A) (A) (A) (A)
                 (A) (A) (A) (A) (A) (A) (A) (A) (A) (A) (A) (A)
                 (A) (A) (A) (A) (A) (A) (A) (A) (A) (A) (A) (A)
                 (A) (A) (A) (A) (A) (A) (A) (A) (A) (A) (A) (A)
                 (A) (A) (A) (A) (A)
       Virtual   (A) (A) (A) (A) (A) (A) (A) (A) (A) (A) (A) (A)
                 (A) (A) (A) (A) (A) (A) (A) (A) (A) (A) (A) (A)
                 (A) (A) (A) (A) (A) (A) (A) (A) (A) (A) (A) (A)
                 (A) (A) (A) (A) (A) (A) (A) (A) (A) (A) (A) (A)
                 (A) (A) (A) (A) (A) (A) (A) (A) (A) (A) (A) (A)
                 (A) (A) (A) (A) (A) (A) (A) (A) (A) (A) (A) (A)
                 (A) (A) (A) (A) (A) (A) (A) (A) (A) (A) (A) (A)
                 (A) (A) (A) (A) (A) (A) (A) (A) (A) (A) (A) (A)
                 (A) (A) (A) (A) (A) (A) (A) (A) (A) (A) (A) (A)
                 (A) (A) (A) (A) (A) (A) (A) (A) (A) (A) (A) (A)
                 (A) (A) (A) (A) (A) (A) (A) (A) (A) (A) (A) (A)
                 (A) (A) (A) (A) (A) (A) (A) (A) (A) (A) (A) (A)
                 (A) (A) (A) (A) (A) (A) (A) (A) (A) (A) (A) (A)
                 (A) (A) (A) (A) (A) (A) (A) (A) (A) (A) (A) (A)
                 (A) (A) (A) (A) (A) (A) (A) (A) (A) (A) (A) (A)
                 (A) (A) (A) (A) (A) (A) (A) (A) (A) (A) (A) (A)
                 (A) (A) (A) (A) (A) (A) (A) (A) (A) (A) (A) (A)
                 (A) (A) (A) (A) (A) (A) (A) (A) (A) (A) (A) (A)
                 (A) (A) (A) (A) (A) (A) (A) (A) (A) (A) (A) (A)
                 (A) (A) (A) (A) (A) (A) (A) (A) (A) (A) (A) (A)
                 (A) (A) (A) (A) (A) (A) (A) (A) (A) (A) (A) (A)
                 (A) (A) (A) (A) (A) (A) (A) (A) (A) (A) (A) (A)
                 (A) (A) (A) (A) (A) (A) (A) (A) (A) (A) (A) (A)
                 (A) (A) (A) (A) (A) (A) (A) (A) (A) (A) (A) (A)
                 (A) (A) (A) (A) (A) (A) (A) (A) (A) (A) (A) (A)
                 (A) (A) (A) (A) (A) (A) (A) (A) (A) (A) (A) (A)
                 (A) (A) (A) (A) (A) (A) (A) (A) (A) (A) (A) (A)
                 (A) (A) (A) (A) (A) (A) (A) (A) (A) (A) (A) (A)
                 (A) (A) (A) (A) (A) (A) (A) (A) (A) (A) (A) (A)
                 (A) (A) (A) (A) (A) (A) (A) (A) (A) (A) (A) (A)
                 (A) (A) (A) (A) (A) (A) (A) (A) (A) (A) (A) (A)
                 (A) (A) (A) (A) (A) (A) (A) (A) (A) (A) (A) (A)
                 (A) (A) (A) (A) (A) (A) (A) (A) (A) (A) (A) (A)
                 (A) (A) (A) (A) (A) (A) (A) (A) (A) (A) (A) (A)
                 (A) (A) (A) (A) (A) (A) (A) (A) (A) (A) (A) (A)
                 (A) (A) (A) (A) (A) (A) (A) (A) (A) (A) (A) (A)
                 (A) (A) (A) (A) (A) (A) (A) (A) (A) (A) (A) (A)
                 (A) (A) (A) (A) (A) (A) (A) (A) (A) (A) (A) (A)
                 (A) (A) (A) (A) (A) (A) (A) (A) (A) (A) (A) (A)
                 (A) (A) (A) (A) (A) (A) (A) (A) (A) (A) (A) (A)
                 (A) (A) (A) (A) (A) (A) (A) (A) (A) (A) (A) (A)
                 (A) (A) (A) (A) (A) (A) (A) (A) (A) (A) (A) (A)
                 (A) (A) (A) (A) (A) (A) (A) (A)
 The electronic state is 1-A.
 Alpha  occ. eigenvalues --  -18.77001  -9.93654  -9.89271  -9.89258  -9.88973
 Alpha  occ. eigenvalues --   -9.88881  -9.88815  -9.88743  -9.88740  -9.88731
 Alpha  occ. eigenvalues --   -9.88719  -9.88711  -9.88702  -9.88701  -9.88679
 Alpha  occ. eigenvalues --   -9.88673  -9.88669  -9.88661  -9.88066  -0.93891
 Alpha  occ. eigenvalues --   -0.73764  -0.73268  -0.72485  -0.71326  -0.69839
 Alpha  occ. eigenvalues --   -0.68054  -0.66009  -0.63710  -0.61228  -0.58649
 Alpha  occ. eigenvalues --   -0.56139  -0.53914  -0.52457  -0.52045  -0.51786
 Alpha  occ. eigenvalues --   -0.51632  -0.51168  -0.51133  -0.45944  -0.44070
 Alpha  occ. eigenvalues --   -0.43699  -0.43052  -0.42115  -0.40932  -0.39531
 Alpha  occ. eigenvalues --   -0.38553  -0.38342  -0.37958  -0.37550  -0.37289
 Alpha  occ. eigenvalues --   -0.36271  -0.35867  -0.35435  -0.34549  -0.34223
 Alpha  occ. eigenvalues --   -0.32897  -0.32801  -0.32549  -0.31423  -0.31126
 Alpha  occ. eigenvalues --   -0.30311  -0.30207  -0.29636  -0.29312  -0.29123
 Alpha  occ. eigenvalues --   -0.28767  -0.28650  -0.28482  -0.28447  -0.28386
 Alpha  occ. eigenvalues --   -0.28304  -0.28289  -0.28162  -0.28019  -0.26696
 Alpha  occ. eigenvalues --   -0.24754  -0.23039
 Alpha virt. eigenvalues --    0.01774   0.01895   0.02178   0.02662   0.03277
 Alpha virt. eigenvalues --    0.03997   0.04692   0.04888   0.04978   0.05272
 Alpha virt. eigenvalues --    0.05448   0.06191   0.06211   0.06325   0.07567
 Alpha virt. eigenvalues --    0.07594   0.07912   0.09285   0.09305   0.09705
 Alpha virt. eigenvalues --    0.10341   0.10614   0.10700   0.11018   0.11289
 Alpha virt. eigenvalues --    0.11396   0.11721   0.11795   0.11910   0.11945
 Alpha virt. eigenvalues --    0.12089   0.12272   0.12497   0.12596   0.12893
 Alpha virt. eigenvalues --    0.13274   0.13282   0.13490   0.13537   0.14405
 Alpha virt. eigenvalues --    0.14611   0.14760   0.15238   0.15714   0.15820
 Alpha virt. eigenvalues --    0.16518   0.16786   0.17121   0.17262   0.17906
 Alpha virt. eigenvalues --    0.18537   0.18946   0.19377   0.20442   0.20953
 Alpha virt. eigenvalues --    0.22491   0.23207   0.23518   0.23928   0.24543
 Alpha virt. eigenvalues --    0.24904   0.24981   0.25280   0.25873   0.26315
 Alpha virt. eigenvalues --    0.26463   0.26478   0.27404   0.27628   0.27918
 Alpha virt. eigenvalues --    0.28225   0.28441   0.28555   0.28623   0.29276
 Alpha virt. eigenvalues --    0.29621   0.30258   0.30396   0.30599   0.30885
 Alpha virt. eigenvalues --    0.31382   0.32004   0.33843   0.34957   0.35158
 Alpha virt. eigenvalues --    0.35186   0.35242   0.35694   0.36749   0.37082
 Alpha virt. eigenvalues --    0.37428   0.37730   0.37850   0.38110   0.38577
 Alpha virt. eigenvalues --    0.38640   0.39422   0.39628   0.39984   0.39994
 Alpha virt. eigenvalues --    0.40111   0.41096   0.41418   0.41835   0.41901
 Alpha virt. eigenvalues --    0.42211   0.42330   0.42422   0.43017   0.43158
 Alpha virt. eigenvalues --    0.43508   0.43604   0.43662   0.44443   0.44578
 Alpha virt. eigenvalues --    0.44919   0.45502   0.45648   0.45663   0.46620
 Alpha virt. eigenvalues --    0.46930   0.46996   0.47218   0.47430   0.47540
 Alpha virt. eigenvalues --    0.47657   0.47944   0.48177   0.48430   0.48794
 Alpha virt. eigenvalues --    0.48874   0.48925   0.49202   0.49342   0.49654
 Alpha virt. eigenvalues --    0.49807   0.49923   0.50690   0.51057   0.51157
 Alpha virt. eigenvalues --    0.52456   0.53291   0.53575   0.54058   0.54957
 Alpha virt. eigenvalues --    0.55538   0.57213   0.57416   0.58464   0.58968
 Alpha virt. eigenvalues --    0.59004   0.60043   0.61732   0.62094   0.63360
 Alpha virt. eigenvalues --    0.64345   0.64799   0.65817   0.66879   0.67064
 Alpha virt. eigenvalues --    0.67728   0.69984   0.72046   0.73024   0.74784
 Alpha virt. eigenvalues --    0.78163   0.78591   0.78892   0.80453   0.85954
 Alpha virt. eigenvalues --    1.05444   1.06006   1.08298   1.08705   1.09251
 Alpha virt. eigenvalues --    1.13325   1.13603   1.13784   1.16411   1.17260
 Alpha virt. eigenvalues --    1.17360   1.17614   1.18696   1.18742   1.18789
 Alpha virt. eigenvalues --    1.18991   1.19097   1.19618   1.20019   1.20659
 Alpha virt. eigenvalues --    1.21290   1.21534   1.21812   1.22089   1.22693
 Alpha virt. eigenvalues --    1.23046   1.23910   1.23988   1.24189   1.24456
 Alpha virt. eigenvalues --    1.24561   1.24899   1.24946   1.25085   1.25091
 Alpha virt. eigenvalues --    1.25223   1.25320   1.26896   1.27992   1.28962
 Alpha virt. eigenvalues --    1.29401   1.30639   1.31633   1.32334   1.32532
 Alpha virt. eigenvalues --    1.32711   1.33136   1.33276   1.34229   1.34547
 Alpha virt. eigenvalues --    1.35232   1.35773   1.35849   1.36098   1.36257
 Alpha virt. eigenvalues --    1.36477   1.36597   1.37332   1.37757   1.37946
 Alpha virt. eigenvalues --    1.38044   1.38514   1.40429   1.40563   1.42466
 Alpha virt. eigenvalues --    1.42767   1.43462   1.43687   1.44239   1.44687
 Alpha virt. eigenvalues --    1.44802   1.45476   1.45650   1.45824   1.46185
 Alpha virt. eigenvalues --    1.47785   1.49097   1.49386   1.49742   1.50246
 Alpha virt. eigenvalues --    1.50401   1.51439   1.52366   1.53951   1.54680
 Alpha virt. eigenvalues --    1.56223   1.57400   1.58460   1.59491   1.59923
 Alpha virt. eigenvalues --    1.60004   1.60118   1.61250   1.61461   1.62553
 Alpha virt. eigenvalues --    1.63592   1.64127   1.64982   1.65741   1.66115
 Alpha virt. eigenvalues --    1.66217   1.66717   1.66726   1.66999   1.67549
 Alpha virt. eigenvalues --    1.68570   1.68601   1.69817   1.69910   1.71426
 Alpha virt. eigenvalues --    1.72638   1.72859   1.72919   1.73615   1.74063
 Alpha virt. eigenvalues --    1.74426   1.74583   1.74620   1.74687   1.75932
 Alpha virt. eigenvalues --    1.76284   1.76503   1.76669   1.76886   1.76898
 Alpha virt. eigenvalues --    1.77530   1.77634   1.77907   1.78107   1.78729
 Alpha virt. eigenvalues --    1.79050   1.79471   1.79509   1.79747   1.79962
 Alpha virt. eigenvalues --    1.80011   1.80480   1.80723   1.81092   1.81508
 Alpha virt. eigenvalues --    1.81840   1.82100   1.82193   1.82227   1.82997
 Alpha virt. eigenvalues --    1.83036   1.83102   1.83228   1.83666   1.83952
 Alpha virt. eigenvalues --    1.85120   1.85357   1.86524   1.89014   1.91112
 Alpha virt. eigenvalues --    1.92180   1.95285   1.95828   1.98211   2.00232
 Alpha virt. eigenvalues --    2.00594   2.02260   2.02546   2.04474   2.07112
 Alpha virt. eigenvalues --    2.07753   2.08347   2.09297   2.10061   2.10534
 Alpha virt. eigenvalues --    2.11479   2.11859   2.12148   2.12423   2.13287
 Alpha virt. eigenvalues --    2.13707   2.14044   2.14358   2.15187   2.15721
 Alpha virt. eigenvalues --    2.18508   2.18972   2.18980   2.20258   2.22885
 Alpha virt. eigenvalues --    2.24475   2.24764   2.25450   2.25566   2.27023
 Alpha virt. eigenvalues --    2.27482   2.28208   2.28330   2.31316   2.31981
 Alpha virt. eigenvalues --    2.32463   2.33220   2.33442   2.34452   2.35299
 Alpha virt. eigenvalues --    2.36715   2.38622   2.39855   2.42086   2.42617
 Alpha virt. eigenvalues --    2.43038   2.43601   2.46636   2.46997   2.47272
 Alpha virt. eigenvalues --    2.48182   2.48408   2.48677   2.48859   2.49102
 Alpha virt. eigenvalues --    2.49462   2.49807   2.50057   2.50298   2.50981
 Alpha virt. eigenvalues --    2.51122   2.51379   2.52461   2.52499   2.53069
 Alpha virt. eigenvalues --    2.53225   2.53260   2.54361   2.54435   2.54649
 Alpha virt. eigenvalues --    2.55202   2.55351   2.55368   2.55837   2.55934
 Alpha virt. eigenvalues --    2.56068   2.57059   2.57679   2.58338   2.58605
 Alpha virt. eigenvalues --    2.58885   2.59778   2.59889   2.60036   2.61019
 Alpha virt. eigenvalues --    2.61080   2.61949   2.63186   2.64147   2.64164
 Alpha virt. eigenvalues --    2.65227   2.66355   2.66563   2.66799   2.67632
 Alpha virt. eigenvalues --    2.67695   2.68554   2.68689   2.68722   2.69385
 Alpha virt. eigenvalues --    2.70609   2.70731   2.71293   2.72613   2.76009
 Alpha virt. eigenvalues --    2.77805   2.80935   2.85585   2.85773   2.86611
 Alpha virt. eigenvalues --    2.91703   2.93129   2.95736   2.96263   3.00259
 Alpha virt. eigenvalues --    3.01213   3.02638   3.04845   3.05460   3.08085
 Alpha virt. eigenvalues --    3.09424   3.09856   3.12684   3.14531   3.17034
 Alpha virt. eigenvalues --    3.19771   3.21215   3.24047   3.24794   3.26789
 Alpha virt. eigenvalues --    3.27582   3.27643   3.28250   3.28401   3.28638
 Alpha virt. eigenvalues --    3.29026   3.29905   3.30106   3.31209   3.31859
 Alpha virt. eigenvalues --    3.32186   3.32765   3.33989   3.34158   3.34810
 Alpha virt. eigenvalues --    3.35450   3.35854   3.35914   3.36190   3.36330
 Alpha virt. eigenvalues --    3.36658   3.38234   3.38672   3.39314   3.42365
 Alpha virt. eigenvalues --    3.42942   3.43424   3.46749   3.46897   3.48932
 Alpha virt. eigenvalues --    3.53978   3.87674   4.16393  21.68407  21.75204
 Alpha virt. eigenvalues --   21.75237  21.75537  21.76485  21.77818  21.78970
 Alpha virt. eigenvalues --   21.80145  21.81530  21.82645  21.83459  21.83718
 Alpha virt. eigenvalues --   21.83794  21.84824  21.86579  21.88294  21.89743
 Alpha virt. eigenvalues --   21.90005  43.11483
          Condensed to atoms (all electrons):
 Mulliken charges:
               1
     1  C   -0.400016
     2  C   -0.231418
     3  C   -0.252732
     4  C   -0.239674
     5  C   -0.249935
     6  C   -0.245143
     7  C   -0.247606
     8  C   -0.248184
     9  C   -0.247211
    10  C   -0.247435
    11  C   -0.247954
    12  C   -0.247349
    13  C   -0.248075
    14  C   -0.247135
    15  C   -0.247577
    16  C   -0.271854
    17  C   -0.193637
    18  C   -0.181092
    19  O   -0.393355
    20  H    0.139344
    21  H    0.127603
    22  H    0.127606
    23  H    0.124832
    24  H    0.124828
    25  H    0.120514
    26  H    0.120512
    27  H    0.121568
    28  H    0.121562
    29  H    0.122540
    30  H    0.122541
    31  H    0.123213
    32  H    0.123213
    33  H    0.123515
    34  H    0.123516
    35  H    0.123585
    36  H    0.123581
    37  H    0.123812
    38  H    0.123810
    39  H    0.123987
    40  H    0.123986
    41  H    0.124004
    42  H    0.124002
    43  H    0.123928
    44  H    0.123926
    45  H    0.124103
    46  H    0.124107
    47  H    0.124286
    48  H    0.124284
    49  H    0.125503
    50  H    0.125502
    51  H    0.126150
    52  H    0.126147
    53  H    0.123541
    54  H    0.123539
    55  H    0.121749
    56  H    0.121752
    57  H    0.291192
 Sum of Mulliken charges =  -0.00000
 Mulliken charges with hydrogens summed into heavy atoms:
               1
     1  C   -0.005464
     2  C    0.018242
     3  C   -0.011706
     4  C    0.003456
     5  C   -0.004853
     6  C    0.001282
     7  C   -0.000576
     8  C   -0.001019
     9  C    0.000411
    10  C    0.000538
    11  C    0.000053
    12  C    0.000505
    13  C    0.000135
    14  C    0.001435
    15  C    0.003428
    16  C   -0.019557
    17  C    0.053443
    18  C    0.062409
    19  O   -0.102163
 Electronic spatial extent (au):  <R**2>=          28795.3359
 Charge=              0.0000 electrons
 Dipole moment (field-independent basis, Debye):
    X=              0.1499    Y=              2.1226    Z=              0.0000  Tot=              2.1279
 Quadrupole moment (field-independent basis, Debye-Ang):
   XX=           -131.7363   YY=           -131.7554   ZZ=           -124.8805
   XY=            -23.2812   XZ=             -0.0002   YZ=             -0.0000
 Traceless Quadrupole moment (field-independent basis, Debye-Ang):
   XX=             -2.2789   YY=             -2.2980   ZZ=              4.5769
   XY=            -23.2812   XZ=             -0.0002   YZ=             -0.0000
 Octapole moment (field-independent basis, Debye-Ang**2):
  XXX=           -145.4930  YYY=              0.1643  ZZZ=              0.0001  XYY=            -14.1350
  XXY=            295.9720  XXZ=              0.0014  XZZ=            -12.9364  YZZ=              0.1457
  YYZ=              0.0000  XYZ=             -0.0001
 Hexadecapole moment (field-independent basis, Debye-Ang**3):
 XXXX=         -37835.0012 YYYY=           -478.7998 ZZZZ=           -267.0338 XXXY=          -3116.4995
 XXXZ=             -0.0138 YYYX=              0.6417 YYYZ=             -0.0002 ZZZX=             -0.0008
 ZZZY=             -0.0001 XXYY=          -6743.1228 XXZZ=          -6413.7514 YYZZ=           -110.9486
 XXYZ=              0.0002 YYXZ=             -0.0005 ZZXY=             -7.2176
 N-N= 1.258909355786D+03 E-N=-4.336383530479D+03  KE= 7.800951612361D+02
 No NMR shielding tensors so no spin-rotation constants.
 Leave Link  601 at Mon Feb 22 21:06:35 2021, MaxMem=   104857600 cpu:              10.1 elap:               0.4
 (Enter /sw/arch/RedHatEnterpriseServer7/EB_production/2019/software/Gaussian/g16.c01/l701.exe)
 ... and contract with generalized density number  0.
 Compute integral first derivatives.
 R6Disp: Adding Grimme-D3 dispersion energy 1st derivatives to the gradient.
 PrsmSu:  requested number of processors reduced to:  25 ShMem   1 Linda.
 D1PCM: PCM CHGder 1st derivatives, ID1Alg=3 FixD1E=F DoIter=F DoCFld=F I1PDM=0.
 GePol: Maximum number of non-zero 1st derivatives   =     235
 CoulSu:  requested number of processors reduced to:  24 ShMem   1 Linda.
 CoulSu:  requested number of processors reduced to:  25 ShMem   1 Linda.
 Leave Link  701 at Mon Feb 22 21:06:37 2021, MaxMem=   104857600 cpu:              67.6 elap:               2.2
 (Enter /sw/arch/RedHatEnterpriseServer7/EB_production/2019/software/Gaussian/g16.c01/l702.exe)
 L702 exits ... SP integral derivatives will be done elsewhere.
 Leave Link  702 at Mon Feb 22 21:06:37 2021, MaxMem=   104857600 cpu:               0.8 elap:               0.1
[...]
 - repulsion  energy not included in the total energy.
 After PCM corrections, the energy is  -784.289623206     a.u.
 --------------------------------------------------------------------
 Writing COSMO formatted file "GLDOVTGHNKAZLK-UHFFFAOYSA-N.cosmo"
 Recomputed dielectric energy= -0.012460 old= -0.012417 diff=-4.25D-05

 **********************************************************************

            Population analysis using the SCF Density.

 **********************************************************************

 Orbital symmetries:
       Occupied  (A) (A) (A) (A) (A) (A) (A) (A) (A) (A) (A) (A)
                 (A) (A) (A) (A) (A) (A) (A) (A) (A) (A) (A) (A)
                 (A) (A) (A) (A) (A) (A) (A) (A) (A) (A) (A) (A)
                 (A) (A) (A) (A) (A) (A) (A) (A) (A) (A) (A) (A)
                 (A) (A) (A) (A) (A) (A) (A) (A) (A) (A) (A) (A)
                 (A) (A) (A) (A) (A) (A) (A) (A) (A) (A) (A) (A)
                 (A) (A) (A) (A) (A)
       Virtual   (A) (A) (A) (A) (A) (A) (A) (A) (A) (A) (A) (A)
                 (A) (A) (A) (A) (A) (A) (A) (A) (A) (A) (A) (A)
                 (A) (A) (A) (A) (A) (A) (A) (A) (A) (A) (A) (A)
                 (A) (A) (A) (A) (A) (A) (A) (A) (A) (A) (A) (A)
                 (A) (A) (A) (A) (A) (A) (A) (A) (A) (A) (A) (A)
                 (A) (A) (A) (A) (A) (A) (A) (A) (A) (A) (A) (A)
                 (A) (A) (A) (A) (A) (A) (A) (A) (A) (A) (A) (A)
                 (A) (A) (A) (A) (A) (A) (A) (A) (A) (A) (A) (A)
                 (A) (A) (A) (A) (A) (A) (A) (A) (A) (A) (A) (A)
                 (A) (A) (A) (A) (A) (A) (A) (A) (A) (A) (A) (A)
                 (A) (A) (A) (A) (A) (A) (A) (A) (A) (A) (A) (A)
                 (A) (A) (A) (A) (A) (A) (A) (A) (A) (A) (A) (A)
                 (A) (A) (A) (A) (A) (A) (A) (A) (A) (A) (A) (A)
                 (A) (A) (A) (A) (A) (A) (A) (A) (A) (A) (A) (A)
                 (A) (A) (A) (A) (A) (A) (A) (A) (A) (A) (A) (A)
                 (A) (A) (A) (A) (A) (A) (A) (A) (A) (A) (A) (A)
                 (A) (A) (A) (A) (A) (A) (A) (A) (A) (A) (A) (A)
                 (A) (A) (A) (A) (A) (A) (A) (A) (A) (A) (A) (A)
                 (A) (A) (A) (A) (A) (A) (A) (A) (A) (A) (A) (A)
                 (A) (A) (A) (A) (A) (A) (A) (A) (A) (A) (A) (A)
                 (A) (A) (A) (A) (A) (A) (A) (A) (A) (A) (A) (A)
                 (A) (A) (A) (A) (A) (A) (A) (A) (A) (A) (A) (A)
                 (A) (A) (A) (A) (A) (A) (A) (A) (A) (A) (A) (A)
                 (A) (A) (A) (A) (A) (A) (A) (A) (A) (A) (A) (A)
                 (A) (A) (A) (A) (A) (A) (A) (A) (A) (A) (A) (A)
                 (A) (A) (A) (A) (A) (A) (A) (A) (A) (A) (A) (A)
                 (A) (A) (A) (A) (A) (A) (A) (A) (A) (A) (A) (A)
                 (A) (A) (A) (A) (A) (A) (A) (A) (A) (A) (A) (A)
                 (A) (A) (A) (A) (A) (A) (A) (A) (A) (A) (A) (A)
                 (A) (A) (A) (A) (A) (A) (A) (A) (A) (A) (A) (A)
                 (A) (A) (A) (A) (A) (A) (A) (A) (A) (A) (A) (A)
                 (A) (A) (A) (A) (A) (A) (A) (A) (A) (A) (A) (A)
                 (A) (A) (A) (A) (A) (A) (A) (A) (A) (A) (A) (A)
                 (A) (A) (A) (A) (A) (A) (A) (A) (A) (A) (A) (A)
                 (A) (A) (A) (A) (A) (A) (A) (A) (A) (A) (A) (A)
                 (A) (A) (A) (A) (A) (A) (A) (A) (A) (A) (A) (A)
                 (A) (A) (A) (A) (A) (A) (A) (A) (A) (A) (A) (A)
                 (A) (A) (A) (A) (A) (A) (A) (A) (A) (A) (A) (A)
                 (A) (A) (A) (A) (A) (A) (A) (A) (A) (A) (A) (A)
                 (A) (A) (A) (A) (A) (A) (A) (A) (A) (A) (A) (A)
                 (A) (A) (A) (A) (A) (A) (A) (A) (A) (A) (A) (A)
                 (A) (A) (A) (A) (A) (A) (A) (A) (A) (A) (A) (A)
                 (A) (A) (A) (A) (A) (A) (A) (A)
 The electronic state is 1-A.
 Alpha  occ. eigenvalues --  -18.76874  -9.93680  -9.88919  -9.88898  -9.88709
 Alpha  occ. eigenvalues --   -9.88627  -9.88514  -9.88484  -9.88472  -9.88470
 Alpha  occ. eigenvalues --   -9.88467  -9.88465  -9.88463  -9.88460  -9.88456
 Alpha  occ. eigenvalues --   -9.88455  -9.88452  -9.88449  -9.88052  -0.93022
 Alpha  occ. eigenvalues --   -0.73859  -0.73402  -0.72576  -0.71398  -0.69889
 Alpha  occ. eigenvalues --   -0.68072  -0.65973  -0.63629  -0.61093  -0.58446
 Alpha  occ. eigenvalues --   -0.55822  -0.53482  -0.51995  -0.51659  -0.51373
 Alpha  occ. eigenvalues --   -0.51194  -0.50691  -0.50634  -0.45584  -0.43595
 Alpha  occ. eigenvalues --   -0.43232  -0.42545  -0.41566  -0.40325  -0.38860
 Alpha  occ. eigenvalues --   -0.38732  -0.38380  -0.37824  -0.37237  -0.37220
 Alpha  occ. eigenvalues --   -0.35865  -0.35560  -0.35472  -0.34108  -0.33702
 Alpha  occ. eigenvalues --   -0.32916  -0.32471  -0.32005  -0.31005  -0.30494
 Alpha  occ. eigenvalues --   -0.30379  -0.29605  -0.29258  -0.29127  -0.28688
 Alpha  occ. eigenvalues --   -0.28388  -0.28361  -0.28106  -0.27975  -0.27807
 Alpha  occ. eigenvalues --   -0.27530  -0.27473  -0.27362  -0.27351  -0.26872
 Alpha  occ. eigenvalues --   -0.25033  -0.23172
 Alpha virt. eigenvalues --    0.02155   0.02443   0.02669   0.03016   0.03610
 Alpha virt. eigenvalues --    0.04324   0.04696   0.04880   0.05235   0.05264
 Alpha virt. eigenvalues --    0.05391   0.06230   0.06281   0.06484   0.07596
 Alpha virt. eigenvalues --    0.07624   0.08141   0.09348   0.09365   0.10034
 Alpha virt. eigenvalues --    0.10521   0.10892   0.11191   0.11379   0.11487
 Alpha virt. eigenvalues --    0.11776   0.12117   0.12195   0.12279   0.12412
 Alpha virt. eigenvalues --    0.12437   0.12596   0.12747   0.13101   0.13201
 Alpha virt. eigenvalues --    0.13429   0.13564   0.13993   0.14162   0.14685
 Alpha virt. eigenvalues --    0.14874   0.15110   0.15255   0.16190   0.16450
 Alpha virt. eigenvalues --    0.16516   0.16672   0.17728   0.17878   0.18163
 Alpha virt. eigenvalues --    0.19164   0.19524   0.19868   0.20881   0.21717
 Alpha virt. eigenvalues --    0.22645   0.23870   0.24876   0.24990   0.25293
 Alpha virt. eigenvalues --    0.25325   0.25678   0.25843   0.26255   0.26709
 Alpha virt. eigenvalues --    0.27040   0.27140   0.27531   0.28036   0.28163
 Alpha virt. eigenvalues --    0.28411   0.28548   0.28633   0.29147   0.29930
 Alpha virt. eigenvalues --    0.30024   0.30661   0.30853   0.31398   0.31795
 Alpha virt. eigenvalues --    0.31899   0.32769   0.34339   0.35431   0.35544
 Alpha virt. eigenvalues --    0.35705   0.35738   0.36339   0.37103   0.37315
 Alpha virt. eigenvalues --    0.37514   0.37537   0.37881   0.38375   0.38391
 Alpha virt. eigenvalues --    0.38909   0.39721   0.39980   0.40026   0.40191
 Alpha virt. eigenvalues --    0.40396   0.41587   0.41604   0.41891   0.42340
 Alpha virt. eigenvalues --    0.42459   0.42636   0.42702   0.43201   0.43516
 Alpha virt. eigenvalues --    0.43586   0.43826   0.44214   0.44722   0.45103
 Alpha virt. eigenvalues --    0.45403   0.45608   0.45956   0.46414   0.46852
 Alpha virt. eigenvalues --    0.47261   0.47334   0.47436   0.47675   0.47894
 Alpha virt. eigenvalues --    0.48140   0.48329   0.48558   0.48578   0.48661
 Alpha virt. eigenvalues --    0.49126   0.49342   0.49833   0.50053   0.50346
 Alpha virt. eigenvalues --    0.50502   0.50570   0.50962   0.51061   0.51387
 Alpha virt. eigenvalues --    0.52966   0.53599   0.53747   0.54665   0.55460
 Alpha virt. eigenvalues --    0.56023   0.57530   0.57597   0.58880   0.58964
 Alpha virt. eigenvalues --    0.59278   0.60562   0.62071   0.62584   0.63800
 Alpha virt. eigenvalues --    0.64787   0.65240   0.66149   0.66754   0.67291
 Alpha virt. eigenvalues --    0.68155   0.70752   0.72613   0.74038   0.74183
 Alpha virt. eigenvalues --    0.77005   0.79496   0.79747   0.81947   0.86051
 Alpha virt. eigenvalues --    1.05868   1.06325   1.08126   1.08534   1.09760
 Alpha virt. eigenvalues --    1.13305   1.13421   1.14020   1.16410   1.17010
 Alpha virt. eigenvalues --    1.17255   1.17451   1.18561   1.18706   1.19073
 Alpha virt. eigenvalues --    1.19188   1.19266   1.19733   1.20063   1.20805
 Alpha virt. eigenvalues --    1.21214   1.21585   1.22119   1.23001   1.23226
 Alpha virt. eigenvalues --    1.23687   1.24455   1.24532   1.24809   1.25003
 Alpha virt. eigenvalues --    1.25145   1.25491   1.25504   1.25630   1.25644
 Alpha virt. eigenvalues --    1.26101   1.26856   1.27695   1.28861   1.28880
 Alpha virt. eigenvalues --    1.30383   1.31733   1.32798   1.32814   1.33315
 Alpha virt. eigenvalues --    1.33534   1.33917   1.34275   1.34959   1.35245
 Alpha virt. eigenvalues --    1.35389   1.36385   1.36811   1.37065   1.37398
 Alpha virt. eigenvalues --    1.37456   1.37734   1.37842   1.38373   1.38761
 Alpha virt. eigenvalues --    1.38891   1.39725   1.40234   1.41613   1.42412
 Alpha virt. eigenvalues --    1.43191   1.43483   1.43888   1.43968   1.44499
 Alpha virt. eigenvalues --    1.44857   1.45259   1.45635   1.46734   1.47369
 Alpha virt. eigenvalues --    1.48421   1.50183   1.50689   1.50704   1.50845
 Alpha virt. eigenvalues --    1.50946   1.51858   1.52719   1.54639   1.55177
 Alpha virt. eigenvalues --    1.57013   1.57989   1.59088   1.59654   1.60073
 Alpha virt. eigenvalues --    1.60274   1.60417   1.61195   1.61596   1.62975
 Alpha virt. eigenvalues --    1.63608   1.64110   1.65164   1.66049   1.66364
 Alpha virt. eigenvalues --    1.66405   1.66604   1.66868   1.67054   1.67559
 Alpha virt. eigenvalues --    1.68439   1.68467   1.69613   1.69633   1.71017
 Alpha virt. eigenvalues --    1.71844   1.72362   1.72436   1.72952   1.73320
 Alpha virt. eigenvalues --    1.73434   1.73696   1.73831   1.74459   1.74480
 Alpha virt. eigenvalues --    1.75482   1.75736   1.76046   1.76430   1.76953
 Alpha virt. eigenvalues --    1.77660   1.77727   1.77760   1.78130   1.78136
 Alpha virt. eigenvalues --    1.78585   1.79129   1.79368   1.80003   1.80553
 Alpha virt. eigenvalues --    1.80742   1.81021   1.81296   1.81475   1.81652
 Alpha virt. eigenvalues --    1.81695   1.81906   1.81939   1.82469   1.82635
 Alpha virt. eigenvalues --    1.82664   1.82817   1.82902   1.83019   1.84663
 Alpha virt. eigenvalues --    1.84701   1.85836   1.88469   1.90209   1.92931
 Alpha virt. eigenvalues --    1.93964   1.97205   1.97713   2.00919   2.01560
 Alpha virt. eigenvalues --    2.03411   2.04375   2.04544   2.06117   2.07978
 Alpha virt. eigenvalues --    2.09472   2.09977   2.10297   2.10627   2.11032
 Alpha virt. eigenvalues --    2.11298   2.11481   2.11999   2.13498   2.13662
 Alpha virt. eigenvalues --    2.14970   2.15587   2.16261   2.16406   2.17559
 Alpha virt. eigenvalues --    2.18329   2.19878   2.20839   2.21822   2.23296
 Alpha virt. eigenvalues --    2.24312   2.25856   2.26058   2.26556   2.27407
 Alpha virt. eigenvalues --    2.27842   2.28644   2.29168   2.31929   2.32690
 Alpha virt. eigenvalues --    2.33250   2.33954   2.34208   2.34792   2.35415
 Alpha virt. eigenvalues --    2.37130   2.39536   2.40075   2.41941   2.42978
 Alpha virt. eigenvalues --    2.43682   2.44257   2.46743   2.46973   2.47657
 Alpha virt. eigenvalues --    2.47660   2.48120   2.48707   2.48910   2.49017
 Alpha virt. eigenvalues --    2.49097   2.49371   2.49937   2.50408   2.50489
 Alpha virt. eigenvalues --    2.50825   2.50832   2.51507   2.52214   2.52512
 Alpha virt. eigenvalues --    2.52739   2.52887   2.53514   2.53878   2.53967
 Alpha virt. eigenvalues --    2.53994   2.54312   2.55664   2.55678   2.55934
 Alpha virt. eigenvalues --    2.56334   2.56889   2.58122   2.58152   2.58961
 Alpha virt. eigenvalues --    2.59311   2.59776   2.60323   2.60448   2.60942
 Alpha virt. eigenvalues --    2.60971   2.61886   2.63391   2.64440   2.64827
 Alpha virt. eigenvalues --    2.65544   2.65905   2.66317   2.67458   2.67714
 Alpha virt. eigenvalues --    2.68654   2.68726   2.68765   2.69723   2.69938
 Alpha virt. eigenvalues --    2.70178   2.70965   2.71639   2.71809   2.75332
 Alpha virt. eigenvalues --    2.77669   2.80450   2.85286   2.86034   2.87073
 Alpha virt. eigenvalues --    2.91720   2.91857   2.94246   2.96297   3.00126
 Alpha virt. eigenvalues --    3.01004   3.02414   3.04856   3.05325   3.07331
 Alpha virt. eigenvalues --    3.09322   3.09642   3.13161   3.14581   3.16836
 Alpha virt. eigenvalues --    3.21236   3.21571   3.22958   3.24596   3.25357
 Alpha virt. eigenvalues --    3.25488   3.25573   3.25656   3.25923   3.26791
 Alpha virt. eigenvalues --    3.27582   3.28403   3.28617   3.30401   3.30496
 Alpha virt. eigenvalues --    3.32091   3.32795   3.33428   3.34476   3.35238
 Alpha virt. eigenvalues --    3.35241   3.35749   3.36042   3.36180   3.36376
 Alpha virt. eigenvalues --    3.36594   3.37898   3.39444   3.39865   3.43843
 Alpha virt. eigenvalues --    3.44465   3.45392   3.48475   3.48585   3.51843
 Alpha virt. eigenvalues --    3.56884   3.85616   4.17749  21.64706  21.71427
 Alpha virt. eigenvalues --   21.71568  21.72209  21.73579  21.75431  21.77160
 Alpha virt. eigenvalues --   21.78775  21.80588  21.82087  21.83038  21.83318
 Alpha virt. eigenvalues --   21.83701  21.84984  21.86814  21.88613  21.89943
 Alpha virt. eigenvalues --   21.90010  43.09573
          Condensed to atoms (all electrons):
 Mulliken charges:
               1
     1  C   -0.418584
     2  C   -0.227873
     3  C   -0.259862
     4  C   -0.243504
     5  C   -0.253010
     6  C   -0.251356
     7  C   -0.252209
     8  C   -0.251325
     9  C   -0.251749
    10  C   -0.250957
    11  C   -0.251999
    12  C   -0.251151
    13  C   -0.253218
    14  C   -0.249599
    15  C   -0.255664
    16  C   -0.274857
    17  C   -0.197618
    18  C   -0.172978
    19  O   -0.437249
    20  H    0.144453
    21  H    0.131681
    22  H    0.131690
    23  H    0.126659
    24  H    0.126659
    25  H    0.122694
    26  H    0.122697
    27  H    0.123660
    28  H    0.123658
    29  H    0.125218
    30  H    0.125218
    31  H    0.125573
    32  H    0.125574
    33  H    0.125676
    34  H    0.125675
    35  H    0.125639
    36  H    0.125639
    37  H    0.125634
    38  H    0.125634
    39  H    0.125637
    40  H    0.125638
    41  H    0.125678
    42  H    0.125678
    43  H    0.125796
    44  H    0.125797
    45  H    0.126021
    46  H    0.126022
    47  H    0.126401
    48  H    0.126402
    49  H    0.127622
    50  H    0.127620
    51  H    0.129415
    52  H    0.129413
    53  H    0.127044
    54  H    0.127060
    55  H    0.128478
    56  H    0.128490
    57  H    0.311220
 Sum of Mulliken charges =  -0.00000
 Mulliken charges with hydrogens summed into heavy atoms:
               1
     1  C   -0.010760
     2  C    0.025445
     3  C   -0.014470
     4  C    0.003814
     5  C   -0.002574
     6  C   -0.000209
     7  C   -0.000858
     8  C   -0.000047
     9  C   -0.000482
    10  C    0.000318
    11  C   -0.000643
    12  C    0.000442
    13  C   -0.001175
    14  C    0.003203
    15  C   -0.000422
    16  C   -0.016029
    17  C    0.056486
    18  C    0.083989
    19  O   -0.126030
 Electronic spatial extent (au):  <R**2>=          28393.4767
 Charge=             -0.0000 electrons
 Dipole moment (field-independent basis, Debye):
    X=              0.0327    Y=              2.2357    Z=             -0.0000  Tot=              2.2359
 Quadrupole moment (field-independent basis, Debye-Ang):
   XX=           -129.2067   YY=           -131.8052   ZZ=           -125.7421
   XY=            -24.2629   XZ=              0.0015   YZ=              0.0000
 Traceless Quadrupole moment (field-independent basis, Debye-Ang):
   XX=             -0.2887   YY=             -2.8872   ZZ=              3.1759
   XY=            -24.2629   XZ=              0.0015   YZ=              0.0000
 Octapole moment (field-independent basis, Debye-Ang**2):
  XXX=           -190.7935  YYY=              0.4194  ZZZ=             -0.0001  XYY=             -9.8287
  XXY=            295.2186  XXZ=             -0.0020  XZZ=            -13.8790  YZZ=              0.2020
  YYZ=             -0.0000  XYZ=             -0.0002
 Hexadecapole moment (field-independent basis, Debye-Ang**3):
 XXXX=         -36522.8203 YYYY=           -482.3777 ZZZZ=           -270.3771 XXXY=          -3106.2341
 XXXZ=              0.1986 YYYX=             -0.8908 YYYZ=              0.0002 ZZZX=              0.0029
 ZZZY=              0.0001 XXYY=          -6687.1491 XXZZ=          -6361.4836 YYZZ=           -111.9503
 XXYZ=              0.0004 YYXZ=              0.0006 ZZXY=             -7.8687
 N-N= 1.265452040820D+03 E-N=-4.349231486277D+03  KE= 7.799231585628D+02
 Unable to Open any file for archive entry.
 1\1\GINC-TCN1659\SP\RBP86\TZVP\C18H38O1\ELENAA\22-Feb-2021\0\\# BP86/T
 ZVP SCRF=COSMORS geom=CHECKPOINT guess=CHECKPOINT\\COSMO-file for #GLD
 OVTGHNKAZLK-UHFFFAOYSA-N\\0,1\C,0,-5.0762504243,10.5838900453,14.87360
 84284\C,0,-4.7196755004,9.0935240275,14.9392536947\C,0,-4.193310341,8.
 5424491424,13.6070396636\C,0,-3.8325928871,7.0521216822,13.6584079968\
 C,0,-3.3065791321,6.502841004,12.3258478032\C,0,-2.9457728498,5.012443
 652,12.3769714074\C,0,-2.4198150175,4.4635789318,11.0442430424\C,0,-2.
 0588249361,2.973207105,11.0947123735\C,0,-1.532954267,2.4250783639,9.7
 616459095\C,0,-1.1716876103,0.9347310735,9.8111429486\C,0,-0.645945875
 9,0.387684833,8.4775823663\C,0,-0.2843481716,-1.102608577,8.5258943671
 \C,0,0.2412048407,-1.6481163768,7.1916492804\C,0,0.6031231444,-3.13834
 0713,7.2387989116\C,0,1.128291699,-3.6810939692,5.9034891235\C,0,1.490
 1574505,-5.1714415175,5.9509256247\C,0,2.0144670006,-5.70583559,4.6113
 25281\C,0,2.3704438781,-7.1847848197,4.6691305954\O,0,2.8512730898,-7.
 5891676426,3.3663540968\H,0,-5.4509678553,10.9557001496,15.8397715979\
 H,0,-4.1964919489,11.188526657,14.5993910698\H,0,-5.8555690206,10.7703
 336338,14.1168674281\H,0,-5.6078593752,8.5123658638,15.2450510321\H,0,
 -3.9604141312,8.9276268975,15.7241916966\H,0,-3.3038480732,9.122922068
 2,13.2995579699\H,0,-4.9523660445,8.7073906783,12.8201053458\H,0,-3.07
 3596938,6.8877135738,14.4453131549\H,0,-4.7222302055,6.4721530552,13.9
 658268617\H,0,-4.0655090849,6.667230463,11.5389005821\H,0,-2.416961221
 ,7.0827694465,12.018362093\H,0,-3.835365412,4.432415748,12.6843587941\
 H,0,-2.1867682395,4.8479671744,13.163834675\H,0,-3.1788506273,4.628186
 919,10.2574310475\H,0,-1.5302831223,5.0437308164,10.7368983277\H,0,-2.
 9483134527,2.3929355542,11.4019365866\H,0,-1.2997079724,2.8084889851,1
 1.8814149466\H,0,-0.6435609268,3.0055396068,9.4544924611\H,0,-2.292119
 7391,2.58999794,8.9750276452\H,0,-2.061017607,0.3540886264,10.11811089
 96\H,0,-0.412395723,0.769646225,10.5975942322\H,0,-1.4052898732,0.5530
 182051,7.6912299231\H,0,0.2432635859,0.9685585175,8.1706933455\H,0,-1.
 1734664598,-1.6837371474,8.8325026189\H,0,0.4751822667,-1.2681728394,9
 .3119938093\H,0,-0.5183854311,-1.4823154993,6.4056790265\H,0,1.1301982
 61,-1.0667676467,6.8851513734\H,0,-0.2857755522,-3.7200085272,7.544807
 3474\H,0,1.363031099,-3.3044044976,8.0243447015\H,0,2.0172523277,-3.09
 97933496,5.5976728599\H,0,0.3684017193,-3.515408356,5.1181226325\H,0,2
 .2500558443,-5.3360300077,6.736187243\H,0,0.60076191,-5.7517567319,6.2
 565079165\H,0,2.9096154659,-5.135943788,4.3074620752\H,0,1.2540061374,
 -5.5532622682,3.8259458071\H,0,1.4783755263,-7.7753555683,4.9547819934
 \H,0,3.1469255941,-7.3547751366,5.4400625034\H,0,3.0752702181,-8.53527
 6093,3.4161434632\\Version=ES64L-G16RevC.01\State=1-A\HF=-784.2896232\
 RMSD=2.640e-09\Dipole=-0.090761,-0.4822935,0.7300479\Quadrupole=0.7863
 726,15.3715255,-16.1578982,-1.6238632,6.8207173,-5.6890451\PG=C01 [X(C
 18H38O1)]\\@
 The archive entry for this job was punched.


 THERE IS MORE TO LIFE THAN INCREASING ITS SPEED.

                                       -- GANDHI
 Job cpu time:       0 days  0 hours 23 minutes 35.3 seconds.
 Elapsed time:       0 days  0 hours  0 minutes 46.2 seconds.
 File lengths (MBytes):  RWF=    287 Int=      0 D2E=      0 Chk=     34 Scr=      1
 Normal termination of Gaussian 16 at Mon Feb 22 21:11:08 2021.
