 Entering Gaussian System, Link 0=g16
 Input=HEBKCHPVOIAQTA-SCDXWVJYSA-N.gjf
 Output=HEBKCHPVOIAQTA-SCDXWVJYSA-N.log
 Initial command:
 /sw/arch/RedHatEnterpriseServer7/EB_production/2019/software/Gaussian/g16.c01/l1.exe "/scratch-local/elenaa.9715214/Gau-886.inp" -scrdir="/scratch-local/elenaa.9715214/"
 Entering Link 1 = /sw/arch/RedHatEnterpriseServer7/EB_production/2019/software/Gaussian/g16.c01/l1.exe PID=       887.
  
 Copyright (c) 1988-2019, Gaussian, Inc.  All Rights Reserved.
  
 This is part of the Gaussian(R) 16 program.  It is based on
 the Gaussian(R) 09 system (copyright 2009, Gaussian, Inc.),
 the Gaussian(R) 03 system (copyright 2003, Gaussian, Inc.),
 the Gaussian(R) 98 system (copyright 1998, Gaussian, Inc.),
 the Gaussian(R) 94 system (copyright 1995, Gaussian, Inc.),
 the Gaussian 92(TM) system (copyright 1992, Gaussian, Inc.),
 the Gaussian 90(TM) system (copyright 1990, Gaussian, Inc.),
 the Gaussian 88(TM) system (copyright 1988, Gaussian, Inc.),
 the Gaussian 86(TM) system (copyright 1986, Carnegie Mellon
 University), and the Gaussian 82(TM) system (copyright 1983,
 Carnegie Mellon University). Gaussian is a federally registered
 trademark of Gaussian, Inc.
  
 This software contains proprietary and confidential information,
 including trade secrets, belonging to Gaussian, Inc.
  
 This software is provided under written license and may be
 used, copied, transmitted, or stored only in accord with that
 written license.
  
 The following legend is applicable only to US Government
 contracts under FAR:
  
                    RESTRICTED RIGHTS LEGEND
  
 Use, reproduction and disclosure by the US Government is
 subject to restrictions as set forth in subparagraphs (a)
 and (c) of the Commercial Computer Software - Restricted
 Rights clause in FAR 52.227-19.
  
 Gaussian, Inc.
 340 Quinnipiac St., Bldg. 40, Wallingford CT 06492
  
  
 ---------------------------------------------------------------
 Warning -- This program may not be used in any manner that
 competes with the business of Gaussian, Inc. or will provide
 assistance to any competitor of Gaussian, Inc.  The licensee
 of this program is prohibited from giving any competitor of
 Gaussian, Inc. access to this program.  By using this program,
 the user acknowledges that Gaussian, Inc. is engaged in the
 business of creating and licensing software in the field of
 computational chemistry and represents and warrants to the
 licensee that it is not a competitor of Gaussian, Inc. and that
 it will not use this program in any manner prohibited above.
 ---------------------------------------------------------------
  

 Cite this work as:
 Gaussian 16, Revision C.01,
 M. J. Frisch, G. W. Trucks, H. B. Schlegel, G. E. Scuseria, 
 M. A. Robb, J. R. Cheeseman, G. Scalmani, V. Barone, 
 G. A. Petersson, H. Nakatsuji, X. Li, M. Caricato, A. V. Marenich, 
 J. Bloino, B. G. Janesko, R. Gomperts, B. Mennucci, H. P. Hratchian, 
 J. V. Ortiz, A. F. Izmaylov, J. L. Sonnenberg, D. Williams-Young, 
 F. Ding, F. Lipparini, F. Egidi, J. Goings, B. Peng, A. Petrone, 
 T. Henderson, D. Ranasinghe, V. G. Zakrzewski, J. Gao, N. Rega, 
 G. Zheng, W. Liang, M. Hada, M. Ehara, K. Toyota, R. Fukuda, 
 J. Hasegawa, M. Ishida, T. Nakajima, Y. Honda, O. Kitao, H. Nakai, 
 T. Vreven, K. Throssell, J. A. Montgomery, Jr., J. E. Peralta, 
 F. Ogliaro, M. J. Bearpark, J. J. Heyd, E. N. Brothers, K. N. Kudin, 
 V. N. Staroverov, T. A. Keith, R. Kobayashi, J. Normand, 
 K. Raghavachari, A. P. Rendell, J. C. Burant, S. S. Iyengar, 
 J. Tomasi, M. Cossi, J. M. Millam, M. Klene, C. Adamo, R. Cammi, 
 J. W. Ochterski, R. L. Martin, K. Morokuma, O. Farkas, 
 J. B. Foresman, and D. J. Fox, Gaussian, Inc., Wallingford CT, 2019.
 
 ******************************************
 Gaussian 16:  ES64L-G16RevC.01  3-Jul-2019
                22-Feb-2021 
 ******************************************
 %chk=HEBKCHPVOIAQTA-SCDXWVJYSA-N.chk
 %NProcShared=32
 Will use up to   32 processors via shared memory.
 -------------------------------------------------------------
 #P BP86/TZVP EmpiricalDispersion=GD3 SCRF=(Solvent=Water) Opt
 -------------------------------------------------------------
 1/18=20,19=15,26=3,38=1/1,3;
 2/9=110,12=2,17=6,18=5,40=1/2;
 3/5=19,7=101,11=2,25=1,30=1,70=2201,71=1,72=1,74=404,124=31/1,2,3;
 4//1;
 5/5=2,38=5,53=1/2;
 6/7=2,8=2,9=2,10=2,28=1/1;
 7//1,2,3,16;
 1/18=20,19=15,26=3/3(2);
 2/9=110/2;
 99//99;
 2/9=110/2;
 3/5=19,7=101,11=2,25=1,30=1,70=2205,71=1,72=1,74=404,124=31/1,2,3;
 4/5=5,16=3,69=1/1;
 5/5=2,38=5,53=1/2;
 7//1,2,3,16;
 1/18=20,19=15,26=3/3(-5);
 2/9=110/2;
 6/7=2,8=2,9=2,10=2,19=2,28=1/1;
 99/9=1/99;
 Leave Link    1 at Mon Feb 22 21:06:50 2021, MaxMem=           0 cpu:               1.9 elap:               0.1
 (Enter /sw/arch/RedHatEnterpriseServer7/EB_production/2019/software/Gaussian/g16.c01/l101.exe)
 -------------------------------------
 Particle #HEBKCHPVOIAQTA-SCDXWVJYSA-N
 -------------------------------------
 Symbolic Z-matrix:
 Charge =  0 Multiplicity = 1
 O                     0.38585   1.26355  -3.36049 
 C                    -0.03306   1.9761   -2.20123 
 C                    -1.14716   1.19053  -1.46182 
 O                    -2.27277   1.03111  -2.32768 
 C                    -1.59234   1.86601  -0.12749 
 O                    -2.14785   3.15416  -0.40292 
 C                    -2.65356   1.05897   0.686 
 O                    -3.02727   1.798     1.84898 
 C                    -2.19845  -0.34781   1.15204 
 O                    -0.99309  -0.29078   1.91059 
 H                     1.08947   1.81996  -3.75466 
 H                     0.83142   2.10693  -1.54638 
 H                    -0.39353   2.96043  -2.50864 
 H                    -0.74854   0.19606  -1.24737 
 H                    -1.93912   0.51891  -3.09373 
 H                    -0.71288   2.02018   0.50519 
 H                    -1.4116    3.6857   -0.77064 
 H                    -3.55386   0.94273   0.07802 
 H                    -3.42109   2.63117   1.5133 
 H                    -2.97583  -0.79502   1.77435 
 H                    -2.0474   -1.00497   0.29533 
 H                    -0.78901  -1.22694   2.12068 
 
 ITRead=  0  0  0  0  0  0  0  0  0  0  0  0  0  0  0  0  0  0  0  0
 ITRead=  0  0
 MicOpt= -1 -1 -1 -1 -1 -1 -1 -1 -1 -1 -1 -1 -1 -1 -1 -1 -1 -1 -1 -1
 MicOpt= -1 -1
 NAtoms=     22 NQM=       22 NQMF=       0 NMMI=      0 NMMIF=      0
                NMic=       0 NMicF=      0.
                    Isotopes and Nuclear Properties:
 (Nuclear quadrupole moments (NQMom) in fm**2, nuclear magnetic moments (NMagM)
  in nuclear magnetons)

  Atom         1           2           3           4           5           6           7           8           9          10
 IAtWgt=          16          12          12          16          12          16          12          16          12          16
 AtmWgt=  15.9949146  12.0000000  12.0000000  15.9949146  12.0000000  15.9949146  12.0000000  15.9949146  12.0000000  15.9949146
 NucSpn=           0           0           0           0           0           0           0           0           0           0
 AtZEff=  -0.0000000  -0.0000000  -0.0000000  -0.0000000  -0.0000000  -0.0000000  -0.0000000  -0.0000000  -0.0000000  -0.0000000
 NQMom=    0.0000000   0.0000000   0.0000000   0.0000000   0.0000000   0.0000000   0.0000000   0.0000000   0.0000000   0.0000000
 NMagM=    0.0000000   0.0000000   0.0000000   0.0000000   0.0000000   0.0000000   0.0000000   0.0000000   0.0000000   0.0000000
 AtZNuc=   8.0000000   6.0000000   6.0000000   8.0000000   6.0000000   8.0000000   6.0000000   8.0000000   6.0000000   8.0000000

  Atom        11          12          13          14          15          16          17          18          19          20
 IAtWgt=           1           1           1           1           1           1           1           1           1           1
 AtmWgt=   1.0078250   1.0078250   1.0078250   1.0078250   1.0078250   1.0078250   1.0078250   1.0078250   1.0078250   1.0078250
 NucSpn=           1           1           1           1           1           1           1           1           1           1
 AtZEff=  -0.0000000  -0.0000000  -0.0000000  -0.0000000  -0.0000000  -0.0000000  -0.0000000  -0.0000000  -0.0000000  -0.0000000
 NQMom=    0.0000000   0.0000000   0.0000000   0.0000000   0.0000000   0.0000000   0.0000000   0.0000000   0.0000000   0.0000000
 NMagM=    2.7928460   2.7928460   2.7928460   2.7928460   2.7928460   2.7928460   2.7928460   2.7928460   2.7928460   2.7928460
 AtZNuc=   1.0000000   1.0000000   1.0000000   1.0000000   1.0000000   1.0000000   1.0000000   1.0000000   1.0000000   1.0000000

  Atom        21          22
 IAtWgt=           1           1
 AtmWgt=   1.0078250   1.0078250
 NucSpn=           1           1
 AtZEff=  -0.0000000  -0.0000000
 NQMom=    0.0000000   0.0000000
 NMagM=    2.7928460   2.7928460
 AtZNuc=   1.0000000   1.0000000
 Leave Link  101 at Mon Feb 22 21:06:50 2021, MaxMem=   104857600 cpu:               3.3 elap:               0.1
 (Enter /sw/arch/RedHatEnterpriseServer7/EB_production/2019/software/Gaussian/g16.c01/l103.exe)

 GradGradGradGradGradGradGradGradGradGradGradGradGradGradGradGradGradGrad
 Berny optimization.
 Initialization pass.
                           ----------------------------
                           !    Initial Parameters    !
                           ! (Angstroms and Degrees)  !
 --------------------------                            --------------------------
 ! Name  Definition              Value          Derivative Info.                !
 --------------------------------------------------------------------------------
 ! R1    R(1,2)                  1.4238         estimate D2E/DX2                !
 ! R2    R(1,11)                 0.9798         estimate D2E/DX2                !
 ! R3    R(2,3)                  1.5508         estimate D2E/DX2                !
 ! R4    R(2,12)                 1.0924         estimate D2E/DX2                !
 ! R5    R(2,13)                 1.0924         estimate D2E/DX2                !
 ! R6    R(3,4)                  1.429          estimate D2E/DX2                !
 ! R7    R(3,5)                  1.5604         estimate D2E/DX2                !
 ! R8    R(3,14)                 1.0926         estimate D2E/DX2                !
 ! R9    R(4,15)                 0.9801         estimate D2E/DX2                !
 ! R10   R(5,6)                  1.4296         estimate D2E/DX2                !
 ! R11   R(5,7)                  1.5618         estimate D2E/DX2                !
 ! R12   R(5,16)                 1.0943         estimate D2E/DX2                !
 ! R13   R(6,17)                 0.9797         estimate D2E/DX2                !
 ! R14   R(7,8)                  1.4277         estimate D2E/DX2                !
 ! R15   R(7,9)                  1.5503         estimate D2E/DX2                !
 ! R16   R(7,18)                 1.0926         estimate D2E/DX2                !
 ! R17   R(8,19)                 0.9808         estimate D2E/DX2                !
 ! R18   R(9,10)                 1.4253         estimate D2E/DX2                !
 ! R19   R(9,20)                 1.0916         estimate D2E/DX2                !
 ! R20   R(9,21)                 1.0902         estimate D2E/DX2                !
 ! R21   R(10,22)                0.9809         estimate D2E/DX2                !
 ! A1    A(2,1,11)             104.7522         estimate D2E/DX2                !
 ! A2    A(1,2,3)              110.2469         estimate D2E/DX2                !
 ! A3    A(1,2,12)             108.373          estimate D2E/DX2                !
 ! A4    A(1,2,13)             108.5975         estimate D2E/DX2                !
 ! A5    A(3,2,12)             110.0822         estimate D2E/DX2                !
 ! A6    A(3,2,13)             110.7047         estimate D2E/DX2                !
 ! A7    A(12,2,13)            108.7789         estimate D2E/DX2                !
 ! A8    A(2,3,4)              109.4802         estimate D2E/DX2                !
 ! A9    A(2,3,5)              113.165          estimate D2E/DX2                !
 ! A10   A(2,3,14)             107.0095         estimate D2E/DX2                !
 ! A11   A(4,3,5)              109.9799         estimate D2E/DX2                !
 ! A12   A(4,3,14)             107.743          estimate D2E/DX2                !
 ! A13   A(5,3,14)             109.2836         estimate D2E/DX2                !
 ! A14   A(3,4,15)             105.2926         estimate D2E/DX2                !
 ! A15   A(3,5,6)              109.6433         estimate D2E/DX2                !
 ! A16   A(3,5,7)              114.5547         estimate D2E/DX2                !
 ! A17   A(3,5,16)             109.0317         estimate D2E/DX2                !
 ! A18   A(6,5,7)              107.5731         estimate D2E/DX2                !
 ! A19   A(6,5,16)             107.2613         estimate D2E/DX2                !
 ! A20   A(7,5,16)             108.5261         estimate D2E/DX2                !
 ! A21   A(5,6,17)             105.6146         estimate D2E/DX2                !
 ! A22   A(5,7,8)              109.552          estimate D2E/DX2                !
 ! A23   A(5,7,9)              115.2147         estimate D2E/DX2                !
 ! A24   A(5,7,18)             108.968          estimate D2E/DX2                !
 ! A25   A(8,7,9)              107.559          estimate D2E/DX2                !
 ! A26   A(8,7,18)             107.0178         estimate D2E/DX2                !
 ! A27   A(9,7,18)             108.2189         estimate D2E/DX2                !
 ! A28   A(7,8,19)             105.4284         estimate D2E/DX2                !
 ! A29   A(7,9,10)             111.8354         estimate D2E/DX2                !
 ! A30   A(7,9,20)             109.5166         estimate D2E/DX2                !
 ! A31   A(7,9,21)             110.5743         estimate D2E/DX2                !
 ! A32   A(10,9,20)            108.3753         estimate D2E/DX2                !
 ! A33   A(10,9,21)            108.9747         estimate D2E/DX2                !
 ! A34   A(20,9,21)            107.4395         estimate D2E/DX2                !
 ! A35   A(9,10,22)            104.5807         estimate D2E/DX2                !
 ! D1    D(11,1,2,3)          -179.3408         estimate D2E/DX2                !
 ! D2    D(11,1,2,12)          -58.8001         estimate D2E/DX2                !
 ! D3    D(11,1,2,13)           59.2119         estimate D2E/DX2                !
 ! D4    D(1,2,3,4)            -60.7025         estimate D2E/DX2                !
 ! D5    D(1,2,3,5)            176.2336         estimate D2E/DX2                !
 ! D6    D(1,2,3,14)            55.8007         estimate D2E/DX2                !
 ! D7    D(12,2,3,4)           179.7883         estimate D2E/DX2                !
 ! D8    D(12,2,3,5)            56.7244         estimate D2E/DX2                !
 ! D9    D(12,2,3,14)          -63.7085         estimate D2E/DX2                !
 ! D10   D(13,2,3,4)            59.4833         estimate D2E/DX2                !
 ! D11   D(13,2,3,5)           -63.5806         estimate D2E/DX2                !
 ! D12   D(13,2,3,14)          175.9865         estimate D2E/DX2                !
 ! D13   D(2,3,4,15)            61.0295         estimate D2E/DX2                !
 ! D14   D(5,3,4,15)          -174.0391         estimate D2E/DX2                !
 ! D15   D(14,3,4,15)          -55.0087         estimate D2E/DX2                !
 ! D16   D(2,3,5,6)             62.3835         estimate D2E/DX2                !
 ! D17   D(2,3,5,7)           -176.5835         estimate D2E/DX2                !
 ! D18   D(2,3,5,16)           -54.772          estimate D2E/DX2                !
 ! D19   D(4,3,5,6)            -60.4036         estimate D2E/DX2                !
 ! D20   D(4,3,5,7)             60.6293         estimate D2E/DX2                !
 ! D21   D(4,3,5,16)          -177.5592         estimate D2E/DX2                !
 ! D22   D(14,3,5,6)          -178.4861         estimate D2E/DX2                !
 ! D23   D(14,3,5,7)           -57.4531         estimate D2E/DX2                !
 ! D24   D(14,3,5,16)           64.3583         estimate D2E/DX2                !
 ! D25   D(3,5,6,17)           -64.4661         estimate D2E/DX2                !
 ! D26   D(7,5,6,17)           170.3724         estimate D2E/DX2                !
 ! D27   D(16,5,6,17)           53.7944         estimate D2E/DX2                !
 ! D28   D(3,5,7,8)           -177.403          estimate D2E/DX2                !
 ! D29   D(3,5,7,9)             61.1915         estimate D2E/DX2                !
 ! D30   D(3,5,7,18)           -60.629          estimate D2E/DX2                !
 ! D31   D(6,5,7,8)            -55.237          estimate D2E/DX2                !
 ! D32   D(6,5,7,9)           -176.6425         estimate D2E/DX2                !
 ! D33   D(6,5,7,18)            61.537          estimate D2E/DX2                !
 ! D34   D(16,5,7,8)            60.5098         estimate D2E/DX2                !
 ! D35   D(16,5,7,9)           -60.8957         estimate D2E/DX2                !
 ! D36   D(16,5,7,18)          177.2838         estimate D2E/DX2                !
 ! D37   D(5,7,8,19)            61.5012         estimate D2E/DX2                !
 ! D38   D(9,7,8,19)          -172.5863         estimate D2E/DX2                !
 ! D39   D(18,7,8,19)          -56.4955         estimate D2E/DX2                !
 ! D40   D(5,7,9,10)            55.4279         estimate D2E/DX2                !
 ! D41   D(5,7,9,20)           175.5819         estimate D2E/DX2                !
 ! D42   D(5,7,9,21)           -66.21           estimate D2E/DX2                !
 ! D43   D(8,7,9,10)           -67.0508         estimate D2E/DX2                !
 ! D44   D(8,7,9,20)            53.1033         estimate D2E/DX2                !
 ! D45   D(8,7,9,21)           171.3114         estimate D2E/DX2                !
 ! D46   D(18,7,9,10)          177.6512         estimate D2E/DX2                !
 ! D47   D(18,7,9,20)          -62.1947         estimate D2E/DX2                !
 ! D48   D(18,7,9,21)           56.0134         estimate D2E/DX2                !
 ! D49   D(7,9,10,22)         -178.1105         estimate D2E/DX2                !
 ! D50   D(20,9,10,22)          61.07           estimate D2E/DX2                !
 ! D51   D(21,9,10,22)         -55.5557         estimate D2E/DX2                !
 --------------------------------------------------------------------------------
 Trust Radius=3.00D-01 FncErr=1.00D-07 GrdErr=1.00D-06 EigMax=2.50D+02 EigMin=1.00D-04
 Number of steps in this run=    117 maximum allowed number of steps=    132.
 GradGradGradGradGradGradGradGradGradGradGradGradGradGradGradGradGradGrad

 Leave Link  103 at Mon Feb 22 21:06:50 2021, MaxMem=   104857600 cpu:               0.3 elap:               0.0
 (Enter /sw/arch/RedHatEnterpriseServer7/EB_production/2019/software/Gaussian/g16.c01/l202.exe)
                          Input orientation:                          
 ---------------------------------------------------------------------
 Center     Atomic      Atomic             Coordinates (Angstroms)
 Number     Number       Type             X           Y           Z
 ---------------------------------------------------------------------
      1          8           0        0.385850    1.263550   -3.360490
      2          6           0       -0.033060    1.976100   -2.201230
      3          6           0       -1.147160    1.190530   -1.461820
      4          8           0       -2.272770    1.031110   -2.327680
      5          6           0       -1.592340    1.866010   -0.127490
      6          8           0       -2.147850    3.154160   -0.402920
      7          6           0       -2.653560    1.058970    0.686000
      8          8           0       -3.027270    1.798000    1.848980
      9          6           0       -2.198450   -0.347810    1.152040
     10          8           0       -0.993090   -0.290780    1.910590
     11          1           0        1.089470    1.819960   -3.754660
     12          1           0        0.831420    2.106930   -1.546380
     13          1           0       -0.393530    2.960430   -2.508640
     14          1           0       -0.748540    0.196060   -1.247370
     15          1           0       -1.939120    0.518910   -3.093730
     16          1           0       -0.712880    2.020180    0.505190
     17          1           0       -1.411600    3.685700   -0.770640
     18          1           0       -3.553860    0.942730    0.078020
     19          1           0       -3.421090    2.631170    1.513300
     20          1           0       -2.975830   -0.795020    1.774350
     21          1           0       -2.047400   -1.004970    0.295330
     22          1           0       -0.789010   -1.226940    2.120680
 ---------------------------------------------------------------------
                    Distance matrix (angstroms):
                    1          2          3          4          5
     1  O    0.000000
     2  C    1.423762   0.000000
     3  C    2.441393   1.550828   0.000000
     4  O    2.861640   2.434193   1.429030   0.000000
     5  C    3.837771   2.596897   1.560415   2.449669   0.000000
     6  O    4.329118   3.015639   2.445096   2.868388   1.429610
     7  C    5.064973   4.005527   2.626724   3.037770   1.561815
     8  O    6.250888   5.039962   3.855545   4.312990   2.443375
     9  C    5.444081   4.618863   3.209979   3.743714   2.627844
    10  O    5.665836   4.792438   3.686620   4.620379   3.027311
    11  H    0.979818   1.922914   3.264324   3.736738   4.511163
    12  H    2.049590   1.092369   2.182136   3.376953   2.818848
    13  H    2.052434   1.092403   2.190054   2.699364   2.881801
    14  H    2.625196   2.142499   1.092638   2.046376   2.180565
    15  H    2.455837   2.559887   1.934271   0.980053   3.276204
    16  H    4.089398   2.790844   2.178542   3.381814   1.094304
    17  H    3.975545   2.621010   2.602601   3.195753   1.938448
    18  H    5.239045   4.319591   2.867877   2.726975   2.177669
    19  H    6.333799   5.070069   4.012174   4.316475   2.573322
    20  H    6.473421   5.669589   4.214171   4.544854   3.551355
    21  H    4.942864   4.379173   2.952665   3.328152   2.937411
    22  H    6.134009   5.432295   4.336674   5.204636   3.907166
                    6          7          8          9         10
     6  O    0.000000
     7  C    2.414811   0.000000
     8  O    2.771931   1.427707   0.000000
     9  C    3.832004   1.550274   2.403574   0.000000
    10  O    4.307367   2.465483   2.916279   1.425322   0.000000
    11  H    4.847112   5.857375   6.953331   6.291689   6.394321
    12  H    3.358607   4.269289   5.149116   4.742081   4.585683
    13  H    2.747586   4.350748   5.222708   5.253833   5.519006
    14  H    3.379574   2.848093   4.164878   2.855731   3.204611
    15  H    3.772078   3.884385   5.220203   4.341085   5.156917
    16  H    2.041988   2.173213   2.685430   2.869270   2.719228
    17  H    0.979702   3.250227   3.610569   4.537073   4.814202
    18  H    2.664318   1.092562   2.035948   2.157811   3.381923
    19  H    2.359355   1.935288   0.980789   3.240321   3.819793
    20  H    4.584984   2.173854   2.594604   1.091598   2.050385
    21  H    4.218531   2.186299   3.351211   1.090242   2.056867
    22  H    5.235364   3.280280   3.772783   1.922929   0.980909
                   11         12         13         14         15
    11  H    0.000000
    12  H    2.241750   0.000000
    13  H    2.247783   1.776206   0.000000
    14  H    3.507397   2.497420   3.059179   0.000000
    15  H    3.361832   3.548520   2.948253   2.220531   0.000000
    16  H    4.629781   2.569305   3.173204   2.529852   4.087750
    17  H    4.317489   2.850513   2.140824   3.583923   3.962775
    18  H    6.084364   4.819203   4.555174   3.191237   3.584272
    19  H    6.982451   5.265008   5.044852   4.549020   5.280398
    20  H    7.344027   5.826123   6.254253   3.882506   5.147755
    21  H    5.850009   4.622058   5.130490   2.347218   3.717481
    22  H    6.879819   5.214193   6.254684   3.656546   5.617901
                   16         17         18         19         20
    16  H    0.000000
    17  H    2.211314   0.000000
    18  H    3.068312   3.582372   0.000000
    19  H    2.953641   3.219700   2.220019   0.000000
    20  H    3.828454   5.385224   2.496283   3.464849   0.000000
    21  H    3.313083   4.852105   2.471878   4.073327   1.758852
    22  H    3.627588   5.734229   4.065012   4.709752   2.255811
                   21         22
    21  H    0.000000
    22  H    2.228165   0.000000
 Stoichiometry    C5H12O5
 Framework group  C1[X(C5H12O5)]
 Deg. of freedom    60
 Full point group                 C1      NOp   1
 Largest Abelian subgroup         C1      NOp   1
 Largest concise Abelian subgroup C1      NOp   1
                         Standard orientation:                         
 ---------------------------------------------------------------------
 Center     Atomic      Atomic             Coordinates (Angstroms)
 Number     Number       Type             X           Y           Z
 ---------------------------------------------------------------------
      1          8           0       -3.376423   -0.861890   -0.169254
      2          6           0       -2.314430   -0.067888   -0.687742
      3          6           0       -1.045255   -0.230923    0.188431
      4          8           0       -1.326990    0.202495    1.520685
      5          6           0        0.190869    0.538690   -0.372450
      6          8           0       -0.084997    1.941282   -0.392878
      7          6           0        1.508822    0.329096    0.438931
      8          8           0        2.550452    1.124075   -0.127957
      9          6           0        2.019099   -1.133365    0.503549
     10          8           0        2.193100   -1.692047   -0.796120
     11          1           0       -4.125084   -0.708331   -0.782417
     12          1           0       -2.108765   -0.393152   -1.710081
     13          1           0       -2.637710    0.975369   -0.708944
     14          1           0       -0.818352   -1.299055    0.226741
     15          1           0       -2.043671   -0.385967    1.837835
     16          1           0        0.366025    0.227108   -1.406731
     17          1           0       -0.818415    2.056502   -1.032127
     18          1           0        1.356614    0.683256    1.461230
     19          1           0        2.245657    2.052444   -0.043234
     20          1           0        2.979404   -1.161977    1.021798
     21          1           0        1.324826   -1.756835    1.067372
     22          1           0        2.483716   -2.614350   -0.631557
 ---------------------------------------------------------------------
 Rotational constants (GHZ):           1.9283749           0.7403884           0.6415982
 Leave Link  202 at Mon Feb 22 21:06:50 2021, MaxMem=   104857600 cpu:               0.4 elap:               0.0
 (Enter /sw/arch/RedHatEnterpriseServer7/EB_production/2019/software/Gaussian/g16.c01/l301.exe)
 Standard basis: TZVP (5D, 7F)
 Ernie: Thresh=  0.10000D-02 Tol=  0.10000D-05 Strict=F.
 There are   272 symmetry adapted cartesian basis functions of A   symmetry.
 There are   262 symmetry adapted basis functions of A   symmetry.
   262 basis functions,   446 primitive gaussians,   272 cartesian basis functions
    41 alpha electrons       41 beta electrons
       nuclear repulsion energy       602.9612586660 Hartrees.
 IExCor=  404 DFT=T Ex=B Corr=P86 ExCW=0 ScaHFX=  0.000000
 ScaDFX=  1.000000  1.000000  1.000000  1.000000 ScalE2=  1.000000  1.000000
 IRadAn=      5 IRanWt=     -1 IRanGd=            0 ICorTp=0 IEmpDi=131
 NAtoms=   22 NActive=   22 NUniq=   22 SFac= 1.00D+00 NAtFMM=   60 NAOKFM=F Big=F
 Integral buffers will be    131072 words long.
 Raffenetti 2 integral format.
 Two-electron integral symmetry is turned on.
 R6Disp:  Grimme-D3 Dispersion energy=       -0.0231538727 Hartrees.
 Nuclear repulsion after empirical dispersion term =      602.9381047933 Hartrees.
 ------------------------------------------------------------------------------
 Polarizable Continuum Model (PCM)
 =================================
 Model                : PCM.
 Atomic radii         : UFF (Universal Force Field).
 Polarization charges : Total charges.
 Charge compensation  : None.
 Solution method      : On-the-fly selection.
 Cavity type          : Scaled VdW (van der Waals Surface) (Alpha=1.100).
 Cavity algorithm     : GePol (No added spheres)
                        Default sphere list used, NSphG=   22.
                        Lebedev-Laikov grids with approx.  5.0 points / Ang**2.
                        Smoothing algorithm: York/Karplus (Gamma=1.0000).
                        Polarization charges: spherical gaussians, with
                                              point-specific exponents (IZeta= 3).
                        Self-potential: point-specific (ISelfS= 7).
                        Self-field    : sphere-specific E.n sum rule (ISelfD= 2).
 1st derivatives      : Analytical E(r).r(x)/FMM algorithm (CHGder, D1EAlg=3).
                        Cavity 1st derivative terms included.
 Solvent              : Water, Eps=  78.355300 Eps(inf)=   1.777849
 ------------------------------------------------------------------------------
 GePol: Number of generator spheres                  =      22
 GePol: Total number of spheres                      =      22
 GePol: Number of exposed spheres                    =      22 (100.00%)
 GePol: Number of points                             =    1642
 GePol: Average weight of points                     =       0.13
 GePol: Minimum weight of points                     =   0.23D-09
 GePol: Maximum weight of points                     =    0.20362
 GePol: Number of points with low weight             =      90
 GePol: Fraction of low-weight points (<1% of avg)   =       5.48%
 GePol: Cavity surface area                          =    217.092 Ang**2
 GePol: Cavity volume                                =    217.072 Ang**3
 Leave Link  301 at Mon Feb 22 21:06:50 2021, MaxMem=   104857600 cpu:               1.8 elap:               0.1
 (Enter /sw/arch/RedHatEnterpriseServer7/EB_production/2019/software/Gaussian/g16.c01/l302.exe)
 NPDir=0 NMtPBC=     1 NCelOv=     1 NCel=       1 NClECP=     1 NCelD=      1
         NCelK=      1 NCelE2=     1 NClLst=     1 CellRange=     0.0.
 One-electron integrals computed using PRISM.
 One-electron integral symmetry used in STVInt
 PrsmSu:  requested number of processors reduced to:  28 ShMem   1 Linda.
 NBasis=   262 RedAO= T EigKep=  1.55D-04  NBF=   262
 NBsUse=   262 1.00D-06 EigRej= -1.00D+00 NBFU=   262
 Precomputing XC quadrature grid using
 IXCGrd= 4 IRadAn=           5 IRanWt=          -1 IRanGd=           0 AccXCQ= 0.00D+00.
 Generated NRdTot=       0 NPtTot=           0 NUsed=           0 NTot=          32
 NSgBfM=   269   269   269   269   269 MxSgAt=    22 MxSgA2=    22.
 Leave Link  302 at Mon Feb 22 21:06:51 2021, MaxMem=   104857600 cpu:               7.6 elap:               0.3
 (Enter /sw/arch/RedHatEnterpriseServer7/EB_production/2019/software/Gaussian/g16.c01/l303.exe)
 DipDrv:  MaxL=1.
 Leave Link  303 at Mon Feb 22 21:06:51 2021, MaxMem=   104857600 cpu:               2.6 elap:               0.1
 (Enter /sw/arch/RedHatEnterpriseServer7/EB_production/2019/software/Gaussian/g16.c01/l401.exe)
 ExpMin= 9.52D-02 ExpMax= 2.70D+04 ExpMxC= 9.22D+02 IAcc=3 IRadAn=         5 AccDes= 0.00D+00
 Harris functional with IExCor=  404 and IRadAn=       5 diagonalized for initial guess.
 HarFok:  IExCor=  404 AccDes= 0.00D+00 IRadAn=         5 IDoV= 1 UseB2=F ITyADJ=14
 ICtDFT=  3500011 ScaDFX=  1.000000  1.000000  1.000000  1.000000
 FoFCou: FMM=F IPFlag=           0 FMFlag=      100000 FMFlg1=           0
         NFxFlg=           0 DoJE=T BraDBF=F KetDBF=T FulRan=T
         wScrn=  0.000000 ICntrl=       500 IOpCl=  0 I1Cent=   200000004 NGrid=           0
         NMat0=    1 NMatS0=      1 NMatT0=    0 NMatD0=    1 NMtDS0=    0 NMtDT0=    0
 Petite list used in FoFCou.
 Harris En= -574.245897926791    
 JPrj=0 DoOrth=F DoCkMO=F.
 Leave Link  401 at Mon Feb 22 21:06:52 2021, MaxMem=   104857600 cpu:              14.5 elap:               0.5
 (Enter /sw/arch/RedHatEnterpriseServer7/EB_production/2019/software/Gaussian/g16.c01/l502.exe)
 Integral symmetry usage will be decided dynamically.
 Closed shell SCF:
 Using DIIS extrapolation, IDIIS=  1040.
 NGot=   104857600 LenX=   104697542 LenY=   104623117
 Requested convergence on RMS density matrix=1.00D-08 within 128 cycles.
 Requested convergence on MAX density matrix=1.00D-06.
 Requested convergence on             energy=1.00D-06.
 No special actions if energy rises.
 Fock matrices will be formed incrementally for  20 cycles.

 Cycle   1  Pass 1  IDiag  1:
 FoFJK:  IHMeth= 1 ICntrl=     500 DoSepK=F KAlg= 0 I1Cent=           0 FoldK=F
 IRaf= 910000000 NMat=       1 IRICut=       1 DoRegI=T DoRafI=F ISym2E= 0 IDoP0=0 IntGTp=1.
 FoFCou: FMM=F IPFlag=           0 FMFlag=      100000 FMFlg1=           0
         NFxFlg=           0 DoJE=T BraDBF=F KetDBF=F FulRan=T
         wScrn=  0.000000 ICntrl=       500 IOpCl=  0 I1Cent=           0 NGrid=           0
         NMat0=    1 NMatS0=      1 NMatT0=    0 NMatD0=    1 NMtDS0=    0 NMtDT0=    0
 Symmetry not used in FoFCou.
 Inv3:  Mode=1 IEnd=     8088492.
 Iteration    1 A*A^-1 deviation from unit magnitude is 3.11D-15 for     38.
 Iteration    1 A*A^-1 deviation from orthogonality  is 1.76D-15 for   1637    101.
 Iteration    1 A^-1*A deviation from unit magnitude is 3.11D-15 for   1337.
 Iteration    1 A^-1*A deviation from orthogonality  is 7.39D-15 for    890    823.
 E= -573.843955745412    
 DIIS: error= 2.32D-02 at cycle   1 NSaved=   1.
 NSaved= 1 IEnMin= 1 EnMin= -573.843955745412     IErMin= 1 ErrMin= 2.32D-02
 ErrMax= 2.32D-02  0.00D+00 EMaxC= 1.00D-01 BMatC= 3.19D-01 BMatP= 3.19D-01
 IDIUse=3 WtCom= 7.68D-01 WtEn= 2.32D-01
 Coeff-Com:  0.100D+01
 Coeff-En:   0.100D+01
 Coeff:      0.100D+01
 Gap=     0.165 Goal=   None    Shift=    0.000
 GapD=    0.165 DampG=1.000 DampE=0.500 DampFc=0.5000 IDamp=-1.
 Damping current iteration by 5.00D-01
 RMSDP=1.10D-02 MaxDP=1.05D+00              OVMax= 1.86D-01

 Cycle   2  Pass 1  IDiag  1:
 RMSU=  5.45D-03    CP:  1.05D+00
 E= -573.874211597532     Delta-E=       -0.030255852120 Rises=F Damp=T
 DIIS: error= 1.17D-02 at cycle   2 NSaved=   2.
 NSaved= 2 IEnMin= 2 EnMin= -573.874211597532     IErMin= 2 ErrMin= 1.17D-02
 ErrMax= 1.17D-02  0.00D+00 EMaxC= 1.00D-01 BMatC= 7.49D-02 BMatP= 3.19D-01
 IDIUse=3 WtCom= 8.83D-01 WtEn= 1.17D-01
 Coeff-Com:  0.306D+00 0.694D+00
 Coeff-En:   0.449D+00 0.551D+00
 Coeff:      0.322D+00 0.678D+00
 Gap=     0.229 Goal=   None    Shift=    0.000
 RMSDP=3.00D-03 MaxDP=3.11D-01 DE=-3.03D-02 OVMax= 1.18D-01

 Cycle   3  Pass 1  IDiag  1:
 RMSU=  1.03D-03    CP:  1.02D+00  4.90D-01
 E= -574.085174929891     Delta-E=       -0.210963332359 Rises=F Damp=F
 DIIS: error= 4.28D-03 at cycle   3 NSaved=   3.
 NSaved= 3 IEnMin= 3 EnMin= -574.085174929891     IErMin= 3 ErrMin= 4.28D-03
 ErrMax= 4.28D-03  0.00D+00 EMaxC= 1.00D-01 BMatC= 9.61D-03 BMatP= 7.49D-02
 IDIUse=3 WtCom= 9.57D-01 WtEn= 4.28D-02
 Coeff-Com:  0.116D+00 0.301D+00 0.583D+00
 Coeff-En:   0.000D+00 0.000D+00 0.100D+01
 Coeff:      0.111D+00 0.288D+00 0.601D+00
 Gap=     0.233 Goal=   None    Shift=    0.000
 RMSDP=6.07D-04 MaxDP=1.73D-02 DE=-2.11D-01 OVMax= 2.03D-02

 Cycle   4  Pass 1  IDiag  1:
 RMSU=  5.13D-04    CP:  1.03D+00  5.03D-01  7.09D-01
 E= -574.091668646547     Delta-E=       -0.006493716656 Rises=F Damp=F
 DIIS: error= 2.30D-03 at cycle   4 NSaved=   4.
 NSaved= 4 IEnMin= 4 EnMin= -574.091668646547     IErMin= 4 ErrMin= 2.30D-03
 ErrMax= 2.30D-03  0.00D+00 EMaxC= 1.00D-01 BMatC= 3.05D-03 BMatP= 9.61D-03
 IDIUse=3 WtCom= 9.77D-01 WtEn= 2.30D-02
 Coeff-Com:  0.360D-01 0.822D-01 0.364D+00 0.518D+00
 Coeff-En:   0.000D+00 0.000D+00 0.244D+00 0.756D+00
 Coeff:      0.352D-01 0.803D-01 0.361D+00 0.523D+00
 Gap=     0.230 Goal=   None    Shift=    0.000
 RMSDP=2.65D-04 MaxDP=8.59D-03 DE=-6.49D-03 OVMax= 7.22D-03

 Cycle   5  Pass 1  IDiag  1:
 RMSU=  1.27D-04    CP:  1.03D+00  4.99D-01  7.99D-01  5.97D-01
 E= -574.094359144166     Delta-E=       -0.002690497619 Rises=F Damp=F
 DIIS: error= 4.15D-04 at cycle   5 NSaved=   5.
 NSaved= 5 IEnMin= 5 EnMin= -574.094359144166     IErMin= 5 ErrMin= 4.15D-04
 ErrMax= 4.15D-04  0.00D+00 EMaxC= 1.00D-01 BMatC= 4.96D-05 BMatP= 3.05D-03
 IDIUse=3 WtCom= 9.96D-01 WtEn= 4.15D-03
 Coeff-Com:  0.701D-02 0.699D-02 0.961D-01 0.187D+00 0.703D+00
 Coeff-En:   0.000D+00 0.000D+00 0.000D+00 0.000D+00 0.100D+01
 Coeff:      0.698D-02 0.696D-02 0.957D-01 0.186D+00 0.705D+00
 Gap=     0.230 Goal=   None    Shift=    0.000
 RMSDP=4.18D-05 MaxDP=1.41D-03 DE=-2.69D-03 OVMax= 1.02D-03

 Cycle   6  Pass 1  IDiag  1:
 RMSU=  2.01D-05    CP:  1.03D+00  4.96D-01  8.00D-01  6.08D-01  7.57D-01
 E= -574.094395880630     Delta-E=       -0.000036736464 Rises=F Damp=F
 DIIS: error= 1.18D-04 at cycle   6 NSaved=   6.
 NSaved= 6 IEnMin= 6 EnMin= -574.094395880630     IErMin= 6 ErrMin= 1.18D-04
 ErrMax= 1.18D-04  0.00D+00 EMaxC= 1.00D-01 BMatC= 6.91D-06 BMatP= 4.96D-05
 IDIUse=3 WtCom= 9.99D-01 WtEn= 1.18D-03
 Coeff-Com:  0.364D-02 0.211D-02 0.500D-01 0.101D+00 0.424D+00 0.420D+00
 Coeff-En:   0.000D+00 0.000D+00 0.000D+00 0.000D+00 0.000D+00 0.100D+01
 Coeff:      0.364D-02 0.210D-02 0.500D-01 0.100D+00 0.423D+00 0.421D+00
 Gap=     0.230 Goal=   None    Shift=    0.000
 RMSDP=1.12D-05 MaxDP=2.65D-04 DE=-3.67D-05 OVMax= 3.90D-04

 Cycle   7  Pass 1  IDiag  1:
 RMSU=  7.18D-06    CP:  1.03D+00  4.96D-01  8.00D-01  6.09D-01  7.72D-01
                    CP:  5.84D-01
 E= -574.094400518181     Delta-E=       -0.000004637551 Rises=F Damp=F
 DIIS: error= 4.30D-05 at cycle   7 NSaved=   7.
 NSaved= 7 IEnMin= 7 EnMin= -574.094400518181     IErMin= 7 ErrMin= 4.30D-05
 ErrMax= 4.30D-05  0.00D+00 EMaxC= 1.00D-01 BMatC= 4.31D-07 BMatP= 6.91D-06
 IDIUse=1 WtCom= 1.00D+00 WtEn= 0.00D+00
 Coeff-Com:  0.111D-02 0.149D-04 0.133D-01 0.270D-01 0.125D+00 0.226D+00
 Coeff-Com:  0.607D+00
 Coeff:      0.111D-02 0.149D-04 0.133D-01 0.270D-01 0.125D+00 0.226D+00
 Coeff:      0.607D+00
 Gap=     0.230 Goal=   None    Shift=    0.000
 RMSDP=3.38D-06 MaxDP=6.84D-05 DE=-4.64D-06 OVMax= 1.17D-04

 Cycle   8  Pass 1  IDiag  1:
 RMSU=  1.82D-06    CP:  1.03D+00  4.96D-01  8.00D-01  6.09D-01  7.75D-01
                    CP:  6.43D-01  6.50D-01
 E= -574.094400800087     Delta-E=       -0.000000281906 Rises=F Damp=F
 DIIS: error= 8.48D-06 at cycle   8 NSaved=   8.
 NSaved= 8 IEnMin= 8 EnMin= -574.094400800087     IErMin= 8 ErrMin= 8.48D-06
 ErrMax= 8.48D-06  0.00D+00 EMaxC= 1.00D-01 BMatC= 3.33D-08 BMatP= 4.31D-07
 IDIUse=1 WtCom= 1.00D+00 WtEn= 0.00D+00
 Coeff-Com:  0.326D-03-0.178D-03 0.302D-02 0.603D-02 0.305D-01 0.810D-01
 Coeff-Com:  0.305D+00 0.575D+00
 Coeff:      0.326D-03-0.178D-03 0.302D-02 0.603D-02 0.305D-01 0.810D-01
 Coeff:      0.305D+00 0.575D+00
 Gap=     0.230 Goal=   None    Shift=    0.000
 RMSDP=8.72D-07 MaxDP=2.04D-05 DE=-2.82D-07 OVMax= 3.08D-05

 Cycle   9  Pass 1  IDiag  1:
 RMSU=  6.55D-07    CP:  1.03D+00  4.95D-01  8.00D-01  6.10D-01  7.76D-01
                    CP:  6.36D-01  6.96D-01  8.16D-01
 E= -574.094400823489     Delta-E=       -0.000000023402 Rises=F Damp=F
 DIIS: error= 3.33D-06 at cycle   9 NSaved=   9.
 NSaved= 9 IEnMin= 9 EnMin= -574.094400823489     IErMin= 9 ErrMin= 3.33D-06
 ErrMax= 3.33D-06  0.00D+00 EMaxC= 1.00D-01 BMatC= 4.79D-09 BMatP= 3.33D-08
 IDIUse=1 WtCom= 1.00D+00 WtEn= 0.00D+00
 Coeff-Com:  0.385D-04-0.970D-04-0.940D-04-0.323D-03-0.524D-03 0.120D-01
 Coeff-Com:  0.784D-01 0.321D+00 0.589D+00
 Coeff:      0.385D-04-0.970D-04-0.940D-04-0.323D-03-0.524D-03 0.120D-01
 Coeff:      0.784D-01 0.321D+00 0.589D+00
 Gap=     0.230 Goal=   None    Shift=    0.000
 RMSDP=3.49D-07 MaxDP=1.49D-05 DE=-2.34D-08 OVMax= 1.04D-05

 Cycle  10  Pass 1  IDiag  1:
 RMSU=  1.43D-07    CP:  1.03D+00  4.95D-01  8.00D-01  6.09D-01  7.75D-01
                    CP:  6.41D-01  7.03D-01  8.37D-01  6.80D-01
 E= -574.094400827747     Delta-E=       -0.000000004258 Rises=F Damp=F
 DIIS: error= 3.19D-07 at cycle  10 NSaved=  10.
 NSaved=10 IEnMin=10 EnMin= -574.094400827747     IErMin=10 ErrMin= 3.19D-07
 ErrMax= 3.19D-07  0.00D+00 EMaxC= 1.00D-01 BMatC= 4.85D-11 BMatP= 4.79D-09
 IDIUse=1 WtCom= 1.00D+00 WtEn= 0.00D+00
 Coeff-Com:  0.872D-05-0.323D-04-0.834D-04-0.217D-03-0.724D-03 0.312D-02
 Coeff-Com:  0.236D-01 0.110D+00 0.219D+00 0.646D+00
 Coeff:      0.872D-05-0.323D-04-0.834D-04-0.217D-03-0.724D-03 0.312D-02
 Coeff:      0.236D-01 0.110D+00 0.219D+00 0.646D+00
 Gap=     0.230 Goal=   None    Shift=    0.000
 RMSDP=6.06D-08 MaxDP=2.31D-06 DE=-4.26D-09 OVMax= 1.48D-06

 Cycle  11  Pass 1  IDiag  1:
 RMSU=  4.01D-08    CP:  1.03D+00  4.95D-01  8.00D-01  6.09D-01  7.75D-01
                    CP:  6.41D-01  7.03D-01  8.43D-01  7.04D-01  7.77D-01
 E= -574.094400827771     Delta-E=       -0.000000000024 Rises=F Damp=F
 DIIS: error= 2.24D-07 at cycle  11 NSaved=  11.
 NSaved=11 IEnMin=11 EnMin= -574.094400827771     IErMin=11 ErrMin= 2.24D-07
 ErrMax= 2.24D-07  0.00D+00 EMaxC= 1.00D-01 BMatC= 2.52D-11 BMatP= 4.85D-11
 IDIUse=1 WtCom= 1.00D+00 WtEn= 0.00D+00
 Coeff-Com:  0.244D-05-0.126D-04-0.442D-04-0.110D-03-0.418D-03 0.102D-02
 Coeff-Com:  0.871D-02 0.439D-01 0.919D-01 0.430D+00 0.425D+00
 Coeff:      0.244D-05-0.126D-04-0.442D-04-0.110D-03-0.418D-03 0.102D-02
 Coeff:      0.871D-02 0.439D-01 0.919D-01 0.430D+00 0.425D+00
 Gap=     0.230 Goal=   None    Shift=    0.000
 RMSDP=2.35D-08 MaxDP=7.01D-07 DE=-2.41D-11 OVMax= 7.09D-07

 Cycle  12  Pass 1  IDiag  1:
 RMSU=  1.56D-08    CP:  1.03D+00  4.95D-01  8.00D-01  6.09D-01  7.75D-01
                    CP:  6.41D-01  7.03D-01  8.45D-01  6.99D-01  8.15D-01
                    CP:  6.12D-01
 E= -574.094400827789     Delta-E=       -0.000000000018 Rises=F Damp=F
 DIIS: error= 2.97D-08 at cycle  12 NSaved=  12.
 NSaved=12 IEnMin=12 EnMin= -574.094400827789     IErMin=12 ErrMin= 2.97D-08
 ErrMax= 2.97D-08  0.00D+00 EMaxC= 1.00D-01 BMatC= 6.49D-13 BMatP= 2.52D-11
 IDIUse=1 WtCom= 1.00D+00 WtEn= 0.00D+00
 Coeff-Com:  0.114D-06-0.202D-05-0.878D-05-0.213D-04-0.899D-04 0.114D-03
 Coeff-Com:  0.125D-02 0.682D-02 0.155D-01 0.116D+00 0.188D+00 0.673D+00
 Coeff:      0.114D-06-0.202D-05-0.878D-05-0.213D-04-0.899D-04 0.114D-03
 Coeff:      0.125D-02 0.682D-02 0.155D-01 0.116D+00 0.188D+00 0.673D+00
 Gap=     0.230 Goal=   None    Shift=    0.000
 RMSDP=5.07D-09 MaxDP=2.28D-07 DE=-1.75D-11 OVMax= 1.22D-07

 Error on total polarization charges =  0.00993
 SCF Done:  E(RB-P86) =  -574.094400828     A.U. after   12 cycles
            NFock= 12  Conv=0.51D-08     -V/T= 2.0042
 KE= 5.716787019949D+02 PE=-2.554906713539D+03 EE= 8.061955059226D+02
 Leave Link  502 at Mon Feb 22 21:07:05 2021, MaxMem=   104857600 cpu:             426.9 elap:              13.7
 (Enter /sw/arch/RedHatEnterpriseServer7/EB_production/2019/software/Gaussian/g16.c01/l601.exe)
 Copying SCF densities to generalized density rwf, IOpCl= 0 IROHF=0.

 **********************************************************************

            Population analysis using the SCF Density.

 **********************************************************************

 Orbital symmetries:
       Occupied  (A) (A) (A) (A) (A) (A) (A) (A) (A) (A) (A) (A)
                 (A) (A) (A) (A) (A) (A) (A) (A) (A) (A) (A) (A)
                 (A) (A) (A) (A) (A) (A) (A) (A) (A) (A) (A) (A)
                 (A) (A) (A) (A) (A)
       Virtual   (A) (A) (A) (A) (A) (A) (A) (A) (A) (A) (A) (A)
                 (A) (A) (A) (A) (A) (A) (A) (A) (A) (A) (A) (A)
                 (A) (A) (A) (A) (A) (A) (A) (A) (A) (A) (A) (A)
                 (A) (A) (A) (A) (A) (A) (A) (A) (A) (A) (A) (A)
                 (A) (A) (A) (A) (A) (A) (A) (A) (A) (A) (A) (A)
                 (A) (A) (A) (A) (A) (A) (A) (A) (A) (A) (A) (A)
                 (A) (A) (A) (A) (A) (A) (A) (A) (A) (A) (A) (A)
                 (A) (A) (A) (A) (A) (A) (A) (A) (A) (A) (A) (A)
                 (A) (A) (A) (A) (A) (A) (A) (A) (A) (A) (A) (A)
                 (A) (A) (A) (A) (A) (A) (A) (A) (A) (A) (A) (A)
                 (A) (A) (A) (A) (A) (A) (A) (A) (A) (A) (A) (A)
                 (A) (A) (A) (A) (A) (A) (A) (A) (A) (A) (A) (A)
                 (A) (A) (A) (A) (A) (A) (A) (A) (A) (A) (A) (A)
                 (A) (A) (A) (A) (A) (A) (A) (A) (A) (A) (A) (A)
                 (A) (A) (A) (A) (A) (A) (A) (A) (A) (A) (A) (A)
                 (A) (A) (A) (A) (A) (A) (A) (A) (A) (A) (A) (A)
                 (A) (A) (A) (A) (A) (A) (A) (A) (A) (A) (A) (A)
                 (A) (A) (A) (A) (A) (A) (A) (A) (A) (A) (A) (A)
                 (A) (A) (A) (A) (A)
 The electronic state is 1-A.
 Alpha  occ. eigenvalues --  -18.78346 -18.78228 -18.77675 -18.77565 -18.77463
 Alpha  occ. eigenvalues --   -9.96124  -9.95968  -9.95876  -9.94866  -9.94804
 Alpha  occ. eigenvalues --   -0.96677  -0.95577  -0.94639  -0.93742  -0.93219
 Alpha  occ. eigenvalues --   -0.71101  -0.67363  -0.62063  -0.56033  -0.52716
 Alpha  occ. eigenvalues --   -0.50082  -0.49049  -0.47682  -0.46114  -0.44316
 Alpha  occ. eigenvalues --   -0.42065  -0.41104  -0.39054  -0.38391  -0.37885
 Alpha  occ. eigenvalues --   -0.36792  -0.33279  -0.32312  -0.31681  -0.30241
 Alpha  occ. eigenvalues --   -0.29394  -0.24912  -0.24228  -0.24111  -0.23589
 Alpha  occ. eigenvalues --   -0.23121
 Alpha virt. eigenvalues --   -0.00114   0.00621   0.01244   0.03481   0.04112
 Alpha virt. eigenvalues --    0.06560   0.07053   0.07541   0.09096   0.10002
 Alpha virt. eigenvalues --    0.10594   0.11277   0.12137   0.12420   0.13806
 Alpha virt. eigenvalues --    0.14466   0.15470   0.16147   0.16759   0.19291
 Alpha virt. eigenvalues --    0.22101   0.24269   0.25762   0.27208   0.27411
 Alpha virt. eigenvalues --    0.27574   0.28630   0.30116   0.30785   0.31026
 Alpha virt. eigenvalues --    0.32566   0.32878   0.33536   0.34119   0.34910
 Alpha virt. eigenvalues --    0.36306   0.37847   0.38480   0.38782   0.39286
 Alpha virt. eigenvalues --    0.40524   0.40834   0.42417   0.43277   0.43365
 Alpha virt. eigenvalues --    0.44760   0.45707   0.46348   0.47448   0.48402
 Alpha virt. eigenvalues --    0.48974   0.49849   0.50572   0.52277   0.53802
 Alpha virt. eigenvalues --    0.54769   0.54954   0.56420   0.57214   0.57886
 Alpha virt. eigenvalues --    0.60241   0.62466   0.64567   0.67720   0.69008
 Alpha virt. eigenvalues --    0.71088   0.75407   0.79022   0.79471   0.86960
 Alpha virt. eigenvalues --    0.88854   0.90855   0.91208   1.11391   1.13372
 Alpha virt. eigenvalues --    1.18785   1.20642   1.21466   1.22393   1.23020
 Alpha virt. eigenvalues --    1.23778   1.24062   1.25222   1.27994   1.28379
 Alpha virt. eigenvalues --    1.30447   1.32522   1.34335   1.35328   1.36511
 Alpha virt. eigenvalues --    1.36975   1.38261   1.39056   1.41861   1.42456
 Alpha virt. eigenvalues --    1.44461   1.46191   1.46915   1.48108   1.49602
 Alpha virt. eigenvalues --    1.51414   1.54748   1.56164   1.57840   1.59456
 Alpha virt. eigenvalues --    1.60603   1.62346   1.64714   1.67411   1.68925
 Alpha virt. eigenvalues --    1.71681   1.72398   1.73373   1.74724   1.76471
 Alpha virt. eigenvalues --    1.78402   1.82358   1.82999   1.86266   1.88487
 Alpha virt. eigenvalues --    1.89958   1.90596   1.91403   1.92175   1.94236
 Alpha virt. eigenvalues --    1.95515   1.97995   1.98973   2.01801   2.02505
 Alpha virt. eigenvalues --    2.04730   2.05356   2.06383   2.10975   2.13938
 Alpha virt. eigenvalues --    2.14945   2.18995   2.21416   2.22610   2.24423
 Alpha virt. eigenvalues --    2.26075   2.29200   2.32356   2.36356   2.37641
 Alpha virt. eigenvalues --    2.44797   2.45676   2.46787   2.49679   2.51298
 Alpha virt. eigenvalues --    2.52021   2.54586   2.55769   2.56359   2.57376
 Alpha virt. eigenvalues --    2.58452   2.59745   2.60582   2.61921   2.62515
 Alpha virt. eigenvalues --    2.63892   2.64972   2.66546   2.67178   2.69555
 Alpha virt. eigenvalues --    2.73698   2.78480   2.81820   2.83722   2.84648
 Alpha virt. eigenvalues --    2.85720   2.86505   2.87008   2.87902   2.88446
 Alpha virt. eigenvalues --    2.90757   2.91333   2.92600   2.94314   2.95656
 Alpha virt. eigenvalues --    2.97137   2.98466   3.02704   3.03444   3.04790
 Alpha virt. eigenvalues --    3.07400   3.08179   3.09801   3.11112   3.12762
 Alpha virt. eigenvalues --    3.16137   3.19205   3.21520   3.23630   3.24880
 Alpha virt. eigenvalues --    3.31105   3.34949   3.36443   3.38873   3.41965
 Alpha virt. eigenvalues --    3.44063   3.84433   3.86972   3.88948   3.91993
 Alpha virt. eigenvalues --    3.94700   4.14586   4.15764   4.16693   4.17704
 Alpha virt. eigenvalues --    4.19103  21.63374  21.66731  21.71289  21.75894
 Alpha virt. eigenvalues --   21.78046  43.10795  43.13463  43.20600  43.22079
 Alpha virt. eigenvalues --   43.28830
          Condensed to atoms (all electrons):
               1          2          3          4          5          6
     1  O    7.969634   0.298757  -0.108661  -0.001850   0.012070   0.000095
     2  C    0.298757   5.348044  -0.152817   0.019962   0.075484  -0.029195
     3  C   -0.108661  -0.152817   6.276375   0.112851  -0.268648   0.003756
     4  O   -0.001850   0.019962   0.112851   8.038389  -0.025154  -0.011842
     5  C    0.012070   0.075484  -0.268648  -0.025154   6.048266   0.191162
     6  O    0.000095  -0.029195   0.003756  -0.011842   0.191162   7.998261
     7  C   -0.000480   0.005886   0.008380  -0.008635  -0.119152  -0.065107
     8  O    0.000001  -0.000751   0.023392  -0.000160  -0.044699  -0.001838
     9  C    0.000153  -0.002588   0.000840  -0.010200  -0.013347   0.013701
    10  O   -0.000000  -0.001652  -0.001798   0.000359  -0.024445  -0.000165
    11  H    0.305045  -0.040431   0.018107  -0.000555  -0.001432   0.000070
    12  H   -0.059164   0.403428  -0.063055   0.011009   0.012082  -0.000723
    13  H   -0.052871   0.362237  -0.001557  -0.016730  -0.018883   0.012942
    14  H    0.012983  -0.035813   0.329596  -0.069549  -0.021796   0.008976
    15  H    0.015632  -0.001514  -0.043009   0.300218   0.012741  -0.001129
    16  H   -0.000321  -0.026240  -0.012161   0.005463   0.362879  -0.059691
    17  H   -0.000584   0.011705  -0.010379   0.000521  -0.035439   0.311032
    18  H    0.000019  -0.002083   0.000263   0.019263  -0.071116  -0.001775
    19  H   -0.000000   0.000053   0.000951  -0.000000  -0.005473   0.019169
    20  H   -0.000001   0.000079  -0.003520   0.000004   0.024131  -0.000235
    21  H   -0.000094   0.001144   0.017595   0.003620  -0.042847  -0.000172
    22  H   -0.000001  -0.000021   0.000540   0.000011   0.001256  -0.000003
               7          8          9         10         11         12
     1  O   -0.000480   0.000001   0.000153  -0.000000   0.305045  -0.059164
     2  C    0.005886  -0.000751  -0.002588  -0.001652  -0.040431   0.403428
     3  C    0.008380   0.023392   0.000840  -0.001798   0.018107  -0.063055
     4  O   -0.008635  -0.000160  -0.010200   0.000359  -0.000555   0.011009
     5  C   -0.119152  -0.044699  -0.013347  -0.024445  -0.001432   0.012082
     6  O   -0.065107  -0.001838   0.013701  -0.000165   0.000070  -0.000723
     7  C    5.698554   0.240148   0.075559  -0.057006   0.000098  -0.001192
     8  O    0.240148   7.974022  -0.066997  -0.000565  -0.000000   0.000023
     9  C    0.075559  -0.066997   5.236830   0.267058  -0.000011  -0.000403
    10  O   -0.057006  -0.000565   0.267058   7.990447   0.000000   0.000236
    11  H    0.000098  -0.000000  -0.000011   0.000000   0.422860  -0.004322
    12  H   -0.001192   0.000023  -0.000403   0.000236  -0.004322   0.638131
    13  H   -0.001098  -0.000013   0.000535  -0.000017  -0.001765  -0.071170
    14  H   -0.042739   0.000013   0.026032   0.001665  -0.000281  -0.014486
    15  H   -0.000377   0.000015   0.000397   0.000034  -0.000649   0.001595
    16  H   -0.041025   0.006976  -0.014032   0.023217   0.000006   0.007937
    17  H    0.008768  -0.000204  -0.000563   0.000042   0.000014  -0.003075
    18  H    0.400452  -0.055378  -0.044987   0.004544   0.000002  -0.000011
    19  H   -0.042118   0.300050   0.013826  -0.000405  -0.000000  -0.000010
    20  H   -0.042987   0.001965   0.384065  -0.051425   0.000000   0.000008
    21  H   -0.008321   0.004716   0.395810  -0.054819   0.000004  -0.000050
    22  H    0.009817  -0.000485  -0.030489   0.292800   0.000000   0.000004
              13         14         15         16         17         18
     1  O   -0.052871   0.012983   0.015632  -0.000321  -0.000584   0.000019
     2  C    0.362237  -0.035813  -0.001514  -0.026240   0.011705  -0.002083
     3  C   -0.001557   0.329596  -0.043009  -0.012161  -0.010379   0.000263
     4  O   -0.016730  -0.069549   0.300218   0.005463   0.000521   0.019263
     5  C   -0.018883  -0.021796   0.012741   0.362879  -0.035439  -0.071116
     6  O    0.012942   0.008976  -0.001129  -0.059691   0.311032  -0.001775
     7  C   -0.001098  -0.042739  -0.000377  -0.041025   0.008768   0.400452
     8  O   -0.000013   0.000013   0.000015   0.006976  -0.000204  -0.055378
     9  C    0.000535   0.026032   0.000397  -0.014032  -0.000563  -0.044987
    10  O   -0.000017   0.001665   0.000034   0.023217   0.000042   0.004544
    11  H   -0.001765  -0.000281  -0.000649   0.000006   0.000014   0.000002
    12  H   -0.071170  -0.014486   0.001595   0.007937  -0.003075  -0.000011
    13  H    0.636937   0.017702  -0.003546   0.001269   0.006826   0.000220
    14  H    0.017702   0.640369  -0.011068  -0.000115   0.001744   0.000543
    15  H   -0.003546  -0.011068   0.439036  -0.000314  -0.000129  -0.000324
    16  H    0.001269  -0.000115  -0.000314   0.571547  -0.011301   0.014490
    17  H    0.006826   0.001744  -0.000129  -0.011301   0.427250  -0.001046
    18  H    0.000220   0.000543  -0.000324   0.014490  -0.001046   0.581116
    19  H   -0.000010  -0.000012   0.000002  -0.004633  -0.000218  -0.013248
    20  H   -0.000002   0.000710   0.000010   0.000950   0.000039  -0.001485
    21  H   -0.000075  -0.015572  -0.000337   0.001063  -0.000061   0.003115
    22  H    0.000001  -0.000311  -0.000006  -0.000612  -0.000007  -0.000570
              19         20         21         22
     1  O   -0.000000  -0.000001  -0.000094  -0.000001
     2  C    0.000053   0.000079   0.001144  -0.000021
     3  C    0.000951  -0.003520   0.017595   0.000540
     4  O   -0.000000   0.000004   0.003620   0.000011
     5  C   -0.005473   0.024131  -0.042847   0.001256
     6  O    0.019169  -0.000235  -0.000172  -0.000003
     7  C   -0.042118  -0.042987  -0.008321   0.009817
     8  O    0.300050   0.001965   0.004716  -0.000485
     9  C    0.013826   0.384065   0.395810  -0.030489
    10  O   -0.000405  -0.051425  -0.054819   0.292800
    11  H   -0.000000   0.000000   0.000004   0.000000
    12  H   -0.000010   0.000008  -0.000050   0.000004
    13  H   -0.000010  -0.000002  -0.000075   0.000001
    14  H   -0.000012   0.000710  -0.015572  -0.000311
    15  H    0.000002   0.000010  -0.000337  -0.000006
    16  H   -0.004633   0.000950   0.001063  -0.000612
    17  H   -0.000218   0.000039  -0.000061  -0.000007
    18  H   -0.013248  -0.001485   0.003115  -0.000570
    19  H    0.442501  -0.000417  -0.000749   0.000102
    20  H   -0.000417   0.594182  -0.050988  -0.002754
    21  H   -0.000749  -0.050988   0.592735  -0.006858
    22  H    0.000102  -0.002754  -0.006858   0.444440
 Mulliken charges:
               1
     1  O   -0.390362
     2  C   -0.233674
     3  C   -0.127039
     4  O   -0.366996
     5  C   -0.047642
     6  O   -0.387289
     7  C   -0.017423
     8  O   -0.380231
     9  C   -0.231190
    10  O   -0.388103
    11  H    0.303240
    12  H    0.143208
    13  H    0.129069
    14  H    0.171409
    15  H    0.292721
    16  H    0.174650
    17  H    0.295066
    18  H    0.167995
    19  H    0.290640
    20  H    0.147672
    21  H    0.161138
    22  H    0.293144
 Sum of Mulliken charges =  -0.00000
 Mulliken charges with hydrogens summed into heavy atoms:
               1
     1  O   -0.087122
     2  C    0.038602
     3  C    0.044369
     4  O   -0.074275
     5  C    0.127007
     6  O   -0.092223
     7  C    0.150572
     8  O   -0.089592
     9  C    0.077620
    10  O   -0.094959
 Electronic spatial extent (au):  <R**2>=           1846.3102
 Charge=              0.0000 electrons
 Dipole moment (field-independent basis, Debye):
    X=             -3.5647    Y=             -2.2248    Z=             -1.1796  Tot=              4.3644
 Quadrupole moment (field-independent basis, Debye-Ang):
   XX=            -56.8782   YY=            -55.1778   ZZ=            -60.1745
   XY=             -6.6556   XZ=             12.5383   YZ=             -5.0296
 Traceless Quadrupole moment (field-independent basis, Debye-Ang):
   XX=              0.5320   YY=              2.2323   ZZ=             -2.7643
   XY=             -6.6556   XZ=             12.5383   YZ=             -5.0296
 Octapole moment (field-independent basis, Debye-Ang**2):
  XXX=            -69.4183  YYY=            -14.7963  ZZZ=             -2.3482  XYY=             24.5695
  XXY=            -11.3230  XXZ=            -10.2823  XZZ=            -15.6117  YZZ=             -0.4280
  YYZ=             -4.1254  XYZ=              3.3106
 Hexadecapole moment (field-independent basis, Debye-Ang**3):
 XXXX=          -1324.8792 YYYY=           -405.3659 ZZZZ=           -253.0778 XXXY=            -49.4877
 XXXZ=            112.2152 YYYX=            -52.4948 YYYZ=             -1.6285 ZZZX=             -4.1933
 ZZZY=             -9.4007 XXYY=           -273.0762 XXZZ=           -262.0760 YYZZ=           -119.7941
 XXYZ=              1.5344 YYXZ=              4.2549 ZZXY=             11.4622
 N-N= 6.029381047933D+02 E-N=-2.554906712752D+03  KE= 5.716787019949D+02
 No NMR shielding tensors so no spin-rotation constants.
 Leave Link  601 at Mon Feb 22 21:07:06 2021, MaxMem=   104857600 cpu:               7.2 elap:               0.3
 (Enter /sw/arch/RedHatEnterpriseServer7/EB_production/2019/software/Gaussian/g16.c01/l701.exe)
 ... and contract with generalized density number  0.
 Compute integral first derivatives.
 R6Disp: Adding Grimme-D3 dispersion energy 1st derivatives to the gradient.
 PrsmSu:  requested number of processors reduced to:  29 ShMem   1 Linda.
 D1PCM: PCM CHGder 1st derivatives, ID1Alg=3 FixD1E=F DoIter=F DoCFld=F I1PDM=0.
 GePol: Maximum number of non-zero 1st derivatives   =     193
 CoulSu:  requested number of processors reduced to:  29 ShMem   1 Linda.
 CoulSu:  requested number of processors reduced to:  30 ShMem   1 Linda.
 Leave Link  701 at Mon Feb 22 21:07:07 2021, MaxMem=   104857600 cpu:              27.2 elap:               1.0
 (Enter /sw/arch/RedHatEnterpriseServer7/EB_production/2019/software/Gaussian/g16.c01/l702.exe)
 L702 exits ... SP integral derivatives will be done elsewhere.
 Leave Link  702 at Mon Feb 22 21:07:07 2021, MaxMem=   104857600 cpu:               0.6 elap:               0.0
 (Enter /sw/arch/RedHatEnterpriseServer7/EB_production/2019/software/Gaussian/g16.c01/l703.exe)
 Integral derivatives from FoFJK, PRISM(SPDF).
 Compute integral first derivatives, UseDBF=F ICtDFT=           0.
 Calling FoFJK, ICntrl=      2527 FMM=F ISym2X=0 I1Cent= 0 IOpClX= 0 NMat=1 NMatS=1 NMatT=0.
 FoFJK:  IHMeth= 1 ICntrl=    2527 DoSepK=F KAlg= 0 I1Cent=           0 FoldK=F
 IRaf=         0 NMat=       1 IRICut=       1 DoRegI=T DoRafI=F ISym2E= 0 IDoP0=0 IntGTp=1.
 FoFCou: FMM=F IPFlag=           0 FMFlag=      100000 FMFlg1=         800
         NFxFlg=           0 DoJE=F BraDBF=F KetDBF=F FulRan=T
         wScrn=  0.000000 ICntrl=      2527 IOpCl=  0 I1Cent=           0 NGrid=           0
         NMat0=    1 NMatS0=      1 NMatT0=    0 NMatD0=    1 NMtDS0=    0 NMtDT0=    0
 Symmetry not used in FoFCou.
 Leave Link  703 at Mon Feb 22 21:07:09 2021, MaxMem=   104857600 cpu:              65.0 elap:               2.1
 (Enter /sw/arch/RedHatEnterpriseServer7/EB_production/2019/software/Gaussian/g16.c01/l716.exe)
 Dipole        =-1.40247376D+00-8.75293968D-01-4.64088875D-01
 ***** Axes restored to original set *****
 -------------------------------------------------------------------
 Center     Atomic                   Forces (Hartrees/Bohr)
 Number     Number              X              Y              Z
 -------------------------------------------------------------------
      1        8           0.003070579   -0.004900224   -0.009449089
      2        6          -0.003527009   -0.001281023    0.013549417
      3        6           0.007545376    0.003724678   -0.001842336
      4        8          -0.006837824   -0.002550535   -0.004977205
      5        6           0.002098932   -0.012417201   -0.011356729
      6        8          -0.003920034    0.009744134   -0.001788487
      7        6           0.010922945   -0.005352912    0.000377011
      8        8          -0.002754406    0.009768096    0.006195906
      9        6          -0.002168546    0.011618334   -0.006345502
     10        8           0.011118610   -0.002813192    0.005026134
     11        1          -0.004342268   -0.006611206   -0.001690111
     12        1           0.003499919    0.002440692    0.010230438
     13        1          -0.006083141    0.008273378    0.000865465
     14        1           0.006426353   -0.006397339    0.006683187
     15        1          -0.003106480    0.003587784    0.002299093
     16        1           0.006505018   -0.006642511    0.004078039
     17        1          -0.007520757    0.000954504    0.003442464
     18        1          -0.002589762   -0.005593666   -0.009848700
     19        1           0.003482709   -0.002524540    0.003623268
     20        1          -0.011520478    0.000965405    0.001353341
     21        1          -0.002669488   -0.001958238   -0.011216133
     22        1           0.002369752    0.007965581    0.000790530
 -------------------------------------------------------------------
 Cartesian Forces:  Max     0.013549417 RMS     0.006312688
 Leave Link  716 at Mon Feb 22 21:07:09 2021, MaxMem=   104857600 cpu:               0.7 elap:               0.0
 (Enter /sw/arch/RedHatEnterpriseServer7/EB_production/2019/software/Gaussian/g16.c01/l103.exe)

 GradGradGradGradGradGradGradGradGradGradGradGradGradGradGradGradGradGrad
 Berny optimization.
 FormGI is forming the generalized inverse of G from B-inverse, IUseBI=4.
 Internal  Forces:  Max     0.018288898 RMS     0.006267295
 Search for a local minimum.
 Step number   1 out of a maximum of  117
 All quantities printed in internal units (Hartrees-Bohrs-Radians)
 RMS Force = .62673D-02 SwitMx=.10000D-02 MixMth= 1
 Mixed Optimization -- RFO/linear search
 Second derivative matrix not updated -- first step.
 ITU=  0
     Eigenvalues ---    0.00230   0.00230   0.00230   0.00230   0.01300
     Eigenvalues ---    0.01308   0.01325   0.01357   0.01377   0.03853
     Eigenvalues ---    0.03926   0.04065   0.04666   0.04691   0.04695
     Eigenvalues ---    0.04789   0.05010   0.05654   0.05699   0.07391
     Eigenvalues ---    0.07654   0.07744   0.11478   0.11609   0.13794
     Eigenvalues ---    0.13922   0.16000   0.16000   0.16000   0.16000
     Eigenvalues ---    0.16000   0.17040   0.17129   0.17281   0.19742
     Eigenvalues ---    0.19771   0.19969   0.22023   0.22043   0.26671
     Eigenvalues ---    0.26784   0.27581   0.27628   0.34320   0.34510
     Eigenvalues ---    0.34518   0.34536   0.34540   0.34629   0.34785
     Eigenvalues ---    0.41045   0.41129   0.41321   0.41669   0.41899
     Eigenvalues ---    0.51209   0.51232   0.51375   0.51420   0.51443
 RFO step:  Lambda=-1.88926007D-02 EMin= 2.30000000D-03
 Linear search not attempted -- first point.
 Iteration  1 RMS(Cart)=  0.11070370 RMS(Int)=  0.00273539
 Iteration  2 RMS(Cart)=  0.00382483 RMS(Int)=  0.00071178
 Iteration  3 RMS(Cart)=  0.00000611 RMS(Int)=  0.00071176
 Iteration  4 RMS(Cart)=  0.00000001 RMS(Int)=  0.00071176
 ITry= 1 IFail=0 DXMaxC= 4.11D-01 DCOld= 1.00D+10 DXMaxT= 3.00D-01 DXLimC= 3.00D+00 Rises=F
 Variable       Old X    -DE/DX   Delta X   Delta X   Delta X     New X
                                 (Linear)    (Quad)   (Total)
    R1        2.69052   0.01446   0.00000   0.03302   0.03302   2.72354
    R2        1.85159  -0.00619   0.00000  -0.01162  -0.01162   1.83997
    R3        2.93064  -0.01280   0.00000  -0.04342  -0.04342   2.88722
    R4        2.06428   0.00919   0.00000   0.02524   0.02524   2.08951
    R5        2.06434   0.00922   0.00000   0.02531   0.02531   2.08965
    R6        2.70047   0.00934   0.00000   0.02170   0.02170   2.72218
    R7        2.94876  -0.01274   0.00000  -0.04442  -0.04442   2.90433
    R8        2.06479   0.00948   0.00000   0.02605   0.02605   2.09083
    R9        1.85203  -0.00472   0.00000  -0.00887  -0.00887   1.84316
   R10        2.70157   0.01377   0.00000   0.03208   0.03208   2.73365
   R11        2.95140  -0.01569   0.00000  -0.05493  -0.05493   2.89647
   R12        2.06794   0.00665   0.00000   0.01836   0.01836   2.08629
   R13        1.85137  -0.00643   0.00000  -0.01206  -0.01206   1.83931
   R14        2.69798   0.01155   0.00000   0.02674   0.02674   2.72471
   R15        2.92959  -0.01829   0.00000  -0.06196  -0.06196   2.86763
   R16        2.06464   0.00821   0.00000   0.02255   0.02255   2.08719
   R17        1.85342  -0.00478   0.00000  -0.00900  -0.00900   1.84443
   R18        2.69347   0.01472   0.00000   0.03380   0.03380   2.72727
   R19        2.06282   0.00858   0.00000   0.02349   0.02349   2.08631
   R20        2.06026   0.00962   0.00000   0.02623   0.02623   2.08649
   R21        1.85365  -0.00695   0.00000  -0.01308  -0.01308   1.84057
    A1        1.82827   0.00954   0.00000   0.05335   0.05335   1.88162
    A2        1.92417  -0.01622   0.00000  -0.06844  -0.06851   1.85566
    A3        1.89147   0.00967   0.00000   0.06049   0.05963   1.95110
    A4        1.89538   0.00796   0.00000   0.03766   0.03590   1.93128
    A5        1.92130  -0.00019   0.00000  -0.01184  -0.01109   1.91020
    A6        1.93216  -0.00042   0.00000  -0.02101  -0.02091   1.91125
    A7        1.89855  -0.00029   0.00000   0.00644   0.00509   1.90364
    A8        1.91079   0.00454   0.00000   0.02542   0.02501   1.93580
    A9        1.97510  -0.00196   0.00000  -0.01777  -0.01779   1.95731
   A10        1.86767  -0.00045   0.00000  -0.00157  -0.00237   1.86530
   A11        1.91951  -0.00385   0.00000  -0.02340  -0.02314   1.89637
   A12        1.88047   0.00241   0.00000   0.03918   0.03886   1.91933
   A13        1.90736  -0.00039   0.00000  -0.01834  -0.01834   1.88901
   A14        1.83770   0.00364   0.00000   0.02035   0.02035   1.85805
   A15        1.91364   0.01150   0.00000   0.06200   0.06049   1.97413
   A16        1.99936  -0.00562   0.00000  -0.04094  -0.04078   1.95858
   A17        1.90296  -0.00228   0.00000  -0.01421  -0.01648   1.88648
   A18        1.87751  -0.00851   0.00000  -0.04948  -0.04825   1.82926
   A19        1.87206   0.00257   0.00000   0.05626   0.05552   1.92758
   A20        1.89414   0.00276   0.00000  -0.00762  -0.00797   1.88617
   A21        1.84332   0.00933   0.00000   0.05216   0.05216   1.89548
   A22        1.91204   0.00039   0.00000   0.00153   0.00159   1.91364
   A23        2.01088  -0.00596   0.00000  -0.04176  -0.04227   1.96860
   A24        1.90185   0.00070   0.00000  -0.00958  -0.01074   1.89111
   A25        1.87726   0.00288   0.00000   0.01361   0.01347   1.89073
   A26        1.86781   0.00278   0.00000   0.05885   0.05894   1.92675
   A27        1.88878  -0.00017   0.00000  -0.01478  -0.01598   1.87280
   A28        1.84007   0.00385   0.00000   0.02151   0.02151   1.86158
   A29        1.95190  -0.00992   0.00000  -0.04139  -0.04129   1.91060
   A30        1.91142  -0.00420   0.00000  -0.03710  -0.03687   1.87455
   A31        1.92989  -0.00306   0.00000  -0.03462  -0.03467   1.89522
   A32        1.89150   0.00896   0.00000   0.06121   0.06016   1.95166
   A33        1.90197   0.00725   0.00000   0.04281   0.04145   1.94342
   A34        1.87517   0.00169   0.00000   0.01340   0.01109   1.88626
   A35        1.82528   0.00862   0.00000   0.04820   0.04820   1.87348
    D1       -3.13009  -0.00093   0.00000  -0.02175  -0.02149   3.13161
    D2       -1.02626  -0.00491   0.00000  -0.03978  -0.04168  -1.06793
    D3        1.03344   0.00456   0.00000   0.02255   0.02418   1.05763
    D4       -1.05946  -0.00185   0.00000  -0.01817  -0.01849  -1.07795
    D5        3.07586   0.00113   0.00000   0.00572   0.00563   3.08148
    D6        0.97391   0.00310   0.00000   0.04039   0.04018   1.01409
    D7        3.13790  -0.00350   0.00000  -0.04253  -0.04281   3.09509
    D8        0.99003  -0.00051   0.00000  -0.01863  -0.01869   0.97134
    D9       -1.11192   0.00146   0.00000   0.01604   0.01587  -1.09605
   D10        1.03818  -0.00274   0.00000  -0.02931  -0.02904   1.00914
   D11       -1.10969   0.00024   0.00000  -0.00541  -0.00493  -1.11462
   D12        3.07154   0.00221   0.00000   0.02925   0.02963   3.10117
   D13        1.06517   0.00099   0.00000  -0.00504  -0.00453   1.06063
   D14       -3.03756  -0.00099   0.00000  -0.02602  -0.02593  -3.06349
   D15       -0.96008  -0.00221   0.00000  -0.03817  -0.03876  -0.99884
   D16        1.08880   0.00593   0.00000   0.04708   0.04751   1.13630
   D17       -3.08196  -0.00040   0.00000   0.00087   0.00025  -3.08171
   D18       -0.95595  -0.00241   0.00000  -0.04792  -0.04760  -1.00356
   D19       -1.05424   0.00428   0.00000   0.04406   0.04438  -1.00986
   D20        1.05818  -0.00206   0.00000  -0.00214  -0.00287   1.05531
   D21       -3.09899  -0.00406   0.00000  -0.05093  -0.05073   3.13346
   D22       -3.11517   0.00385   0.00000   0.02118   0.02160  -3.09357
   D23       -1.00275  -0.00249   0.00000  -0.02502  -0.02565  -1.02839
   D24        1.12327  -0.00449   0.00000  -0.07381  -0.07351   1.04976
   D25       -1.12515  -0.00438   0.00000  -0.06127  -0.06312  -1.18826
   D26        2.97356   0.00085   0.00000  -0.01750  -0.01758   2.95598
   D27        0.93889   0.00063   0.00000  -0.01226  -0.01033   0.92856
   D28       -3.09627  -0.00493   0.00000  -0.06802  -0.06839   3.11853
   D29        1.06799  -0.00481   0.00000  -0.05765  -0.05802   1.00998
   D30       -1.05818  -0.00098   0.00000  -0.00190  -0.00252  -1.06070
   D31       -0.96407  -0.00018   0.00000  -0.05212  -0.05159  -1.01566
   D32       -3.08299  -0.00007   0.00000  -0.04174  -0.04122  -3.12421
   D33        1.07402   0.00377   0.00000   0.01401   0.01427   1.08830
   D34        1.05610  -0.00022   0.00000  -0.01600  -0.01590   1.04019
   D35       -1.06283  -0.00010   0.00000  -0.00563  -0.00553  -1.06836
   D36        3.09419   0.00373   0.00000   0.05012   0.04996  -3.13904
   D37        1.07340   0.00136   0.00000  -0.01734  -0.01709   1.05631
   D38       -3.01220  -0.00387   0.00000  -0.05918  -0.05962  -3.07182
   D39       -0.98603  -0.00124   0.00000  -0.04002  -0.03984  -1.02587
   D40        0.96740  -0.00020   0.00000  -0.00870  -0.00888   0.95851
   D41        3.06448   0.00186   0.00000   0.01665   0.01637   3.08085
   D42       -1.15558  -0.00050   0.00000  -0.01065  -0.01092  -1.16650
   D43       -1.17026   0.00112   0.00000   0.00716   0.00719  -1.16306
   D44        0.92683   0.00318   0.00000   0.03251   0.03245   0.95927
   D45        2.98995   0.00083   0.00000   0.00521   0.00515   2.99510
   D46        3.10060  -0.00352   0.00000  -0.06110  -0.06076   3.03984
   D47       -1.08550  -0.00146   0.00000  -0.03574  -0.03551  -1.12101
   D48        0.97762  -0.00381   0.00000  -0.06305  -0.06280   0.91482
   D49       -3.10861  -0.00001   0.00000   0.00364   0.00352  -3.10509
   D50        1.06587   0.00547   0.00000   0.03508   0.03701   1.10289
   D51       -0.96963  -0.00543   0.00000  -0.03788  -0.03969  -1.00932
         Item               Value     Threshold  Converged?
 Maximum Force            0.018289     0.000450     NO 
 RMS     Force            0.006267     0.000300     NO 
 Maximum Displacement     0.411383     0.001800     NO 
 RMS     Displacement     0.111759     0.001200     NO 
 Predicted change in Energy=-1.077585D-02
 Lowest energy point so far.  Saving SCF results.
 GradGradGradGradGradGradGradGradGradGradGradGradGradGradGradGradGradGrad

 Leave Link  103 at Mon Feb 22 21:07:09 2021, MaxMem=   104857600 cpu:               2.6 elap:               0.1
 (Enter /sw/arch/RedHatEnterpriseServer7/EB_production/2019/software/Gaussian/g16.c01/l202.exe)
                          Input orientation:                          
 ---------------------------------------------------------------------
 Center     Atomic      Atomic             Coordinates (Angstroms)
 Number     Number       Type             X           Y           Z
 ---------------------------------------------------------------------
      1          8           0        0.353057    1.130505   -3.251496
      2          6           0       -0.029348    1.939402   -2.121625
      3          6           0       -1.142020    1.176591   -1.404407
      4          8           0       -2.285182    1.005841   -2.264120
      5          6           0       -1.595417    1.886313   -0.118791
      6          8           0       -2.216431    3.168989   -0.367167
      7          6           0       -2.651839    1.081116    0.646026
      8          8           0       -3.013672    1.780472    1.853886
      9          6           0       -2.172158   -0.307978    1.024297
     10          8           0       -0.938041   -0.205480    1.765447
     11          1           0        1.057156    1.602265   -3.730790
     12          1           0        0.815371    2.098531   -1.426102
     13          1           0       -0.411527    2.921516   -2.456553
     14          1           0       -0.727139    0.189175   -1.126824
     15          1           0       -1.977882    0.491190   -3.033552
     16          1           0       -0.714628    2.004723    0.536225
     17          1           0       -1.538460    3.782973   -0.699935
     18          1           0       -3.534505    0.957552   -0.006311
     19          1           0       -3.377923    2.643321    1.579216
     20          1           0       -2.970999   -0.782111    1.620897
     21          1           0       -2.038492   -0.897848    0.100568
     22          1           0       -0.641592   -1.112078    1.962539
 ---------------------------------------------------------------------
                    Distance matrix (angstroms):
                    1          2          3          4          5
     1  O    0.000000
     2  C    1.441234   0.000000
     3  C    2.376787   1.527848   0.000000
     4  O    2.819709   2.445532   1.440514   0.000000
     5  C    3.765851   2.542977   1.536907   2.419388   0.000000
     6  O    4.367727   3.061592   2.489955   2.877910   1.446585
     7  C    4.921638   3.908197   2.548126   2.934119   1.532748
     8  O    6.149980   4.973544   3.805815   4.253084   2.431894
     9  C    5.169947   4.420314   3.027165   3.542961   2.540510
    10  O    5.349907   4.531619   3.464059   4.418087   2.891037
    11  H    0.973671   1.970675   3.229493   3.698386   4.490362
    12  H    2.117279   1.105724   2.163752   3.392591   2.750635
    13  H    2.103388   1.105797   2.164577   2.686526   2.817511
    14  H    2.562646   2.130688   1.106421   2.094727   2.156458
    15  H    2.426830   2.593398   1.955135   0.975359   3.253994
    16  H    4.031257   2.745549   2.152793   3.362489   1.104018
    17  H    4.138102   2.774415   2.728860   3.273641   1.984513
    18  H    5.066979   4.210072   2.779682   2.580860   2.152977
    19  H    6.288450   5.040306   4.006565   4.318177   2.575581
    20  H    6.200618   5.483285   4.041552   4.331336   3.469759
    21  H    4.590213   4.126110   2.715126   3.045757   2.827717
    22  H    5.762349   5.134858   4.101800   5.005158   3.772541
                    6          7          8          9         10
     6  O    0.000000
     7  C    2.361218   0.000000
     8  O    2.738001   1.441856   0.000000
     9  C    3.745321   1.517486   2.399580   0.000000
    10  O    4.191582   2.417754   2.874033   1.443210   0.000000
    11  H    4.948227   5.760621   6.913176   6.057090   6.120243
    12  H    3.385122   4.165380   5.051837   4.552040   4.309165
    13  H    2.772085   4.246418   5.162657   5.064165   5.280209
    14  H    3.416776   2.764602   4.079840   2.638667   2.926682
    15  H    3.786440   3.787021   5.159667   4.140356   4.959538
    16  H    2.104055   2.148928   2.659347   2.776903   2.538877
    17  H    0.973322   3.217337   3.564866   4.484465   4.727195
    18  H    2.599613   1.104496   2.099713   2.125960   3.351625
    19  H    2.326756   1.959216   0.976028   3.236042   3.755445
    20  H    4.486977   2.126935   2.573506   1.104029   2.118092
    21  H    4.097512   2.142433   3.346415   1.104123   2.112389
    22  H    5.122029   3.253367   3.742381   1.967107   0.973986
                   11         12         13         14         15
    11  H    0.000000
    12  H    2.369879   0.000000
    13  H    2.349709   1.801225   0.000000
    14  H    3.458492   2.472760   3.055074   0.000000
    15  H    3.306370   3.601347   2.948369   2.300257   0.000000
    16  H    4.637736   2.490064   3.144694   2.462133   4.077977
    17  H    4.547394   2.984156   2.257829   3.708889   4.058903
    18  H    5.947331   4.715830   4.428750   3.118855   3.435806
    19  H    6.996419   5.187720   5.016406   4.513551   5.279149
    20  H    7.109981   5.649681   6.073990   3.678081   4.926609
    21  H    5.523849   4.410617   4.875800   2.099466   3.428675
    22  H    6.532029   4.890157   5.987586   3.353318   5.414524
                   16         17         18         19         20
    16  H    0.000000
    17  H    2.317103   0.000000
    18  H    3.056569   3.528216   0.000000
    19  H    2.930662   3.142763   2.319532   0.000000
    20  H    3.746221   5.317746   2.447810   3.449770   0.000000
    21  H    3.219834   4.775031   2.385789   4.064524   1.787278
    22  H    3.428433   5.643994   4.065548   4.662346   2.377337
                   21         22
    21  H    0.000000
    22  H    2.337554   0.000000
 Stoichiometry    C5H12O5
 Framework group  C1[X(C5H12O5)]
 Deg. of freedom    60
 Full point group                 C1      NOp   1
 RotChk:  IX=0 Diff= 6.64D-02
 Largest Abelian subgroup         C1      NOp   1
 Largest concise Abelian subgroup C1      NOp   1
                         Standard orientation:                         
 ---------------------------------------------------------------------
 Center     Atomic      Atomic             Coordinates (Angstroms)
 Number     Number       Type             X           Y           Z
 ---------------------------------------------------------------------
      1          8           0       -3.285959   -0.809484   -0.144535
      2          6           0       -2.243117    0.002487   -0.719286
      3          6           0       -1.009872   -0.196637    0.160359
      4          8           0       -1.260827    0.250524    1.506519
      5          6           0        0.217522    0.550446   -0.385033
      6          8           0        0.060488    1.988390   -0.368665
      7          6           0        1.475790    0.284252    0.448765
      8          8           0        2.596469    0.984676   -0.127804
      9          6           0        1.825515   -1.190094    0.530975
[...]
 Iteration    1 A*A^-1 deviation from orthogonality  is 6.19D-15 for    580    508.
 Iteration    1 A^-1*A deviation from unit magnitude is 3.33D-15 for    598.
 Iteration    1 A^-1*A deviation from orthogonality  is 7.55D-15 for    777    266.
 Error on nuclear    polarization charges =  0.01236
 Error on electronic polarization charges = -0.04034
 SCF Done:  E(RB-P86) =  -574.095559876     A.U. after   10 cycles
            NFock= 10  Conv=0.75D-08     -V/T= 2.0044
 --------------------------------------------------------------------
 Variational C-PCM results
 =========================
 <psi(f)|   H    |psi(f)>                     (a.u.) =    -574.056360
 <psi(f)|H+V(f)/2|psi(f)>                     (a.u.) =    -574.095560
 Total free energy in solution:
 - with all non electrostatic terms           (a.u.) =    -574.082485
 --------------------------------------------------------------------
 (Polarized solute)-Solvent               (kcal/mol) =     -24.60
 --------------------------------------------------------------------
 Cavitation energy                        (kcal/mol) =      24.53
 Dispersion energy                        (kcal/mol) =     -17.83
 Repulsion energy                         (kcal/mol) =       1.50
 Total non electrostatic                  (kcal/mol) =       8.20
 --------------------------------------------------------------------
 Partition over spheres:
 Sphere  on Atom  Surface  Charge   GEl     GCav    GDR
    1      O1      14.79   0.153   -1.27    1.84   -1.29
    2      C2      11.27  -0.026   -0.53    1.32   -0.53
    3      C3       3.41  -0.008   -0.07    0.40   -0.03
    4      O4      14.70   0.184   -3.09    1.83   -1.17
    5      C5       3.04  -0.016   -0.27    0.36   -0.01
    6      O6      13.27   0.139   -2.05    1.65   -0.98
    7      C7       3.94  -0.002   -0.04    0.46   -0.11
    8      O8      16.07   0.202   -4.43    2.00   -1.49
    9      C9      10.82  -0.022   -0.32    1.27   -0.60
   10      O10     14.88   0.176   -2.91    1.85   -1.14
   11      H11      8.59  -0.132   -2.79    1.21   -1.00
   12      H12      6.60  -0.035   -0.43    0.93   -0.82
   13      H13      6.20  -0.034   -0.34    0.88   -0.66
   14      H14      5.79  -0.028   -0.11    0.82   -0.52
   15      H15      6.63  -0.085   -0.63    0.94   -0.70
   16      H16      6.08  -0.034   -0.20    0.86   -0.56
   17      H17      8.33  -0.130   -2.75    1.18   -0.92
   18      H18      6.07  -0.028    0.13    0.86   -0.68
   19      H19      6.51  -0.080   -0.36    0.92   -0.68
   20      H20      6.60  -0.033   -0.04    0.93   -0.83
   21      H21      5.95  -0.036   -0.12    0.84   -0.58
   22      H22      8.54  -0.126   -2.00    1.21   -1.03
 --------------------------------------------------------------------
 - cavitation energy not included in the total energy.
 - dispersion energy not included in the total energy.
 - repulsion  energy not included in the total energy.
 After PCM corrections, the energy is  -574.095559876     a.u.
 --------------------------------------------------------------------
 Writing COSMO formatted file "HEBKCHPVOIAQTA-SCDXWVJYSA-N.cosmo"
 Recomputed dielectric energy= -0.039365 old= -0.039200 diff=-1.65D-04

 **********************************************************************

            Population analysis using the SCF Density.

 **********************************************************************

 Orbital symmetries:
       Occupied  (A) (A) (A) (A) (A) (A) (A) (A) (A) (A) (A) (A)
                 (A) (A) (A) (A) (A) (A) (A) (A) (A) (A) (A) (A)
                 (A) (A) (A) (A) (A) (A) (A) (A) (A) (A) (A) (A)
                 (A) (A) (A) (A) (A)
       Virtual   (A) (A) (A) (A) (A) (A) (A) (A) (A) (A) (A) (A)
                 (A) (A) (A) (A) (A) (A) (A) (A) (A) (A) (A) (A)
                 (A) (A) (A) (A) (A) (A) (A) (A) (A) (A) (A) (A)
                 (A) (A) (A) (A) (A) (A) (A) (A) (A) (A) (A) (A)
                 (A) (A) (A) (A) (A) (A) (A) (A) (A) (A) (A) (A)
                 (A) (A) (A) (A) (A) (A) (A) (A) (A) (A) (A) (A)
                 (A) (A) (A) (A) (A) (A) (A) (A) (A) (A) (A) (A)
                 (A) (A) (A) (A) (A) (A) (A) (A) (A) (A) (A) (A)
                 (A) (A) (A) (A) (A) (A) (A) (A) (A) (A) (A) (A)
                 (A) (A) (A) (A) (A) (A) (A) (A) (A) (A) (A) (A)
                 (A) (A) (A) (A) (A) (A) (A) (A) (A) (A) (A) (A)
                 (A) (A) (A) (A) (A) (A) (A) (A) (A) (A) (A) (A)
                 (A) (A) (A) (A) (A) (A) (A) (A) (A) (A) (A) (A)
                 (A) (A) (A) (A) (A) (A) (A) (A) (A) (A) (A) (A)
                 (A) (A) (A) (A) (A) (A) (A) (A) (A) (A) (A) (A)
                 (A) (A) (A) (A) (A) (A) (A) (A) (A) (A) (A) (A)
                 (A) (A) (A) (A) (A) (A) (A) (A) (A) (A) (A) (A)
                 (A) (A) (A) (A) (A) (A) (A) (A) (A) (A) (A) (A)
                 (A) (A) (A) (A) (A)
 The electronic state is 1-A.
 Alpha  occ. eigenvalues --  -18.78202 -18.77979 -18.77396 -18.77351 -18.77107
 Alpha  occ. eigenvalues --   -9.95562  -9.95178  -9.95150  -9.94510  -9.94479
 Alpha  occ. eigenvalues --   -0.96061  -0.94975  -0.93811  -0.92885  -0.92398
 Alpha  occ. eigenvalues --   -0.71831  -0.67579  -0.61900  -0.55437  -0.52035
 Alpha  occ. eigenvalues --   -0.49917  -0.48273  -0.46847  -0.46288  -0.43119
 Alpha  occ. eigenvalues --   -0.41760  -0.40437  -0.38579  -0.37400  -0.36839
 Alpha  occ. eigenvalues --   -0.36137  -0.32690  -0.31593  -0.30979  -0.30680
 Alpha  occ. eigenvalues --   -0.29065  -0.25451  -0.24735  -0.24068  -0.23350
 Alpha  occ. eigenvalues --   -0.23177
 Alpha virt. eigenvalues --    0.00611   0.01454   0.02244   0.04385   0.05432
 Alpha virt. eigenvalues --    0.07202   0.07917   0.08231   0.09471   0.10023
 Alpha virt. eigenvalues --    0.10959   0.11456   0.12424   0.13180   0.13942
 Alpha virt. eigenvalues --    0.14809   0.15057   0.16017   0.17604   0.19970
 Alpha virt. eigenvalues --    0.22887   0.25385   0.25516   0.26807   0.27673
 Alpha virt. eigenvalues --    0.28982   0.29133   0.29784   0.30406   0.31486
 Alpha virt. eigenvalues --    0.33344   0.33776   0.34492   0.35231   0.35760
 Alpha virt. eigenvalues --    0.36042   0.37928   0.38959   0.39626   0.40459
 Alpha virt. eigenvalues --    0.40705   0.41065   0.42310   0.43741   0.45158
 Alpha virt. eigenvalues --    0.45334   0.46053   0.46226   0.47057   0.47918
 Alpha virt. eigenvalues --    0.49276   0.49742   0.51950   0.52203   0.53462
 Alpha virt. eigenvalues --    0.55169   0.55868   0.56249   0.57799   0.59002
 Alpha virt. eigenvalues --    0.60485   0.62111   0.64774   0.65364   0.68338
 Alpha virt. eigenvalues --    0.71209   0.74442   0.79937   0.83082   0.85764
 Alpha virt. eigenvalues --    0.89514   0.91825   0.94847   1.10447   1.14753
 Alpha virt. eigenvalues --    1.18240   1.20246   1.22103   1.23854   1.24313
 Alpha virt. eigenvalues --    1.25006   1.26316   1.28032   1.29038   1.29698
 Alpha virt. eigenvalues --    1.31945   1.34494   1.35061   1.36112   1.37794
 Alpha virt. eigenvalues --    1.39253   1.40350   1.42373   1.42727   1.44401
 Alpha virt. eigenvalues --    1.46028   1.47259   1.48187   1.52274   1.53175
 Alpha virt. eigenvalues --    1.53847   1.55360   1.56674   1.57438   1.59597
 Alpha virt. eigenvalues --    1.61533   1.63739   1.66879   1.67601   1.70181
 Alpha virt. eigenvalues --    1.71700   1.72299   1.73022   1.74435   1.77220
 Alpha virt. eigenvalues --    1.79301   1.84008   1.85576   1.87672   1.89994
 Alpha virt. eigenvalues --    1.91017   1.92656   1.92905   1.94475   1.95615
 Alpha virt. eigenvalues --    1.95845   1.99529   2.00151   2.00719   2.03000
 Alpha virt. eigenvalues --    2.04113   2.06569   2.07973   2.10018   2.13880
 Alpha virt. eigenvalues --    2.18263   2.20231   2.21234   2.23333   2.24406
 Alpha virt. eigenvalues --    2.26024   2.28336   2.32431   2.35239   2.39153
 Alpha virt. eigenvalues --    2.44367   2.46142   2.46811   2.50187   2.51107
 Alpha virt. eigenvalues --    2.52135   2.55034   2.57734   2.58227   2.58618
 Alpha virt. eigenvalues --    2.59214   2.60452   2.60953   2.62059   2.63357
 Alpha virt. eigenvalues --    2.64071   2.65156   2.67742   2.69465   2.70894
 Alpha virt. eigenvalues --    2.78333   2.79547   2.82842   2.84275   2.84676
 Alpha virt. eigenvalues --    2.85505   2.86556   2.86905   2.87710   2.90205
 Alpha virt. eigenvalues --    2.90314   2.92161   2.92744   2.94647   2.95510
 Alpha virt. eigenvalues --    2.95605   2.97938   3.02867   3.04217   3.05177
 Alpha virt. eigenvalues --    3.06611   3.07768   3.08769   3.11237   3.13081
 Alpha virt. eigenvalues --    3.16817   3.19726   3.20827   3.23000   3.27221
 Alpha virt. eigenvalues --    3.29255   3.30284   3.34653   3.37750   3.42097
 Alpha virt. eigenvalues --    3.44864   3.84133   3.85429   3.87307   3.90825
 Alpha virt. eigenvalues --    3.94213   4.17096   4.17868   4.18067   4.18557
 Alpha virt. eigenvalues --    4.19316  21.59769  21.65466  21.71216  21.77314
 Alpha virt. eigenvalues --   21.80759  43.10886  43.13669  43.21934  43.25971
 Alpha virt. eigenvalues --   43.28380
          Condensed to atoms (all electrons):
               1          2          3          4          5          6
     1  O    8.018436   0.296108  -0.132504  -0.005686   0.017175  -0.000138
     2  C    0.296108   5.286422  -0.093720  -0.019168   0.026370  -0.006927
     3  C   -0.132504  -0.093720   6.340323   0.193694  -0.357308  -0.054708
     4  O   -0.005686  -0.019168   0.193694   8.028693  -0.046913  -0.004174
     5  C    0.017175   0.026370  -0.357308  -0.046913   6.130729   0.217390
     6  O   -0.000138  -0.006927  -0.054708  -0.004174   0.217390   8.063760
     7  C   -0.000994   0.012903  -0.003127  -0.004143  -0.091780  -0.090837
     8  O    0.000002  -0.000510   0.025170  -0.000149  -0.068890  -0.010172
     9  C    0.000074  -0.003400  -0.025013  -0.028938   0.031779   0.018454
    10  O    0.000003  -0.002601  -0.019513   0.001387  -0.014267  -0.000118
    11  H    0.304905  -0.032174   0.013297  -0.000183  -0.001393   0.000128
    12  H   -0.050183   0.412446  -0.075730   0.009326   0.004689  -0.003563
    13  H   -0.051102   0.392970  -0.035842  -0.006057  -0.010177   0.024570
    14  H    0.008563  -0.015233   0.313520  -0.057229  -0.011493   0.007740
    15  H    0.030589   0.002090  -0.062457   0.303066   0.016004  -0.001108
    16  H   -0.000009  -0.019508  -0.005159   0.006090   0.368588  -0.052256
    17  H   -0.000145   0.010327  -0.013609   0.000328  -0.018782   0.308787
    18  H    0.000074  -0.001329  -0.005819   0.021316  -0.055823  -0.001972
    19  H    0.000000  -0.000222   0.004032  -0.000129  -0.002183   0.032181
    20  H   -0.000001   0.000037  -0.006675   0.000345   0.024959  -0.000322
    21  H   -0.000051   0.000787   0.029779   0.010947  -0.050943  -0.000340
    22  H   -0.000002   0.000045   0.001408   0.000007   0.000268  -0.000003
               7          8          9         10         11         12
     1  O   -0.000994   0.000002   0.000074   0.000003   0.304905  -0.050183
     2  C    0.012903  -0.000510  -0.003400  -0.002601  -0.032174   0.412446
     3  C   -0.003127   0.025170  -0.025013  -0.019513   0.013297  -0.075730
     4  O   -0.004143  -0.000149  -0.028938   0.001387  -0.000183   0.009326
     5  C   -0.091780  -0.068890   0.031779  -0.014267  -0.001393   0.004689
     6  O   -0.090837  -0.010172   0.018454  -0.000118   0.000128  -0.003563
     7  C    5.761073   0.273807  -0.003160  -0.065364   0.000137  -0.002515
     8  O    0.273807   7.990438  -0.066064  -0.000175  -0.000000   0.000026
     9  C   -0.003160  -0.066064   5.330528   0.274538  -0.000019  -0.000047
    10  O   -0.065364  -0.000175   0.274538   8.000600  -0.000000   0.000282
    11  H    0.000137  -0.000000  -0.000019  -0.000000   0.398358   0.001666
    12  H   -0.002515   0.000026  -0.000047   0.000282   0.001666   0.616853
    13  H   -0.000123  -0.000021   0.000609  -0.000044  -0.007727  -0.056726
    14  H   -0.045383  -0.000401   0.028781   0.011169  -0.000963  -0.009332
    15  H   -0.002945   0.000021   0.001108   0.000082  -0.001222   0.002602
    16  H   -0.045011   0.010765  -0.021727   0.023202   0.000020   0.006716
    17  H    0.006354  -0.000370  -0.000615   0.000094  -0.000005  -0.001041
    18  H    0.396958  -0.050199  -0.067150   0.006004   0.000002   0.000070
    19  H   -0.057946   0.303409   0.013520  -0.000497  -0.000001  -0.000009
    20  H   -0.052105  -0.000212   0.385652  -0.047075   0.000000   0.000004
    21  H    0.002023   0.004637   0.374704  -0.048173   0.000007  -0.000167
    22  H    0.010402  -0.000431  -0.029469   0.298364   0.000000   0.000001
              13         14         15         16         17         18
     1  O   -0.051102   0.008563   0.030589  -0.000009  -0.000145   0.000074
     2  C    0.392970  -0.015233   0.002090  -0.019508   0.010327  -0.001329
     3  C   -0.035842   0.313520  -0.062457  -0.005159  -0.013609  -0.005819
     4  O   -0.006057  -0.057229   0.303066   0.006090   0.000328   0.021316
     5  C   -0.010177  -0.011493   0.016004   0.368588  -0.018782  -0.055823
     6  O    0.024570   0.007740  -0.001108  -0.052256   0.308787  -0.001972
     7  C   -0.000123  -0.045383  -0.002945  -0.045011   0.006354   0.396958
     8  O   -0.000021  -0.000401   0.000021   0.010765  -0.000370  -0.050199
     9  C    0.000609   0.028781   0.001108  -0.021727  -0.000615  -0.067150
    10  O   -0.000044   0.011169   0.000082   0.023202   0.000094   0.006004
    11  H   -0.007727  -0.000963  -0.001222   0.000020  -0.000005   0.000002
    12  H   -0.056726  -0.009332   0.002602   0.006716  -0.001041   0.000070
    13  H    0.586439   0.013800  -0.005031   0.000678  -0.000530   0.000171
    14  H    0.013800   0.605178  -0.003818   0.000031   0.000451   0.001608
    15  H   -0.005031  -0.003818   0.424766  -0.000216   0.000058   0.000090
    16  H    0.000678   0.000031  -0.000216   0.532936  -0.011499   0.014284
    17  H   -0.000530   0.000451   0.000058  -0.011499   0.389749  -0.000989
    18  H    0.000171   0.001608   0.000090   0.014284  -0.000989   0.583863
    19  H   -0.000029  -0.000118   0.000005  -0.004766  -0.000725  -0.007084
    20  H   -0.000002   0.001382   0.000016   0.000958   0.000038   0.000995
    21  H   -0.000079  -0.018798  -0.000688   0.001750  -0.000035   0.003149
    22  H    0.000001  -0.000526  -0.000012  -0.000746  -0.000010  -0.000596
              19         20         21         22
     1  O    0.000000  -0.000001  -0.000051  -0.000002
     2  C   -0.000222   0.000037   0.000787   0.000045
     3  C    0.004032  -0.006675   0.029779   0.001408
     4  O   -0.000129   0.000345   0.010947   0.000007
     5  C   -0.002183   0.024959  -0.050943   0.000268
     6  O    0.032181  -0.000322  -0.000340  -0.000003
     7  C   -0.057946  -0.052105   0.002023   0.010402
     8  O    0.303409  -0.000212   0.004637  -0.000431
     9  C    0.013520   0.385652   0.374704  -0.029469
    10  O   -0.000497  -0.047075  -0.048173   0.298364
    11  H   -0.000001   0.000000   0.000007   0.000000
    12  H   -0.000009   0.000004  -0.000167   0.000001
    13  H   -0.000029  -0.000002  -0.000079   0.000001
    14  H   -0.000118   0.001382  -0.018798  -0.000526
    15  H    0.000005   0.000016  -0.000688  -0.000012
    16  H   -0.004766   0.000958   0.001750  -0.000746
    17  H   -0.000725   0.000038  -0.000035  -0.000010
    18  H   -0.007084   0.000995   0.003149  -0.000596
    19  H    0.427092  -0.000687  -0.000689   0.000096
    20  H   -0.000687   0.588753  -0.045895  -0.001995
    21  H   -0.000689  -0.045895   0.575602  -0.004996
    22  H    0.000096  -0.001995  -0.004996   0.415167
 Mulliken charges:
               1
     1  O   -0.435115
     2  C   -0.245714
     3  C   -0.030039
     4  O   -0.402431
     5  C   -0.107998
     6  O   -0.446372
     7  C    0.001776
     8  O   -0.410680
     9  C   -0.214147
    10  O   -0.417898
    11  H    0.325167
    12  H    0.144632
    13  H    0.154252
    14  H    0.171068
    15  H    0.297001
    16  H    0.194878
    17  H    0.332166
    18  H    0.162379
    19  H    0.294750
    20  H    0.151830
    21  H    0.167467
    22  H    0.313027
 Sum of Mulliken charges =  -0.00000
 Mulliken charges with hydrogens summed into heavy atoms:
               1
     1  O   -0.109948
     2  C    0.053170
     3  C    0.141029
     4  O   -0.105430
     5  C    0.086881
     6  O   -0.114206
     7  C    0.164155
     8  O   -0.115930
     9  C    0.105150
    10  O   -0.104872
 Electronic spatial extent (au):  <R**2>=           1758.6414
 Charge=             -0.0000 electrons
 Dipole moment (field-independent basis, Debye):
    X=             -4.2523    Y=             -0.5692    Z=             -2.1770  Tot=              4.8109
 Quadrupole moment (field-independent basis, Debye-Ang):
   XX=            -56.8261   YY=            -52.7642   ZZ=            -61.6089
   XY=            -10.1775   XZ=              5.7129   YZ=             -6.7710
 Traceless Quadrupole moment (field-independent basis, Debye-Ang):
   XX=              0.2403   YY=              4.3022   ZZ=             -4.5425
   XY=            -10.1775   XZ=              5.7129   YZ=             -6.7710
 Octapole moment (field-independent basis, Debye-Ang**2):
  XXX=            -92.2065  YYY=            -10.3688  ZZZ=             -5.5934  XYY=             24.0599
  XXY=             -0.9652  XXZ=              3.7831  XZZ=             -7.9235  YZZ=              4.3685
  YYZ=            -14.2065  XYZ=              5.2244
 Hexadecapole moment (field-independent basis, Debye-Ang**3):
 XXXX=          -1178.4946 YYYY=           -385.6015 ZZZZ=           -252.4511 XXXY=            -92.4667
 XXXZ=             20.7130 YYYX=            -48.7224 YYYZ=             -9.8154 ZZZX=             -6.0409
 ZZZY=             -9.2076 XXYY=           -281.5693 XXZZ=           -265.7954 YYZZ=           -110.0811
 XXYZ=            -13.2393 YYXZ=            -14.3912 ZZXY=              2.7415
 N-N= 6.109087722099D+02 E-N=-2.570973552434D+03  KE= 5.716004178615D+02
 Unable to Open any file for archive entry.
 1\1\GINC-TCN1787\SP\RBP86\TZVP\C5H12O5\ELENAA\22-Feb-2021\0\\# BP86/TZ
 VP SCRF=COSMORS geom=CHECKPOINT guess=CHECKPOINT\\COSMO-file for #HEBK
 CHPVOIAQTA-SCDXWVJYSA-N\\0,1\O,0,0.3980881718,1.1565083749,-3.25124717
 55\C,0,-0.0519849158,1.9741398582,-2.1475932738\C,0,-1.0348026723,1.12
 21949599,-1.352240025\O,0,-2.1363273109,0.720924989,-2.187902779\C,0,-
 1.5653648247,1.8548984255,-0.1161525005\O,0,-2.1448326263,3.1480325311
 ,-0.4362487912\C,0,-2.6759724041,1.0826777071,0.6131269894\O,0,-3.0914
 0199,1.8233041851,1.7778495758\C,0,-2.2637711196,-0.3168879928,1.03848
 80368\O,0,-1.0076503141,-0.2647401206,1.7447030877\H,0,0.706569302,1.7
 481776787,-3.9589050477\H,0,0.7951612735,2.2743418656,-1.5032540079\H,
 0,-0.5668124758,2.8781070183,-2.5143546478\H,0,-0.4902888639,0.2276048
 872,-0.9869940541\H,0,-1.7277282902,0.4557750242,-3.0359950928\H,0,-0.
 7235200932,1.9841780455,0.5844619629\H,0,-1.4517620036,3.8236108571,-0
 .3411394883\H,0,-3.5262511513,0.9731568079,-0.0872552099\H,0,-3.183553
 1381,2.7466713697,1.4677067993\H,0,-3.0635738748,-0.7308676235,1.67931
 3643\H,0,-2.1878533478,-0.9468139885,0.13436405\H,0,-0.7580373307,-1.1
 800148596,1.9606979487\\Version=ES64L-G16RevC.01\State=1-A\HF=-574.095
 5599\RMSD=7.486e-09\Dipole=1.5253262,0.3612409,-1.0608607\Quadrupole=-
 4.3529651,8.2824236,-3.9294585,4.868199,-2.0106691,-5.6776909\PG=C01 [
 X(C5H12O5)]\\@
 The archive entry for this job was punched.


 RESEARCH IS WHAT I AM DOING WHEN I DON'T KNOW WHAT I AM DOING.
     -- WERNER VON BRAUN
 Job cpu time:       0 days  0 hours  6 minutes 13.0 seconds.
 Elapsed time:       0 days  0 hours  0 minutes 12.2 seconds.
 File lengths (MBytes):  RWF=     56 Int=      0 D2E=      0 Chk=      8 Scr=      1
 Normal termination of Gaussian 16 at Mon Feb 22 21:10:51 2021.
