 Entering Gaussian System, Link 0=g16
 Input=HEFNNWSXXWATRW-UHFFFAOYSA-N.gjf
 Output=HEFNNWSXXWATRW-UHFFFAOYSA-N.log
 Initial command:
 /sw/arch/RedHatEnterpriseServer7/EB_production/2019/software/Gaussian/g16.c01/l1.exe "/scratch-local/elenaa.9715215/Gau-8141.inp" -scrdir="/scratch-local/elenaa.9715215/"
 Entering Link 1 = /sw/arch/RedHatEnterpriseServer7/EB_production/2019/software/Gaussian/g16.c01/l1.exe PID=      8142.
  
 Copyright (c) 1988-2019, Gaussian, Inc.  All Rights Reserved.
  
 This is part of the Gaussian(R) 16 program.  It is based on
 the Gaussian(R) 09 system (copyright 2009, Gaussian, Inc.),
 the Gaussian(R) 03 system (copyright 2003, Gaussian, Inc.),
 the Gaussian(R) 98 system (copyright 1998, Gaussian, Inc.),
 the Gaussian(R) 94 system (copyright 1995, Gaussian, Inc.),
 the Gaussian 92(TM) system (copyright 1992, Gaussian, Inc.),
 the Gaussian 90(TM) system (copyright 1990, Gaussian, Inc.),
 the Gaussian 88(TM) system (copyright 1988, Gaussian, Inc.),
 the Gaussian 86(TM) system (copyright 1986, Carnegie Mellon
 University), and the Gaussian 82(TM) system (copyright 1983,
 Carnegie Mellon University). Gaussian is a federally registered
 trademark of Gaussian, Inc.
  
 This software contains proprietary and confidential information,
 including trade secrets, belonging to Gaussian, Inc.
  
 This software is provided under written license and may be
 used, copied, transmitted, or stored only in accord with that
 written license.
  
 The following legend is applicable only to US Government
 contracts under FAR:
  
                    RESTRICTED RIGHTS LEGEND
  
 Use, reproduction and disclosure by the US Government is
 subject to restrictions as set forth in subparagraphs (a)
 and (c) of the Commercial Computer Software - Restricted
 Rights clause in FAR 52.227-19.
  
 Gaussian, Inc.
 340 Quinnipiac St., Bldg. 40, Wallingford CT 06492
  
  
 ---------------------------------------------------------------
 Warning -- This program may not be used in any manner that
 competes with the business of Gaussian, Inc. or will provide
 assistance to any competitor of Gaussian, Inc.  The licensee
 of this program is prohibited from giving any competitor of
 Gaussian, Inc. access to this program.  By using this program,
 the user acknowledges that Gaussian, Inc. is engaged in the
 business of creating and licensing software in the field of
 computational chemistry and represents and warrants to the
 licensee that it is not a competitor of Gaussian, Inc. and that
 it will not use this program in any manner prohibited above.
 ---------------------------------------------------------------
  

 Cite this work as:
 Gaussian 16, Revision C.01,
 M. J. Frisch, G. W. Trucks, H. B. Schlegel, G. E. Scuseria, 
 M. A. Robb, J. R. Cheeseman, G. Scalmani, V. Barone, 
 G. A. Petersson, H. Nakatsuji, X. Li, M. Caricato, A. V. Marenich, 
 J. Bloino, B. G. Janesko, R. Gomperts, B. Mennucci, H. P. Hratchian, 
 J. V. Ortiz, A. F. Izmaylov, J. L. Sonnenberg, D. Williams-Young, 
 F. Ding, F. Lipparini, F. Egidi, J. Goings, B. Peng, A. Petrone, 
 T. Henderson, D. Ranasinghe, V. G. Zakrzewski, J. Gao, N. Rega, 
 G. Zheng, W. Liang, M. Hada, M. Ehara, K. Toyota, R. Fukuda, 
 J. Hasegawa, M. Ishida, T. Nakajima, Y. Honda, O. Kitao, H. Nakai, 
 T. Vreven, K. Throssell, J. A. Montgomery, Jr., J. E. Peralta, 
 F. Ogliaro, M. J. Bearpark, J. J. Heyd, E. N. Brothers, K. N. Kudin, 
 V. N. Staroverov, T. A. Keith, R. Kobayashi, J. Normand, 
 K. Raghavachari, A. P. Rendell, J. C. Burant, S. S. Iyengar, 
 J. Tomasi, M. Cossi, J. M. Millam, M. Klene, C. Adamo, R. Cammi, 
 J. W. Ochterski, R. L. Martin, K. Morokuma, O. Farkas, 
 J. B. Foresman, and D. J. Fox, Gaussian, Inc., Wallingford CT, 2019.
 
 ******************************************
 Gaussian 16:  ES64L-G16RevC.01  3-Jul-2019
                22-Feb-2021 
 ******************************************
 %chk=HEFNNWSXXWATRW-UHFFFAOYSA-N.chk
 %NProcShared=32
 Will use up to   32 processors via shared memory.
 -------------------------------------------------------------
 #P BP86/TZVP EmpiricalDispersion=GD3 SCRF=(Solvent=Water) Opt
 -------------------------------------------------------------
 1/18=20,19=15,26=3,38=1/1,3;
 2/9=110,12=2,17=6,18=5,40=1/2;
 3/5=19,7=101,11=2,25=1,30=1,70=2201,71=1,72=1,74=404,124=31/1,2,3;
 4//1;
 5/5=2,38=5,53=1/2;
 6/7=2,8=2,9=2,10=2,28=1/1;
 7//1,2,3,16;
 1/18=20,19=15,26=3/3(2);
 2/9=110/2;
 99//99;
 2/9=110/2;
 3/5=19,7=101,11=2,25=1,30=1,70=2205,71=1,72=1,74=404,124=31/1,2,3;
 4/5=5,16=3,69=1/1;
 5/5=2,38=5,53=1/2;
 7//1,2,3,16;
 1/18=20,19=15,26=3/3(-5);
 2/9=110/2;
 6/7=2,8=2,9=2,10=2,19=2,28=1/1;
 99/9=1/99;
 Leave Link    1 at Mon Feb 22 21:06:56 2021, MaxMem=           0 cpu:               2.8 elap:               0.1
 (Enter /sw/arch/RedHatEnterpriseServer7/EB_production/2019/software/Gaussian/g16.c01/l101.exe)
 -------------------------------------
 Particle #HEFNNWSXXWATRW-UHFFFAOYSA-N
 -------------------------------------
 Symbolic Z-matrix:
 Charge =  0 Multiplicity = 1
 C                     6.65413  -1.43147   4.28493 
 C                     5.54103  -0.6457    3.53763 
 C                     5.23421   0.68412   4.2834 
 C                     4.26418  -1.52462   3.33185 
 C                     3.19842  -0.85713   2.52923 
 C                     3.37982  -0.61998   1.14763 
 C                     2.39114   0.03871   0.3942 
 C                     1.18239   0.47126   0.99446 
 C                     0.13048   1.17682   0.19499 
 C                    -1.1856    0.35656   0.10163 
 C                    -0.10411   2.55462   0.70296 
 O                     0.44576   3.538     0.157 
 O                    -0.91923   2.79878   1.75792 
 C                     0.99875   0.21369   2.37384 
 C                     1.99053  -0.43516   3.12946 
 H                     6.91829  -2.33733   3.73562 
 H                     6.32289  -1.71183   5.28727 
 H                     7.55354  -0.81772   4.37483 
 H                     5.94319  -0.38731   2.55308 
 H                     6.15322   1.25073   4.44771 
 H                     4.77195   0.48338   5.25201 
 H                     4.5584    1.3076    3.69536 
 H                     4.53766  -2.45471   2.82441 
 H                     3.87867  -1.81278   4.31476 
 H                     4.23891  -0.9229    0.68114 
 H                     2.56513   0.20246  -0.60086 
 H                     0.47625   1.27979  -0.84008 
 H                    -1.90915   0.87634  -0.53003 
 H                    -1.6319    0.21127   1.08671 
 H                    -0.99097  -0.62386  -0.33793 
 H                    -1.07539   3.719     2.05731 
 H                     0.13839   0.50205   2.84458 
 H                     1.82549  -0.5898    4.12751 
 
 ITRead=  0  0  0  0  0  0  0  0  0  0  0  0  0  0  0  0  0  0  0  0
 ITRead=  0  0  0  0  0  0  0  0  0  0  0  0  0
 MicOpt= -1 -1 -1 -1 -1 -1 -1 -1 -1 -1 -1 -1 -1 -1 -1 -1 -1 -1 -1 -1
 MicOpt= -1 -1 -1 -1 -1 -1 -1 -1 -1 -1 -1 -1 -1
 NAtoms=     33 NQM=       33 NQMF=       0 NMMI=      0 NMMIF=      0
                NMic=       0 NMicF=      0.
                    Isotopes and Nuclear Properties:
 (Nuclear quadrupole moments (NQMom) in fm**2, nuclear magnetic moments (NMagM)
  in nuclear magnetons)

  Atom         1           2           3           4           5           6           7           8           9          10
 IAtWgt=          12          12          12          12          12          12          12          12          12          12
 AtmWgt=  12.0000000  12.0000000  12.0000000  12.0000000  12.0000000  12.0000000  12.0000000  12.0000000  12.0000000  12.0000000
 NucSpn=           0           0           0           0           0           0           0           0           0           0
 AtZEff=  -0.0000000  -0.0000000  -0.0000000  -0.0000000  -0.0000000  -0.0000000  -0.0000000  -0.0000000  -0.0000000  -0.0000000
 NQMom=    0.0000000   0.0000000   0.0000000   0.0000000   0.0000000   0.0000000   0.0000000   0.0000000   0.0000000   0.0000000
 NMagM=    0.0000000   0.0000000   0.0000000   0.0000000   0.0000000   0.0000000   0.0000000   0.0000000   0.0000000   0.0000000
 AtZNuc=   6.0000000   6.0000000   6.0000000   6.0000000   6.0000000   6.0000000   6.0000000   6.0000000   6.0000000   6.0000000

  Atom        11          12          13          14          15          16          17          18          19          20
 IAtWgt=          12          16          16          12          12           1           1           1           1           1
 AtmWgt=  12.0000000  15.9949146  15.9949146  12.0000000  12.0000000   1.0078250   1.0078250   1.0078250   1.0078250   1.0078250
 NucSpn=           0           0           0           0           0           1           1           1           1           1
 AtZEff=  -0.0000000  -0.0000000  -0.0000000  -0.0000000  -0.0000000  -0.0000000  -0.0000000  -0.0000000  -0.0000000  -0.0000000
 NQMom=    0.0000000   0.0000000   0.0000000   0.0000000   0.0000000   0.0000000   0.0000000   0.0000000   0.0000000   0.0000000
 NMagM=    0.0000000   0.0000000   0.0000000   0.0000000   0.0000000   2.7928460   2.7928460   2.7928460   2.7928460   2.7928460
 AtZNuc=   6.0000000   8.0000000   8.0000000   6.0000000   6.0000000   1.0000000   1.0000000   1.0000000   1.0000000   1.0000000

  Atom        21          22          23          24          25          26          27          28          29          30
 IAtWgt=           1           1           1           1           1           1           1           1           1           1
 AtmWgt=   1.0078250   1.0078250   1.0078250   1.0078250   1.0078250   1.0078250   1.0078250   1.0078250   1.0078250   1.0078250
 NucSpn=           1           1           1           1           1           1           1           1           1           1
 AtZEff=  -0.0000000  -0.0000000  -0.0000000  -0.0000000  -0.0000000  -0.0000000  -0.0000000  -0.0000000  -0.0000000  -0.0000000
 NQMom=    0.0000000   0.0000000   0.0000000   0.0000000   0.0000000   0.0000000   0.0000000   0.0000000   0.0000000   0.0000000
 NMagM=    2.7928460   2.7928460   2.7928460   2.7928460   2.7928460   2.7928460   2.7928460   2.7928460   2.7928460   2.7928460
 AtZNuc=   1.0000000   1.0000000   1.0000000   1.0000000   1.0000000   1.0000000   1.0000000   1.0000000   1.0000000   1.0000000

  Atom        31          32          33
 IAtWgt=           1           1           1
 AtmWgt=   1.0078250   1.0078250   1.0078250
 NucSpn=           1           1           1
 AtZEff=  -0.0000000  -0.0000000  -0.0000000
 NQMom=    0.0000000   0.0000000   0.0000000
 NMagM=    2.7928460   2.7928460   2.7928460
 AtZNuc=   1.0000000   1.0000000   1.0000000
 Leave Link  101 at Mon Feb 22 21:06:56 2021, MaxMem=   104857600 cpu:               3.0 elap:               0.1
 (Enter /sw/arch/RedHatEnterpriseServer7/EB_production/2019/software/Gaussian/g16.c01/l103.exe)

 GradGradGradGradGradGradGradGradGradGradGradGradGradGradGradGradGradGrad
 Berny optimization.
 Initialization pass.
                           ----------------------------
                           !    Initial Parameters    !
                           ! (Angstroms and Degrees)  !
 --------------------------                            --------------------------
 ! Name  Definition              Value          Derivative Info.                !
 --------------------------------------------------------------------------------
 ! R1    R(1,2)                  1.554          estimate D2E/DX2                !
 ! R2    R(1,16)                 1.0918         estimate D2E/DX2                !
 ! R3    R(1,17)                 1.0922         estimate D2E/DX2                !
 ! R4    R(1,18)                 1.0926         estimate D2E/DX2                !
 ! R5    R(2,3)                  1.5552         estimate D2E/DX2                !
 ! R6    R(2,4)                  1.5637         estimate D2E/DX2                !
 ! R7    R(2,19)                 1.0945         estimate D2E/DX2                !
 ! R8    R(3,20)                 1.0921         estimate D2E/DX2                !
 ! R9    R(3,21)                 1.0919         estimate D2E/DX2                !
 ! R10   R(3,22)                 1.0914         estimate D2E/DX2                !
 ! R11   R(4,5)                  1.4918         estimate D2E/DX2                !
 ! R12   R(4,23)                 1.0942         estimate D2E/DX2                !
 ! R13   R(4,24)                 1.0944         estimate D2E/DX2                !
 ! R14   R(5,6)                  1.4135         estimate D2E/DX2                !
 ! R15   R(5,15)                 1.4133         estimate D2E/DX2                !
 ! R16   R(6,7)                  1.4068         estimate D2E/DX2                !
 ! R17   R(6,25)                 1.0234         estimate D2E/DX2                !
 ! R18   R(7,8)                  1.4172         estimate D2E/DX2                !
 ! R19   R(7,26)                 1.0233         estimate D2E/DX2                !
 ! R20   R(8,9)                  1.4978         estimate D2E/DX2                !
 ! R21   R(8,14)                 1.4152         estimate D2E/DX2                !
 ! R22   R(9,10)                 1.5536         estimate D2E/DX2                !
 ! R23   R(9,11)                 1.4871         estimate D2E/DX2                !
 ! R24   R(9,27)                 1.0961         estimate D2E/DX2                !
 ! R25   R(10,28)                1.0921         estimate D2E/DX2                !
 ! R26   R(10,29)                1.0912         estimate D2E/DX2                !
 ! R27   R(10,30)                1.0919         estimate D2E/DX2                !
 ! R28   R(11,12)                1.252          estimate D2E/DX2                !
 ! R29   R(11,13)                1.3554         estimate D2E/DX2                !
 ! R30   R(13,31)                0.9802         estimate D2E/DX2                !
 ! R31   R(14,15)                1.4056         estimate D2E/DX2                !
 ! R32   R(14,32)                1.0222         estimate D2E/DX2                !
 ! R33   R(15,33)                1.0234         estimate D2E/DX2                !
 ! A1    A(2,1,16)             110.541          estimate D2E/DX2                !
 ! A2    A(2,1,17)             110.7244         estimate D2E/DX2                !
 ! A3    A(2,1,18)             110.1924         estimate D2E/DX2                !
 ! A4    A(16,1,17)            108.7903         estimate D2E/DX2                !
 ! A5    A(16,1,18)            107.9565         estimate D2E/DX2                !
 ! A6    A(17,1,18)            108.5619         estimate D2E/DX2                !
 ! A7    A(1,2,3)              110.0642         estimate D2E/DX2                !
 ! A8    A(1,2,4)              111.3434         estimate D2E/DX2                !
 ! A9    A(1,2,19)             106.7848         estimate D2E/DX2                !
 ! A10   A(3,2,4)              112.4961         estimate D2E/DX2                !
 ! A11   A(3,2,19)             107.5772         estimate D2E/DX2                !
 ! A12   A(4,2,19)             108.3222         estimate D2E/DX2                !
 ! A13   A(2,3,20)             110.4732         estimate D2E/DX2                !
 ! A14   A(2,3,21)             110.592          estimate D2E/DX2                !
 ! A15   A(2,3,22)             110.6251         estimate D2E/DX2                !
 ! A16   A(20,3,21)            108.5535         estimate D2E/DX2                !
 ! A17   A(20,3,22)            107.803          estimate D2E/DX2                !
 ! A18   A(21,3,22)            108.7132         estimate D2E/DX2                !
 ! A19   A(2,4,5)              113.7441         estimate D2E/DX2                !
 ! A20   A(2,4,23)             109.5546         estimate D2E/DX2                !
 ! A21   A(2,4,24)             108.5078         estimate D2E/DX2                !
 ! A22   A(5,4,23)             108.0207         estimate D2E/DX2                !
 ! A23   A(5,4,24)             110.4476         estimate D2E/DX2                !
 ! A24   A(23,4,24)            106.3033         estimate D2E/DX2                !
 ! A25   A(4,5,6)              120.6141         estimate D2E/DX2                !
 ! A26   A(4,5,15)             121.0423         estimate D2E/DX2                !
 ! A27   A(6,5,15)             118.341          estimate D2E/DX2                !
 ! A28   A(5,6,7)              120.7872         estimate D2E/DX2                !
 ! A29   A(5,6,25)             120.238          estimate D2E/DX2                !
 ! A30   A(7,6,25)             118.9741         estimate D2E/DX2                !
 ! A31   A(6,7,8)              121.0301         estimate D2E/DX2                !
 ! A32   A(6,7,26)             118.4377         estimate D2E/DX2                !
 ! A33   A(8,7,26)             120.5319         estimate D2E/DX2                !
 ! A34   A(7,8,9)              121.1105         estimate D2E/DX2                !
 ! A35   A(7,8,14)             117.902          estimate D2E/DX2                !
 ! A36   A(9,8,14)             120.9875         estimate D2E/DX2                !
 ! A37   A(8,9,10)             112.2282         estimate D2E/DX2                !
 ! A38   A(8,9,11)             111.4017         estimate D2E/DX2                !
 ! A39   A(8,9,27)             109.0706         estimate D2E/DX2                !
 ! A40   A(10,9,11)            112.0907         estimate D2E/DX2                !
 ! A41   A(10,9,27)            105.0744         estimate D2E/DX2                !
 ! A42   A(11,9,27)            106.5758         estimate D2E/DX2                !
 ! A43   A(9,10,28)            110.1644         estimate D2E/DX2                !
 ! A44   A(9,10,29)            111.2557         estimate D2E/DX2                !
 ! A45   A(9,10,30)            110.3196         estimate D2E/DX2                !
 ! A46   A(28,10,29)           108.3332         estimate D2E/DX2                !
 ! A47   A(28,10,30)           108.2159         estimate D2E/DX2                !
 ! A48   A(29,10,30)           108.4672         estimate D2E/DX2                !
 ! A49   A(9,11,12)            120.6302         estimate D2E/DX2                !
 ! A50   A(9,11,13)            121.8477         estimate D2E/DX2                !
 ! A51   A(12,11,13)           117.5207         estimate D2E/DX2                !
 ! A52   A(11,13,31)           120.1767         estimate D2E/DX2                !
 ! A53   A(8,14,15)            121.0943         estimate D2E/DX2                !
 ! A54   A(8,14,32)            120.4458         estimate D2E/DX2                !
 ! A55   A(15,14,32)           118.4592         estimate D2E/DX2                !
 ! A56   A(5,15,14)            120.836          estimate D2E/DX2                !
 ! A57   A(5,15,33)            120.4593         estimate D2E/DX2                !
 ! A58   A(14,15,33)           118.7025         estimate D2E/DX2                !
 ! D1    D(16,1,2,3)          -176.5837         estimate D2E/DX2                !
 ! D2    D(16,1,2,4)            57.9617         estimate D2E/DX2                !
 ! D3    D(16,1,2,19)          -60.0979         estimate D2E/DX2                !
 ! D4    D(17,1,2,3)            62.783          estimate D2E/DX2                !
 ! D5    D(17,1,2,4)           -62.6716         estimate D2E/DX2                !
 ! D6    D(17,1,2,19)          179.2687         estimate D2E/DX2                !
 ! D7    D(18,1,2,3)           -57.3356         estimate D2E/DX2                !
 ! D8    D(18,1,2,4)           177.2098         estimate D2E/DX2                !
 ! D9    D(18,1,2,19)           59.1502         estimate D2E/DX2                !
 ! D10   D(1,2,3,20)            52.7395         estimate D2E/DX2                !
 ! D11   D(1,2,3,21)           -67.4657         estimate D2E/DX2                !
 ! D12   D(1,2,3,22)           172.0295         estimate D2E/DX2                !
 ! D13   D(4,2,3,20)           177.5346         estimate D2E/DX2                !
 ! D14   D(4,2,3,21)            57.3295         estimate D2E/DX2                !
 ! D15   D(4,2,3,22)           -63.1753         estimate D2E/DX2                !
 ! D16   D(19,2,3,20)          -63.2492         estimate D2E/DX2                !
 ! D17   D(19,2,3,21)          176.5456         estimate D2E/DX2                !
 ! D18   D(19,2,3,22)           56.0408         estimate D2E/DX2                !
 ! D19   D(1,2,4,5)           -175.6553         estimate D2E/DX2                !
 ! D20   D(1,2,4,23)           -54.6647         estimate D2E/DX2                !
 ! D21   D(1,2,4,24)            60.9967         estimate D2E/DX2                !
 ! D22   D(3,2,4,5)             60.2545         estimate D2E/DX2                !
 ! D23   D(3,2,4,23)          -178.7548         estimate D2E/DX2                !
 ! D24   D(3,2,4,24)           -63.0935         estimate D2E/DX2                !
 ! D25   D(19,2,4,5)           -58.5262         estimate D2E/DX2                !
 ! D26   D(19,2,4,23)           62.4645         estimate D2E/DX2                !
 ! D27   D(19,2,4,24)          178.1258         estimate D2E/DX2                !
 ! D28   D(2,4,5,6)             69.5283         estimate D2E/DX2                !
 ! D29   D(2,4,5,15)          -109.8683         estimate D2E/DX2                !
 ! D30   D(23,4,5,6)           -52.3167         estimate D2E/DX2                !
 ! D31   D(23,4,5,15)          128.2867         estimate D2E/DX2                !
 ! D32   D(24,4,5,6)          -168.1877         estimate D2E/DX2                !
 ! D33   D(24,4,5,15)           12.4156         estimate D2E/DX2                !
 ! D34   D(4,5,6,7)           -178.4177         estimate D2E/DX2                !
 ! D35   D(4,5,6,25)             1.2781         estimate D2E/DX2                !
 ! D36   D(15,5,6,7)             0.995          estimate D2E/DX2                !
 ! D37   D(15,5,6,25)         -179.3093         estimate D2E/DX2                !
 ! D38   D(4,5,15,14)          178.9104         estimate D2E/DX2                !
 ! D39   D(4,5,15,33)           -0.5401         estimate D2E/DX2                !
 ! D40   D(6,5,15,14)           -0.4996         estimate D2E/DX2                !
 ! D41   D(6,5,15,33)         -179.9501         estimate D2E/DX2                !
 ! D42   D(5,6,7,8)             -0.5971         estimate D2E/DX2                !
 ! D43   D(5,6,7,26)           179.2134         estimate D2E/DX2                !
 ! D44   D(25,6,7,8)           179.7034         estimate D2E/DX2                !
 ! D45   D(25,6,7,26)           -0.4862         estimate D2E/DX2                !
 ! D46   D(6,7,8,9)            179.7927         estimate D2E/DX2                !
 ! D47   D(6,7,8,14)            -0.3092         estimate D2E/DX2                !
 ! D48   D(26,7,8,9)            -0.0138         estimate D2E/DX2                !
 ! D49   D(26,7,8,14)          179.8843         estimate D2E/DX2                !
 ! D50   D(7,8,9,10)           115.4408         estimate D2E/DX2                !
 ! D51   D(7,8,9,11)          -117.9379         estimate D2E/DX2                !
 ! D52   D(7,8,9,27)            -0.5703         estimate D2E/DX2                !
 ! D53   D(14,8,9,10)          -64.4541         estimate D2E/DX2                !
 ! D54   D(14,8,9,11)           62.1672         estimate D2E/DX2                !
 ! D55   D(14,8,9,27)          179.5348         estimate D2E/DX2                !
 ! D56   D(7,8,14,15)            0.8068         estimate D2E/DX2                !
 ! D57   D(7,8,14,32)         -179.5085         estimate D2E/DX2                !
 ! D58   D(9,8,14,15)         -179.295          estimate D2E/DX2                !
 ! D59   D(9,8,14,32)            0.3897         estimate D2E/DX2                !
 ! D60   D(8,9,10,28)         -177.052          estimate D2E/DX2                !
 ! D61   D(8,9,10,29)           62.79           estimate D2E/DX2                !
 ! D62   D(8,9,10,30)          -57.6398         estimate D2E/DX2                !
 ! D63   D(11,9,10,28)          56.699          estimate D2E/DX2                !
 ! D64   D(11,9,10,29)         -63.459          estimate D2E/DX2                !
 ! D65   D(11,9,10,30)         176.1113         estimate D2E/DX2                !
 ! D66   D(27,9,10,28)         -58.6528         estimate D2E/DX2                !
 ! D67   D(27,9,10,29)        -178.8107         estimate D2E/DX2                !
 ! D68   D(27,9,10,30)          60.7595         estimate D2E/DX2                !
 ! D69   D(8,9,11,12)           97.7756         estimate D2E/DX2                !
 ! D70   D(8,9,11,13)          -82.679          estimate D2E/DX2                !
 ! D71   D(10,9,11,12)        -135.5279         estimate D2E/DX2                !
 ! D72   D(10,9,11,13)          44.0175         estimate D2E/DX2                !
 ! D73   D(27,9,11,12)         -21.0932         estimate D2E/DX2                !
 ! D74   D(27,9,11,13)         158.4521         estimate D2E/DX2                !
 ! D75   D(9,11,13,31)        -178.3486         estimate D2E/DX2                !
 ! D76   D(12,11,13,31)          1.2103         estimate D2E/DX2                !
 ! D77   D(8,14,15,5)           -0.4071         estimate D2E/DX2                !
 ! D78   D(8,14,15,33)         179.0528         estimate D2E/DX2                !
 ! D79   D(32,14,15,5)         179.9021         estimate D2E/DX2                !
 ! D80   D(32,14,15,33)         -0.638          estimate D2E/DX2                !
 --------------------------------------------------------------------------------
 Trust Radius=3.00D-01 FncErr=1.00D-07 GrdErr=1.00D-06 EigMax=2.50D+02 EigMin=1.00D-04
 Number of steps in this run=    181 maximum allowed number of steps=    198.
 GradGradGradGradGradGradGradGradGradGradGradGradGradGradGradGradGradGrad

 Leave Link  103 at Mon Feb 22 21:06:56 2021, MaxMem=   104857600 cpu:               0.7 elap:               0.1
 (Enter /sw/arch/RedHatEnterpriseServer7/EB_production/2019/software/Gaussian/g16.c01/l202.exe)
                          Input orientation:                          
 ---------------------------------------------------------------------
 Center     Atomic      Atomic             Coordinates (Angstroms)
 Number     Number       Type             X           Y           Z
 ---------------------------------------------------------------------
      1          6           0        6.654130   -1.431470    4.284930
      2          6           0        5.541030   -0.645700    3.537630
      3          6           0        5.234210    0.684120    4.283400
      4          6           0        4.264180   -1.524620    3.331850
      5          6           0        3.198420   -0.857130    2.529230
      6          6           0        3.379820   -0.619980    1.147630
      7          6           0        2.391140    0.038710    0.394200
      8          6           0        1.182390    0.471260    0.994460
      9          6           0        0.130480    1.176820    0.194990
     10          6           0       -1.185600    0.356560    0.101630
     11          6           0       -0.104110    2.554620    0.702960
     12          8           0        0.445760    3.538000    0.157000
     13          8           0       -0.919230    2.798780    1.757920
     14          6           0        0.998750    0.213690    2.373840
     15          6           0        1.990530   -0.435160    3.129460
     16          1           0        6.918290   -2.337330    3.735620
     17          1           0        6.322890   -1.711830    5.287270
     18          1           0        7.553540   -0.817720    4.374830
     19          1           0        5.943190   -0.387310    2.553080
     20          1           0        6.153220    1.250730    4.447710
     21          1           0        4.771950    0.483380    5.252010
     22          1           0        4.558400    1.307600    3.695360
     23          1           0        4.537660   -2.454710    2.824410
     24          1           0        3.878670   -1.812780    4.314760
     25          1           0        4.238910   -0.922900    0.681140
     26          1           0        2.565130    0.202460   -0.600860
     27          1           0        0.476250    1.279790   -0.840080
     28          1           0       -1.909150    0.876340   -0.530030
     29          1           0       -1.631900    0.211270    1.086710
     30          1           0       -0.990970   -0.623860   -0.337930
     31          1           0       -1.075390    3.719000    2.057310
     32          1           0        0.138390    0.502050    2.844580
     33          1           0        1.825490   -0.589800    4.127510
 ---------------------------------------------------------------------
                    Distance matrix (angstroms):
                    1          2          3          4          5
     1  C    0.000000
     2  C    1.553990   0.000000
     3  C    2.547920   1.555228   0.000000
     4  C    2.574665   1.563711   2.593249   0.000000
     5  C    3.918454   2.559179   3.097903   1.491840   0.000000
     6  C    4.606764   3.222358   3.869431   2.524140   1.413494
     7  C    5.955862   4.502375   4.860605   3.818647   2.452057
     8  C    6.662395   5.168467   5.222995   4.352512   2.860859
     9  C    8.129502   6.615805   6.557889   5.850226   4.358656
    10  C    9.064128   7.619591   7.668667   6.608575   5.156153
    11  C    8.625151   7.081314   6.694474   6.529412   5.087436
    12  O    8.959871   7.409034   6.935493   7.091553   5.702787
    13  O    9.035296   7.534373   6.979589   6.930857   5.560183
    14  C    6.192103   4.767102   4.669780   3.821327   2.451397
    15  C    4.906823   3.580081   3.620197   2.529302   1.413270
    16  H    1.091835   2.190355   3.502192   2.804965   4.181364
    17  H    1.092249   2.192984   2.816657   2.845523   4.254364
    18  H    1.092570   2.186479   2.764629   3.522415   4.730207
    19  H    2.143597   1.094457   2.155139   2.172333   2.784791
    20  H    2.733424   2.190769   1.092073   3.537822   4.105421
    21  H    2.853856   2.192123   1.091873   2.824342   3.418552
    22  H    3.498883   2.192218   1.091438   2.870571   2.809886
    23  H    2.767595   2.188139   3.530735   1.094237   2.105459
    24  H    2.801690   2.174729   2.841299   1.094425   2.136381
    25  H    4.367978   3.151490   4.068097   2.718266   2.121882
    26  H    6.577278   5.167442   5.586768   4.619067   3.364707
    27  H    8.472477   6.965906   7.017339   6.294293   4.829999
    28  H   10.091560   8.623668   8.615895   7.667381   6.200908
    29  H    9.032469   7.628390   7.588536   6.543526   5.153090
    30  H    8.970542   7.595227   7.862593   6.472654   5.081930
    31  H    9.551707   8.063434   7.346906   7.591509   6.279262
    32  H    6.947516   5.566522   5.298182   4.622442   3.363123
    33  H    4.903973   3.762489   3.642327   2.730233   2.123888
                    6          7          8          9         10
     6  C    0.000000
     7  C    1.406776   0.000000
     8  C    2.458244   1.417211   0.000000
     9  C    3.833305   2.538811   1.497826   0.000000
    10  C    4.784434   3.602734   2.533314   1.553579   0.000000
    11  C    4.734299   3.556882   2.465856   1.487077   2.522437
    12  O    5.184482   4.010710   3.263259   2.382439   3.575746
    13  O    5.526500   4.520649   3.227542   2.485034   2.962885
    14  C    2.805012   2.426591   1.415187   2.535527   3.155113
    15  C    2.427331   2.804762   2.456199   3.830063   4.458966
    16  H    4.708264   6.107843   6.950013   8.423757   9.280946
    17  H    5.195230   6.516531   7.044064   8.521828   9.356630
    18  H    5.279570   6.574896   7.326658   8.749347   9.798558
    19  H    2.932625   4.178435   5.082485   6.464881   7.575130
    20  H    4.699131   5.661553   6.102595   7.373228   8.575910
    21  H    4.472288   5.428103   5.568826   6.899098   7.876224
    22  H    3.405223   4.147862   4.403609   5.645898   6.841996
    23  H    2.741974   4.090307   4.813300   6.286899   6.933432
    24  H    3.420868   4.583836   4.848830   6.321324   6.935656
    25  H    1.023430   2.102685   3.374043   4.639436   5.603406
    26  H    2.096985   1.023343   2.128208   2.740488   3.819059
    27  H    3.998854   2.594327   2.125533   1.096143   2.121536
    28  H    5.746888   4.477535   3.470703   2.185414   1.092104
    29  H    5.080554   4.085853   2.827779   2.198507   1.091181
    30  H    4.616352   3.523305   2.774535   2.187259   1.091933
    31  H    6.285154   5.322340   4.095734   3.374172   3.891379
    32  H    3.826939   3.360644   2.124577   2.734173   3.049244
    33  H    3.361032   3.827870   3.369782   4.632356   5.115659
                   11         12         13         14         15
    11  C    0.000000
    12  O    1.251985   0.000000
    13  O    1.355351   2.229930   0.000000
    14  C    3.080275   4.033759   3.277300   0.000000
    15  C    4.383401   5.196906   4.561381   1.405559   0.000000
    16  H    9.079774   9.445616   9.576933   6.588103   5.316813
    17  H    8.973562   9.403246   9.233104   6.367273   5.005534
    18  H    9.137555   9.342533   9.576801   6.930587   5.713526
    19  H    6.974793   7.167356   7.607645   4.984056   3.994750
    20  H    7.407932   7.497793   7.723405   5.651986   4.680598
    21  H    6.982826   7.348860   7.068187   4.753276   3.617351
    22  H    5.678778   5.865874   5.998477   3.951476   3.154586
    23  H    7.151221   7.731190   7.649458   4.455026   3.264890
    24  H    6.926891   7.596228   7.129079   4.020907   2.620657
    25  H    5.563762   5.878974   6.451106   3.828277   3.359669
    26  H    3.789122   4.023917   4.944238   3.361921   3.827795
    27  H    2.083982   2.468727   3.317273   3.426202   4.581631
    28  H    2.755913   3.619675   3.148084   4.162625   5.506306
    29  H    2.823596   4.030901   2.766519   2.928657   4.208646
    30  H    3.460160   4.430601   4.014000   3.466147   4.576870
    31  H    2.033084   2.440868   0.980217   4.085272   5.273179
    32  H    2.976304   4.066270   2.752155   1.022236   2.095219
    33  H    5.033714   5.891293   4.962955   2.098679   1.023355
                   16         17         18         19         20
    16  H    0.000000
    17  H    1.775773   0.000000
    18  H    1.766733   1.773832   0.000000
    19  H    2.480282   3.061751   2.469262   0.000000
    20  H    3.737189   3.083895   2.498938   2.513346   0.000000
    21  H    3.855207   2.688049   3.193673   3.068245   1.773029
    22  H    4.342375   3.842468   3.734907   2.468839   1.764289
    23  H    2.551760   3.131229   3.765511   2.514613   4.356079
    24  H    3.138446   2.632523   3.807679   3.065571   3.817898
    25  H    4.302271   5.116817   4.963988   2.587583   4.751452
    26  H    6.648729   7.242606   7.119164   4.659019   6.281824
    27  H    8.690251   8.982060   9.037858   6.646818   7.758193
    28  H   10.317322  10.407021  10.792126   8.530042   9.482609
    29  H    9.306870   9.199005   9.810345   7.738897   8.543120
    30  H    9.060143   9.290807   9.759935   7.516413   8.800903
    31  H   10.168322   9.729394  10.020537   8.146658   8.003697
    32  H    7.404261   7.008284   7.685565   5.879765   6.269667
    33  H    5.398523   4.778138   5.737915   4.413081   4.713738
                   21         22         23         24         25
    21  H    0.000000
    22  H    1.774289   0.000000
    23  H    3.818443   3.861860   0.000000
    24  H    2.636046   3.253069   1.751424   0.000000
    25  H    4.811923   3.763340   2.651283   3.758305   0.000000
    26  H    6.261394   4.863329   4.762762   5.472650   2.389874
    27  H    7.496724   6.102044   6.623445   6.907447   4.617744
    28  H    8.844405   7.737513   7.994343   8.012629   6.519420
    29  H    7.644152   6.806380   6.941939   6.699512   5.993099
    30  H    8.104607   7.126954   6.627077   6.839185   5.336626
    31  H    7.407208   6.343315   8.379109   7.761403   7.189079
    32  H    5.221680   4.572661   5.300605   4.637840   4.850280
    33  H    3.331342   3.354948   3.540032   2.397142   4.220547
                   26         27         28         29         30
    26  H    0.000000
    27  H    2.362475   0.000000
    28  H    4.525297   2.439065   0.000000
    29  H    4.523608   3.049353   1.770038   0.000000
    30  H    3.660298   2.455356   1.769338   1.771393   0.000000
    31  H    5.717107   4.092945   3.933217   3.681839   4.960316
    32  H    4.224912   3.780972   3.964909   2.511690   3.559705
    33  H    4.851003   5.476565   6.147339   4.673513   5.279561
                   31         32         33
    31  H    0.000000
    32  H    3.527297   0.000000
    33  H    5.591654   2.384188   0.000000
 Stoichiometry    C13H18O2
 Framework group  C1[X(C13H18O2)]
 Deg. of freedom    93
 Full point group                 C1      NOp   1
 Largest Abelian subgroup         C1      NOp   1
 Largest concise Abelian subgroup C1      NOp   1
                         Standard orientation:                         
 ---------------------------------------------------------------------
 Center     Atomic      Atomic             Coordinates (Angstroms)
 Number     Number       Type             X           Y           Z
 ---------------------------------------------------------------------
      1          6           0        5.298008    0.183806   -0.159973
      2          6           0        3.761819    0.331676   -0.342019
      3          6           0        3.321975    1.784765   -0.004675
      4          6           0        2.984237   -0.737837    0.492666
      5          6           0        1.508217   -0.710742    0.277686
      6          6           0        0.952627   -1.123118   -0.954885
      7          6           0       -0.436011   -1.067886   -1.173179
      8          6           0       -1.316906   -0.610188   -0.161732
      9          6           0       -2.795265   -0.546302   -0.393799
     10          6           0       -3.577935   -1.518651    0.531172
     11          6           0       -3.300426    0.848781   -0.294020
     12          8           0       -3.482302    1.536549   -1.324243
     13          8           0       -3.589158    1.421150    0.900134
     14          6           0       -0.756105   -0.216941    1.076659
     15          6           0        0.632147   -0.262097    1.291862
     16          1           0        5.623958   -0.816307   -0.452607
     17          1           0        5.582293    0.356111    0.880460
     18          1           0        5.823561    0.906697   -0.788409
     19          1           0        3.551256    0.160338   -1.402276
     20          1           0        3.914630    2.504886   -0.572839
     21          1           0        3.454394    1.988746    1.059770
     22          1           0        2.272715    1.938572   -0.262811
     23          1           0        3.345666   -1.737799    0.234211
     24          1           0        3.219184   -0.590355    1.551351
     25          1           0        1.559358   -1.463208   -1.705635
     26          1           0       -0.798397   -1.363865   -2.083291
     27          1           0       -3.012762   -0.885480   -1.413202
     28          1           0       -4.644362   -1.483147    0.298439
     29          1           0       -3.447086   -1.256203    1.582207
     30          1           0       -3.230537   -2.543436    0.384722
     31          1           0       -3.943714    2.334294    0.935965
     32          1           0       -1.356284    0.112300    1.835838
     33          1           0        0.999511    0.044664    2.196405
 ---------------------------------------------------------------------
 Rotational constants (GHZ):           1.3306292           0.2554329           0.2439019
 Leave Link  202 at Mon Feb 22 21:06:56 2021, MaxMem=   104857600 cpu:               0.7 elap:               0.1
 (Enter /sw/arch/RedHatEnterpriseServer7/EB_production/2019/software/Gaussian/g16.c01/l301.exe)
 Standard basis: TZVP (5D, 7F)
 Ernie: Thresh=  0.10000D-02 Tol=  0.10000D-05 Strict=F.
 There are   408 symmetry adapted cartesian basis functions of A   symmetry.
 There are   393 symmetry adapted basis functions of A   symmetry.
   393 basis functions,   669 primitive gaussians,   408 cartesian basis functions
    56 alpha electrons       56 beta electrons
       nuclear repulsion energy       964.7494707055 Hartrees.
 IExCor=  404 DFT=T Ex=B Corr=P86 ExCW=0 ScaHFX=  0.000000
 ScaDFX=  1.000000  1.000000  1.000000  1.000000 ScalE2=  1.000000  1.000000
 IRadAn=      5 IRanWt=     -1 IRanGd=            0 ICorTp=0 IEmpDi=131
 NAtoms=   33 NActive=   33 NUniq=   33 SFac= 1.00D+00 NAtFMM=   60 NAOKFM=F Big=F
 Integral buffers will be    131072 words long.
 Raffenetti 2 integral format.
 Two-electron integral symmetry is turned on.
 R6Disp:  Grimme-D3 Dispersion energy=       -0.0352467278 Hartrees.
 Nuclear repulsion after empirical dispersion term =      964.7142239777 Hartrees.
 ------------------------------------------------------------------------------
 Polarizable Continuum Model (PCM)
 =================================
 Model                : PCM.
 Atomic radii         : UFF (Universal Force Field).
 Polarization charges : Total charges.
 Charge compensation  : None.
 Solution method      : On-the-fly selection.
 Cavity type          : Scaled VdW (van der Waals Surface) (Alpha=1.100).
 Cavity algorithm     : GePol (No added spheres)
                        Default sphere list used, NSphG=   33.
                        Lebedev-Laikov grids with approx.  5.0 points / Ang**2.
                        Smoothing algorithm: York/Karplus (Gamma=1.0000).
                        Polarization charges: spherical gaussians, with
                                              point-specific exponents (IZeta= 3).
                        Self-potential: point-specific (ISelfS= 7).
                        Self-field    : sphere-specific E.n sum rule (ISelfD= 2).
 1st derivatives      : Analytical E(r).r(x)/FMM algorithm (CHGder, D1EAlg=3).
                        Cavity 1st derivative terms included.
 Solvent              : Water, Eps=  78.355300 Eps(inf)=   1.777849
 ------------------------------------------------------------------------------
 GePol: Number of generator spheres                  =      33
 GePol: Total number of spheres                      =      33
 GePol: Number of exposed spheres                    =      33 (100.00%)
 GePol: Number of points                             =    2371
 GePol: Average weight of points                     =       0.13
 GePol: Minimum weight of points                     =   0.15D-09
 GePol: Maximum weight of points                     =    0.20577
 GePol: Number of points with low weight             =     142
 GePol: Fraction of low-weight points (<1% of avg)   =       5.99%
 GePol: Cavity surface area                          =    313.208 Ang**2
 GePol: Cavity volume                                =    327.274 Ang**3
 Leave Link  301 at Mon Feb 22 21:06:57 2021, MaxMem=   104857600 cpu:               1.7 elap:               0.1
 (Enter /sw/arch/RedHatEnterpriseServer7/EB_production/2019/software/Gaussian/g16.c01/l302.exe)
 NPDir=0 NMtPBC=     1 NCelOv=     1 NCel=       1 NClECP=     1 NCelD=      1
         NCelK=      1 NCelE2=     1 NClLst=     1 CellRange=     0.0.
 One-electron integrals computed using PRISM.
 One-electron integral symmetry used in STVInt
 PrsmSu:  requested number of processors reduced to:  26 ShMem   1 Linda.
 NBasis=   393 RedAO= T EigKep=  7.68D-06  NBF=   393
 NBsUse=   393 1.00D-06 EigRej= -1.00D+00 NBFU=   393
 Precomputing XC quadrature grid using
 IXCGrd= 4 IRadAn=           5 IRanWt=          -1 IRanGd=           0 AccXCQ= 0.00D+00.
 Generated NRdTot=       0 NPtTot=           0 NUsed=           0 NTot=          32
 NSgBfM=   398   398   398   398   398 MxSgAt=    33 MxSgA2=    33.
 Leave Link  302 at Mon Feb 22 21:06:57 2021, MaxMem=   104857600 cpu:              11.7 elap:               0.4
 (Enter /sw/arch/RedHatEnterpriseServer7/EB_production/2019/software/Gaussian/g16.c01/l303.exe)
 DipDrv:  MaxL=1.
 Leave Link  303 at Mon Feb 22 21:06:57 2021, MaxMem=   104857600 cpu:               2.7 elap:               0.1
 (Enter /sw/arch/RedHatEnterpriseServer7/EB_production/2019/software/Gaussian/g16.c01/l401.exe)
 ExpMin= 9.52D-02 ExpMax= 2.70D+04 ExpMxC= 9.22D+02 IAcc=3 IRadAn=         5 AccDes= 0.00D+00
 Harris functional with IExCor=  404 and IRadAn=       5 diagonalized for initial guess.
 HarFok:  IExCor=  404 AccDes= 0.00D+00 IRadAn=         5 IDoV= 1 UseB2=F ITyADJ=14
 ICtDFT=  3500011 ScaDFX=  1.000000  1.000000  1.000000  1.000000
 FoFCou: FMM=F IPFlag=           0 FMFlag=      100000 FMFlg1=           0
         NFxFlg=           0 DoJE=T BraDBF=F KetDBF=T FulRan=T
         wScrn=  0.000000 ICntrl=       500 IOpCl=  0 I1Cent=   200000004 NGrid=           0
         NMat0=    1 NMatS0=      1 NMatT0=    0 NMatD0=    1 NMtDS0=    0 NMtDT0=    0
 Petite list used in FoFCou.
 Harris En= -657.275941849104    
 JPrj=0 DoOrth=F DoCkMO=F.
 Leave Link  401 at Mon Feb 22 21:06:58 2021, MaxMem=   104857600 cpu:              24.6 elap:               0.8
 (Enter /sw/arch/RedHatEnterpriseServer7/EB_production/2019/software/Gaussian/g16.c01/l502.exe)
 Integral symmetry usage will be decided dynamically.
 Closed shell SCF:
 Using DIIS extrapolation, IDIIS=  1040.
 NGot=   104857600 LenX=   104506620 LenY=   104339715
 Requested convergence on RMS density matrix=1.00D-08 within 128 cycles.
 Requested convergence on MAX density matrix=1.00D-06.
 Requested convergence on             energy=1.00D-06.
 No special actions if energy rises.
 Fock matrices will be formed incrementally for  20 cycles.

 Cycle   1  Pass 1  IDiag  1:
 FoFJK:  IHMeth= 1 ICntrl=     500 DoSepK=F KAlg= 0 I1Cent=           0 FoldK=F
 IRaf= 820000000 NMat=       1 IRICut=       1 DoRegI=T DoRafI=F ISym2E= 0 IDoP0=0 IntGTp=1.
 FoFCou: FMM=F IPFlag=           0 FMFlag=      100000 FMFlg1=           0
         NFxFlg=           0 DoJE=T BraDBF=F KetDBF=F FulRan=T
         wScrn=  0.000000 ICntrl=       500 IOpCl=  0 I1Cent=           0 NGrid=           0
         NMat0=    1 NMatS0=      1 NMatT0=    0 NMatD0=    1 NMtDS0=    0 NMtDT0=    0
 Symmetry not used in FoFCou.
 Inv3:  Mode=1 IEnd=    16864923.
 Iteration    1 A*A^-1 deviation from unit magnitude is 3.11D-15 for   2073.
 Iteration    1 A*A^-1 deviation from orthogonality  is 1.55D-15 for   2368   1175.
 Iteration    1 A^-1*A deviation from unit magnitude is 3.33D-15 for   2073.
 Iteration    1 A^-1*A deviation from orthogonality  is 1.71D-15 for   1701    543.
 E= -656.488635724615    
 DIIS: error= 3.97D-02 at cycle   1 NSaved=   1.
 NSaved= 1 IEnMin= 1 EnMin= -656.488635724615     IErMin= 1 ErrMin= 3.97D-02
 ErrMax= 3.97D-02  0.00D+00 EMaxC= 1.00D-01 BMatC= 4.60D-01 BMatP= 4.60D-01
 IDIUse=3 WtCom= 6.03D-01 WtEn= 3.97D-01
 Coeff-Com:  0.100D+01
 Coeff-En:   0.100D+01
 Coeff:      0.100D+01
 Gap=     0.167 Goal=   None    Shift=    0.000
 GapD=    0.167 DampG=1.000 DampE=0.500 DampFc=0.5000 IDamp=-1.
 Damping current iteration by 5.00D-01
 RMSDP=6.43D-03 MaxDP=5.35D-01              OVMax= 2.70D-01

 Cycle   2  Pass 1  IDiag  1:
 RMSU=  3.21D-03    CP:  9.95D-01
 E= -656.576005914207     Delta-E=       -0.087370189592 Rises=F Damp=T
 DIIS: error= 2.38D-02 at cycle   2 NSaved=   2.
 NSaved= 2 IEnMin= 2 EnMin= -656.576005914207     IErMin= 2 ErrMin= 2.38D-02
 ErrMax= 2.38D-02  0.00D+00 EMaxC= 1.00D-01 BMatC= 9.65D-02 BMatP= 4.60D-01
 IDIUse=3 WtCom= 7.62D-01 WtEn= 2.38D-01
 Coeff-Com:  0.272D+00 0.728D+00
 Coeff-En:   0.405D+00 0.595D+00
 Coeff:      0.304D+00 0.696D+00
 Gap=     0.164 Goal=   None    Shift=    0.000
 RMSDP=2.18D-03 MaxDP=1.97D-01 DE=-8.74D-02 OVMax= 2.50D-01

 Cycle   3  Pass 1  IDiag  1:
 RMSU=  1.56D-03    CP:  9.76D-01  5.30D-01
 E= -656.837527818343     Delta-E=       -0.261521904136 Rises=F Damp=F
 DIIS: error= 3.47D-02 at cycle   3 NSaved=   3.
 NSaved= 3 IEnMin= 3 EnMin= -656.837527818343     IErMin= 2 ErrMin= 2.38D-02
 ErrMax= 3.47D-02  0.00D+00 EMaxC= 1.00D-01 BMatC= 1.15D-01 BMatP= 9.65D-02
 IDIUse=2 WtCom= 0.00D+00 WtEn= 1.00D+00
 Coeff-En:   0.000D+00 0.000D+00 0.100D+01
 Coeff:      0.000D+00 0.000D+00 0.100D+01
 Gap=     0.153 Goal=   None    Shift=    0.000
 RMSDP=4.74D-03 MaxDP=5.09D-01 DE=-2.62D-01 OVMax= 5.05D-01

 Cycle   4  Pass 1  IDiag  1:
 RMSU=  2.85D-03    CP:  1.00D+00  1.22D+00 -9.62D-01
 E= -655.958239832441     Delta-E=        0.879287985902 Rises=F Damp=F
 DIIS: error= 8.47D-02 at cycle   4 NSaved=   4.
 NSaved= 4 IEnMin= 3 EnMin= -656.837527818343     IErMin= 2 ErrMin= 2.38D-02
 ErrMax= 8.47D-02  0.00D+00 EMaxC= 1.00D-01 BMatC= 1.16D+00 BMatP= 9.65D-02
 IDIUse=2 WtCom= 0.00D+00 WtEn= 1.00D+00
 Coeff-En:   0.000D+00 0.000D+00 0.851D+00 0.149D+00
 Coeff:      0.000D+00 0.000D+00 0.851D+00 0.149D+00
 Gap=     0.126 Goal=   None    Shift=    0.000
 RMSDP=3.16D-03 MaxDP=3.85D-01 DE= 8.79D-01 OVMax= 2.91D-01

 Cycle   5  Pass 1  IDiag  1:
 RMSU=  7.15D-04    CP:  9.90D-01  6.52D-01  6.66D-02  3.38D-01
 E= -656.831523339444     Delta-E=       -0.873283507003 Rises=F Damp=F
 DIIS: error= 3.44D-02 at cycle   5 NSaved=   5.
 NSaved= 5 IEnMin= 3 EnMin= -656.837527818343     IErMin= 2 ErrMin= 2.38D-02
 ErrMax= 3.44D-02  0.00D+00 EMaxC= 1.00D-01 BMatC= 1.27D-01 BMatP= 9.65D-02
 IDIUse=2 WtCom= 0.00D+00 WtEn= 1.00D+00
 Coeff-En:   0.000D+00 0.000D+00 0.511D+00 0.000D+00 0.489D+00
 Coeff:      0.000D+00 0.000D+00 0.511D+00 0.000D+00 0.489D+00
 Gap=     0.170 Goal=   None    Shift=    0.000
 RMSDP=1.05D-03 MaxDP=9.08D-02 DE=-8.73D-01 OVMax= 9.83D-02

 Cycle   6  Pass 1  IDiag  1:
 RMSU=  1.63D-04    CP:  9.83D-01  5.30D-01  5.20D-01  1.29D-01  6.39D-01
 E= -656.931460846590     Delta-E=       -0.099937507146 Rises=F Damp=F
 DIIS: error= 1.90D-03 at cycle   6 NSaved=   6.
 NSaved= 6 IEnMin= 6 EnMin= -656.931460846590     IErMin= 6 ErrMin= 1.90D-03
 ErrMax= 1.90D-03  0.00D+00 EMaxC= 1.00D-01 BMatC= 7.34D-04 BMatP= 9.65D-02
 IDIUse=3 WtCom= 9.81D-01 WtEn= 1.90D-02
 Coeff-Com: -0.647D-02 0.142D-01 0.200D+00-0.304D-01 0.290D+00 0.533D+00
 Coeff-En:   0.000D+00 0.000D+00 0.000D+00 0.000D+00 0.000D+00 0.100D+01
 Coeff:     -0.635D-02 0.139D-01 0.196D+00-0.298D-01 0.284D+00 0.542D+00
 Gap=     0.152 Goal=   None    Shift=    0.000
 RMSDP=1.48D-04 MaxDP=1.12D-02 DE=-9.99D-02 OVMax= 9.79D-03

 Cycle   7  Pass 1  IDiag  1:
 RMSU=  9.28D-05    CP:  9.82D-01  5.53D-01  5.02D-01  1.53D-01  6.71D-01
                    CP:  7.75D-01
 E= -656.931874263175     Delta-E=       -0.000413416585 Rises=F Damp=F
 DIIS: error= 1.37D-03 at cycle   7 NSaved=   7.
 NSaved= 7 IEnMin= 7 EnMin= -656.931874263175     IErMin= 7 ErrMin= 1.37D-03
 ErrMax= 1.37D-03  0.00D+00 EMaxC= 1.00D-01 BMatC= 3.36D-04 BMatP= 7.34D-04
 IDIUse=3 WtCom= 9.86D-01 WtEn= 1.37D-02
 Coeff-Com: -0.542D-02 0.582D-02 0.510D-01-0.985D-02 0.741D-01 0.401D+00
 Coeff-Com:  0.483D+00
 Coeff-En:   0.000D+00 0.000D+00 0.000D+00 0.000D+00 0.000D+00 0.315D+00
 Coeff-En:   0.685D+00
 Coeff:     -0.535D-02 0.574D-02 0.503D-01-0.972D-02 0.731D-01 0.400D+00
 Coeff:      0.486D+00
 Gap=     0.152 Goal=   None    Shift=    0.000
 RMSDP=5.15D-05 MaxDP=2.25D-03 DE=-4.13D-04 OVMax= 3.39D-03

 Cycle   8  Pass 1  IDiag  1:
 RMSU=  2.38D-05    CP:  9.82D-01  5.53D-01  5.12D-01  1.47D-01  6.62D-01
                    CP:  7.86D-01  5.88D-01
 E= -656.932116297216     Delta-E=       -0.000242034040 Rises=F Damp=F
 DIIS: error= 2.08D-04 at cycle   8 NSaved=   8.
 NSaved= 8 IEnMin= 8 EnMin= -656.932116297216     IErMin= 8 ErrMin= 2.08D-04
 ErrMax= 2.08D-04  0.00D+00 EMaxC= 1.00D-01 BMatC= 2.02D-05 BMatP= 3.36D-04
 IDIUse=3 WtCom= 9.98D-01 WtEn= 2.08D-03
 Coeff-Com: -0.195D-02 0.667D-03 0.920D-02-0.539D-03 0.469D-02 0.189D+00
 Coeff-Com:  0.259D+00 0.540D+00
 Coeff-En:   0.000D+00 0.000D+00 0.000D+00 0.000D+00 0.000D+00 0.000D+00
 Coeff-En:   0.000D+00 0.100D+01
 Coeff:     -0.195D-02 0.666D-03 0.918D-02-0.538D-03 0.468D-02 0.188D+00
 Coeff:      0.258D+00 0.541D+00
 Gap=     0.152 Goal=   None    Shift=    0.000
 RMSDP=1.69D-05 MaxDP=1.07D-03 DE=-2.42D-04 OVMax= 1.54D-03

 Cycle   9  Pass 1  IDiag  1:
 RMSU=  7.96D-06    CP:  9.82D-01  5.50D-01  5.14D-01  1.45D-01  6.61D-01
                    CP:  8.23D-01  5.72D-01  6.29D-01
 E= -656.932132178562     Delta-E=       -0.000015881346 Rises=F Damp=F
 DIIS: error= 8.71D-05 at cycle   9 NSaved=   9.
 NSaved= 9 IEnMin= 9 EnMin= -656.932132178562     IErMin= 9 ErrMin= 8.71D-05
 ErrMax= 8.71D-05  0.00D+00 EMaxC= 1.00D-01 BMatC= 1.60D-06 BMatP= 2.02D-05
 IDIUse=1 WtCom= 1.00D+00 WtEn= 0.00D+00
 Coeff-Com: -0.626D-03 0.253D-03 0.286D-02 0.188D-03-0.197D-02 0.860D-01
 Coeff-Com:  0.124D+00 0.338D+00 0.451D+00
 Coeff:     -0.626D-03 0.253D-03 0.286D-02 0.188D-03-0.197D-02 0.860D-01
 Coeff:      0.124D+00 0.338D+00 0.451D+00
 Gap=     0.152 Goal=   None    Shift=    0.000
 RMSDP=4.82D-06 MaxDP=2.22D-04 DE=-1.59D-05 OVMax= 7.10D-04

 Cycle  10  Pass 1  IDiag  1:
 RMSU=  2.87D-06    CP:  9.82D-01  5.50D-01  5.14D-01  1.45D-01  6.61D-01
                    CP:  8.28D-01  5.78D-01  6.24D-01  5.69D-01
 E= -656.932133412238     Delta-E=       -0.000001233677 Rises=F Damp=F
 DIIS: error= 2.65D-05 at cycle  10 NSaved=  10.
 NSaved=10 IEnMin=10 EnMin= -656.932133412238     IErMin=10 ErrMin= 2.65D-05
 ErrMax= 2.65D-05  0.00D+00 EMaxC= 1.00D-01 BMatC= 2.13D-07 BMatP= 1.60D-06
 IDIUse=1 WtCom= 1.00D+00 WtEn= 0.00D+00
 Coeff-Com: -0.168D-03 0.646D-04 0.104D-02 0.756D-04-0.141D-02 0.343D-01
 Coeff-Com:  0.514D-01 0.156D+00 0.306D+00 0.453D+00
 Coeff:     -0.168D-03 0.646D-04 0.104D-02 0.756D-04-0.141D-02 0.343D-01
 Coeff:      0.514D-01 0.156D+00 0.306D+00 0.453D+00
 Gap=     0.152 Goal=   None    Shift=    0.000
 RMSDP=1.94D-06 MaxDP=7.43D-05 DE=-1.23D-06 OVMax= 2.38D-04

 Cycle  11  Pass 1  IDiag  1:
 RMSU=  8.83D-07    CP:  9.82D-01  5.50D-01  5.14D-01  1.45D-01  6.60D-01
                    CP:  8.26D-01  5.82D-01  6.35D-01  5.86D-01  4.66D-01
 E= -656.932133624597     Delta-E=       -0.000000212359 Rises=F Damp=F
 DIIS: error= 8.30D-06 at cycle  11 NSaved=  11.
 NSaved=11 IEnMin=11 EnMin= -656.932133624597     IErMin=11 ErrMin= 8.30D-06
 ErrMax= 8.30D-06  0.00D+00 EMaxC= 1.00D-01 BMatC= 1.35D-08 BMatP= 2.13D-07
 IDIUse=1 WtCom= 1.00D+00 WtEn= 0.00D+00
 Coeff-Com: -0.171D-04 0.163D-04 0.361D-03 0.182D-04-0.612D-03 0.110D-01
 Coeff-Com:  0.174D-01 0.566D-01 0.132D+00 0.267D+00 0.517D+00
 Coeff:     -0.171D-04 0.163D-04 0.361D-03 0.182D-04-0.612D-03 0.110D-01
 Coeff:      0.174D-01 0.566D-01 0.132D+00 0.267D+00 0.517D+00
 Gap=     0.152 Goal=   None    Shift=    0.000
 RMSDP=4.21D-07 MaxDP=1.19D-05 DE=-2.12D-07 OVMax= 6.68D-05

 Cycle  12  Pass 1  IDiag  1:
 RMSU=  2.78D-07    CP:  9.82D-01  5.50D-01  5.14D-01  1.45D-01  6.60D-01
                    CP:  8.26D-01  5.82D-01  6.39D-01  5.91D-01  5.17D-01
                    CP:  7.25D-01
 E= -656.932133644804     Delta-E=       -0.000000020207 Rises=F Damp=F
 DIIS: error= 2.76D-06 at cycle  12 NSaved=  12.
 NSaved=12 IEnMin=12 EnMin= -656.932133644804     IErMin=12 ErrMin= 2.76D-06
 ErrMax= 2.76D-06  0.00D+00 EMaxC= 1.00D-01 BMatC= 1.51D-09 BMatP= 1.35D-08
 IDIUse=1 WtCom= 1.00D+00 WtEn= 0.00D+00
 Coeff-Com:  0.654D-05-0.168D-04 0.750D-04 0.173D-04-0.249D-03 0.265D-02
 Coeff-Com:  0.441D-02 0.150D-01 0.424D-01 0.107D+00 0.309D+00 0.521D+00
 Coeff:      0.654D-05-0.168D-04 0.750D-04 0.173D-04-0.249D-03 0.265D-02
 Coeff:      0.441D-02 0.150D-01 0.424D-01 0.107D+00 0.309D+00 0.521D+00
 Gap=     0.152 Goal=   None    Shift=    0.000
 RMSDP=1.40D-07 MaxDP=5.02D-06 DE=-2.02D-08 OVMax= 2.26D-05

 Cycle  13  Pass 1  IDiag  1:
 RMSU=  7.79D-08    CP:  9.82D-01  5.50D-01  5.14D-01  1.45D-01  6.60D-01
                    CP:  8.26D-01  5.82D-01  6.39D-01  5.97D-01  5.23D-01
                    CP:  7.22D-01  6.84D-01
 E= -656.932133646223     Delta-E=       -0.000000001419 Rises=F Damp=F
 DIIS: error= 6.65D-07 at cycle  13 NSaved=  13.
 NSaved=13 IEnMin=13 EnMin= -656.932133646223     IErMin=13 ErrMin= 6.65D-07
 ErrMax= 6.65D-07  0.00D+00 EMaxC= 1.00D-01 BMatC= 1.40D-10 BMatP= 1.51D-09
 IDIUse=1 WtCom= 1.00D+00 WtEn= 0.00D+00
 Coeff-Com:  0.463D-05-0.121D-04 0.998D-05 0.871D-05-0.892D-04 0.584D-03
 Coeff-Com:  0.105D-02 0.375D-02 0.133D-01 0.389D-01 0.136D+00 0.304D+00
 Coeff-Com:  0.502D+00
 Coeff:      0.463D-05-0.121D-04 0.998D-05 0.871D-05-0.892D-04 0.584D-03
 Coeff:      0.105D-02 0.375D-02 0.133D-01 0.389D-01 0.136D+00 0.304D+00
 Coeff:      0.502D+00
 Gap=     0.152 Goal=   None    Shift=    0.000
 RMSDP=3.60D-08 MaxDP=1.57D-06 DE=-1.42D-09 OVMax= 5.48D-06

 Cycle  14  Pass 1  IDiag  1:
 RMSU=  2.69D-08    CP:  9.82D-01  5.50D-01  5.14D-01  1.45D-01  6.60D-01
                    CP:  8.26D-01  5.82D-01  6.39D-01  5.97D-01  5.26D-01
                    CP:  7.27D-01  6.75D-01  7.68D-01
 E= -656.932133646344     Delta-E=       -0.000000000120 Rises=F Damp=F
 DIIS: error= 2.15D-07 at cycle  14 NSaved=  14.
 NSaved=14 IEnMin=14 EnMin= -656.932133646344     IErMin=14 ErrMin= 2.15D-07
 ErrMax= 2.15D-07  0.00D+00 EMaxC= 1.00D-01 BMatC= 1.64D-11 BMatP= 1.40D-10
 IDIUse=1 WtCom= 1.00D+00 WtEn= 0.00D+00
 Coeff-Com:  0.173D-05-0.256D-05-0.347D-06 0.821D-06-0.119D-04 0.103D-04
 Coeff-Com:  0.829D-04 0.383D-03 0.274D-02 0.942D-02 0.409D-01 0.110D+00
 Coeff-Com:  0.282D+00 0.555D+00
 Coeff:      0.173D-05-0.256D-05-0.347D-06 0.821D-06-0.119D-04 0.103D-04
 Coeff:      0.829D-04 0.383D-03 0.274D-02 0.942D-02 0.409D-01 0.110D+00
 Coeff:      0.282D+00 0.555D+00
 Gap=     0.152 Goal=   None    Shift=    0.000
 RMSDP=1.76D-08 MaxDP=6.09D-07 DE=-1.20D-10 OVMax= 1.60D-06

 Cycle  15  Pass 1  IDiag  1:
 RMSU=  8.87D-09    CP:  9.82D-01  5.50D-01  5.14D-01  1.45D-01  6.60D-01
                    CP:  8.26D-01  5.82D-01  6.39D-01  5.97D-01  5.25D-01
                    CP:  7.33D-01  6.91D-01  7.51D-01  5.94D-01
 E= -656.932133646369     Delta-E=       -0.000000000025 Rises=F Damp=F
 DIIS: error= 6.81D-08 at cycle  15 NSaved=  15.
 NSaved=15 IEnMin=15 EnMin= -656.932133646369     IErMin=15 ErrMin= 6.81D-08
 ErrMax= 6.81D-08  0.00D+00 EMaxC= 1.00D-01 BMatC= 1.33D-12 BMatP= 1.64D-11
 IDIUse=1 WtCom= 1.00D+00 WtEn= 0.00D+00
 Coeff-Com:  0.669D-06-0.751D-06-0.100D-05 0.820D-07-0.245D-05-0.238D-04
 Coeff-Com: -0.739D-05 0.328D-04 0.973D-03 0.363D-02 0.175D-01 0.501D-01
 Coeff-Com:  0.144D+00 0.339D+00 0.445D+00
 Coeff:      0.669D-06-0.751D-06-0.100D-05 0.820D-07-0.245D-05-0.238D-04
 Coeff:     -0.739D-05 0.328D-04 0.973D-03 0.363D-02 0.175D-01 0.501D-01
 Coeff:      0.144D+00 0.339D+00 0.445D+00
 Gap=     0.152 Goal=   None    Shift=    0.000
 RMSDP=4.20D-09 MaxDP=1.49D-07 DE=-2.50D-11 OVMax= 6.55D-07

 Error on total polarization charges =  0.01661
 SCF Done:  E(RB-P86) =  -656.932133646     A.U. after   15 cycles
            NFock= 15  Conv=0.42D-08     -V/T= 2.0044
 KE= 6.540816679557D+02 PE=-3.458996046274D+03 EE= 1.183268020694D+03
 Leave Link  502 at Mon Feb 22 21:07:38 2021, MaxMem=   104857600 cpu:            1240.8 elap:              39.5
 (Enter /sw/arch/RedHatEnterpriseServer7/EB_production/2019/software/Gaussian/g16.c01/l601.exe)
 Copying SCF densities to generalized density rwf, IOpCl= 0 IROHF=0.

 **********************************************************************

            Population analysis using the SCF Density.

 **********************************************************************

 Orbital symmetries:
       Occupied  (A) (A) (A) (A) (A) (A) (A) (A) (A) (A) (A) (A)
                 (A) (A) (A) (A) (A) (A) (A) (A) (A) (A) (A) (A)
                 (A) (A) (A) (A) (A) (A) (A) (A) (A) (A) (A) (A)
                 (A) (A) (A) (A) (A) (A) (A) (A) (A) (A) (A) (A)
                 (A) (A) (A) (A) (A) (A) (A) (A)
       Virtual   (A) (A) (A) (A) (A) (A) (A) (A) (A) (A) (A) (A)
                 (A) (A) (A) (A) (A) (A) (A) (A) (A) (A) (A) (A)
                 (A) (A) (A) (A) (A) (A) (A) (A) (A) (A) (A) (A)
                 (A) (A) (A) (A) (A) (A) (A) (A) (A) (A) (A) (A)
                 (A) (A) (A) (A) (A) (A) (A) (A) (A) (A) (A) (A)
                 (A) (A) (A) (A) (A) (A) (A) (A) (A) (A) (A) (A)
                 (A) (A) (A) (A) (A) (A) (A) (A) (A) (A) (A) (A)
                 (A) (A) (A) (A) (A) (A) (A) (A) (A) (A) (A) (A)
                 (A) (A) (A) (A) (A) (A) (A) (A) (A) (A) (A) (A)
                 (A) (A) (A) (A) (A) (A) (A) (A) (A) (A) (A) (A)
                 (A) (A) (A) (A) (A) (A) (A) (A) (A) (A) (A) (A)
                 (A) (A) (A) (A) (A) (A) (A) (A) (A) (A) (A) (A)
                 (A) (A) (A) (A) (A) (A) (A) (A) (A) (A) (A) (A)
                 (A) (A) (A) (A) (A) (A) (A) (A) (A) (A) (A) (A)
                 (A) (A) (A) (A) (A) (A) (A) (A) (A) (A) (A) (A)
                 (A) (A) (A) (A) (A) (A) (A) (A) (A) (A) (A) (A)
                 (A) (A) (A) (A) (A) (A) (A) (A) (A) (A) (A) (A)
                 (A) (A) (A) (A) (A) (A) (A) (A) (A) (A) (A) (A)
                 (A) (A) (A) (A) (A) (A) (A) (A) (A) (A) (A) (A)
                 (A) (A) (A) (A) (A) (A) (A) (A) (A) (A) (A) (A)
                 (A) (A) (A) (A) (A) (A) (A) (A) (A) (A) (A) (A)
                 (A) (A) (A) (A) (A) (A) (A) (A) (A) (A) (A) (A)
                 (A) (A) (A) (A) (A) (A) (A) (A) (A) (A) (A) (A)
                 (A) (A) (A) (A) (A) (A) (A) (A) (A) (A) (A) (A)
                 (A) (A) (A) (A) (A) (A) (A) (A) (A) (A) (A) (A)
                 (A) (A) (A) (A) (A) (A) (A) (A) (A) (A) (A) (A)
                 (A) (A) (A) (A) (A) (A) (A) (A) (A) (A) (A) (A)
                 (A) (A) (A) (A) (A) (A) (A) (A) (A) (A) (A) (A)
                 (A)
 The electronic state is 1-A.
 Alpha  occ. eigenvalues --  -18.82342 -18.76072 -10.03859  -9.93279  -9.92119
 Alpha  occ. eigenvalues --   -9.91256  -9.90634  -9.90245  -9.90048  -9.89853
 Alpha  occ. eigenvalues --   -9.89845  -9.89817  -9.89640  -9.88259  -9.88148
 Alpha  occ. eigenvalues --   -1.01892  -0.92394  -0.79439  -0.75524  -0.72626
 Alpha  occ. eigenvalues --   -0.68677  -0.68018  -0.62332  -0.61705  -0.61438
 Alpha  occ. eigenvalues --   -0.57629  -0.56113  -0.53546  -0.50687  -0.47612
 Alpha  occ. eigenvalues --   -0.44762  -0.43570  -0.43069  -0.41806  -0.41032
 Alpha  occ. eigenvalues --   -0.40232  -0.39182  -0.38896  -0.38475  -0.36537
 Alpha  occ. eigenvalues --   -0.36343  -0.35013  -0.34327  -0.34233  -0.32903
 Alpha  occ. eigenvalues --   -0.32652  -0.32380  -0.31046  -0.30518  -0.29550
 Alpha  occ. eigenvalues --   -0.28786  -0.28533  -0.28175  -0.23933  -0.23642
 Alpha  occ. eigenvalues --   -0.21827
 Alpha virt. eigenvalues --   -0.06620  -0.05447  -0.03904   0.00950   0.02406
 Alpha virt. eigenvalues --    0.04440   0.05237   0.05650   0.06084   0.06463
 Alpha virt. eigenvalues --    0.06834   0.08075   0.08387   0.08663   0.08949
 Alpha virt. eigenvalues --    0.09667   0.10496   0.10832   0.11006   0.12739
 Alpha virt. eigenvalues --    0.12802   0.13194   0.13721   0.13981   0.14571
 Alpha virt. eigenvalues --    0.14972   0.15237   0.15573   0.16494   0.17583
 Alpha virt. eigenvalues --    0.18375   0.18984   0.19745   0.20432   0.20584
 Alpha virt. eigenvalues --    0.20979   0.22157   0.22786   0.23166   0.23732
 Alpha virt. eigenvalues --    0.24451   0.24974   0.25822   0.25920   0.26933
 Alpha virt. eigenvalues --    0.27681   0.28643   0.28996   0.29179   0.29717
 Alpha virt. eigenvalues --    0.30397   0.31610   0.32087   0.32992   0.33478
 Alpha virt. eigenvalues --    0.34147   0.34874   0.35280   0.36063   0.36245
 Alpha virt. eigenvalues --    0.37395   0.38133   0.38345   0.39212   0.39378
 Alpha virt. eigenvalues --    0.40095   0.40372   0.40695   0.41472   0.41624
 Alpha virt. eigenvalues --    0.42358   0.42782   0.43255   0.43482   0.43877
 Alpha virt. eigenvalues --    0.44135   0.44567   0.44975   0.45495   0.45882
 Alpha virt. eigenvalues --    0.46440   0.46555   0.47496   0.47837   0.48767
 Alpha virt. eigenvalues --    0.49375   0.50045   0.50925   0.51754   0.52238
 Alpha virt. eigenvalues --    0.53477   0.54126   0.55373   0.55899   0.56615
 Alpha virt. eigenvalues --    0.57237   0.59296   0.60209   0.60931   0.61942
 Alpha virt. eigenvalues --    0.63095   0.64068   0.65137   0.65768   0.67163
 Alpha virt. eigenvalues --    0.69121   0.70015   0.72086   0.74565   0.75729
 Alpha virt. eigenvalues --    0.75987   0.80525   0.82956   0.88318   0.92179
 Alpha virt. eigenvalues --    1.03646   1.09858   1.11443   1.14863   1.17431
 Alpha virt. eigenvalues --    1.18093   1.18485   1.19448   1.19659   1.20222
 Alpha virt. eigenvalues --    1.20810   1.21418   1.22023   1.23046   1.23354
 Alpha virt. eigenvalues --    1.23754   1.24731   1.25404   1.26022   1.27230
 Alpha virt. eigenvalues --    1.27403   1.28681   1.29330   1.30388   1.30664
 Alpha virt. eigenvalues --    1.32344   1.32887   1.33214   1.33614   1.35333
 Alpha virt. eigenvalues --    1.36112   1.36521   1.37169   1.37777   1.39138
 Alpha virt. eigenvalues --    1.39310   1.40125   1.40859   1.41307   1.42598
 Alpha virt. eigenvalues --    1.42737   1.42983   1.44163   1.45695   1.46022
 Alpha virt. eigenvalues --    1.46669   1.47121   1.47785   1.48366   1.49000
 Alpha virt. eigenvalues --    1.50147   1.50881   1.51837   1.52853   1.53726
 Alpha virt. eigenvalues --    1.54819   1.55449   1.56841   1.57871   1.58171
 Alpha virt. eigenvalues --    1.59812   1.60690   1.61744   1.62485   1.64631
 Alpha virt. eigenvalues --    1.65654   1.66912   1.67804   1.69078   1.70967
 Alpha virt. eigenvalues --    1.71498   1.72668   1.73335   1.73883   1.74277
 Alpha virt. eigenvalues --    1.75097   1.76106   1.76669   1.77468   1.77554
 Alpha virt. eigenvalues --    1.79170   1.79634   1.81376   1.81575   1.83430
 Alpha virt. eigenvalues --    1.83470   1.84104   1.85147   1.85646   1.86898
 Alpha virt. eigenvalues --    1.87762   1.90153   1.91403   1.91897   1.92338
 Alpha virt. eigenvalues --    1.93943   1.94416   1.97710   1.98420   1.99377
 Alpha virt. eigenvalues --    2.02165   2.03371   2.04772   2.05508   2.07985
 Alpha virt. eigenvalues --    2.11433   2.13641   2.13916   2.15118   2.16586
 Alpha virt. eigenvalues --    2.16823   2.19051   2.22194   2.22630   2.23187
 Alpha virt. eigenvalues --    2.23580   2.23928   2.24916   2.25645   2.26619
 Alpha virt. eigenvalues --    2.27691   2.28004   2.29278   2.29491   2.32428
 Alpha virt. eigenvalues --    2.33889   2.35431   2.37193   2.37250   2.40332
 Alpha virt. eigenvalues --    2.42635   2.43478   2.45516   2.47470   2.47830
 Alpha virt. eigenvalues --    2.50204   2.51431   2.51820   2.52873   2.53686
 Alpha virt. eigenvalues --    2.54224   2.54882   2.55431   2.55663   2.56998
 Alpha virt. eigenvalues --    2.57644   2.58097   2.58820   2.59332   2.59677
 Alpha virt. eigenvalues --    2.60707   2.61226   2.61467   2.62264   2.62825
 Alpha virt. eigenvalues --    2.63894   2.64285   2.64628   2.65609   2.67588
 Alpha virt. eigenvalues --    2.70761   2.71562   2.73627   2.76926   2.78030
 Alpha virt. eigenvalues --    2.79813   2.80477   2.83484   2.86628   2.89430
 Alpha virt. eigenvalues --    2.92345   2.93928   2.97289   3.01099   3.01820
 Alpha virt. eigenvalues --    3.03603   3.06264   3.06381   3.07985   3.09732
 Alpha virt. eigenvalues --    3.10727   3.11809   3.12675   3.17131   3.20718
 Alpha virt. eigenvalues --    3.21403   3.22299   3.23104   3.25435   3.26633
 Alpha virt. eigenvalues --    3.26846   3.27259   3.30144   3.30691   3.32044
 Alpha virt. eigenvalues --    3.33812   3.34901   3.36439   3.37370   3.39188
 Alpha virt. eigenvalues --    3.41654   3.46710   3.48752   3.72293   3.83988
 Alpha virt. eigenvalues --    4.00857   4.18029  21.19114  21.64166  21.69757
 Alpha virt. eigenvalues --   21.75733  21.80520  21.81188  21.82657  21.83684
 Alpha virt. eigenvalues --   21.88033  21.91044  21.93224  21.96728  22.03909
 Alpha virt. eigenvalues --   43.09076  43.18830
          Condensed to atoms (all electrons):
               1          2          3          4          5          6
     1  C    5.119921   0.269481  -0.081403  -0.084974   0.029650   0.000058
     2  C    0.269481   5.338942   0.225698   0.239437  -0.081753  -0.011362
     3  C   -0.081403   0.225698   5.220071  -0.078478   0.026691  -0.006359
     4  C   -0.084974   0.239437  -0.078478   5.414207   0.166465  -0.067974
     5  C    0.029650  -0.081753   0.026691   0.166465   5.590394   0.243390
     6  C    0.000058  -0.011362  -0.006359  -0.067974   0.243390   5.328501
     7  C   -0.000022   0.005020   0.000663   0.011143   0.076059   0.243256
     8  C   -0.000040  -0.000173  -0.001155  -0.000223  -0.170617   0.084790
     9  C   -0.000000   0.000019  -0.000055  -0.000404  -0.000566   0.026536
    10  C   -0.000000   0.000007  -0.000001  -0.000035  -0.000466  -0.004230
    11  C   -0.000000   0.000004   0.000003  -0.000080   0.000636  -0.007980
    12  O   -0.000000   0.000000  -0.000002  -0.000004  -0.000087  -0.000527
    13  O    0.000000  -0.000000   0.000000   0.000003   0.000513  -0.000414
    14  C    0.000208  -0.002778   0.000346   0.021927   0.090111  -0.183063
    15  C   -0.001094  -0.002030  -0.002664  -0.074186   0.270069   0.071892
    16  H    0.399336  -0.044411   0.014478  -0.001095  -0.001024   0.000313
    17  H    0.402844  -0.029722  -0.012259  -0.012268  -0.002275  -0.000148
    18  H    0.403089  -0.043573  -0.004540   0.014948  -0.001085  -0.000005
    19  H   -0.045796   0.461128  -0.061049  -0.050151  -0.025911   0.006783
    20  H   -0.002369  -0.034645   0.387958   0.014760  -0.000962   0.000014
    21  H   -0.007867  -0.036657   0.397100   0.000333  -0.012252   0.000871
    22  H    0.011696  -0.036796   0.397504  -0.018658   0.017312   0.000034
    23  H   -0.004447  -0.057765   0.015567   0.410888  -0.025488  -0.008161
    24  H   -0.002869  -0.019161  -0.016560   0.435098  -0.085593   0.014503
    25  H   -0.000170  -0.003416  -0.000224  -0.002014  -0.080167   0.457289
    26  H   -0.000001   0.000014   0.000016  -0.000353   0.017518  -0.048895
    27  H    0.000000  -0.000001   0.000000   0.000001   0.000656   0.000975
    28  H    0.000000  -0.000000  -0.000000   0.000000   0.000015   0.000060
    29  H    0.000000  -0.000000   0.000000   0.000003   0.000166   0.000204
    30  H    0.000000  -0.000000   0.000000  -0.000010  -0.000264  -0.000602
    31  H    0.000000  -0.000000   0.000000   0.000000   0.000003   0.000009
    32  H   -0.000001  -0.000011   0.000031  -0.000895   0.016782  -0.001381
    33  H   -0.000097  -0.000821   0.000631  -0.008227  -0.079233   0.015473
               7          8          9         10         11         12
     1  C   -0.000022  -0.000040  -0.000000  -0.000000  -0.000000  -0.000000
     2  C    0.005020  -0.000173   0.000019   0.000007   0.000004   0.000000
     3  C    0.000663  -0.001155  -0.000055  -0.000001   0.000003  -0.000002
     4  C    0.011143  -0.000223  -0.000404  -0.000035  -0.000080  -0.000004
     5  C    0.076059  -0.170617  -0.000566  -0.000466   0.000636  -0.000087
     6  C    0.243256   0.084790   0.026536  -0.004230  -0.007980  -0.000527
     7  C    5.318487   0.285343  -0.093358  -0.010765   0.008515   0.001535
     8  C    0.285343   5.942807   0.088783  -0.104789  -0.075914  -0.025076
     9  C   -0.093358   0.088783   5.764075   0.144584   0.052342  -0.111710
    10  C   -0.010765  -0.104789   0.144584   5.258852  -0.021761   0.007533
    11  C    0.008515  -0.075914   0.052342  -0.021761   5.003633   0.646734
    12  O    0.001535  -0.025076  -0.111710   0.007533   0.646734   7.960813
    13  O    0.004075  -0.034022  -0.100423   0.017199   0.323227  -0.135109
    14  C    0.054551   0.120559   0.002628   0.000201  -0.011767   0.000504
    15  C   -0.157770   0.077792   0.009723   0.003357   0.003268   0.000258
    16  H   -0.000004  -0.000001  -0.000000  -0.000000   0.000000   0.000000
    17  H    0.000003   0.000003   0.000000  -0.000000   0.000000   0.000000
    18  H   -0.000000   0.000000  -0.000000   0.000000  -0.000000  -0.000000
    19  H   -0.000377   0.000294   0.000001   0.000000  -0.000002  -0.000000
    20  H   -0.000024   0.000006   0.000001  -0.000000   0.000000   0.000000
    21  H   -0.000122   0.000210   0.000002   0.000000  -0.000000   0.000000
    22  H    0.001021  -0.000978  -0.000017   0.000001   0.000025   0.000004
    23  H   -0.000375   0.000248   0.000013  -0.000004   0.000002   0.000000
    24  H   -0.001439   0.000364   0.000008   0.000000  -0.000002   0.000000
    25  H   -0.064281   0.020794  -0.000894  -0.000001  -0.000102  -0.000006
    26  H    0.439230  -0.073237  -0.014191  -0.000712  -0.001019  -0.000128
    27  H    0.007797  -0.093722   0.492307  -0.035538  -0.063845   0.003914
    28  H    0.000025   0.017700  -0.055169   0.397332   0.008975   0.000458
    29  H    0.000871  -0.025210   0.007119   0.384438  -0.026726   0.000163
    30  H    0.005168   0.012955  -0.034733   0.382329   0.008174  -0.000475
    31  H   -0.000106   0.001326   0.011150  -0.001320  -0.015777   0.002698
    32  H    0.011977  -0.077465   0.007365  -0.008628  -0.004835   0.000481
    33  H   -0.001276   0.018586  -0.000594  -0.000036  -0.000050   0.000001
              13         14         15         16         17         18
     1  C    0.000000   0.000208  -0.001094   0.399336   0.402844   0.403089
     2  C   -0.000000  -0.002778  -0.002030  -0.044411  -0.029722  -0.043573
     3  C    0.000000   0.000346  -0.002664   0.014478  -0.012259  -0.004540
     4  C    0.000003   0.021927  -0.074186  -0.001095  -0.012268   0.014948
     5  C    0.000513   0.090111   0.270069  -0.001024  -0.002275  -0.001085
     6  C   -0.000414  -0.183063   0.071892   0.000313  -0.000148  -0.000005
     7  C    0.004075   0.054551  -0.157770  -0.000004   0.000003  -0.000000
     8  C   -0.034022   0.120559   0.077792  -0.000001   0.000003   0.000000
     9  C   -0.100423   0.002628   0.009723  -0.000000   0.000000  -0.000000
    10  C    0.017199   0.000201   0.003357  -0.000000  -0.000000   0.000000
    11  C    0.323227  -0.011767   0.003268   0.000000   0.000000  -0.000000
    12  O   -0.135109   0.000504   0.000258   0.000000   0.000000  -0.000000
    13  O    7.889807   0.004619  -0.003755   0.000000  -0.000000  -0.000000
    14  C    0.004619   5.425381   0.216541   0.000003  -0.000002  -0.000006
    15  C   -0.003755   0.216541   5.291335  -0.000239   0.000753  -0.000009
    16  H    0.000000   0.000003  -0.000239   0.545068  -0.026761  -0.022470
    17  H   -0.000000  -0.000002   0.000753  -0.026761   0.558913  -0.027670
    18  H   -0.000000  -0.000006  -0.000009  -0.022470  -0.027670   0.539737
    19  H    0.000000  -0.000201   0.004340  -0.004816   0.008829  -0.004514
    20  H    0.000000   0.000034  -0.000128  -0.000056  -0.000224   0.003738
    21  H   -0.000000  -0.000464   0.004623  -0.000311   0.005994  -0.000083
    22  H   -0.000001   0.001430  -0.004723  -0.000515  -0.000107  -0.000146
    23  H   -0.000000  -0.001544   0.002860   0.004579  -0.000285  -0.000073
    24  H   -0.000000   0.001822   0.001438  -0.000192   0.004609  -0.000241
    25  H   -0.000002  -0.002030   0.013693   0.000011   0.000006   0.000011
    26  H    0.000003   0.017604  -0.002936  -0.000000   0.000000   0.000000
    27  H    0.004112   0.014104  -0.001332   0.000000  -0.000000  -0.000000
    28  H   -0.000506   0.000212  -0.000009   0.000000  -0.000000  -0.000000
    29  H    0.004548   0.008622  -0.000888  -0.000000   0.000000  -0.000000
    30  H   -0.000195  -0.005757   0.000108   0.000000   0.000000  -0.000000
    31  H    0.288214  -0.000125   0.000010   0.000000  -0.000000  -0.000000
    32  H    0.008665   0.438371  -0.048532   0.000000  -0.000000   0.000000
    33  H   -0.000124  -0.053341   0.445540  -0.000006   0.000022   0.000004
              19         20         21         22         23         24
     1  C   -0.045796  -0.002369  -0.007867   0.011696  -0.004447  -0.002869
     2  C    0.461128  -0.034645  -0.036657  -0.036796  -0.057765  -0.019161
     3  C   -0.061049   0.387958   0.397100   0.397504   0.015567  -0.016560
     4  C   -0.050151   0.014760   0.000333  -0.018658   0.410888   0.435098
     5  C   -0.025911  -0.000962  -0.012252   0.017312  -0.025488  -0.085593
     6  C    0.006783   0.000014   0.000871   0.000034  -0.008161   0.014503
     7  C   -0.000377  -0.000024  -0.000122   0.001021  -0.000375  -0.001439
     8  C    0.000294   0.000006   0.000210  -0.000978   0.000248   0.000364
     9  C    0.000001   0.000001   0.000002  -0.000017   0.000013   0.000008
    10  C    0.000000  -0.000000   0.000000   0.000001  -0.000004   0.000000
    11  C   -0.000002   0.000000  -0.000000   0.000025   0.000002  -0.000002
    12  O   -0.000000   0.000000   0.000000   0.000004   0.000000   0.000000
    13  O    0.000000   0.000000  -0.000000  -0.000001  -0.000000  -0.000000
    14  C   -0.000201   0.000034  -0.000464   0.001430  -0.001544   0.001822
    15  C    0.004340  -0.000128   0.004623  -0.004723   0.002860   0.001438
    16  H   -0.004816  -0.000056  -0.000311  -0.000515   0.004579  -0.000192
    17  H    0.008829  -0.000224   0.005994  -0.000107  -0.000285   0.004609
    18  H   -0.004514   0.003738  -0.000083  -0.000146  -0.000073  -0.000241
    19  H    0.546973  -0.004469   0.008471  -0.002486  -0.002168   0.005832
    20  H   -0.004469   0.546256  -0.026750  -0.022401  -0.000461  -0.000109
    21  H    0.008471  -0.026750   0.555419  -0.024191  -0.000178   0.004185
    22  H   -0.002486  -0.022401  -0.024191   0.530787  -0.000342   0.000946
    23  H   -0.002168  -0.000461  -0.000178  -0.000342   0.533900  -0.025828
    24  H    0.005832  -0.000109   0.004185   0.000946  -0.025828   0.528088
    25  H    0.002149  -0.000028   0.000012   0.000066  -0.000501   0.000356
    26  H   -0.000009   0.000000  -0.000001   0.000028  -0.000029   0.000007
    27  H   -0.000000  -0.000000  -0.000000   0.000001   0.000000   0.000000
    28  H   -0.000000   0.000000   0.000000  -0.000000   0.000000  -0.000000
    29  H   -0.000000  -0.000000  -0.000000  -0.000000   0.000000   0.000000
    30  H   -0.000000   0.000000  -0.000000  -0.000000   0.000001  -0.000000
    31  H   -0.000000   0.000000  -0.000000  -0.000000   0.000000  -0.000000
    32  H   -0.000006   0.000000  -0.000032   0.000035   0.000018  -0.000055
    33  H    0.000053  -0.000066   0.001022   0.000261   0.000375   0.001884
              25         26         27         28         29         30
     1  C   -0.000170  -0.000001   0.000000   0.000000   0.000000   0.000000
     2  C   -0.003416   0.000014  -0.000001  -0.000000  -0.000000  -0.000000
     3  C   -0.000224   0.000016   0.000000  -0.000000   0.000000   0.000000
     4  C   -0.002014  -0.000353   0.000001   0.000000   0.000003  -0.000010
     5  C   -0.080167   0.017518   0.000656   0.000015   0.000166  -0.000264
     6  C    0.457289  -0.048895   0.000975   0.000060   0.000204  -0.000602
     7  C   -0.064281   0.439230   0.007797   0.000025   0.000871   0.005168
     8  C    0.020794  -0.073237  -0.093722   0.017700  -0.025210   0.012955
     9  C   -0.000894  -0.014191   0.492307  -0.055169   0.007119  -0.034733
    10  C   -0.000001  -0.000712  -0.035538   0.397332   0.384438   0.382329
    11  C   -0.000102  -0.001019  -0.063845   0.008975  -0.026726   0.008174
    12  O   -0.000006  -0.000128   0.003914   0.000458   0.000163  -0.000475
    13  O   -0.000002   0.000003   0.004112  -0.000506   0.004548  -0.000195
    14  C   -0.002030   0.017604   0.014104   0.000212   0.008622  -0.005757
    15  C    0.013693  -0.002936  -0.001332  -0.000009  -0.000888   0.000108
    16  H    0.000011  -0.000000   0.000000   0.000000  -0.000000   0.000000
    17  H    0.000006   0.000000  -0.000000  -0.000000   0.000000   0.000000
    18  H    0.000011   0.000000  -0.000000  -0.000000  -0.000000  -0.000000
    19  H    0.002149  -0.000009  -0.000000  -0.000000  -0.000000  -0.000000
[...]
 Alpha virt. eigenvalues --   43.09674  43.16944
          Condensed to atoms (all electrons):
               1          2          3          4          5          6
     1  C    5.153819   0.263073  -0.080912  -0.091785   0.029509  -0.000158
     2  C    0.263073   5.333959   0.214534   0.253426  -0.097155  -0.014093
     3  C   -0.080912   0.214534   5.272487  -0.097460   0.033040  -0.004612
     4  C   -0.091785   0.253426  -0.097460   5.461993   0.167796  -0.068544
     5  C    0.029509  -0.097155   0.033040   0.167796   5.637425   0.221679
     6  C   -0.000158  -0.014093  -0.004612  -0.068544   0.221679   5.380350
     7  C    0.000040   0.005044   0.001068   0.012228   0.080249   0.231502
     8  C   -0.000052  -0.000200  -0.001150   0.000125  -0.190971   0.101656
     9  C   -0.000000   0.000016  -0.000057  -0.000166   0.001040   0.027196
    10  C   -0.000000   0.000006  -0.000001  -0.000015  -0.000291  -0.003739
    11  C    0.000000   0.000002   0.000006  -0.000044   0.001481  -0.006999
    12  O   -0.000000   0.000001  -0.000002  -0.000005  -0.000128  -0.000427
    13  O   -0.000000  -0.000001   0.000001   0.000003   0.000600  -0.000485
    14  C    0.000203  -0.002264  -0.001299   0.021947   0.108213  -0.205579
    15  C   -0.001385  -0.005981   0.001589  -0.079161   0.216686   0.090672
    16  H    0.397719  -0.043241   0.014500  -0.001924  -0.000813   0.000424
    17  H    0.403315  -0.027834  -0.014707  -0.013744  -0.002460  -0.000187
    18  H    0.400489  -0.046278  -0.002445   0.016285  -0.001071  -0.000002
    19  H   -0.042872   0.463584  -0.060863  -0.056069  -0.024740   0.007612
    20  H   -0.002009  -0.035219   0.385368   0.016439  -0.000833  -0.000054
    21  H   -0.009185  -0.032968   0.392022  -0.001314  -0.013962   0.000748
    22  H    0.011930  -0.039579   0.399296  -0.017826   0.017234  -0.000545
    23  H   -0.005403  -0.057849   0.017417   0.400875  -0.020682  -0.005462
    24  H   -0.004333  -0.017750  -0.018533   0.430123  -0.083268   0.012896
    25  H   -0.000287  -0.003873  -0.000047  -0.003797  -0.080242   0.450647
    26  H   -0.000002   0.000001   0.000015  -0.000409   0.018520  -0.050646
    27  H   -0.000000  -0.000002   0.000000   0.000001   0.000790   0.000845
    28  H    0.000000  -0.000000  -0.000000   0.000000   0.000010   0.000064
    29  H    0.000000  -0.000000  -0.000000   0.000003   0.000159   0.000133
    30  H    0.000000  -0.000000   0.000000  -0.000009  -0.000211  -0.000704
    31  H    0.000000  -0.000000  -0.000000   0.000000   0.000010  -0.000004
    32  H   -0.000001  -0.000029   0.000021  -0.000786   0.016341  -0.001899
    33  H   -0.000161  -0.001972   0.001843  -0.008955  -0.079610   0.016003
               7          8          9         10         11         12
     1  C    0.000040  -0.000052  -0.000000  -0.000000   0.000000  -0.000000
     2  C    0.005044  -0.000200   0.000016   0.000006   0.000002   0.000001
     3  C    0.001068  -0.001150  -0.000057  -0.000001   0.000006  -0.000002
     4  C    0.012228   0.000125  -0.000166  -0.000015  -0.000044  -0.000005
     5  C    0.080249  -0.190971   0.001040  -0.000291   0.001481  -0.000128
     6  C    0.231502   0.101656   0.027196  -0.003739  -0.006999  -0.000427
     7  C    5.358738   0.216559  -0.073883  -0.006913   0.005392   0.000020
     8  C    0.216559   6.090378   0.079920  -0.062915  -0.080110  -0.014992
     9  C   -0.073883   0.079920   5.721503   0.137088   0.137573  -0.108427
    10  C   -0.006913  -0.062915   0.137088   5.226641  -0.037601   0.008468
    11  C    0.005392  -0.080110   0.137573  -0.037601   4.947090   0.624587
    12  O    0.000020  -0.014992  -0.108427   0.008468   0.624587   7.944454
    13  O    0.006023  -0.040441  -0.109513   0.010576   0.298763  -0.111339
    14  C    0.070628   0.044636  -0.009642  -0.000480   0.001855   0.001900
    15  C   -0.170275   0.107331   0.007375   0.002576  -0.001064   0.000276
    16  H   -0.000006   0.000001  -0.000000  -0.000000   0.000000   0.000000
    17  H    0.000007   0.000001   0.000000   0.000000  -0.000000   0.000000
    18  H   -0.000004   0.000001   0.000000   0.000000  -0.000000  -0.000000
    19  H   -0.000606   0.000262   0.000000   0.000000  -0.000002  -0.000000
    20  H   -0.000033  -0.000002   0.000001  -0.000000   0.000000   0.000000
    21  H   -0.000132   0.000198   0.000002   0.000000  -0.000001   0.000000
    22  H    0.001143  -0.001293  -0.000033   0.000001   0.000038   0.000005
    23  H   -0.000626   0.000357   0.000009  -0.000002   0.000001   0.000000
    24  H   -0.001452   0.000334   0.000006   0.000000  -0.000001   0.000000
    25  H   -0.064966   0.021514  -0.000851   0.000013  -0.000059  -0.000004
    26  H    0.438145  -0.078710  -0.014080   0.000001  -0.000384   0.000077
    27  H    0.012153  -0.102755   0.470303  -0.025385  -0.053394   0.006352
    28  H   -0.000336   0.015845  -0.052255   0.399998   0.005788   0.000176
    29  H    0.001451  -0.025386  -0.000414   0.392715  -0.024011   0.000109
    30  H    0.004281   0.013727  -0.044070   0.389287   0.009154  -0.000402
    31  H   -0.000088   0.001270   0.012054  -0.001295  -0.011912   0.002219
    32  H    0.012055  -0.081298   0.006600  -0.008249  -0.004463   0.000340
    33  H   -0.001903   0.018518  -0.000535  -0.000006  -0.000067   0.000002
              13         14         15         16         17         18
     1  C   -0.000000   0.000203  -0.001385   0.397719   0.403315   0.400489
     2  C   -0.000001  -0.002264  -0.005981  -0.043241  -0.027834  -0.046278
     3  C    0.000001  -0.001299   0.001589   0.014500  -0.014707  -0.002445
     4  C    0.000003   0.021947  -0.079161  -0.001924  -0.013744   0.016285
     5  C    0.000600   0.108213   0.216686  -0.000813  -0.002460  -0.001071
     6  C   -0.000485  -0.205579   0.090672   0.000424  -0.000187  -0.000002
     7  C    0.006023   0.070628  -0.170275  -0.000006   0.000007  -0.000004
     8  C   -0.040441   0.044636   0.107331   0.000001   0.000001   0.000001
     9  C   -0.109513  -0.009642   0.007375  -0.000000   0.000000   0.000000
    10  C    0.010576  -0.000480   0.002576  -0.000000   0.000000   0.000000
    11  C    0.298763   0.001855  -0.001064   0.000000  -0.000000  -0.000000
    12  O   -0.111339   0.001900   0.000276   0.000000   0.000000  -0.000000
    13  O    7.900840   0.005763  -0.004700   0.000000   0.000000  -0.000000
    14  C    0.005763   5.509425   0.165536  -0.000000   0.000008  -0.000008
    15  C   -0.004700   0.165536   5.400375  -0.000240   0.000862  -0.000018
    16  H    0.000000  -0.000000  -0.000240   0.539856  -0.027294  -0.021390
    17  H    0.000000   0.000008   0.000862  -0.027294   0.556761  -0.027835
    18  H   -0.000000  -0.000008  -0.000018  -0.021390  -0.027835   0.536314
    19  H    0.000000  -0.000029   0.004844  -0.004494   0.008527  -0.004352
    20  H   -0.000000   0.000091  -0.000304  -0.000131  -0.000240   0.003656
    21  H   -0.000000  -0.000184   0.005525  -0.000227   0.007082  -0.000240
    22  H   -0.000002   0.000755  -0.005772  -0.000493  -0.000120  -0.000141
    23  H   -0.000000  -0.001765   0.005859   0.004791  -0.000188  -0.000012
    24  H   -0.000000   0.002026   0.004207  -0.000036   0.004921  -0.000247
    25  H   -0.000002  -0.002715   0.015070   0.000028   0.000007   0.000009
    26  H    0.000019   0.019063  -0.004009  -0.000000   0.000000   0.000000
    27  H    0.005508   0.015130  -0.001670   0.000000  -0.000000  -0.000000
    28  H   -0.000344   0.000469  -0.000006   0.000000  -0.000000  -0.000000
    29  H    0.006006   0.007685  -0.000457  -0.000000  -0.000000  -0.000000
    30  H   -0.000084  -0.005490   0.000001   0.000000   0.000000  -0.000000
    31  H    0.281327  -0.000113   0.000024   0.000000   0.000000  -0.000000
    32  H    0.008951   0.432227  -0.043484   0.000000  -0.000000   0.000000
    33  H   -0.000101  -0.052953   0.442377  -0.000001   0.000002   0.000006
              19         20         21         22         23         24
     1  C   -0.042872  -0.002009  -0.009185   0.011930  -0.005403  -0.004333
     2  C    0.463584  -0.035219  -0.032968  -0.039579  -0.057849  -0.017750
     3  C   -0.060863   0.385368   0.392022   0.399296   0.017417  -0.018533
     4  C   -0.056069   0.016439  -0.001314  -0.017826   0.400875   0.430123
     5  C   -0.024740  -0.000833  -0.013962   0.017234  -0.020682  -0.083268
     6  C    0.007612  -0.000054   0.000748  -0.000545  -0.005462   0.012896
     7  C   -0.000606  -0.000033  -0.000132   0.001143  -0.000626  -0.001452
     8  C    0.000262  -0.000002   0.000198  -0.001293   0.000357   0.000334
     9  C    0.000000   0.000001   0.000002  -0.000033   0.000009   0.000006
    10  C    0.000000  -0.000000   0.000000   0.000001  -0.000002   0.000000
    11  C   -0.000002   0.000000  -0.000001   0.000038   0.000001  -0.000001
    12  O   -0.000000   0.000000   0.000000   0.000005   0.000000   0.000000
    13  O    0.000000  -0.000000  -0.000000  -0.000002  -0.000000  -0.000000
    14  C   -0.000029   0.000091  -0.000184   0.000755  -0.001765   0.002026
    15  C    0.004844  -0.000304   0.005525  -0.005772   0.005859   0.004207
    16  H   -0.004494  -0.000131  -0.000227  -0.000493   0.004791  -0.000036
    17  H    0.008527  -0.000240   0.007082  -0.000120  -0.000188   0.004921
    18  H   -0.004352   0.003656  -0.000240  -0.000141  -0.000012  -0.000247
    19  H    0.544524  -0.005136   0.008641  -0.002142  -0.002118   0.006202
    20  H   -0.005136   0.540614  -0.026077  -0.020102  -0.000493  -0.000170
    21  H    0.008641  -0.026077   0.558396  -0.026479  -0.000251   0.004951
    22  H   -0.002142  -0.020102  -0.026479   0.524985  -0.000383   0.001152
    23  H   -0.002118  -0.000493  -0.000251  -0.000383   0.527227  -0.024189
    24  H    0.006202  -0.000170   0.004951   0.001152  -0.024189   0.519796
    25  H    0.002211  -0.000027   0.000018  -0.000002   0.000645   0.000377
    26  H   -0.000003   0.000000  -0.000001   0.000020  -0.000029   0.000009
    27  H    0.000000  -0.000000   0.000000   0.000001  -0.000000   0.000000
    28  H    0.000000   0.000000  -0.000000  -0.000000   0.000000   0.000000
    29  H   -0.000000  -0.000000  -0.000000  -0.000000   0.000000  -0.000000
    30  H   -0.000000   0.000000  -0.000000   0.000000   0.000001  -0.000000
    31  H    0.000000   0.000000  -0.000000   0.000000   0.000000   0.000000
    32  H   -0.000003   0.000001  -0.000024   0.000040   0.000014  -0.000038
    33  H    0.000008  -0.000057   0.000616   0.000166   0.000412   0.001651
              25         26         27         28         29         30
     1  C   -0.000287  -0.000002  -0.000000   0.000000   0.000000   0.000000
     2  C   -0.003873   0.000001  -0.000002  -0.000000  -0.000000  -0.000000
     3  C   -0.000047   0.000015   0.000000  -0.000000  -0.000000   0.000000
     4  C   -0.003797  -0.000409   0.000001   0.000000   0.000003  -0.000009
     5  C   -0.080242   0.018520   0.000790   0.000010   0.000159  -0.000211
     6  C    0.450647  -0.050646   0.000845   0.000064   0.000133  -0.000704
     7  C   -0.064966   0.438145   0.012153  -0.000336   0.001451   0.004281
     8  C    0.021514  -0.078710  -0.102755   0.015845  -0.025386   0.013727
     9  C   -0.000851  -0.014080   0.470303  -0.052255  -0.000414  -0.044070
    10  C    0.000013   0.000001  -0.025385   0.399998   0.392715   0.389287
    11  C   -0.000059  -0.000384  -0.053394   0.005788  -0.024011   0.009154
    12  O   -0.000004   0.000077   0.006352   0.000176   0.000109  -0.000402
    13  O   -0.000002   0.000019   0.005508  -0.000344   0.006006  -0.000084
    14  C   -0.002715   0.019063   0.015130   0.000469   0.007685  -0.005490
    15  C    0.015070  -0.004009  -0.001670  -0.000006  -0.000457   0.000001
    16  H    0.000028  -0.000000   0.000000   0.000000  -0.000000   0.000000
    17  H    0.000007   0.000000  -0.000000  -0.000000  -0.000000   0.000000
    18  H    0.000009   0.000000  -0.000000  -0.000000  -0.000000  -0.000000
    19  H    0.002211  -0.000003   0.000000   0.000000  -0.000000  -0.000000
    20  H   -0.000027   0.000000  -0.000000   0.000000  -0.000000   0.000000
    21  H    0.000018  -0.000001   0.000000  -0.000000  -0.000000  -0.000000
    22  H   -0.000002   0.000020   0.000001  -0.000000  -0.000000   0.000000
    23  H    0.000645  -0.000029  -0.000000   0.000000   0.000000   0.000001
    24  H    0.000377   0.000009   0.000000   0.000000  -0.000000  -0.000000
    25  H    0.528081  -0.006644  -0.000065  -0.000000  -0.000001   0.000004
    26  H   -0.006644   0.531181   0.003811  -0.000051  -0.000027   0.000497
    27  H   -0.000065   0.003811   0.470280  -0.003215   0.005017  -0.006312
    28  H   -0.000000  -0.000051  -0.003215   0.519696  -0.023705  -0.021568
    29  H   -0.000001  -0.000027   0.005017  -0.023705   0.518077  -0.019886
    30  H    0.000004   0.000497  -0.006312  -0.021568  -0.019886   0.529847
    31  H    0.000000   0.000001  -0.000656  -0.000149  -0.000210   0.000061
    32  H    0.000028  -0.000114   0.000386   0.000044   0.003047   0.000427
    33  H   -0.000149   0.000029  -0.000002  -0.000001  -0.000020   0.000016
              31         32         33
     1  C    0.000000  -0.000001  -0.000161
     2  C   -0.000000  -0.000029  -0.001972
     3  C   -0.000000   0.000021   0.001843
     4  C    0.000000  -0.000786  -0.008955
     5  C    0.000010   0.016341  -0.079610
     6  C   -0.000004  -0.001899   0.016003
     7  C   -0.000088   0.012055  -0.001903
     8  C    0.001270  -0.081298   0.018518
     9  C    0.012054   0.006600  -0.000535
    10  C   -0.001295  -0.008249  -0.000006
    11  C   -0.011912  -0.004463  -0.000067
    12  O    0.002219   0.000340   0.000002
    13  O    0.281327   0.008951  -0.000101
    14  C   -0.000113   0.432227  -0.052953
    15  C    0.000024  -0.043484   0.442377
    16  H    0.000000   0.000000  -0.000001
    17  H    0.000000  -0.000000   0.000002
    18  H   -0.000000   0.000000   0.000006
    19  H    0.000000  -0.000003   0.000008
    20  H    0.000000   0.000001  -0.000057
    21  H   -0.000000  -0.000024   0.000616
    22  H    0.000000   0.000040   0.000166
    23  H    0.000000   0.000014   0.000412
    24  H    0.000000  -0.000038   0.001651
    25  H    0.000000   0.000028  -0.000149
    26  H    0.000001  -0.000114   0.000029
    27  H   -0.000656   0.000386  -0.000002
    28  H   -0.000149   0.000044  -0.000001
    29  H   -0.000210   0.003047  -0.000020
    30  H    0.000061   0.000427   0.000016
    31  H    0.388046  -0.000154   0.000000
    32  H   -0.000154   0.512002  -0.006035
    33  H    0.000000  -0.006035   0.529253
 Mulliken charges:
               1
     1  C   -0.421553
     2  C   -0.107357
     3  C   -0.451116
     4  C   -0.339228
     5  C    0.045658
     6  C   -0.178289
     7  C   -0.135503
     8  C   -0.032358
     9  C   -0.186758
    10  C   -0.420477
    11  C    0.188383
    12  O   -0.353259
    13  O   -0.257367
    14  C   -0.125036
    15  C   -0.152662
    16  H    0.142971
    17  H    0.133115
    18  H    0.147281
    19  H    0.157012
    20  H    0.144718
    21  H    0.132845
    22  H    0.158147
    23  H    0.161845
    24  H    0.161365
    25  H    0.145082
    26  H    0.143720
    27  H    0.202881
    28  H    0.159540
    29  H    0.159717
    30  H    0.151435
    31  H    0.329569
    32  H    0.154053
    33  H    0.141627
 Sum of Mulliken charges =  -0.00000
 Mulliken charges with hydrogens summed into heavy atoms:
               1
     1  C    0.001814
     2  C    0.049655
     3  C   -0.015406
     4  C   -0.016019
     5  C    0.045658
     6  C   -0.033207
     7  C    0.008217
     8  C   -0.032358
     9  C    0.016122
    10  C    0.050216
    11  C    0.188383
    12  O   -0.353259
    13  O    0.072202
    14  C    0.029018
    15  C   -0.011035
 Electronic spatial extent (au):  <R**2>=           4633.9410
 Charge=             -0.0000 electrons
 Dipole moment (field-independent basis, Debye):
    X=              0.8063    Y=             -1.0181    Z=              2.0028  Tot=              2.3870
 Quadrupole moment (field-independent basis, Debye-Ang):
   XX=            -84.6582   YY=            -90.7826   ZZ=            -93.1470
   XY=              1.2202   XZ=             -7.5286   YZ=              9.0523
 Traceless Quadrupole moment (field-independent basis, Debye-Ang):
   XX=              4.8711   YY=             -1.2533   ZZ=             -3.6177
   XY=              1.2202   XZ=             -7.5286   YZ=              9.0523
 Octapole moment (field-independent basis, Debye-Ang**2):
  XXX=            -39.2827  YYY=             25.2882  ZZZ=              7.4396  XYY=            -23.4885
  XXY=             -1.0637  XXZ=             22.6633  XZZ=             10.0222  YZZ=             -6.3570
  YYZ=              6.7324  XYZ=            -21.3833
 Hexadecapole moment (field-independent basis, Debye-Ang**3):
 XXXX=          -4937.3797 YYYY=           -725.0686 ZZZZ=           -498.5082 XXXY=            -53.7737
 XXXZ=            -94.9053 YYYX=            -92.9151 YYYZ=             33.6581 ZZZX=            -15.0483
 ZZZY=             31.8583 XXYY=           -887.8116 XXZZ=           -961.2539 YYZZ=           -217.4953
 XXYZ=             77.5283 YYXZ=            -56.6213 ZZXY=             15.2245
 N-N= 9.676982141233D+02 E-N=-3.464676318270D+03  KE= 6.537278525106D+02
 Unable to Open any file for archive entry.
 1\1\GINC-TCN1638\SP\RBP86\TZVP\C13H18O2\ELENAA\22-Feb-2021\0\\# BP86/T
 ZVP SCRF=COSMORS geom=CHECKPOINT guess=CHECKPOINT\\COSMO-file for #HEF
 NNWSXXWATRW-UHFFFAOYSA-N\\0,1\C,0,6.6484058975,-1.3644027793,4.2522855
 779\C,0,5.5212416098,-0.589257709,3.5549682391\C,0,5.0982063411,0.6325
 00833,4.3822523096\C,0,4.3201695071,-1.529441555,3.2736175728\C,0,3.21
 50447574,-0.873799296,2.4789378813\C,0,3.3580980776,-0.660630843,1.097
 3179283\C,0,2.3641302952,-0.0096515109,0.3601015172\C,0,1.1902713564,0
 .4446042204,0.9816787076\C,0,0.1031120761,1.1385836983,0.161621151\C,0
 ,-1.2402035548,0.3881967239,0.2010102799\C,0,0.0051451391,2.5889155424
 ,0.6238086658\O,0,0.6393200277,3.5149524896,0.1411622434\O,0,-0.846812
 9808,2.7500513238,1.6733706429\C,0,1.0419290764,0.2357832782,2.3626866
 661\C,0,2.0397206776,-0.4130135542,3.0961388038\H,0,6.9779289726,-2.22
 52851854,3.6494020484\H,0,6.308033124,-1.7464991963,5.2294412834\H,0,7
 .5220637192,-0.7183892949,4.4308841433\H,0,5.8966742543,-0.2330381446,
 2.577905224\H,0,5.9543806881,1.3000703184,4.5653211402\H,0,4.699879792
 ,0.3155747997,5.3610651332\H,0,4.3140671604,1.2137102965,3.8739875883\
 H,0,4.6897301066,-2.4146102239,2.7284169606\H,0,3.9239219582,-1.890165
 0944,4.2386484116\H,0,4.2612405183,-1.0119562506,0.5904273652\H,0,2.49
 76898141,0.1408828365,-0.7144323199\H,0,0.4557979729,1.1999633551,-0.8
 782451521\H,0,-1.9989548577,0.9084839628,-0.4015183244\H,0,-1.61748492
 26,0.3003944004,1.2284559618\H,0,-1.1036571494,-0.623544044,-0.2064375
 819\H,0,-0.8128379557,3.6947369143,1.9378449446\H,0,0.1427727552,0.590
 7529908,2.8712422354\H,0,1.9074457461,-0.5615933025,4.1711627517\\Vers
 ion=ES64L-G16RevC.01\State=1-A\HF=-656.9303232\RMSD=4.402e-09\Dipole=-
 0.2590301,-0.713834,0.5525047\Quadrupole=5.6136397,-5.9627112,0.349071
 5,-4.6891882,-0.1759197,5.6959178\PG=C01 [X(C13H18O2)]\\@
 The archive entry for this job was punched.


 MATERIAL COPIED FROM ONE SCHOLARLY BOOK WITHOUT CREDIT COMPRISES PLAGIARISM.
 MATERIAL COPIED FROM TWO SCHOLARLY BOOKS COMPRISES AN ESSAY.
 MATERIAL COPIED FROM THREE SCHOLARLY BOOKS COMPRISES A DISSERTATION.
 MATERIAL COPIED FROM FOUR SCHOLARLY BOOKS COMPRISES A FIFTH SCHOLARLY BOOK.

                               -- C&EN, 25 FEB 1980
 Job cpu time:       0 days  0 hours 15 minutes 28.0 seconds.
 Elapsed time:       0 days  0 hours  0 minutes 29.9 seconds.
 File lengths (MBytes):  RWF=    120 Int=      0 D2E=      0 Chk=     16 Scr=      1
 Normal termination of Gaussian 16 at Mon Feb 22 21:15:08 2021.
