 Entering Gaussian System, Link 0=g16
 Input=HLZKNKRTKFSKGZ-UHFFFAOYSA-N.gjf
 Output=HLZKNKRTKFSKGZ-UHFFFAOYSA-N.log
 Initial command:
 /sw/arch/RedHatEnterpriseServer7/EB_production/2019/software/Gaussian/g16.c01/l1.exe "/scratch-local/elenaa.9715217/Gau-20474.inp" -scrdir="/scratch-local/elenaa.9715217/"
 Entering Link 1 = /sw/arch/RedHatEnterpriseServer7/EB_production/2019/software/Gaussian/g16.c01/l1.exe PID=     20475.
  
 Copyright (c) 1988-2019, Gaussian, Inc.  All Rights Reserved.
  
 This is part of the Gaussian(R) 16 program.  It is based on
 the Gaussian(R) 09 system (copyright 2009, Gaussian, Inc.),
 the Gaussian(R) 03 system (copyright 2003, Gaussian, Inc.),
 the Gaussian(R) 98 system (copyright 1998, Gaussian, Inc.),
 the Gaussian(R) 94 system (copyright 1995, Gaussian, Inc.),
 the Gaussian 92(TM) system (copyright 1992, Gaussian, Inc.),
 the Gaussian 90(TM) system (copyright 1990, Gaussian, Inc.),
 the Gaussian 88(TM) system (copyright 1988, Gaussian, Inc.),
 the Gaussian 86(TM) system (copyright 1986, Carnegie Mellon
 University), and the Gaussian 82(TM) system (copyright 1983,
 Carnegie Mellon University). Gaussian is a federally registered
 trademark of Gaussian, Inc.
  
 This software contains proprietary and confidential information,
 including trade secrets, belonging to Gaussian, Inc.
  
 This software is provided under written license and may be
 used, copied, transmitted, or stored only in accord with that
 written license.
  
 The following legend is applicable only to US Government
 contracts under FAR:
  
                    RESTRICTED RIGHTS LEGEND
  
 Use, reproduction and disclosure by the US Government is
 subject to restrictions as set forth in subparagraphs (a)
 and (c) of the Commercial Computer Software - Restricted
 Rights clause in FAR 52.227-19.
  
 Gaussian, Inc.
 340 Quinnipiac St., Bldg. 40, Wallingford CT 06492
  
  
 ---------------------------------------------------------------
 Warning -- This program may not be used in any manner that
 competes with the business of Gaussian, Inc. or will provide
 assistance to any competitor of Gaussian, Inc.  The licensee
 of this program is prohibited from giving any competitor of
 Gaussian, Inc. access to this program.  By using this program,
 the user acknowledges that Gaussian, Inc. is engaged in the
 business of creating and licensing software in the field of
 computational chemistry and represents and warrants to the
 licensee that it is not a competitor of Gaussian, Inc. and that
 it will not use this program in any manner prohibited above.
 ---------------------------------------------------------------
  

 Cite this work as:
 Gaussian 16, Revision C.01,
 M. J. Frisch, G. W. Trucks, H. B. Schlegel, G. E. Scuseria, 
 M. A. Robb, J. R. Cheeseman, G. Scalmani, V. Barone, 
 G. A. Petersson, H. Nakatsuji, X. Li, M. Caricato, A. V. Marenich, 
 J. Bloino, B. G. Janesko, R. Gomperts, B. Mennucci, H. P. Hratchian, 
 J. V. Ortiz, A. F. Izmaylov, J. L. Sonnenberg, D. Williams-Young, 
 F. Ding, F. Lipparini, F. Egidi, J. Goings, B. Peng, A. Petrone, 
 T. Henderson, D. Ranasinghe, V. G. Zakrzewski, J. Gao, N. Rega, 
 G. Zheng, W. Liang, M. Hada, M. Ehara, K. Toyota, R. Fukuda, 
 J. Hasegawa, M. Ishida, T. Nakajima, Y. Honda, O. Kitao, H. Nakai, 
 T. Vreven, K. Throssell, J. A. Montgomery, Jr., J. E. Peralta, 
 F. Ogliaro, M. J. Bearpark, J. J. Heyd, E. N. Brothers, K. N. Kudin, 
 V. N. Staroverov, T. A. Keith, R. Kobayashi, J. Normand, 
 K. Raghavachari, A. P. Rendell, J. C. Burant, S. S. Iyengar, 
 J. Tomasi, M. Cossi, J. M. Millam, M. Klene, C. Adamo, R. Cammi, 
 J. W. Ochterski, R. L. Martin, K. Morokuma, O. Farkas, 
 J. B. Foresman, and D. J. Fox, Gaussian, Inc., Wallingford CT, 2019.
 
 ******************************************
 Gaussian 16:  ES64L-G16RevC.01  3-Jul-2019
                22-Feb-2021 
 ******************************************
 %chk=HLZKNKRTKFSKGZ-UHFFFAOYSA-N.chk
 %NProcShared=32
 Will use up to   32 processors via shared memory.
 -------------------------------------------------------------
 #P BP86/TZVP EmpiricalDispersion=GD3 SCRF=(Solvent=Water) Opt
 -------------------------------------------------------------
 1/18=20,19=15,26=3,38=1/1,3;
 2/9=110,12=2,17=6,18=5,40=1/2;
 3/5=19,7=101,11=2,25=1,30=1,70=2201,71=1,72=1,74=404,124=31/1,2,3;
 4//1;
 5/5=2,38=5,53=1/2;
 6/7=2,8=2,9=2,10=2,28=1/1;
 7//1,2,3,16;
 1/18=20,19=15,26=3/3(2);
 2/9=110/2;
 99//99;
 2/9=110/2;
 3/5=19,7=101,11=2,25=1,30=1,70=2205,71=1,72=1,74=404,124=31/1,2,3;
 4/5=5,16=3,69=1/1;
 5/5=2,38=5,53=1/2;
 7//1,2,3,16;
 1/18=20,19=15,26=3/3(-5);
 2/9=110/2;
 6/7=2,8=2,9=2,10=2,19=2,28=1/1;
 99/9=1/99;
 Leave Link    1 at Mon Feb 22 21:08:01 2021, MaxMem=           0 cpu:               2.4 elap:               0.1
 (Enter /sw/arch/RedHatEnterpriseServer7/EB_production/2019/software/Gaussian/g16.c01/l101.exe)
 -------------------------------------
 Particle #HLZKNKRTKFSKGZ-UHFFFAOYSA-N
 -------------------------------------
 Symbolic Z-matrix:
 Charge =  0 Multiplicity = 1
 C                    -2.33601  -11.95923  -9.63177 
 C                    -1.32983  -10.93476  -9.06067 
 C                    -1.98585  -9.9287   -8.07653 
 C                    -0.97357  -8.89972  -7.50336 
 C                    -1.6405   -7.89868  -6.52047 
 C                    -0.64173  -6.86212  -5.93766 
 C                    -1.31835  -5.86582  -4.95613 
 C                    -0.31762  -4.83104  -4.37528 
 C                    -0.9915   -3.83576  -3.39527 
 C                     0.00938  -2.80224  -2.81548 
 C                    -0.66204  -1.80475  -1.83432 
 C                     0.34273  -0.77289  -1.25687 
 C                    -0.32015   0.22922  -0.27416 
 C                     0.69041   1.25321   0.29541 
 O                     0.03375   2.14548   1.18751 
 H                    -1.82314  -12.63858  -10.31431 
 H                    -2.7819   -12.5458  -8.82628 
 H                    -3.13039  -11.44901  -10.1798 
 H                    -0.88139  -10.3864  -9.89391 
 H                    -0.53406  -11.47955  -8.54488 
 H                    -2.43531  -10.48452  -7.24785 
 H                    -2.78301  -9.39022  -8.5983 
 H                    -0.17678  -9.43572  -6.9795 
 H                    -0.52447  -8.34144  -8.32992 
 H                    -2.43822  -7.36403  -7.04542 
 H                    -2.09046  -8.45854  -5.69472 
 H                    -0.19127  -6.29901  -6.76131 
 H                     0.15661  -7.39388  -5.41015 
 H                    -2.11615  -5.33376  -5.48298 
 H                    -1.76844  -6.4281   -4.13248 
 H                     0.13209  -4.27077  -5.20033 
 H                     0.47976  -5.36499  -3.84999 
 H                    -1.44215  -4.39764  -2.57119 
 H                    -1.78985  -3.30333  -3.92164 
 H                     0.45998  -2.24254  -3.64096 
 H                     0.80757  -3.33651  -2.29092 
 H                    -1.45844  -1.27061  -2.35952 
 H                    -1.11083  -2.36465  -1.00939 
 H                     1.13956  -1.30754  -0.7333 
 H                     0.79228  -0.21454  -2.08214 
 H                    -1.11688   0.77146  -0.79054 
 H                    -0.76992  -0.32053   0.55706 
 H                     1.13325   1.83458  -0.51777 
 H                     1.48301   0.73378   0.8407 
 H                     0.73464   2.75468   1.50071 
 
 ITRead=  0  0  0  0  0  0  0  0  0  0  0  0  0  0  0  0  0  0  0  0
 ITRead=  0  0  0  0  0  0  0  0  0  0  0  0  0  0  0  0  0  0  0  0
 ITRead=  0  0  0  0  0
 MicOpt= -1 -1 -1 -1 -1 -1 -1 -1 -1 -1 -1 -1 -1 -1 -1 -1 -1 -1 -1 -1
 MicOpt= -1 -1 -1 -1 -1 -1 -1 -1 -1 -1 -1 -1 -1 -1 -1 -1 -1 -1 -1 -1
 MicOpt= -1 -1 -1 -1 -1
 NAtoms=     45 NQM=       45 NQMF=       0 NMMI=      0 NMMIF=      0
                NMic=       0 NMicF=      0.
                    Isotopes and Nuclear Properties:
 (Nuclear quadrupole moments (NQMom) in fm**2, nuclear magnetic moments (NMagM)
  in nuclear magnetons)

  Atom         1           2           3           4           5           6           7           8           9          10
 IAtWgt=          12          12          12          12          12          12          12          12          12          12
 AtmWgt=  12.0000000  12.0000000  12.0000000  12.0000000  12.0000000  12.0000000  12.0000000  12.0000000  12.0000000  12.0000000
 NucSpn=           0           0           0           0           0           0           0           0           0           0
 AtZEff=  -0.0000000  -0.0000000  -0.0000000  -0.0000000  -0.0000000  -0.0000000  -0.0000000  -0.0000000  -0.0000000  -0.0000000
 NQMom=    0.0000000   0.0000000   0.0000000   0.0000000   0.0000000   0.0000000   0.0000000   0.0000000   0.0000000   0.0000000
 NMagM=    0.0000000   0.0000000   0.0000000   0.0000000   0.0000000   0.0000000   0.0000000   0.0000000   0.0000000   0.0000000
 AtZNuc=   6.0000000   6.0000000   6.0000000   6.0000000   6.0000000   6.0000000   6.0000000   6.0000000   6.0000000   6.0000000

  Atom        11          12          13          14          15          16          17          18          19          20
 IAtWgt=          12          12          12          12          16           1           1           1           1           1
 AtmWgt=  12.0000000  12.0000000  12.0000000  12.0000000  15.9949146   1.0078250   1.0078250   1.0078250   1.0078250   1.0078250
 NucSpn=           0           0           0           0           0           1           1           1           1           1
 AtZEff=  -0.0000000  -0.0000000  -0.0000000  -0.0000000  -0.0000000  -0.0000000  -0.0000000  -0.0000000  -0.0000000  -0.0000000
 NQMom=    0.0000000   0.0000000   0.0000000   0.0000000   0.0000000   0.0000000   0.0000000   0.0000000   0.0000000   0.0000000
 NMagM=    0.0000000   0.0000000   0.0000000   0.0000000   0.0000000   2.7928460   2.7928460   2.7928460   2.7928460   2.7928460
 AtZNuc=   6.0000000   6.0000000   6.0000000   6.0000000   8.0000000   1.0000000   1.0000000   1.0000000   1.0000000   1.0000000

  Atom        21          22          23          24          25          26          27          28          29          30
 IAtWgt=           1           1           1           1           1           1           1           1           1           1
 AtmWgt=   1.0078250   1.0078250   1.0078250   1.0078250   1.0078250   1.0078250   1.0078250   1.0078250   1.0078250   1.0078250
 NucSpn=           1           1           1           1           1           1           1           1           1           1
 AtZEff=  -0.0000000  -0.0000000  -0.0000000  -0.0000000  -0.0000000  -0.0000000  -0.0000000  -0.0000000  -0.0000000  -0.0000000
 NQMom=    0.0000000   0.0000000   0.0000000   0.0000000   0.0000000   0.0000000   0.0000000   0.0000000   0.0000000   0.0000000
 NMagM=    2.7928460   2.7928460   2.7928460   2.7928460   2.7928460   2.7928460   2.7928460   2.7928460   2.7928460   2.7928460
 AtZNuc=   1.0000000   1.0000000   1.0000000   1.0000000   1.0000000   1.0000000   1.0000000   1.0000000   1.0000000   1.0000000

  Atom        31          32          33          34          35          36          37          38          39          40
 IAtWgt=           1           1           1           1           1           1           1           1           1           1
 AtmWgt=   1.0078250   1.0078250   1.0078250   1.0078250   1.0078250   1.0078250   1.0078250   1.0078250   1.0078250   1.0078250
 NucSpn=           1           1           1           1           1           1           1           1           1           1
 AtZEff=  -0.0000000  -0.0000000  -0.0000000  -0.0000000  -0.0000000  -0.0000000  -0.0000000  -0.0000000  -0.0000000  -0.0000000
 NQMom=    0.0000000   0.0000000   0.0000000   0.0000000   0.0000000   0.0000000   0.0000000   0.0000000   0.0000000   0.0000000
 NMagM=    2.7928460   2.7928460   2.7928460   2.7928460   2.7928460   2.7928460   2.7928460   2.7928460   2.7928460   2.7928460
 AtZNuc=   1.0000000   1.0000000   1.0000000   1.0000000   1.0000000   1.0000000   1.0000000   1.0000000   1.0000000   1.0000000

  Atom        41          42          43          44          45
 IAtWgt=           1           1           1           1           1
 AtmWgt=   1.0078250   1.0078250   1.0078250   1.0078250   1.0078250
 NucSpn=           1           1           1           1           1
 AtZEff=  -0.0000000  -0.0000000  -0.0000000  -0.0000000  -0.0000000
 NQMom=    0.0000000   0.0000000   0.0000000   0.0000000   0.0000000
 NMagM=    2.7928460   2.7928460   2.7928460   2.7928460   2.7928460
 AtZNuc=   1.0000000   1.0000000   1.0000000   1.0000000   1.0000000
 Leave Link  101 at Mon Feb 22 21:08:01 2021, MaxMem=   104857600 cpu:               3.2 elap:               0.1
 (Enter /sw/arch/RedHatEnterpriseServer7/EB_production/2019/software/Gaussian/g16.c01/l103.exe)

 GradGradGradGradGradGradGradGradGradGradGradGradGradGradGradGradGradGrad
 Berny optimization.
 Initialization pass.
                           ----------------------------
                           !    Initial Parameters    !
                           ! (Angstroms and Degrees)  !
 --------------------------                            --------------------------
 ! Name  Definition              Value          Derivative Info.                !
 --------------------------------------------------------------------------------
 ! R1    R(1,2)                  1.5453         estimate D2E/DX2                !
 ! R2    R(1,16)                 1.0911         estimate D2E/DX2                !
 ! R3    R(1,17)                 1.0916         estimate D2E/DX2                !
 ! R4    R(1,18)                 1.0917         estimate D2E/DX2                !
 ! R5    R(2,3)                  1.5528         estimate D2E/DX2                !
 ! R6    R(2,19)                 1.0937         estimate D2E/DX2                !
 ! R7    R(2,20)                 1.0937         estimate D2E/DX2                !
 ! R8    R(3,4)                  1.5531         estimate D2E/DX2                !
 ! R9    R(3,21)                 1.0944         estimate D2E/DX2                !
 ! R10   R(3,22)                 1.0944         estimate D2E/DX2                !
 ! R11   R(4,5)                  1.5534         estimate D2E/DX2                !
 ! R12   R(4,23)                 1.0939         estimate D2E/DX2                !
 ! R13   R(4,24)                 1.0939         estimate D2E/DX2                !
 ! R14   R(5,6)                  1.553          estimate D2E/DX2                !
 ! R15   R(5,25)                 1.0944         estimate D2E/DX2                !
 ! R16   R(5,26)                 1.0944         estimate D2E/DX2                !
 ! R17   R(6,7)                  1.5537         estimate D2E/DX2                !
 ! R18   R(6,27)                 1.0947         estimate D2E/DX2                !
 ! R19   R(6,28)                 1.0947         estimate D2E/DX2                !
 ! R20   R(7,8)                  1.5523         estimate D2E/DX2                !
 ! R21   R(7,29)                 1.0941         estimate D2E/DX2                !
 ! R22   R(7,30)                 1.0941         estimate D2E/DX2                !
 ! R23   R(8,9)                  1.5508         estimate D2E/DX2                !
 ! R24   R(8,31)                 1.094          estimate D2E/DX2                !
 ! R25   R(8,32)                 1.094          estimate D2E/DX2                !
 ! R26   R(9,10)                 1.5512         estimate D2E/DX2                !
 ! R27   R(9,33)                 1.0945         estimate D2E/DX2                !
 ! R28   R(9,34)                 1.0945         estimate D2E/DX2                !
 ! R29   R(10,11)                1.5519         estimate D2E/DX2                !
 ! R30   R(10,35)                1.0944         estimate D2E/DX2                !
 ! R31   R(10,36)                1.0944         estimate D2E/DX2                !
 ! R32   R(11,12)                1.5517         estimate D2E/DX2                !
 ! R33   R(11,37)                1.0933         estimate D2E/DX2                !
 ! R34   R(11,38)                1.0933         estimate D2E/DX2                !
 ! R35   R(12,13)                1.5522         estimate D2E/DX2                !
 ! R36   R(12,39)                1.0931         estimate D2E/DX2                !
 ! R37   R(12,40)                1.0931         estimate D2E/DX2                !
 ! R38   R(13,14)                1.5473         estimate D2E/DX2                !
 ! R39   R(13,41)                1.0934         estimate D2E/DX2                !
 ! R40   R(13,42)                1.0934         estimate D2E/DX2                !
 ! R41   R(14,15)                1.4224         estimate D2E/DX2                !
 ! R42   R(14,43)                1.0933         estimate D2E/DX2                !
 ! R43   R(14,44)                1.0933         estimate D2E/DX2                !
 ! R44   R(15,45)                0.98           estimate D2E/DX2                !
 ! A1    A(2,1,16)             109.7494         estimate D2E/DX2                !
 ! A2    A(2,1,17)             110.4552         estimate D2E/DX2                !
 ! A3    A(2,1,18)             110.4555         estimate D2E/DX2                !
 ! A4    A(16,1,17)            108.604          estimate D2E/DX2                !
 ! A5    A(16,1,18)            108.6041         estimate D2E/DX2                !
 ! A6    A(17,1,18)            108.9251         estimate D2E/DX2                !
 ! A7    A(1,2,3)              112.8722         estimate D2E/DX2                !
 ! A8    A(1,2,19)             108.5306         estimate D2E/DX2                !
 ! A9    A(1,2,20)             108.5309         estimate D2E/DX2                !
 ! A10   A(3,2,19)             109.3448         estimate D2E/DX2                !
 ! A11   A(3,2,20)             109.3447         estimate D2E/DX2                !
 ! A12   A(19,2,20)            108.1034         estimate D2E/DX2                !
 ! A13   A(2,3,4)              112.8183         estimate D2E/DX2                !
 ! A14   A(2,3,21)             108.9275         estimate D2E/DX2                !
 ! A15   A(2,3,22)             108.9273         estimate D2E/DX2                !
 ! A16   A(4,3,21)             108.9494         estimate D2E/DX2                !
 ! A17   A(4,3,22)             108.9492         estimate D2E/DX2                !
 ! A18   A(21,3,22)            108.1655         estimate D2E/DX2                !
 ! A19   A(3,4,5)              112.3734         estimate D2E/DX2                !
 ! A20   A(3,4,23)             109.0784         estimate D2E/DX2                !
 ! A21   A(3,4,24)             109.0791         estimate D2E/DX2                !
 ! A22   A(5,4,23)             108.9948         estimate D2E/DX2                !
 ! A23   A(5,4,24)             108.9954         estimate D2E/DX2                !
 ! A24   A(23,4,24)            108.2336         estimate D2E/DX2                !
 ! A25   A(4,5,6)              113.0465         estimate D2E/DX2                !
 ! A26   A(4,5,25)             108.9208         estimate D2E/DX2                !
 ! A27   A(4,5,26)             108.9212         estimate D2E/DX2                !
 ! A28   A(6,5,25)             108.8272         estimate D2E/DX2                !
 ! A29   A(6,5,26)             108.827          estimate D2E/DX2                !
 ! A30   A(25,5,26)            108.1878         estimate D2E/DX2                !
 ! A31   A(5,6,7)              112.6457         estimate D2E/DX2                !
 ! A32   A(5,6,27)             109.0032         estimate D2E/DX2                !
 ! A33   A(5,6,28)             109.0043         estimate D2E/DX2                !
 ! A34   A(7,6,27)             108.9456         estimate D2E/DX2                !
 ! A35   A(7,6,28)             108.9457         estimate D2E/DX2                !
 ! A36   A(27,6,28)            108.2001         estimate D2E/DX2                !
 ! A37   A(6,7,8)              112.5266         estimate D2E/DX2                !
 ! A38   A(6,7,29)             108.9766         estimate D2E/DX2                !
 ! A39   A(6,7,30)             108.9765         estimate D2E/DX2                !
 ! A40   A(8,7,29)             109.0315         estimate D2E/DX2                !
 ! A41   A(8,7,30)             109.0316         estimate D2E/DX2                !
 ! A42   A(29,7,30)            108.2058         estimate D2E/DX2                !
 ! A43   A(7,8,9)              112.5903         estimate D2E/DX2                !
 ! A44   A(7,8,31)             108.9172         estimate D2E/DX2                !
 ! A45   A(7,8,32)             108.9169         estimate D2E/DX2                !
 ! A46   A(9,8,31)             109.0576         estimate D2E/DX2                !
 ! A47   A(9,8,32)             109.0575         estimate D2E/DX2                !
 ! A48   A(31,8,32)            108.207          estimate D2E/DX2                !
 ! A49   A(8,9,10)             112.5461         estimate D2E/DX2                !
 ! A50   A(8,9,33)             108.9804         estimate D2E/DX2                !
 ! A51   A(8,9,34)             108.9803         estimate D2E/DX2                !
 ! A52   A(10,9,33)            109.0444         estimate D2E/DX2                !
 ! A53   A(10,9,34)            109.0441         estimate D2E/DX2                !
 ! A54   A(33,9,34)            108.1501         estimate D2E/DX2                !
 ! A55   A(9,10,11)            112.6691         estimate D2E/DX2                !
 ! A56   A(9,10,35)            108.9347         estimate D2E/DX2                !
 ! A57   A(9,10,36)            108.9346         estimate D2E/DX2                !
 ! A58   A(11,10,35)           109.0435         estimate D2E/DX2                !
 ! A59   A(11,10,36)           109.0435         estimate D2E/DX2                !
 ! A60   A(35,10,36)           108.114          estimate D2E/DX2                !
 ! A61   A(10,11,12)           112.4917         estimate D2E/DX2                !
 ! A62   A(10,11,37)           108.9927         estimate D2E/DX2                !
 ! A63   A(10,11,38)           108.9928         estimate D2E/DX2                !
 ! A64   A(12,11,37)           108.9994         estimate D2E/DX2                !
 ! A65   A(12,11,38)           108.9991         estimate D2E/DX2                !
 ! A66   A(37,11,38)           108.2775         estimate D2E/DX2                !
 ! A67   A(11,12,13)           112.8545         estimate D2E/DX2                !
 ! A68   A(11,12,39)           108.9663         estimate D2E/DX2                !
 ! A69   A(11,12,40)           108.9663         estimate D2E/DX2                !
 ! A70   A(13,12,39)           108.8948         estimate D2E/DX2                !
 ! A71   A(13,12,40)           108.8951         estimate D2E/DX2                !
 ! A72   A(39,12,40)           108.1586         estimate D2E/DX2                !
 ! A73   A(12,13,14)           112.4194         estimate D2E/DX2                !
 ! A74   A(12,13,41)           109.4124         estimate D2E/DX2                !
 ! A75   A(12,13,42)           109.4129         estimate D2E/DX2                !
 ! A76   A(14,13,41)           108.7572         estimate D2E/DX2                !
 ! A77   A(14,13,42)           108.7577         estimate D2E/DX2                !
 ! A78   A(41,13,42)           107.978          estimate D2E/DX2                !
 ! A79   A(13,14,15)           110.1509         estimate D2E/DX2                !
 ! A80   A(13,14,43)           110.0385         estimate D2E/DX2                !
 ! A81   A(13,14,44)           110.038          estimate D2E/DX2                !
 ! A82   A(15,14,43)           108.6571         estimate D2E/DX2                !
 ! A83   A(15,14,44)           108.6569         estimate D2E/DX2                !
 ! A84   A(43,14,44)           109.2655         estimate D2E/DX2                !
 ! A85   A(14,15,45)           105.0825         estimate D2E/DX2                !
 ! D1    D(16,1,2,3)          -179.9999         estimate D2E/DX2                !
 ! D2    D(16,1,2,19)           58.6291         estimate D2E/DX2                !
 ! D3    D(16,1,2,20)          -58.6289         estimate D2E/DX2                !
 ! D4    D(17,1,2,3)           -60.2848         estimate D2E/DX2                !
 ! D5    D(17,1,2,19)          178.3442         estimate D2E/DX2                !
 ! D6    D(17,1,2,20)           61.0862         estimate D2E/DX2                !
 ! D7    D(18,1,2,3)            60.2846         estimate D2E/DX2                !
 ! D8    D(18,1,2,19)          -61.0864         estimate D2E/DX2                !
 ! D9    D(18,1,2,20)         -178.3444         estimate D2E/DX2                !
 ! D10   D(1,2,3,4)           -179.9996         estimate D2E/DX2                !
 ! D11   D(1,2,3,21)            58.888          estimate D2E/DX2                !
 ! D12   D(1,2,3,22)           -58.8876         estimate D2E/DX2                !
 ! D13   D(19,2,3,4)           -59.091          estimate D2E/DX2                !
 ! D14   D(19,2,3,21)          179.7966         estimate D2E/DX2                !
 ! D15   D(19,2,3,22)           62.021          estimate D2E/DX2                !
 ! D16   D(20,2,3,4)            59.0916         estimate D2E/DX2                !
 ! D17   D(20,2,3,21)          -62.0209         estimate D2E/DX2                !
 ! D18   D(20,2,3,22)         -179.7964         estimate D2E/DX2                !
 ! D19   D(2,3,4,5)           -179.9997         estimate D2E/DX2                !
 ! D20   D(2,3,4,23)           -59.0157         estimate D2E/DX2                !
 ! D21   D(2,3,4,24)            59.0149         estimate D2E/DX2                !
 ! D22   D(21,3,4,5)           -58.8998         estimate D2E/DX2                !
 ! D23   D(21,3,4,23)           62.0842         estimate D2E/DX2                !
 ! D24   D(21,3,4,24)         -179.8851         estimate D2E/DX2                !
 ! D25   D(22,3,4,5)            58.9007         estimate D2E/DX2                !
 ! D26   D(22,3,4,23)          179.8847         estimate D2E/DX2                !
 ! D27   D(22,3,4,24)          -62.0846         estimate D2E/DX2                !
 ! D28   D(3,4,5,6)            179.9994         estimate D2E/DX2                !
 ! D29   D(3,4,5,25)           -58.8982         estimate D2E/DX2                !
 ! D30   D(3,4,5,26)            58.897          estimate D2E/DX2                !
 ! D31   D(23,4,5,6)            58.9674         estimate D2E/DX2                !
 ! D32   D(23,4,5,25)         -179.9302         estimate D2E/DX2                !
 ! D33   D(23,4,5,26)          -62.1351         estimate D2E/DX2                !
 ! D34   D(24,4,5,6)           -58.9672         estimate D2E/DX2                !
 ! D35   D(24,4,5,25)           62.1352         estimate D2E/DX2                !
 ! D36   D(24,4,5,26)          179.9303         estimate D2E/DX2                !
 ! D37   D(4,5,6,7)            179.9996         estimate D2E/DX2                !
 ! D38   D(4,5,6,27)            58.9521         estimate D2E/DX2                !
 ! D39   D(4,5,6,28)           -58.9521         estimate D2E/DX2                !
 ! D40   D(25,5,6,7)            58.8442         estimate D2E/DX2                !
 ! D41   D(25,5,6,27)          -62.2033         estimate D2E/DX2                !
 ! D42   D(25,5,6,28)          179.8925         estimate D2E/DX2                !
 ! D43   D(26,5,6,7)           -58.8446         estimate D2E/DX2                !
 ! D44   D(26,5,6,27)         -179.8921         estimate D2E/DX2                !
 ! D45   D(26,5,6,28)           62.2036         estimate D2E/DX2                !
 ! D46   D(5,6,7,8)           -179.9996         estimate D2E/DX2                !
 ! D47   D(5,6,7,29)           -58.9396         estimate D2E/DX2                !
 ! D48   D(5,6,7,30)            58.9404         estimate D2E/DX2                !
 ! D49   D(27,6,7,8)           -58.9192         estimate D2E/DX2                !
 ! D50   D(27,6,7,29)           62.1407         estimate D2E/DX2                !
 ! D51   D(27,6,7,30)         -179.9792         estimate D2E/DX2                !
 ! D52   D(28,6,7,8)            58.9187         estimate D2E/DX2                !
 ! D53   D(28,6,7,29)          179.9786         estimate D2E/DX2                !
 ! D54   D(28,6,7,30)          -62.1413         estimate D2E/DX2                !
 ! D55   D(6,7,8,9)           -179.9996         estimate D2E/DX2                !
 ! D56   D(6,7,8,31)            58.907          estimate D2E/DX2                !
 ! D57   D(6,7,8,32)           -58.9066         estimate D2E/DX2                !
 ! D58   D(29,7,8,9)            58.9718         estimate D2E/DX2                !
 ! D59   D(29,7,8,31)          -62.1215         estimate D2E/DX2                !
 ! D60   D(29,7,8,32)         -179.9352         estimate D2E/DX2                !
 ! D61   D(30,7,8,9)           -58.9712         estimate D2E/DX2                !
 ! D62   D(30,7,8,31)          179.9355         estimate D2E/DX2                !
 ! D63   D(30,7,8,32)           62.1218         estimate D2E/DX2                !
 ! D64   D(7,8,9,10)          -180.0            estimate D2E/DX2                !
 ! D65   D(7,8,9,33)            58.9084         estimate D2E/DX2                !
 ! D66   D(7,8,9,34)           -58.9089         estimate D2E/DX2                !
 ! D67   D(31,8,9,10)          -58.9869         estimate D2E/DX2                !
 ! D68   D(31,8,9,33)          179.9215         estimate D2E/DX2                !
 ! D69   D(31,8,9,34)           62.1041         estimate D2E/DX2                !
 ! D70   D(32,8,9,10)           58.9874         estimate D2E/DX2                !
 ! D71   D(32,8,9,33)          -62.1042         estimate D2E/DX2                !
 ! D72   D(32,8,9,34)         -179.9216         estimate D2E/DX2                !
 ! D73   D(8,9,10,11)          179.9998         estimate D2E/DX2                !
 ! D74   D(8,9,10,35)           58.8607         estimate D2E/DX2                !
 ! D75   D(8,9,10,36)          -58.8613         estimate D2E/DX2                !
 ! D76   D(33,9,10,11)         -58.9453         estimate D2E/DX2                !
 ! D77   D(33,9,10,35)         179.9157         estimate D2E/DX2                !
 ! D78   D(33,9,10,36)          62.1937         estimate D2E/DX2                !
 ! D79   D(34,9,10,11)          58.9452         estimate D2E/DX2                !
 ! D80   D(34,9,10,35)         -62.1938         estimate D2E/DX2                !
 ! D81   D(34,9,10,36)        -179.9159         estimate D2E/DX2                !
 ! D82   D(9,10,11,12)         179.9998         estimate D2E/DX2                !
 ! D83   D(9,10,11,37)         -58.9924         estimate D2E/DX2                !
 ! D84   D(9,10,11,38)          58.9923         estimate D2E/DX2                !
 ! D85   D(35,10,11,12)        -58.9232         estimate D2E/DX2                !
 ! D86   D(35,10,11,37)         62.0846         estimate D2E/DX2                !
 ! D87   D(35,10,11,38)       -179.9307         estimate D2E/DX2                !
 ! D88   D(36,10,11,12)         58.9229         estimate D2E/DX2                !
 ! D89   D(36,10,11,37)        179.9307         estimate D2E/DX2                !
 ! D90   D(36,10,11,38)        -62.0845         estimate D2E/DX2                !
 ! D91   D(10,11,12,13)       -179.9998         estimate D2E/DX2                !
 ! D92   D(10,11,12,39)        -58.9057         estimate D2E/DX2                !
 ! D93   D(10,11,12,40)         58.9058         estimate D2E/DX2                !
 ! D94   D(37,11,12,13)         58.9962         estimate D2E/DX2                !
 ! D95   D(37,11,12,39)       -179.9097         estimate D2E/DX2                !
 ! D96   D(37,11,12,40)        -62.0981         estimate D2E/DX2                !
 ! D97   D(38,11,12,13)        -58.996          estimate D2E/DX2                !
 ! D98   D(38,11,12,39)         62.0981         estimate D2E/DX2                !
 ! D99   D(38,11,12,40)        179.9097         estimate D2E/DX2                !
 ! D100  D(11,12,13,14)       -179.9996         estimate D2E/DX2                !
 ! D101  D(11,12,13,41)        -59.0553         estimate D2E/DX2                !
 ! D102  D(11,12,13,42)         59.0551         estimate D2E/DX2                !
 ! D103  D(39,12,13,14)         58.8656         estimate D2E/DX2                !
 ! D104  D(39,12,13,41)        179.81           estimate D2E/DX2                !
 ! D105  D(39,12,13,42)        -62.0797         estimate D2E/DX2                !
 ! D106  D(40,12,13,14)        -58.8649         estimate D2E/DX2                !
 ! D107  D(40,12,13,41)         62.0795         estimate D2E/DX2                !
 ! D108  D(40,12,13,42)       -179.8101         estimate D2E/DX2                !
 ! D109  D(12,13,14,15)        179.9999         estimate D2E/DX2                !
 ! D110  D(12,13,14,43)         60.2271         estimate D2E/DX2                !
 ! D111  D(12,13,14,44)        -60.2279         estimate D2E/DX2                !
 ! D112  D(41,13,14,15)         58.6802         estimate D2E/DX2                !
 ! D113  D(41,13,14,43)        -61.0925         estimate D2E/DX2                !
 ! D114  D(41,13,14,44)        178.4524         estimate D2E/DX2                !
 ! D115  D(42,13,14,15)        -58.6794         estimate D2E/DX2                !
 ! D116  D(42,13,14,43)       -178.4522         estimate D2E/DX2                !
 ! D117  D(42,13,14,44)         61.0927         estimate D2E/DX2                !
 ! D118  D(13,14,15,45)        179.9994         estimate D2E/DX2                !
 ! D119  D(43,14,15,45)        -59.394          estimate D2E/DX2                !
 ! D120  D(44,14,15,45)         59.3936         estimate D2E/DX2                !
 --------------------------------------------------------------------------------
 Trust Radius=3.00D-01 FncErr=1.00D-07 GrdErr=1.00D-06 EigMax=2.50D+02 EigMin=1.00D-04
 Number of steps in this run=    259 maximum allowed number of steps=    270.
 GradGradGradGradGradGradGradGradGradGradGradGradGradGradGradGradGradGrad

 Leave Link  103 at Mon Feb 22 21:08:01 2021, MaxMem=   104857600 cpu:               0.8 elap:               0.1
 (Enter /sw/arch/RedHatEnterpriseServer7/EB_production/2019/software/Gaussian/g16.c01/l202.exe)
                          Input orientation:                          
 ---------------------------------------------------------------------
 Center     Atomic      Atomic             Coordinates (Angstroms)
 Number     Number       Type             X           Y           Z
 ---------------------------------------------------------------------
      1          6           0       -2.336010  -11.959230   -9.631770
      2          6           0       -1.329830  -10.934760   -9.060670
      3          6           0       -1.985850   -9.928700   -8.076530
      4          6           0       -0.973570   -8.899720   -7.503360
      5          6           0       -1.640500   -7.898680   -6.520470
      6          6           0       -0.641730   -6.862120   -5.937660
      7          6           0       -1.318350   -5.865820   -4.956130
      8          6           0       -0.317620   -4.831040   -4.375280
      9          6           0       -0.991500   -3.835760   -3.395270
     10          6           0        0.009380   -2.802240   -2.815480
     11          6           0       -0.662040   -1.804750   -1.834320
     12          6           0        0.342730   -0.772890   -1.256870
     13          6           0       -0.320150    0.229220   -0.274160
     14          6           0        0.690410    1.253210    0.295410
     15          8           0        0.033750    2.145480    1.187510
     16          1           0       -1.823140  -12.638580  -10.314310
     17          1           0       -2.781900  -12.545800   -8.826280
     18          1           0       -3.130390  -11.449010  -10.179800
     19          1           0       -0.881390  -10.386400   -9.893910
     20          1           0       -0.534060  -11.479550   -8.544880
     21          1           0       -2.435310  -10.484520   -7.247850
     22          1           0       -2.783010   -9.390220   -8.598300
     23          1           0       -0.176780   -9.435720   -6.979500
     24          1           0       -0.524470   -8.341440   -8.329920
     25          1           0       -2.438220   -7.364030   -7.045420
     26          1           0       -2.090460   -8.458540   -5.694720
     27          1           0       -0.191270   -6.299010   -6.761310
     28          1           0        0.156610   -7.393880   -5.410150
     29          1           0       -2.116150   -5.333760   -5.482980
     30          1           0       -1.768440   -6.428100   -4.132480
     31          1           0        0.132090   -4.270770   -5.200330
     32          1           0        0.479760   -5.364990   -3.849990
     33          1           0       -1.442150   -4.397640   -2.571190
     34          1           0       -1.789850   -3.303330   -3.921640
     35          1           0        0.459980   -2.242540   -3.640960
     36          1           0        0.807570   -3.336510   -2.290920
     37          1           0       -1.458440   -1.270610   -2.359520
     38          1           0       -1.110830   -2.364650   -1.009390
     39          1           0        1.139560   -1.307540   -0.733300
     40          1           0        0.792280   -0.214540   -2.082140
     41          1           0       -1.116880    0.771460   -0.790540
     42          1           0       -0.769920   -0.320530    0.557060
     43          1           0        1.133250    1.834580   -0.517770
     44          1           0        1.483010    0.733780    0.840700
     45          1           0        0.734640    2.754680    1.500710
 ---------------------------------------------------------------------
                    Distance matrix (angstroms):
                    1          2          3          4          5
     1  C    0.000000
     2  C    1.545345   0.000000
     3  C    2.581557   1.552756   0.000000
     4  C    3.968246   2.587184   1.553073   0.000000
     5  C    5.162556   3.970757   2.581002   1.553367   0.000000
     6  C    6.519016   5.178134   3.973076   2.591013   1.552954
     7  C    7.747702   6.522387   5.166183   3.976406   2.585239
     8  C    9.083814   7.760982   6.516777   5.173907   3.970172
     9  C   10.329202   9.088841   7.747699   6.520768   5.166759
    10  C   11.653889  10.340878   9.079979   7.753817   6.513275
    11  C   12.911850  11.662897  10.330354   9.087005   7.749411
    12  C   14.228450  12.921314  11.651562  10.334246   9.078302
    13  C   15.497963  14.242776  12.916457  11.663011  10.335496
    14  C   16.801092  15.497233  14.222758  12.910137  11.646736
    15  O   17.933640  16.672649  15.352102  14.090506  12.771109
    16  H    1.091060   2.172089   3.518179   4.754186   6.073980
    17  H    1.091648   2.181489   2.836377   4.279495   5.311806
    18  H    1.091651   2.181495   2.836381   4.279496   5.311809
    19  H    2.158340   1.093657   2.175360   2.816637   4.259706
    20  H    2.158343   1.093657   2.175358   2.816639   4.259704
    21  H    2.804943   2.170511   1.094377   2.171074   2.801316
    22  H    2.804939   2.170512   1.094381   2.171073   2.801321
    23  H    4.250284   2.812101   2.172381   1.093892   2.171561
    24  H    4.250282   2.812100   2.172379   1.093878   2.171559
    25  H    5.274042   4.247337   2.800957   2.171003   1.094432
    26  H    5.274039   4.247334   2.800952   2.171005   1.094427
    27  H    6.699070   5.298448   4.257343   2.815373   2.171915
    28  H    6.699078   5.298456   4.257350   2.815384   2.171920
    29  H    7.820336   6.692486   5.277969   4.254820   2.807391
    30  H    7.820340   6.692490   5.277973   4.254827   2.807396
    31  H    9.210950   7.838890   6.691066   5.287117   4.248126
    32  H    9.210947   7.838886   6.691063   5.287116   4.248123
    33  H   10.384046   9.211944   7.822851   6.694370   5.281424
    34  H   10.384049   9.211947   7.822855   6.694372   5.281426
    35  H   11.752507  10.398623   9.205076   7.828873   6.685470
    36  H   11.752509  10.398625   9.205077   7.828876   6.685472
    37  H   12.957714  11.760857  10.388690   9.213984   7.828024
    38  H   12.957718  11.760861  10.388695   9.213991   7.828029
    39  H   14.308070  12.966354  11.748005  10.389429   9.201261
    40  H   14.308070  12.966354  11.748005  10.389428   9.201261
    41  H   15.547479  14.334434  12.974366  11.773454  10.405652
    42  H   15.547483  14.334438  12.974371  11.773459  10.405657
    43  H   16.892897  15.559690  14.326144  12.979305  11.767007
    44  H   16.892899  15.559692  14.326146  12.979308  11.767009
    45  H   18.704549  17.412798  16.124290  14.826203  13.545283
                    6          7          8          9         10
     6  C    0.000000
     7  C    1.553650   0.000000
     8  C    2.582898   1.552294   0.000000
     9  C    3.967990   2.581523   1.550844   0.000000
    10  C    5.162807   3.966204   2.579910   1.551155   0.000000
    11  C    6.512665   5.164178   3.966552   2.582656   1.551923
    12  C    7.743234   6.510119   5.160342   3.966623   2.580436
    13  C    9.081065   7.750275   6.513480   5.168762   3.969464
    14  C   10.319125   9.071625   7.736250   6.507500   5.156366
    15  O   11.504833  10.185942   8.929721   7.604488   6.364311
    16  H    7.342907   8.650733   9.924533  11.227394  12.503766
    17  H    6.725226   7.857619   9.241299  10.419510  11.783799
    18  H    6.725232   7.857622   9.241302  10.419514  11.783802
    19  H    5.303763   6.708819   7.850805   9.227965  10.412354
    20  H    5.303758   6.708815   7.850802   9.227961  10.412351
    21  H    4.249154   5.275601   6.685664   7.818758   9.199991
    22  H    4.249162   5.275607   6.685669   7.818763   9.199996
    23  H    2.815142   4.259272   5.291963   6.698509   7.834333
    24  H    2.815146   4.259272   5.291963   6.698510   7.834333
    25  H    2.169429   2.804260   4.247662   5.278758   6.685287
    26  H    2.169423   2.804259   4.247663   5.278757   6.685288
    27  H    1.094718   2.171782   2.804289   4.247139   5.276100
    28  H    1.094706   2.171775   2.804282   4.247130   5.276092
    29  H    2.171758   1.094141   2.171275   2.804884   4.247591
    30  H    2.171756   1.094139   2.171274   2.804878   4.247587
    31  H    2.803132   2.169699   1.094006   2.170237   2.803417
    32  H    2.803124   2.169695   1.094005   2.170235   2.803419
    33  H    4.248230   2.803358   2.169595   1.094487   2.170695
    34  H    4.248235   2.803362   2.169596   1.094491   2.170693
    35  H    5.275331   4.245031   2.800753   2.169218   1.094405
    36  H    5.275330   4.245031   2.800755   2.169215   1.094402
    37  H    6.688429   5.279959   4.247519   2.805496   2.169858
    38  H    6.688433   5.279963   4.247526   2.805500   2.169866
    39  H    7.817398   6.682180   5.272802   4.244926   2.801233
    40  H    7.817400   6.682181   5.272802   4.244928   2.801234
    41  H    9.219011   7.838764   6.699043   5.294036   4.259128
    42  H    9.219014   7.838768   6.699049   5.294039   4.259134
    43  H   10.399921   9.219845   7.836830   6.704277   5.295532
    44  H   10.399922   9.219847   7.836832   6.704278   5.295533
    45  H   12.235464  10.964423   9.652857   8.389522   7.073532
                   11         12         13         14         15
    11  C    0.000000
    12  C    1.551691   0.000000
    13  C    2.586121   1.552209   0.000000
    14  C    3.964340   2.575953   1.547319   0.000000
    15  O    5.021942   3.819338   2.435934   1.422389   0.000000
    16  H   13.806892  15.083859  16.390359  17.659726  18.823080
    17  H   12.990437  14.340875  15.569204  16.901918  18.001044
    18  H   12.990440  14.340878  15.569207  16.901921  18.001047
    19  H   11.774966  12.981391  14.336874  15.549062  16.753608
    20  H   11.774963  12.981387  14.336871  15.549059  16.753605
    21  H   10.382158  11.744152  12.957256  14.298434  15.387282
    22  H   10.382162  11.744157  12.957261  14.298438  15.387287
    23  H    9.216293  10.395336  11.764064  12.958764  14.172811
    24  H    9.216293  10.395337  11.764065  12.958764  14.172811
    25  H    7.824064   9.202398  10.391998  11.744485  12.818836
    26  H    7.824065   9.202399  10.391999  11.744487  12.818838
    27  H    6.685449   7.818057   9.204212  10.373557  11.599301
    28  H    6.685441   7.818049   9.204203  10.373549  11.599293
    29  H    5.280253   6.686377   7.829698   9.200801  10.249709
    30  H    5.280249   6.686372   7.829693   9.200798  10.249705
    31  H    4.247578   5.275454   6.687420   7.812121   9.054415
    32  H    4.247581   5.275456   6.687421   7.812124   9.054418
    33  H    2.806177   4.248770   5.286120   6.685605   7.688857
    34  H    2.806172   4.248767   5.286117   6.685601   7.688853
    35  H    2.171298   2.803124   4.248946   5.269571   6.538388
    36  H    2.171296   2.803120   4.248941   5.269569   6.538386
    37  H    1.093341   2.169741   2.809612   4.246867   5.145651
    38  H    1.093348   2.169743   2.809608   4.246867   5.145649
    39  H    2.169153   1.093121   2.168685   2.795965   4.103130
    40  H    2.169154   1.093124   2.168690   2.795963   4.103130
    41  H    2.816596   2.175533   1.093367   2.162792   2.669188
    42  H    2.816602   2.175537   1.093364   2.162795   2.669187
    43  H    4.266274   2.823135   2.179197   1.093325   2.052691
    44  H    4.266275   2.823135   2.179192   1.093327   2.052688
    45  H    5.819067   4.494618   3.262008   1.925907   0.980034
                   16         17         18         19         20
    16  H    0.000000
    17  H    1.772586   0.000000
    18  H    1.772589   1.776629   0.000000
    19  H    2.477084   3.068351   2.503772   0.000000
    20  H    2.477087   2.503769   3.068359   1.770733   0.000000
    21  H    3.797091   2.619244   3.163812   3.070167   2.507414
    22  H    3.797089   3.163805   2.619243   2.507417   3.070168
    23  H    4.908133   4.457560   4.797819   3.145481   2.599097
    24  H    4.908132   4.797813   4.457563   2.599099   3.145478
    25  H    6.235771   5.490020   5.195238   4.435351   4.776161
    26  H    6.235768   5.195234   5.490019   4.776159   4.435346
    27  H    7.448285   7.070916   6.844487   5.195787   5.489683
    28  H    7.448293   6.844492   7.070927   5.489692   5.195792
    29  H    8.762876   7.977117   7.777216   6.819832   7.046203
    30  H    8.762881   7.777218   7.977125   7.046210   6.819832
    31  H    9.999798   9.492891   9.325558   7.775459   7.974728
    32  H    9.999795   9.325552   9.492891   7.974726   7.775453
    33  H   11.314334  10.359227  10.510134   9.476388   9.309299
    34  H   11.314337  10.510134  10.359233   9.309307   9.476388
    35  H   12.562798  11.981423  11.849315  10.354763  10.505184
    36  H   12.562799  11.849314  11.981428  10.505189  10.354762
    37  H   13.879569  13.065238  12.944189  11.840509  11.972285
    38  H   13.879573  12.944190  13.065245  11.972293  11.840510
    39  H   15.131616  14.393494  14.502353  13.054758  12.934124
    40  H   15.131616  14.502350  14.393497  12.934128  13.054755
    41  H   16.462994  15.642724  15.541953  14.402244  14.510572
    42  H   16.462998  15.541955  15.642731  14.510580  14.402245
    43  H   17.725259  17.063267  16.970186  15.534578  15.635871
    44  H   17.725261  16.970186  17.063272  15.635877  15.534578
    45  H   19.572669  18.791420  18.791423  17.468168  17.468165
                   21         22         23         24         25
    21  H    0.000000
    22  H    1.772598   0.000000
    23  H    2.504586   3.068390   0.000000
    24  H    3.068383   2.504590   1.772561   0.000000
    25  H    3.127050   2.575997   3.067630   2.503539   0.000000
    26  H    2.575991   3.127048   2.503540   3.067624   1.772930
    27  H    4.773985   4.432519   3.144323   2.596744   2.502753
    28  H    4.432521   4.773996   2.596752   3.144328   3.067269
    29  H    5.454077   5.157983   4.777740   4.436739   2.582043
    30  H    5.157983   5.454086   4.436742   4.777744   3.132058
    31  H    7.028127   6.800939   5.471522   5.176462   4.424829
    32  H    6.800932   7.028129   5.176458   5.471518   4.766712
    33  H    7.740002   7.940391   6.812974   7.039792   5.459886
    34  H    7.940389   7.740009   7.039795   6.812978   5.164075
    35  H    9.451063   9.283401   7.955699   7.755776   6.798498
    36  H    9.283398   9.451069   7.755778   7.955701   7.025763
    37  H   10.475981  10.324966   9.468679   9.301323   7.749025
    38  H   10.324966  10.475990   9.301328   9.468685   7.949177
    39  H   11.808303  11.940456  10.335138  10.485866   9.451161
    40  H   11.940452  11.808308  10.485865  10.335139   9.283614
    41  H   13.043473  12.922726  11.973869  11.842219  10.346771
    42  H   12.922726  13.043482  11.842223  11.973874  10.497229
    43  H   14.484089  14.374568  13.057174  12.935575  11.831316
    44  H   14.374565  14.484096  12.935577  13.057177  11.964174
    45  H   16.182160  16.182165  14.877853  14.877853  13.619533
                   26         27         28         29         30
    26  H    0.000000
    27  H    3.067264   0.000000
    28  H    2.502759   1.773526   0.000000
    29  H    3.132051   2.504196   3.068361   0.000000
    30  H    2.582049   3.068367   2.504194   1.772663   0.000000
    31  H    4.766715   2.579724   3.130246   2.502883   3.066984
    32  H    4.424829   3.130249   2.579713   3.066982   2.502880
    33  H    5.164073   4.768335   4.426419   3.131951   2.582026
    34  H    5.459887   4.426430   4.768330   2.582034   3.131948
    35  H    7.025762   5.159037   5.455123   4.425508   4.767217
    36  H    6.798502   5.455133   5.159031   4.767221   4.425506
    37  H    7.949173   6.801932   7.029165   5.166989   5.462526
    38  H    7.749031   7.029179   6.801930   5.462535   5.166988
    39  H    9.283616   7.938689   7.738388   7.026347   6.799340
    40  H    9.451162   7.738396   7.938681   6.799345   7.026344
    41  H   10.497225   9.300451   9.467595   7.764744   7.964092
    42  H   10.346777   9.467608   9.300448   7.964100   7.764743
    43  H   11.964173  10.338831  10.490647   9.305751   9.474060
    44  H   11.831321  10.490658  10.338826   9.474066   9.305749
    45  H   13.619534  12.291769  12.291760  11.059918  11.059914
                   31         32         33         34         35
    31  H    0.000000
    32  H    1.772459   0.000000
    33  H    3.067035   2.502965   0.000000
    34  H    2.502967   3.067035   1.772604   0.000000
    35  H    2.579315   3.129501   3.067077   2.503156   0.000000
    36  H    3.129502   2.579320   2.503156   3.067073   1.772060
    37  H    4.427296   4.768864   3.134228   2.584957   2.503412
    38  H    4.768870   4.427304   2.584964   3.134229   3.067167
    39  H    5.454364   5.158681   4.426261   4.767613   3.128984
    40  H    5.158678   5.454365   4.767617   4.426260   2.579366
    41  H    6.813975   7.040278   5.476870   5.182720   4.437970
    42  H    7.040281   6.813983   5.182728   5.476870   4.778090
    43  H    7.759123   7.960185   7.049098   6.821214   5.179818
    44  H    7.960185   7.759129   6.821219   7.049096   5.476344
    45  H    9.727484   9.727487   8.513194   8.513191   7.175264
                   36         37         38         39         40
    36  H    0.000000
    37  H    3.067157   0.000000
    38  H    2.503416   1.772176   0.000000
    39  H    2.579364   3.065218   2.501592   0.000000
    40  H    3.128981   2.501592   3.065223   1.770486   0.000000
    41  H    4.778082   2.597770   3.143743   3.068719   2.507054
    42  H    4.437973   3.143748   2.597771   2.507056   3.068726
    43  H    5.476340   4.444222   4.786556   3.149510   2.600463
    44  H    5.179819   4.786556   4.444222   2.600466   3.149510
    45  H    7.175261   5.992824   5.992821   4.653643   4.653644
                   41         42         43         44         45
    41  H    0.000000
    42  H    1.768855   0.000000
    43  H    2.503540   3.069497   0.000000
    44  H    3.069494   2.503540   1.783125   0.000000
    45  H    3.551213   3.551210   2.253827   2.253821   0.000000
 Stoichiometry    C14H30O
 Framework group  C1[X(C14H30O)]
 Deg. of freedom   129
 Full point group                 C1      NOp   1
 Largest Abelian subgroup         C1      NOp   1
 Largest concise Abelian subgroup C1      NOp   1
                         Standard orientation:                         
 ---------------------------------------------------------------------
 Center     Atomic      Atomic             Coordinates (Angstroms)
 Number     Number       Type             X           Y           Z
 ---------------------------------------------------------------------
      1          6           0       -9.027004   -0.387704    0.000002
      2          6           0       -7.743047    0.472265   -0.000002
      3          6           0       -6.445457   -0.380561   -0.000001
      4          6           0       -5.155894    0.484922    0.000006
      5          6           0       -3.864456   -0.378293    0.000001
      6          6           0       -2.564913    0.471915   -0.000007
      7          6           0       -1.279313   -0.400473   -0.000001
      8          6           0        0.017909    0.452072    0.000001
      9          6           0        1.302155   -0.417312   -0.000003
     10          6           0        2.597766    0.435608   -0.000001
     11          6           0        3.884771   -0.431620    0.000001
     12          6           0        5.178182    0.425604   -0.000001
     13          6           0        6.470891   -0.433615   -0.000003
     14          6           0        7.754130    0.430962    0.000003
     15          8           0        8.906629   -0.402667    0.000003
     16          1           0       -9.904771    0.260322   -0.000001
     17          1           0       -9.061839   -1.021251   -0.888312
     18          1           0       -9.061841   -1.021252    0.888317
     19          1           0       -7.754662    1.114198    0.885364
     20          1           0       -7.754659    1.114195   -0.885370
     21          1           0       -6.442595   -1.022534   -0.886298
     22          1           0       -6.442600   -1.022535    0.886300
     23          1           0       -5.155589    1.126085   -0.886283
     24          1           0       -5.155590    1.126087    0.886278
     25          1           0       -3.866604   -1.020125    0.886470
     26          1           0       -3.866606   -1.020128   -0.886460
     27          1           0       -2.558875    1.113795    0.886763
     28          1           0       -2.558867    1.113794   -0.886763
     29          1           0       -1.284654   -1.041978    0.886332
     30          1           0       -1.284649   -1.041979   -0.886331
     31          1           0        0.020769    1.093506    0.886230
     32          1           0        0.020766    1.093506   -0.886228
     33          1           0        1.297318   -1.059457   -0.886303
     34          1           0        1.297321   -1.059458    0.886301
     35          1           0        2.600037    1.077999    0.886030
     36          1           0        2.600039    1.077996   -0.886030
     37          1           0        3.882247   -1.072120    0.886087
     38          1           0        3.882251   -1.072126   -0.886089
     39          1           0        5.179379    1.066897   -0.885244
     40          1           0        5.179379    1.066902    0.885242
     41          1           0        6.480014   -1.076382    0.884428
     42          1           0        6.480018   -1.076387   -0.884427
     43          1           0        7.779832    1.063275    0.891563
     44          1           0        7.779834    1.063272   -0.891562
     45          1           0        9.667845    0.214598   -0.000002
 ---------------------------------------------------------------------
 Rotational constants (GHZ):           5.7292508           0.0734330           0.0729680
 Leave Link  202 at Mon Feb 22 21:08:01 2021, MaxMem=   104857600 cpu:               1.9 elap:               0.1
 (Enter /sw/arch/RedHatEnterpriseServer7/EB_production/2019/software/Gaussian/g16.c01/l301.exe)
 Standard basis: TZVP (5D, 7F)
 Ernie: Thresh=  0.10000D-02 Tol=  0.10000D-05 Strict=F.
 There are   480 symmetry adapted cartesian basis functions of A   symmetry.
 There are   465 symmetry adapted basis functions of A   symmetry.
   465 basis functions,   765 primitive gaussians,   480 cartesian basis functions
    61 alpha electrons       61 beta electrons
       nuclear repulsion energy       909.9287811033 Hartrees.
 IExCor=  404 DFT=T Ex=B Corr=P86 ExCW=0 ScaHFX=  0.000000
 ScaDFX=  1.000000  1.000000  1.000000  1.000000 ScalE2=  1.000000  1.000000
 IRadAn=      5 IRanWt=     -1 IRanGd=            0 ICorTp=0 IEmpDi=131
 NAtoms=   45 NActive=   45 NUniq=   45 SFac= 1.00D+00 NAtFMM=   60 NAOKFM=F Big=F
 Integral buffers will be    131072 words long.
 Raffenetti 2 integral format.
 Two-electron integral symmetry is turned on.
 R6Disp:  Grimme-D3 Dispersion energy=       -0.0413018640 Hartrees.
 Nuclear repulsion after empirical dispersion term =      909.8874792394 Hartrees.
 ------------------------------------------------------------------------------
 Polarizable Continuum Model (PCM)
 =================================
 Model                : PCM.
 Atomic radii         : UFF (Universal Force Field).
 Polarization charges : Total charges.
 Charge compensation  : None.
 Solution method      : On-the-fly selection.
 Cavity type          : Scaled VdW (van der Waals Surface) (Alpha=1.100).
 Cavity algorithm     : GePol (No added spheres)
                        Default sphere list used, NSphG=   45.
                        Lebedev-Laikov grids with approx.  5.0 points / Ang**2.
                        Smoothing algorithm: York/Karplus (Gamma=1.0000).
                        Polarization charges: spherical gaussians, with
                                              point-specific exponents (IZeta= 3).
                        Self-potential: point-specific (ISelfS= 7).
                        Self-field    : sphere-specific E.n sum rule (ISelfD= 2).
 1st derivatives      : Analytical E(r).r(x)/FMM algorithm (CHGder, D1EAlg=3).
                        Cavity 1st derivative terms included.
 Solvent              : Water, Eps=  78.355300 Eps(inf)=   1.777849
 ------------------------------------------------------------------------------
 GePol: Number of generator spheres                  =      45
 GePol: Total number of spheres                      =      45
 GePol: Number of exposed spheres                    =      45 (100.00%)
 GePol: Number of points                             =    3077
 GePol: Average weight of points                     =       0.13
 GePol: Minimum weight of points                     =   0.30D-11
 GePol: Maximum weight of points                     =    0.20577
 GePol: Number of points with low weight             =     158
 GePol: Fraction of low-weight points (<1% of avg)   =       5.13%
 GePol: Cavity surface area                          =    402.204 Ang**2
 GePol: Cavity volume                                =    403.255 Ang**3
 Leave Link  301 at Mon Feb 22 21:08:01 2021, MaxMem=   104857600 cpu:               2.3 elap:               0.1
 (Enter /sw/arch/RedHatEnterpriseServer7/EB_production/2019/software/Gaussian/g16.c01/l302.exe)
 NPDir=0 NMtPBC=     1 NCelOv=     1 NCel=       1 NClECP=     1 NCelD=      1
         NCelK=      1 NCelE2=     1 NClLst=     1 CellRange=     0.0.
 One-electron integrals computed using PRISM.
 One-electron integral symmetry used in STVInt
 PrsmSu:  requested number of processors reduced to:  25 ShMem   1 Linda.
 NBasis=   465 RedAO= T EigKep=  4.96D-05  NBF=   465
 NBsUse=   465 1.00D-06 EigRej= -1.00D+00 NBFU=   465
 Precomputing XC quadrature grid using
 IXCGrd= 4 IRadAn=           5 IRanWt=          -1 IRanGd=           0 AccXCQ= 0.00D+00.
 Generated NRdTot=       0 NPtTot=           0 NUsed=           0 NTot=          32
 NSgBfM=   429   429   429   429   429 MxSgAt=    45 MxSgA2=    45.
 Leave Link  302 at Mon Feb 22 21:08:02 2021, MaxMem=   104857600 cpu:              15.3 elap:               0.5
 (Enter /sw/arch/RedHatEnterpriseServer7/EB_production/2019/software/Gaussian/g16.c01/l303.exe)
 DipDrv:  MaxL=1.
 Leave Link  303 at Mon Feb 22 21:08:02 2021, MaxMem=   104857600 cpu:               3.2 elap:               0.2
 (Enter /sw/arch/RedHatEnterpriseServer7/EB_production/2019/software/Gaussian/g16.c01/l401.exe)
 ExpMin= 9.52D-02 ExpMax= 2.70D+04 ExpMxC= 9.22D+02 IAcc=3 IRadAn=         5 AccDes= 0.00D+00
 Harris functional with IExCor=  404 and IRadAn=       5 diagonalized for initial guess.
 HarFok:  IExCor=  404 AccDes= 0.00D+00 IRadAn=         5 IDoV= 1 UseB2=F ITyADJ=14
 ICtDFT=  3500011 ScaDFX=  1.000000  1.000000  1.000000  1.000000
 FoFCou: FMM=F IPFlag=           0 FMFlag=      100000 FMFlg1=           0
         NFxFlg=           0 DoJE=T BraDBF=F KetDBF=T FulRan=T
         wScrn=  0.000000 ICntrl=       500 IOpCl=  0 I1Cent=   200000004 NGrid=           0
         NMat0=    1 NMatS0=      1 NMatT0=    0 NMatD0=    1 NMtDS0=    0 NMtDT0=    0
 Petite list used in FoFCou.
 Harris En= -627.502019501487    
 JPrj=0 DoOrth=F DoCkMO=F.
 Leave Link  401 at Mon Feb 22 21:08:03 2021, MaxMem=   104857600 cpu:              28.8 elap:               1.0
 (Enter /sw/arch/RedHatEnterpriseServer7/EB_production/2019/software/Gaussian/g16.c01/l502.exe)
 Integral symmetry usage will be decided dynamically.
 Closed shell SCF:
 Using DIIS extrapolation, IDIIS=  1040.
 NGot=   104857600 LenX=   104375244 LenY=   104144364
 Requested convergence on RMS density matrix=1.00D-08 within 128 cycles.
 Requested convergence on MAX density matrix=1.00D-06.
 Requested convergence on             energy=1.00D-06.
 No special actions if energy rises.
 Fock matrices will be formed incrementally for  20 cycles.

 Cycle   1  Pass 1  IDiag  1:
 FoFJK:  IHMeth= 1 ICntrl=     500 DoSepK=F KAlg= 0 I1Cent=           0 FoldK=F
 IRaf= 640000000 NMat=       1 IRICut=       1 DoRegI=T DoRafI=F ISym2E= 0 IDoP0=0 IntGTp=1.
 FoFCou: FMM=F IPFlag=           0 FMFlag=      100000 FMFlg1=           0
         NFxFlg=           0 DoJE=T BraDBF=F KetDBF=F FulRan=T
         wScrn=  0.000000 ICntrl=       500 IOpCl=  0 I1Cent=           0 NGrid=           0
         NMat0=    1 NMatS0=      1 NMatT0=    0 NMatD0=    1 NMtDS0=    0 NMtDT0=    0
 Symmetry not used in FoFCou.
 Inv3:  Mode=1 IEnd=    28403787.
 Iteration    1 A*A^-1 deviation from unit magnitude is 3.33D-15 for   2592.
 Iteration    1 A*A^-1 deviation from orthogonality  is 3.11D-15 for   2949   1382.
 Iteration    1 A^-1*A deviation from unit magnitude is 3.55D-15 for   2592.
 Iteration    1 A^-1*A deviation from orthogonality  is 1.76D-15 for   2905   1662.
 E= -626.475409537030    
 DIIS: error= 4.39D-02 at cycle   1 NSaved=   1.
 NSaved= 1 IEnMin= 1 EnMin= -626.475409537030     IErMin= 1 ErrMin= 4.39D-02
 ErrMax= 4.39D-02  0.00D+00 EMaxC= 1.00D-01 BMatC= 5.10D-01 BMatP= 5.10D-01
 IDIUse=3 WtCom= 5.61D-01 WtEn= 4.39D-01
 Coeff-Com:  0.100D+01
 Coeff-En:   0.100D+01
 Coeff:      0.100D+01
 Gap=     0.170 Goal=   None    Shift=    0.000
 GapD=    0.170 DampG=1.000 DampE=0.500 DampFc=0.5000 IDamp=-1.
 Damping current iteration by 5.00D-01
 RMSDP=6.45D-03 MaxDP=9.13D-01              OVMax= 2.44D-01

 Cycle   2  Pass 1  IDiag  1:
 RMSU=  3.23D-03    CP:  9.97D-01
 E= -626.646371103065     Delta-E=       -0.170961566035 Rises=F Damp=T
 DIIS: error= 1.22D-02 at cycle   2 NSaved=   2.
 NSaved= 2 IEnMin= 2 EnMin= -626.646371103065     IErMin= 2 ErrMin= 1.22D-02
 ErrMax= 1.22D-02  0.00D+00 EMaxC= 1.00D-01 BMatC= 4.92D-02 BMatP= 5.10D-01
 IDIUse=3 WtCom= 8.78D-01 WtEn= 1.22D-01
 Coeff-Com:  0.200D+00 0.800D+00
 Coeff-En:   0.323D+00 0.677D+00
 Coeff:      0.215D+00 0.785D+00
 Gap=     0.265 Goal=   None    Shift=    0.000
 RMSDP=1.99D-03 MaxDP=3.34D-01 DE=-1.71D-01 OVMax= 1.41D-01

 Cycle   3  Pass 1  IDiag  1:
 RMSU=  7.46D-04    CP:  9.84D-01  4.29D-01
 E= -627.018641404979     Delta-E=       -0.372270301914 Rises=F Damp=F
 DIIS: error= 6.48D-03 at cycle   3 NSaved=   3.
 NSaved= 3 IEnMin= 3 EnMin= -627.018641404979     IErMin= 3 ErrMin= 6.48D-03
 ErrMax= 6.48D-03  0.00D+00 EMaxC= 1.00D-01 BMatC= 8.77D-03 BMatP= 4.92D-02
 IDIUse=3 WtCom= 9.35D-01 WtEn= 6.48D-02
 Coeff-Com:  0.670D-01 0.312D+00 0.621D+00
 Coeff-En:   0.000D+00 0.000D+00 0.100D+01
 Coeff:      0.627D-01 0.292D+00 0.645D+00
 Gap=     0.242 Goal=   None    Shift=    0.000
 RMSDP=7.09D-04 MaxDP=9.76D-02 DE=-3.72D-01 OVMax= 3.12D-02

 Cycle   4  Pass 1  IDiag  1:
 RMSU=  4.05D-04    CP:  9.95D-01  5.86D-01  6.38D-01
 E= -627.020423802048     Delta-E=       -0.001782397069 Rises=F Damp=F
 DIIS: error= 5.79D-03 at cycle   4 NSaved=   4.
 NSaved= 4 IEnMin= 4 EnMin= -627.020423802048     IErMin= 4 ErrMin= 5.79D-03
 ErrMax= 5.79D-03  0.00D+00 EMaxC= 1.00D-01 BMatC= 6.51D-03 BMatP= 8.77D-03
 IDIUse=3 WtCom= 9.42D-01 WtEn= 5.79D-02
 Coeff-Com:  0.149D-01 0.810D-01 0.452D+00 0.453D+00
 Coeff-En:   0.000D+00 0.000D+00 0.434D+00 0.566D+00
 Coeff:      0.141D-01 0.763D-01 0.451D+00 0.459D+00
 Gap=     0.250 Goal=   None    Shift=    0.000
 RMSDP=3.76D-04 MaxDP=5.23D-02 DE=-1.78D-03 OVMax= 1.47D-02

 Cycle   5  Pass 1  IDiag  1:
 RMSU=  1.01D-04    CP:  9.88D-01  5.04D-01  8.17D-01  5.05D-01
 E= -627.025061702516     Delta-E=       -0.004637900469 Rises=F Damp=F
 DIIS: error= 3.71D-04 at cycle   5 NSaved=   5.
 NSaved= 5 IEnMin= 5 EnMin= -627.025061702516     IErMin= 5 ErrMin= 3.71D-04
 ErrMax= 3.71D-04  0.00D+00 EMaxC= 1.00D-01 BMatC= 4.67D-05 BMatP= 6.51D-03
 IDIUse=3 WtCom= 9.96D-01 WtEn= 3.71D-03
 Coeff-Com:  0.236D-02 0.105D-01 0.120D+00 0.157D+00 0.710D+00
 Coeff-En:   0.000D+00 0.000D+00 0.000D+00 0.000D+00 0.100D+01
 Coeff:      0.235D-02 0.104D-01 0.119D+00 0.156D+00 0.711D+00
 Gap=     0.248 Goal=   None    Shift=    0.000
 RMSDP=3.09D-05 MaxDP=2.76D-03 DE=-4.64D-03 OVMax= 1.01D-03

 Cycle   6  Pass 1  IDiag  1:
 RMSU=  1.73D-05    CP:  9.89D-01  5.08D-01  8.12D-01  5.27D-01  8.10D-01
 E= -627.025095777518     Delta-E=       -0.000034075002 Rises=F Damp=F
 DIIS: error= 1.32D-04 at cycle   6 NSaved=   6.
 NSaved= 6 IEnMin= 6 EnMin= -627.025095777518     IErMin= 6 ErrMin= 1.32D-04
 ErrMax= 1.32D-04  0.00D+00 EMaxC= 1.00D-01 BMatC= 7.72D-06 BMatP= 4.67D-05
 IDIUse=3 WtCom= 9.99D-01 WtEn= 1.32D-03
 Coeff-Com:  0.108D-02 0.377D-02 0.579D-01 0.796D-01 0.418D+00 0.440D+00
 Coeff-En:   0.000D+00 0.000D+00 0.000D+00 0.000D+00 0.256D-01 0.974D+00
 Coeff:      0.108D-02 0.376D-02 0.579D-01 0.795D-01 0.418D+00 0.440D+00
 Gap=     0.248 Goal=   None    Shift=    0.000
 RMSDP=6.57D-06 MaxDP=4.20D-04 DE=-3.41D-05 OVMax= 3.99D-04

 Cycle   7  Pass 1  IDiag  1:
 RMSU=  4.95D-06    CP:  9.89D-01  5.07D-01  8.12D-01  5.25D-01  8.21D-01
                    CP:  8.01D-01
 E= -627.025103210394     Delta-E=       -0.000007432875 Rises=F Damp=F
 DIIS: error= 1.90D-05 at cycle   7 NSaved=   7.
 NSaved= 7 IEnMin= 7 EnMin= -627.025103210394     IErMin= 7 ErrMin= 1.90D-05
 ErrMax= 1.90D-05  0.00D+00 EMaxC= 1.00D-01 BMatC= 1.50D-07 BMatP= 7.72D-06
 IDIUse=1 WtCom= 1.00D+00 WtEn= 0.00D+00
 Coeff-Com:  0.218D-03 0.101D-03 0.621D-02 0.924D-02 0.596D-01 0.145D+00
 Coeff-Com:  0.780D+00
 Coeff:      0.218D-03 0.101D-03 0.621D-02 0.924D-02 0.596D-01 0.145D+00
 Coeff:      0.780D+00
 Gap=     0.248 Goal=   None    Shift=    0.000
 RMSDP=1.44D-06 MaxDP=5.37D-05 DE=-7.43D-06 OVMax= 6.16D-05

 Cycle   8  Pass 1  IDiag  1:
 RMSU=  1.06D-06    CP:  9.89D-01  5.07D-01  8.12D-01  5.26D-01  8.25D-01
                    CP:  8.08D-01  8.57D-01
 E= -627.025103344609     Delta-E=       -0.000000134216 Rises=F Damp=F
 DIIS: error= 3.68D-06 at cycle   8 NSaved=   8.
 NSaved= 8 IEnMin= 8 EnMin= -627.025103344609     IErMin= 8 ErrMin= 3.68D-06
 ErrMax= 3.68D-06  0.00D+00 EMaxC= 1.00D-01 BMatC= 1.04D-08 BMatP= 1.50D-07
 IDIUse=1 WtCom= 1.00D+00 WtEn= 0.00D+00
 Coeff-Com:  0.556D-04-0.105D-03 0.228D-03 0.485D-03 0.684D-02 0.393D-01
 Coeff-Com:  0.315D+00 0.638D+00
 Coeff:      0.556D-04-0.105D-03 0.228D-03 0.485D-03 0.684D-02 0.393D-01
 Coeff:      0.315D+00 0.638D+00
 Gap=     0.248 Goal=   None    Shift=    0.000
 RMSDP=3.96D-07 MaxDP=1.79D-05 DE=-1.34D-07 OVMax= 1.75D-05

 Cycle   9  Pass 1  IDiag  1:
 RMSU=  2.39D-07    CP:  9.89D-01  5.07D-01  8.12D-01  5.26D-01  8.25D-01
                    CP:  8.14D-01  8.78D-01  7.81D-01
 E= -627.025103352987     Delta-E=       -0.000000008378 Rises=F Damp=F
 DIIS: error= 1.95D-06 at cycle   9 NSaved=   9.
 NSaved= 9 IEnMin= 9 EnMin= -627.025103352987     IErMin= 9 ErrMin= 1.95D-06
 ErrMax= 1.95D-06  0.00D+00 EMaxC= 1.00D-01 BMatC= 2.08D-09 BMatP= 1.04D-08
 IDIUse=1 WtCom= 1.00D+00 WtEn= 0.00D+00
 Coeff-Com:  0.198D-04-0.613D-04-0.180D-03-0.221D-03 0.632D-03 0.138D-01
 Coeff-Com:  0.133D+00 0.372D+00 0.481D+00
 Coeff:      0.198D-04-0.613D-04-0.180D-03-0.221D-03 0.632D-03 0.138D-01
 Coeff:      0.133D+00 0.372D+00 0.481D+00
 Gap=     0.248 Goal=   None    Shift=    0.000
 RMSDP=9.55D-08 MaxDP=3.65D-06 DE=-8.38D-09 OVMax= 6.36D-06

 Cycle  10  Pass 1  IDiag  1:
 RMSU=  7.66D-08    CP:  9.89D-01  5.07D-01  8.12D-01  5.26D-01  8.25D-01
                    CP:  8.16D-01  8.79D-01  7.65D-01  8.24D-01
 E= -627.025103354934     Delta-E=       -0.000000001947 Rises=F Damp=F
 DIIS: error= 2.18D-07 at cycle  10 NSaved=  10.
 NSaved=10 IEnMin=10 EnMin= -627.025103354934     IErMin=10 ErrMin= 2.18D-07
 ErrMax= 2.18D-07  0.00D+00 EMaxC= 1.00D-01 BMatC= 3.79D-11 BMatP= 2.08D-09
 IDIUse=1 WtCom= 1.00D+00 WtEn= 0.00D+00
 Coeff-Com:  0.206D-05-0.930D-05-0.382D-04-0.729D-04-0.103D-03 0.151D-02
 Coeff-Com:  0.181D-01 0.706D-01 0.165D+00 0.746D+00
 Coeff:      0.206D-05-0.930D-05-0.382D-04-0.729D-04-0.103D-03 0.151D-02
 Coeff:      0.181D-01 0.706D-01 0.165D+00 0.746D+00
 Gap=     0.248 Goal=   None    Shift=    0.000
 RMSDP=2.43D-08 MaxDP=1.05D-06 DE=-1.95D-09 OVMax= 9.51D-07

 Cycle  11  Pass 1  IDiag  1:
 RMSU=  9.02D-09    CP:  9.89D-01  5.07D-01  8.12D-01  5.26D-01  8.25D-01
                    CP:  8.16D-01  8.79D-01  7.80D-01  8.14D-01  8.02D-01
 E= -627.025103354964     Delta-E=       -0.000000000030 Rises=F Damp=F
 DIIS: error= 6.59D-08 at cycle  11 NSaved=  11.
 NSaved=11 IEnMin=11 EnMin= -627.025103354964     IErMin=11 ErrMin= 6.59D-08
 ErrMax= 6.59D-08  0.00D+00 EMaxC= 1.00D-01 BMatC= 2.13D-12 BMatP= 3.79D-11
 IDIUse=1 WtCom= 1.00D+00 WtEn= 0.00D+00
 Coeff-Com:  0.632D-06-0.374D-05-0.162D-04-0.335D-04-0.598D-04 0.523D-03
 Coeff-Com:  0.678D-02 0.284D-01 0.722D-01 0.363D+00 0.530D+00
 Coeff:      0.632D-06-0.374D-05-0.162D-04-0.335D-04-0.598D-04 0.523D-03
 Coeff:      0.678D-02 0.284D-01 0.722D-01 0.363D+00 0.530D+00
 Gap=     0.248 Goal=   None    Shift=    0.000
 RMSDP=4.26D-09 MaxDP=2.02D-07 DE=-3.00D-11 OVMax= 2.68D-07

 Error on total polarization charges =  0.02169
 SCF Done:  E(RB-P86) =  -627.025103355     A.U. after   11 cycles
            NFock= 11  Conv=0.43D-08     -V/T= 2.0054
 KE= 6.236563860491D+02 PE=-3.274337318411D+03 EE= 1.113768349768D+03
 Leave Link  502 at Mon Feb 22 21:08:39 2021, MaxMem=   104857600 cpu:            1102.8 elap:              35.7
 (Enter /sw/arch/RedHatEnterpriseServer7/EB_production/2019/software/Gaussian/g16.c01/l601.exe)
 Copying SCF densities to generalized density rwf, IOpCl= 0 IROHF=0.

 **********************************************************************

            Population analysis using the SCF Density.

 **********************************************************************

 Orbital symmetries:
       Occupied  (A) (A) (A) (A) (A) (A) (A) (A) (A) (A) (A) (A)
                 (A) (A) (A) (A) (A) (A) (A) (A) (A) (A) (A) (A)
                 (A) (A) (A) (A) (A) (A) (A) (A) (A) (A) (A) (A)
                 (A) (A) (A) (A) (A) (A) (A) (A) (A) (A) (A) (A)
                 (A) (A) (A) (A) (A) (A) (A) (A) (A) (A) (A) (A)
                 (A)
       Virtual   (A) (A) (A) (A) (A) (A) (A) (A) (A) (A) (A) (A)
                 (A) (A) (A) (A) (A) (A) (A) (A) (A) (A) (A) (A)
                 (A) (A) (A) (A) (A) (A) (A) (A) (A) (A) (A) (A)
                 (A) (A) (A) (A) (A) (A) (A) (A) (A) (A) (A) (A)
                 (A) (A) (A) (A) (A) (A) (A) (A) (A) (A) (A) (A)
                 (A) (A) (A) (A) (A) (A) (A) (A) (A) (A) (A) (A)
                 (A) (A) (A) (A) (A) (A) (A) (A) (A) (A) (A) (A)
                 (A) (A) (A) (A) (A) (A) (A) (A) (A) (A) (A) (A)
                 (A) (A) (A) (A) (A) (A) (A) (A) (A) (A) (A) (A)
                 (A) (A) (A) (A) (A) (A) (A) (A) (A) (A) (A) (A)
                 (A) (A) (A) (A) (A) (A) (A) (A) (A) (A) (A) (A)
                 (A) (A) (A) (A) (A) (A) (A) (A) (A) (A) (A) (A)
                 (A) (A) (A) (A) (A) (A) (A) (A) (A) (A) (A) (A)
                 (A) (A) (A) (A) (A) (A) (A) (A) (A) (A) (A) (A)
                 (A) (A) (A) (A) (A) (A) (A) (A) (A) (A) (A) (A)
                 (A) (A) (A) (A) (A) (A) (A) (A) (A) (A) (A) (A)
                 (A) (A) (A) (A) (A) (A) (A) (A) (A) (A) (A) (A)
                 (A) (A) (A) (A) (A) (A) (A) (A) (A) (A) (A) (A)
                 (A) (A) (A) (A) (A) (A) (A) (A) (A) (A) (A) (A)
                 (A) (A) (A) (A) (A) (A) (A) (A) (A) (A) (A) (A)
                 (A) (A) (A) (A) (A) (A) (A) (A) (A) (A) (A) (A)
                 (A) (A) (A) (A) (A) (A) (A) (A) (A) (A) (A) (A)
                 (A) (A) (A) (A) (A) (A) (A) (A) (A) (A) (A) (A)
                 (A) (A) (A) (A) (A) (A) (A) (A) (A) (A) (A) (A)
                 (A) (A) (A) (A) (A) (A) (A) (A) (A) (A) (A) (A)
                 (A) (A) (A) (A) (A) (A) (A) (A) (A) (A) (A) (A)
                 (A) (A) (A) (A) (A) (A) (A) (A) (A) (A) (A) (A)
                 (A) (A) (A) (A) (A) (A) (A) (A) (A) (A) (A) (A)
                 (A) (A) (A) (A) (A) (A) (A) (A) (A) (A) (A) (A)
                 (A) (A) (A) (A) (A) (A) (A) (A) (A) (A) (A) (A)
                 (A) (A) (A) (A) (A) (A) (A) (A) (A) (A) (A) (A)
                 (A) (A) (A) (A) (A) (A) (A) (A) (A) (A) (A) (A)
                 (A) (A) (A) (A) (A) (A) (A) (A) (A) (A) (A) (A)
                 (A) (A) (A) (A) (A) (A) (A) (A)
 The electronic state is 1-A.
 Alpha  occ. eigenvalues --  -18.76976  -9.93702  -9.89262  -9.89235  -9.88942
 Alpha  occ. eigenvalues --   -9.88883  -9.88809  -9.88752  -9.88739  -9.88738
 Alpha  occ. eigenvalues --   -9.88731  -9.88728  -9.88723  -9.88719  -9.88075
 Alpha  occ. eigenvalues --   -0.93862  -0.73690  -0.72929  -0.71611  -0.69750
 Alpha  occ. eigenvalues --   -0.67429  -0.64693  -0.61620  -0.58402  -0.55334
 Alpha  occ. eigenvalues --   -0.52947  -0.52106  -0.51844  -0.51305  -0.51220
 Alpha  occ. eigenvalues --   -0.45941  -0.44061  -0.43469  -0.42442  -0.40995
 Alpha  occ. eigenvalues --   -0.39216  -0.38625  -0.37986  -0.37589  -0.37170
 Alpha  occ. eigenvalues --   -0.35856  -0.35460  -0.34998  -0.33753  -0.32897
 Alpha  occ. eigenvalues --   -0.32298  -0.31531  -0.31080  -0.30300  -0.29710
 Alpha  occ. eigenvalues --   -0.29291  -0.28886  -0.28879  -0.28505  -0.28352
 Alpha  occ. eigenvalues --   -0.28343  -0.28325  -0.28064  -0.27705  -0.25120
 Alpha  occ. eigenvalues --   -0.23039
 Alpha virt. eigenvalues --    0.01786   0.01942   0.02387   0.03083   0.03964
 Alpha virt. eigenvalues --    0.04774   0.05031   0.05205   0.05673   0.05869
 Alpha virt. eigenvalues --    0.06840   0.07175   0.07503   0.08874   0.09269
 Alpha virt. eigenvalues --    0.09573   0.10282   0.10761   0.10990   0.11156
 Alpha virt. eigenvalues --    0.11381   0.11551   0.11761   0.11939   0.12125
 Alpha virt. eigenvalues --    0.12382   0.12668   0.12830   0.13010   0.13888
 Alpha virt. eigenvalues --    0.13957   0.14363   0.14447   0.14958   0.15605
 Alpha virt. eigenvalues --    0.15988   0.16493   0.17208   0.17447   0.18404
 Alpha virt. eigenvalues --    0.18459   0.19308   0.19805   0.22140   0.22472
 Alpha virt. eigenvalues --    0.23356   0.23772   0.24574   0.25135   0.25274
 Alpha virt. eigenvalues --    0.25980   0.26350   0.26492   0.27347   0.27434
 Alpha virt. eigenvalues --    0.27998   0.28229   0.28591   0.28939   0.29654
 Alpha virt. eigenvalues --    0.29818   0.30367   0.30492   0.31831   0.31946
 Alpha virt. eigenvalues --    0.33872   0.35119   0.35191   0.35637   0.36819
 Alpha virt. eigenvalues --    0.36987   0.37058   0.37478   0.37885   0.38186
 Alpha virt. eigenvalues --    0.38202   0.39207   0.39595   0.40180   0.40819
 Alpha virt. eigenvalues --    0.41290   0.41633   0.41745   0.42220   0.42279
 Alpha virt. eigenvalues --    0.42346   0.42561   0.43323   0.43593   0.44285
 Alpha virt. eigenvalues --    0.44590   0.44837   0.45380   0.45765   0.46136
 Alpha virt. eigenvalues --    0.46319   0.46688   0.47211   0.47389   0.47641
 Alpha virt. eigenvalues --    0.48444   0.48478   0.48738   0.48835   0.48847
 Alpha virt. eigenvalues --    0.49159   0.49375   0.50023   0.50408   0.50662
 Alpha virt. eigenvalues --    0.50888   0.52878   0.53181   0.54441   0.55376
 Alpha virt. eigenvalues --    0.56279   0.57267   0.58339   0.59943   0.59959
 Alpha virt. eigenvalues --    0.60754   0.62151   0.62814   0.64328   0.65486
 Alpha virt. eigenvalues --    0.66576   0.68352   0.70072   0.70502   0.74465
 Alpha virt. eigenvalues --    0.76834   0.77294   0.78840   0.85835   1.05477
 Alpha virt. eigenvalues --    1.06466   1.07910   1.10871   1.11497   1.12971
 Alpha virt. eigenvalues --    1.16159   1.17108   1.17455   1.18086   1.18649
 Alpha virt. eigenvalues --    1.18799   1.19210   1.19261   1.20119   1.21007
 Alpha virt. eigenvalues --    1.21236   1.21874   1.22404   1.22776   1.23186
 Alpha virt. eigenvalues --    1.23979   1.24110   1.24579   1.24685   1.25010
 Alpha virt. eigenvalues --    1.25039   1.25066   1.25297   1.26879   1.28301
 Alpha virt. eigenvalues --    1.28962   1.30015   1.31346   1.32237   1.32554
 Alpha virt. eigenvalues --    1.32762   1.33299   1.33759   1.34587   1.35541
 Alpha virt. eigenvalues --    1.35687   1.36034   1.36191   1.36554   1.37443
 Alpha virt. eigenvalues --    1.37532   1.37566   1.38935   1.39548   1.41460
 Alpha virt. eigenvalues --    1.42229   1.43332   1.44038   1.44359   1.44394
 Alpha virt. eigenvalues --    1.44746   1.45275   1.46151   1.47322   1.47971
 Alpha virt. eigenvalues --    1.48889   1.50119   1.50406   1.51418   1.53414
 Alpha virt. eigenvalues --    1.54546   1.55739   1.57097   1.58355   1.59703
 Alpha virt. eigenvalues --    1.59916   1.60053   1.61406   1.61995   1.64756
 Alpha virt. eigenvalues --    1.64847   1.65162   1.65435   1.65764   1.66411
 Alpha virt. eigenvalues --    1.67426   1.68056   1.68799   1.68894   1.70549
 Alpha virt. eigenvalues --    1.72089   1.72453   1.72874   1.73581   1.73988
 Alpha virt. eigenvalues --    1.74281   1.74532   1.74618   1.75972   1.76280
 Alpha virt. eigenvalues --    1.76611   1.76801   1.77058   1.77462   1.78125
 Alpha virt. eigenvalues --    1.78250   1.78945   1.78961   1.79613   1.79709
 Alpha virt. eigenvalues --    1.80149   1.80201   1.80548   1.81557   1.81809
 Alpha virt. eigenvalues --    1.81896   1.82357   1.82606   1.82817   1.82930
 Alpha virt. eigenvalues --    1.83627   1.83662   1.85364   1.86747   1.88540
 Alpha virt. eigenvalues --    1.90862   1.94303   1.94833   1.98155   2.00403
 Alpha virt. eigenvalues --    2.00839   2.02257   2.05027   2.05479   2.08210
 Alpha virt. eigenvalues --    2.09225   2.09711   2.10079   2.11563   2.12030
 Alpha virt. eigenvalues --    2.12572   2.13129   2.13624   2.14434   2.14976
 Alpha virt. eigenvalues --    2.17051   2.18301   2.18944   2.20938   2.22902
[...]
    29  H    0.000001  -0.000000   0.000033  -0.000051  -0.000073   0.000218
    30  H   -0.000000   0.000001  -0.000051   0.000033   0.000218  -0.000073
    31  H   -0.000000   0.000000  -0.000001   0.000001   0.000033  -0.000053
    32  H    0.000000  -0.000000   0.000001  -0.000001  -0.000053   0.000033
    33  H   -0.000000   0.000000  -0.000000   0.000000   0.000001  -0.000001
    34  H    0.000000  -0.000000   0.000000  -0.000000  -0.000001   0.000001
    35  H    0.000000  -0.000000  -0.000000   0.000000   0.000000  -0.000000
    36  H   -0.000000   0.000000   0.000000  -0.000000  -0.000000   0.000000
    37  H   -0.000000   0.000000  -0.000000   0.000000  -0.000000   0.000000
    38  H    0.000000  -0.000000   0.000000  -0.000000   0.000000  -0.000000
    39  H   -0.000000   0.000000  -0.000000   0.000000   0.000000  -0.000000
    40  H    0.000000  -0.000000   0.000000  -0.000000  -0.000000   0.000000
    41  H   -0.000000   0.000000  -0.000000   0.000000   0.000000  -0.000000
    42  H    0.000000  -0.000000   0.000000  -0.000000  -0.000000   0.000000
    43  H    0.000000  -0.000000   0.000000  -0.000000  -0.000000   0.000000
    44  H   -0.000000   0.000000  -0.000000   0.000000   0.000000  -0.000000
    45  H    0.000000   0.000000   0.000000   0.000000   0.000000   0.000000
              25         26         27         28         29         30
     1  C   -0.000007  -0.000007  -0.000001  -0.000001   0.000000   0.000000
     2  C   -0.000271  -0.000271  -0.000008  -0.000008  -0.000001  -0.000001
     3  C   -0.004650  -0.004648  -0.000278  -0.000278  -0.000013  -0.000013
     4  C   -0.046012  -0.046018  -0.004385  -0.004388  -0.000278  -0.000278
     5  C    0.419299   0.419297  -0.046160  -0.046151  -0.004398  -0.004395
     6  C   -0.046115  -0.046106   0.419483   0.419483  -0.046115  -0.046122
     7  C   -0.004401  -0.004405  -0.046160  -0.046168   0.419381   0.419380
     8  C   -0.000275  -0.000275  -0.004385  -0.004382  -0.046018  -0.046009
     9  C   -0.000016  -0.000016  -0.000280  -0.000281  -0.004429  -0.004433
    10  C   -0.000001  -0.000001  -0.000014  -0.000014  -0.000267  -0.000267
    11  C    0.000000   0.000000  -0.000001  -0.000001  -0.000016  -0.000016
    12  C   -0.000000  -0.000000   0.000000   0.000000  -0.000001  -0.000001
    13  C    0.000000   0.000000  -0.000000  -0.000000   0.000000   0.000000
    14  C   -0.000000  -0.000000   0.000000   0.000000  -0.000000  -0.000000
    15  O    0.000000   0.000000  -0.000000  -0.000000   0.000000   0.000000
    16  H    0.000000   0.000000   0.000000   0.000000  -0.000000  -0.000000
    17  H    0.000019  -0.000027  -0.000000   0.000001   0.000000  -0.000000
    18  H   -0.000027   0.000019   0.000001  -0.000000  -0.000000   0.000000
    19  H    0.000170  -0.000044  -0.000044   0.000030   0.000001  -0.000000
    20  H   -0.000044   0.000171   0.000030  -0.000044  -0.000000   0.000001
    21  H    0.000022   0.004924  -0.000065   0.000207   0.000033  -0.000051
    22  H    0.004924   0.000022   0.000207  -0.000065  -0.000051   0.000033
    23  H    0.008770  -0.006972   0.000159   0.004578  -0.000073   0.000218
    24  H   -0.006973   0.008770   0.004578   0.000159   0.000218  -0.000073
    25  H    0.581050  -0.037389  -0.006723   0.008646   0.004437   0.000225
    26  H   -0.037389   0.581050   0.008646  -0.006724   0.000225   0.004437
    27  H   -0.006723   0.008646   0.580074  -0.036973  -0.006654   0.008607
    28  H    0.008646  -0.006724  -0.036973   0.580074   0.008607  -0.006653
    29  H    0.004437   0.000225  -0.006654   0.008607   0.579885  -0.036919
    30  H    0.000225   0.004437   0.008607  -0.006653  -0.036919   0.579885
    31  H    0.000221  -0.000074   0.004406   0.000235  -0.006648   0.008600
    32  H   -0.000074   0.000221   0.000235   0.004406   0.008600  -0.006649
    33  H    0.000034  -0.000053  -0.000074   0.000221   0.000237   0.004409
    34  H   -0.000053   0.000034   0.000221  -0.000074   0.004409   0.000237
    35  H    0.000001  -0.000001  -0.000053   0.000033   0.000220  -0.000074
    36  H   -0.000001   0.000001   0.000033  -0.000053  -0.000074   0.000220
    37  H   -0.000000   0.000000   0.000001  -0.000001  -0.000053   0.000034
    38  H    0.000000  -0.000000  -0.000001   0.000001   0.000034  -0.000053
    39  H   -0.000000   0.000000   0.000000  -0.000000  -0.000001   0.000001
    40  H    0.000000  -0.000000  -0.000000   0.000000   0.000001  -0.000001
    41  H    0.000000  -0.000000   0.000000  -0.000000  -0.000000   0.000000
    42  H   -0.000000   0.000000  -0.000000   0.000000   0.000000  -0.000000
    43  H   -0.000000   0.000000  -0.000000   0.000000   0.000000  -0.000000
    44  H    0.000000  -0.000000   0.000000  -0.000000  -0.000000   0.000000
    45  H   -0.000000  -0.000000   0.000000   0.000000  -0.000000  -0.000000
              31         32         33         34         35         36
     1  C   -0.000000  -0.000000   0.000000   0.000000  -0.000000  -0.000000
     2  C    0.000000   0.000000  -0.000000  -0.000000   0.000000   0.000000
     3  C   -0.000001  -0.000001   0.000000   0.000000  -0.000000  -0.000000
     4  C   -0.000012  -0.000012  -0.000001  -0.000001   0.000000   0.000000
     5  C   -0.000284  -0.000283  -0.000013  -0.000013  -0.000001  -0.000001
     6  C   -0.004330  -0.004334  -0.000283  -0.000282  -0.000016  -0.000016
     7  C   -0.046069  -0.046060  -0.004380  -0.004383  -0.000255  -0.000255
     8  C    0.419349   0.419348  -0.045894  -0.045885  -0.004623  -0.004626
     9  C   -0.045908  -0.045916   0.418865   0.418865  -0.044614  -0.044606
    10  C   -0.004551  -0.004548  -0.045210  -0.045219   0.416380   0.416381
    11  C   -0.000236  -0.000236  -0.004992  -0.004989  -0.042908  -0.042916
    12  C   -0.000019  -0.000019  -0.000115  -0.000115  -0.006197  -0.006194
    13  C    0.000000   0.000000  -0.000041  -0.000041   0.000247   0.000247
    14  C   -0.000000  -0.000000   0.000001   0.000001  -0.000090  -0.000090
    15  O   -0.000000  -0.000000   0.000000   0.000000  -0.000000  -0.000000
    16  H    0.000000   0.000000  -0.000000  -0.000000   0.000000   0.000000
    17  H   -0.000000   0.000000  -0.000000   0.000000   0.000000  -0.000000
    18  H    0.000000  -0.000000   0.000000  -0.000000  -0.000000   0.000000
    19  H   -0.000000   0.000000  -0.000000   0.000000   0.000000  -0.000000
    20  H    0.000000  -0.000000   0.000000  -0.000000  -0.000000   0.000000
    21  H   -0.000001   0.000001  -0.000000   0.000000  -0.000000   0.000000
    22  H    0.000001  -0.000001   0.000000  -0.000000   0.000000  -0.000000
    23  H    0.000033  -0.000053   0.000001  -0.000001   0.000000  -0.000000
    24  H   -0.000053   0.000033  -0.000001   0.000001  -0.000000   0.000000
    25  H    0.000221  -0.000074   0.000034  -0.000053   0.000001  -0.000001
    26  H   -0.000074   0.000221  -0.000053   0.000034  -0.000001   0.000001
    27  H    0.004406   0.000235  -0.000074   0.000221  -0.000053   0.000033
    28  H    0.000235   0.004406   0.000221  -0.000074   0.000033  -0.000053
    29  H   -0.006648   0.008600   0.000237   0.004409   0.000220  -0.000074
    30  H    0.008600  -0.006649   0.004409   0.000237  -0.000074   0.000220
    31  H    0.579719  -0.036879   0.008591  -0.006655   0.004410   0.000230
    32  H   -0.036879   0.579719  -0.006654   0.008591   0.000230   0.004410
    33  H    0.008591  -0.006654   0.579613  -0.036922   0.008575  -0.006702
    34  H   -0.006655   0.008591  -0.036922   0.579614  -0.006701   0.008575
    35  H    0.004410   0.000230   0.008575  -0.006701   0.579141  -0.036771
    36  H    0.000230   0.004410  -0.006702   0.008575  -0.036771   0.579139
    37  H    0.000218  -0.000074   0.000214   0.004431  -0.006689   0.008516
    38  H   -0.000074   0.000218   0.004431   0.000215   0.008516  -0.006688
    39  H    0.000033  -0.000052   0.000205  -0.000066   0.000165   0.004601
    40  H   -0.000052   0.000033  -0.000066   0.000205   0.004601   0.000165
    41  H    0.000001  -0.000001   0.000030  -0.000040   0.000173  -0.000067
    42  H   -0.000001   0.000001  -0.000040   0.000030  -0.000067   0.000173
    43  H   -0.000000   0.000000  -0.000000   0.000001  -0.000042   0.000024
    44  H    0.000000  -0.000000   0.000001  -0.000000   0.000024  -0.000042
    45  H    0.000000   0.000000  -0.000000  -0.000000   0.000000   0.000000
              37         38         39         40         41         42
     1  C    0.000000   0.000000  -0.000000  -0.000000   0.000000   0.000000
     2  C   -0.000000  -0.000000   0.000000   0.000000  -0.000000  -0.000000
     3  C    0.000000   0.000000  -0.000000  -0.000000   0.000000   0.000000
     4  C   -0.000000  -0.000000   0.000000   0.000000  -0.000000  -0.000000
     5  C    0.000000   0.000000  -0.000000  -0.000000   0.000000   0.000000
     6  C   -0.000001  -0.000001  -0.000000  -0.000000  -0.000000  -0.000000
     7  C   -0.000018  -0.000018  -0.000001  -0.000001  -0.000000  -0.000000
     8  C   -0.000249  -0.000250  -0.000037  -0.000037   0.000003   0.000003
     9  C   -0.004486  -0.004481  -0.000125  -0.000125  -0.000144  -0.000144
    10  C   -0.045162  -0.045174  -0.006390  -0.006390   0.000919   0.000917
    11  C    0.418750   0.418754  -0.039295  -0.039302  -0.012596  -0.012594
    12  C   -0.043646  -0.043642   0.406230   0.406221  -0.017130  -0.017157
    13  C   -0.006040  -0.006041  -0.031818  -0.031809   0.364380   0.364406
    14  C   -0.000080  -0.000080  -0.008141  -0.008141  -0.028299  -0.028290
    15  O    0.000013   0.000013  -0.000431  -0.000431   0.014483   0.014477
    16  H   -0.000000  -0.000000   0.000000   0.000000   0.000000   0.000000
    17  H   -0.000000   0.000000  -0.000000   0.000000  -0.000000   0.000000
    18  H    0.000000  -0.000000   0.000000  -0.000000   0.000000  -0.000000
    19  H   -0.000000   0.000000  -0.000000   0.000000  -0.000000   0.000000
    20  H    0.000000  -0.000000   0.000000  -0.000000   0.000000  -0.000000
    21  H   -0.000000   0.000000  -0.000000   0.000000  -0.000000   0.000000
    22  H    0.000000  -0.000000   0.000000  -0.000000   0.000000  -0.000000
    23  H   -0.000000   0.000000   0.000000  -0.000000   0.000000  -0.000000
    24  H    0.000000  -0.000000  -0.000000   0.000000  -0.000000   0.000000
    25  H   -0.000000   0.000000  -0.000000   0.000000   0.000000  -0.000000
    26  H    0.000000  -0.000000   0.000000  -0.000000  -0.000000   0.000000
    27  H    0.000001  -0.000001   0.000000  -0.000000   0.000000  -0.000000
    28  H   -0.000001   0.000001  -0.000000   0.000000  -0.000000   0.000000
    29  H   -0.000053   0.000034  -0.000001   0.000001  -0.000000   0.000000
    30  H    0.000034  -0.000053   0.000001  -0.000001   0.000000  -0.000000
    31  H    0.000218  -0.000074   0.000033  -0.000052   0.000001  -0.000001
    32  H   -0.000074   0.000218  -0.000052   0.000033  -0.000001   0.000001
    33  H    0.000214   0.004431   0.000205  -0.000066   0.000030  -0.000040
    34  H    0.004431   0.000215  -0.000066   0.000205  -0.000040   0.000030
    35  H   -0.006689   0.008516   0.000165   0.004601   0.000173  -0.000067
    36  H    0.008516  -0.006688   0.004601   0.000165  -0.000067   0.000173
    37  H    0.577309  -0.036894   0.008428  -0.006912   0.004505   0.000148
    38  H   -0.036894   0.577308  -0.006913   0.008428   0.000148   0.004506
    39  H    0.008428  -0.006913   0.576020  -0.038104   0.009391  -0.009203
    40  H   -0.006912   0.008428  -0.038104   0.576031  -0.009204   0.009391
    41  H    0.004505   0.000148   0.009391  -0.009204   0.595239  -0.044264
    42  H    0.000148   0.004506  -0.009203   0.009391  -0.044264   0.595225
    43  H    0.000166  -0.000034  -0.002541   0.008610  -0.018202   0.014305
    44  H   -0.000034   0.000166   0.008608  -0.002540   0.014305  -0.018200
    45  H   -0.000000  -0.000000   0.000033   0.000033  -0.000645  -0.000645
              43         44         45
     1  C    0.000000   0.000000   0.000000
     2  C   -0.000000  -0.000000   0.000000
     3  C    0.000000   0.000000   0.000000
     4  C   -0.000000  -0.000000  -0.000000
     5  C   -0.000000  -0.000000   0.000000
     6  C    0.000000   0.000000  -0.000000
     7  C   -0.000000  -0.000000   0.000000
     8  C    0.000000   0.000000  -0.000000
     9  C   -0.000005  -0.000005   0.000000
    10  C    0.000133   0.000133  -0.000006
    11  C   -0.001606  -0.001605   0.000125
    12  C    0.006053   0.006054  -0.002472
    13  C   -0.058119  -0.058094   0.018949
    14  C    0.413900   0.413875  -0.039372
    15  O   -0.053531  -0.053534   0.300306
    16  H    0.000000   0.000000   0.000000
    17  H    0.000000   0.000000   0.000000
    18  H    0.000000   0.000000   0.000000
    19  H    0.000000  -0.000000   0.000000
    20  H   -0.000000   0.000000   0.000000
    21  H    0.000000  -0.000000   0.000000
    22  H   -0.000000   0.000000   0.000000
    23  H   -0.000000   0.000000   0.000000
    24  H    0.000000  -0.000000   0.000000
    25  H   -0.000000   0.000000  -0.000000
    26  H    0.000000  -0.000000  -0.000000
    27  H   -0.000000   0.000000   0.000000
    28  H    0.000000  -0.000000   0.000000
    29  H    0.000000  -0.000000  -0.000000
    30  H   -0.000000   0.000000  -0.000000
    31  H   -0.000000   0.000000   0.000000
    32  H    0.000000  -0.000000   0.000000
    33  H   -0.000000   0.000001  -0.000000
    34  H    0.000001  -0.000000  -0.000000
    35  H   -0.000042   0.000024   0.000000
    36  H    0.000024  -0.000042   0.000000
    37  H    0.000166  -0.000034  -0.000000
    38  H   -0.000034   0.000166  -0.000000
    39  H   -0.002541   0.008608   0.000033
    40  H    0.008610  -0.002540   0.000033
    41  H   -0.018202   0.014305  -0.000645
    42  H    0.014305  -0.018200  -0.000645
    43  H    0.636826  -0.071217  -0.003180
    44  H   -0.071217   0.636827  -0.003179
    45  H   -0.003180  -0.003179   0.418839
 Mulliken charges:
               1
     1  C   -0.418556
     2  C   -0.227847
     3  C   -0.259881
     4  C   -0.243452
     5  C   -0.253138
     6  C   -0.251212
     7  C   -0.252631
     8  C   -0.251496
     9  C   -0.253241
    10  C   -0.249707
    11  C   -0.255591
    12  C   -0.274875
    13  C   -0.197505
    14  C   -0.173021
    15  O   -0.437206
    16  H    0.144442
    17  H    0.131671
    18  H    0.131680
    19  H    0.126647
    20  H    0.126648
    21  H    0.122684
    22  H    0.122687
    23  H    0.123649
    24  H    0.123647
    25  H    0.125215
    26  H    0.125214
    27  H    0.125580
    28  H    0.125581
    29  H    0.125722
    30  H    0.125722
    31  H    0.125799
    32  H    0.125799
    33  H    0.126015
    34  H    0.126014
    35  H    0.126385
    36  H    0.126386
    37  H    0.127605
    38  H    0.127605
    39  H    0.129400
    40  H    0.129393
    41  H    0.127016
    42  H    0.127024
    43  H    0.128460
    44  H    0.128458
    45  H    0.311215
 Sum of Mulliken charges =  -0.00000
 Mulliken charges with hydrogens summed into heavy atoms:
               1
     1  C   -0.010764
     2  C    0.025448
     3  C   -0.014509
     4  C    0.003844
     5  C   -0.002709
     6  C   -0.000051
     7  C   -0.001187
     8  C    0.000103
     9  C   -0.001213
    10  C    0.003064
    11  C   -0.000381
    12  C   -0.016082
    13  C    0.056535
    14  C    0.083896
    15  O   -0.125990
 Electronic spatial extent (au):  <R**2>=          14239.6244
 Charge=              0.0000 electrons
 Dipole moment (field-independent basis, Debye):
    X=             -0.0330    Y=              2.2353    Z=             -0.0001  Tot=              2.2355
 Quadrupole moment (field-independent basis, Debye-Ang):
   XX=           -100.9657   YY=           -104.1132   ZZ=            -99.3922
   XY=             18.7839   XZ=              0.0010   YZ=              0.0000
 Traceless Quadrupole moment (field-independent basis, Debye-Ang):
   XX=              0.5247   YY=             -2.6228   ZZ=              2.0982
   XY=             18.7839   XZ=              0.0010   YZ=              0.0000
 Octapole moment (field-independent basis, Debye-Ang**2):
  XXX=            147.5706  YYY=              0.4508  ZZZ=             -0.0001  XYY=              7.6068
  XXY=            178.2804  XXZ=              0.0005  XZZ=             10.6012  YZZ=              0.2089
  YYZ=             -0.0001  XYZ=              0.0004
 Hexadecapole moment (field-independent basis, Debye-Ang**3):
 XXXX=         -17680.1427 YYYY=           -377.4022 ZZZZ=           -211.5312 XXXY=           1436.1856
 XXXZ=              0.1048 YYYX=              0.7312 YYYZ=              0.0001 ZZZX=              0.0013
 ZZZY=              0.0000 XXYY=          -3327.3150 XXZZ=          -3162.1868 YYZZ=            -87.6100
 XXYZ=              0.0033 YYXZ=             -0.0005 ZZXY=              6.2186
 N-N= 9.144201094376D+02 E-N=-3.283233170909D+03  KE= 6.235255589153D+02
 Unable to Open any file for archive entry.
 1\1\GINC-TCN1632\SP\RBP86\TZVP\C14H30O1\ELENAA\22-Feb-2021\0\\# BP86/T
 ZVP SCRF=COSMORS geom=CHECKPOINT guess=CHECKPOINT\\COSMO-file for #HLZ
 KNKRTKFSKGZ-UHFFFAOYSA-N\\0,1\C,0,-2.3255286546,-11.9103218821,-9.5948
 352554\C,0,-1.3289985468,-10.8922402119,-9.0264314141\C,0,-1.975923031
 1,-9.8970748979,-8.0534603705\C,0,-0.9901247745,-8.8724982829,-7.47703
 02774\C,0,-1.6385139954,-7.8784661012,-6.5046004596\C,0,-0.6529494808,
 -6.8536725115,-5.927934454\C,0,-1.3019447257,-5.8599746658,-4.95561948
 34\C,0,-0.3170170484,-4.8348330212,-4.3785072699\C,0,-0.9671592712,-3.
 8417268071,-3.4063765164\C,0,0.017077736,-2.8162150852,-2.8287865152\C
 ,0,-0.6353877367,-1.8244350129,-1.8571323357\C,0,0.3492755408,-0.79904
 62814,-1.2797517375\C,0,-0.3115926639,0.1888879093,-0.3090507714\C,0,0
 .6736400272,1.2014963447,0.2578272424\O,0,-0.0424355098,2.081245094,1.
 1550758335\H,0,-1.8386720083,-12.6124712807,-10.2891554197\H,0,-2.7884
 705958,-12.502071445,-8.7884418008\H,0,-3.1371704279,-11.4046119259,-1
 0.1427843901\H,0,-0.8564548982,-10.3334460167,-9.8538218885\H,0,-0.510
 1997719,-11.4232113485,-8.5089744974\H,0,-2.4492204027,-10.4548118127,
 -7.2242716555\H,0,-2.7956988552,-9.3643433508,-8.5699867087\H,0,-0.170
 7077883,-9.4056162691,-6.960635814\H,0,-0.5172127654,-8.3150642711,-8.
 30645409\H,0,-2.4579454352,-7.3453734695,-7.0209505435\H,0,-2.11145874
 34,-8.4358678487,-5.6752033084\H,0,-0.1800253863,-6.2961152282,-6.7572
 409903\H,0,0.166473437,-7.3866480177,-5.4114464133\H,0,-2.1214177649,-
 5.3271419364,-5.4721803388\H,0,-1.7749279983,-6.4176465736,-4.12642061
 73\H,0,0.1559259657,-4.2769022459,-5.2075361337\H,0,0.5024306612,-5.36
 74540319,-3.8617181335\H,0,-1.4401349617,-4.3997961068,-2.5774844061\H
 ,0,-1.7866297639,-3.3092752352,-3.9232642205\H,0,0.4898801777,-2.25769
 48363,-3.6574165843\H,0,0.8364191263,-3.3483549316,-2.3114648542\H,0,-
 1.4543504134,-1.2920622358,-2.3743962756\H,0,-1.1078015035,-2.38275383
 98,-1.0284056626\H,0,1.1674926071,-1.332234607,-0.7626434985\H,0,0.820
 8502282,-0.2412485545,-2.1089977062\H,0,-1.1227171019,0.731711927,-0.8
 246219216\H,0,-0.7747465253,-0.3634551306,0.5268918365\H,0,1.135403886
 1,1.7789340097,-0.5665010608\H,0,1.4860872549,0.6752275013,0.795551896
 4\H,0,0.5973919012,2.7231645281,1.5105089821\\Version=ES64L-G16RevC.01
 \State=1-A\HF=-626.9936404\RMSD=3.259e-09\Dipole=0.8527305,0.0051365,-
 0.2153585\Quadrupole=1.8186093,1.2196552,-3.0382644,10.5226403,8.46000
 5,-2.9857454\PG=C01 [X(C14H30O1)]\\@
 The archive entry for this job was punched.


 LAW OF COMPENSATION:
      NO CALCULATION IS EVER A COMPLETE FAILURE; IT 
      CAN ALWAYS SERVE AS A BAD EXAMPLE.

                                           -- ANON
 Job cpu time:       0 days  0 hours 15 minutes 17.7 seconds.
 Elapsed time:       0 days  0 hours  0 minutes 30.0 seconds.
 File lengths (MBytes):  RWF=    182 Int=      0 D2E=      0 Chk=     23 Scr=      1
 Normal termination of Gaussian 16 at Mon Feb 22 21:11:39 2021.
