 Entering Gaussian System, Link 0=g16
 Input=ICFJFFQQTFMIBG-UHFFFAOYSA-N.gjf
 Output=ICFJFFQQTFMIBG-UHFFFAOYSA-N.log
 Initial command:
 /sw/arch/RedHatEnterpriseServer7/EB_production/2019/software/Gaussian/g16.c01/l1.exe "/scratch-local/elenaa.9715218/Gau-27669.inp" -scrdir="/scratch-local/elenaa.9715218/"
 Entering Link 1 = /sw/arch/RedHatEnterpriseServer7/EB_production/2019/software/Gaussian/g16.c01/l1.exe PID=     27670.
  
 Copyright (c) 1988-2019, Gaussian, Inc.  All Rights Reserved.
  
 This is part of the Gaussian(R) 16 program.  It is based on
 the Gaussian(R) 09 system (copyright 2009, Gaussian, Inc.),
 the Gaussian(R) 03 system (copyright 2003, Gaussian, Inc.),
 the Gaussian(R) 98 system (copyright 1998, Gaussian, Inc.),
 the Gaussian(R) 94 system (copyright 1995, Gaussian, Inc.),
 the Gaussian 92(TM) system (copyright 1992, Gaussian, Inc.),
 the Gaussian 90(TM) system (copyright 1990, Gaussian, Inc.),
 the Gaussian 88(TM) system (copyright 1988, Gaussian, Inc.),
 the Gaussian 86(TM) system (copyright 1986, Carnegie Mellon
 University), and the Gaussian 82(TM) system (copyright 1983,
 Carnegie Mellon University). Gaussian is a federally registered
 trademark of Gaussian, Inc.
  
 This software contains proprietary and confidential information,
 including trade secrets, belonging to Gaussian, Inc.
  
 This software is provided under written license and may be
 used, copied, transmitted, or stored only in accord with that
 written license.
  
 The following legend is applicable only to US Government
 contracts under FAR:
  
                    RESTRICTED RIGHTS LEGEND
  
 Use, reproduction and disclosure by the US Government is
 subject to restrictions as set forth in subparagraphs (a)
 and (c) of the Commercial Computer Software - Restricted
 Rights clause in FAR 52.227-19.
  
 Gaussian, Inc.
 340 Quinnipiac St., Bldg. 40, Wallingford CT 06492
  
  
 ---------------------------------------------------------------
 Warning -- This program may not be used in any manner that
 competes with the business of Gaussian, Inc. or will provide
 assistance to any competitor of Gaussian, Inc.  The licensee
 of this program is prohibited from giving any competitor of
 Gaussian, Inc. access to this program.  By using this program,
 the user acknowledges that Gaussian, Inc. is engaged in the
 business of creating and licensing software in the field of
 computational chemistry and represents and warrants to the
 licensee that it is not a competitor of Gaussian, Inc. and that
 it will not use this program in any manner prohibited above.
 ---------------------------------------------------------------
  

 Cite this work as:
 Gaussian 16, Revision C.01,
 M. J. Frisch, G. W. Trucks, H. B. Schlegel, G. E. Scuseria, 
 M. A. Robb, J. R. Cheeseman, G. Scalmani, V. Barone, 
 G. A. Petersson, H. Nakatsuji, X. Li, M. Caricato, A. V. Marenich, 
 J. Bloino, B. G. Janesko, R. Gomperts, B. Mennucci, H. P. Hratchian, 
 J. V. Ortiz, A. F. Izmaylov, J. L. Sonnenberg, D. Williams-Young, 
 F. Ding, F. Lipparini, F. Egidi, J. Goings, B. Peng, A. Petrone, 
 T. Henderson, D. Ranasinghe, V. G. Zakrzewski, J. Gao, N. Rega, 
 G. Zheng, W. Liang, M. Hada, M. Ehara, K. Toyota, R. Fukuda, 
 J. Hasegawa, M. Ishida, T. Nakajima, Y. Honda, O. Kitao, H. Nakai, 
 T. Vreven, K. Throssell, J. A. Montgomery, Jr., J. E. Peralta, 
 F. Ogliaro, M. J. Bearpark, J. J. Heyd, E. N. Brothers, K. N. Kudin, 
 V. N. Staroverov, T. A. Keith, R. Kobayashi, J. Normand, 
 K. Raghavachari, A. P. Rendell, J. C. Burant, S. S. Iyengar, 
 J. Tomasi, M. Cossi, J. M. Millam, M. Klene, C. Adamo, R. Cammi, 
 J. W. Ochterski, R. L. Martin, K. Morokuma, O. Farkas, 
 J. B. Foresman, and D. J. Fox, Gaussian, Inc., Wallingford CT, 2019.
 
 ******************************************
 Gaussian 16:  ES64L-G16RevC.01  3-Jul-2019
                22-Feb-2021 
 ******************************************
 %chk=ICFJFFQQTFMIBG-UHFFFAOYSA-N.chk
 %NProcShared=32
 Will use up to   32 processors via shared memory.
 -------------------------------------------------------------
 #P BP86/TZVP EmpiricalDispersion=GD3 SCRF=(Solvent=Water) Opt
 -------------------------------------------------------------
 1/18=20,19=15,26=3,38=1/1,3;
 2/9=110,12=2,17=6,18=5,40=1/2;
 3/5=19,7=101,11=2,25=1,30=1,70=2201,71=1,72=1,74=404,124=31/1,2,3;
 4//1;
 5/5=2,38=5,53=1/2;
 6/7=2,8=2,9=2,10=2,28=1/1;
 7//1,2,3,16;
 1/18=20,19=15,26=3/3(2);
 2/9=110/2;
 99//99;
 2/9=110/2;
 3/5=19,7=101,11=2,25=1,30=1,70=2205,71=1,72=1,74=404,124=31/1,2,3;
 4/5=5,16=3,69=1/1;
 5/5=2,38=5,53=1/2;
 7//1,2,3,16;
 1/18=20,19=15,26=3/3(-5);
 2/9=110/2;
 6/7=2,8=2,9=2,10=2,19=2,28=1/1;
 99/9=1/99;
 Leave Link    1 at Mon Feb 22 21:08:38 2021, MaxMem=           0 cpu:               1.7 elap:               0.1
 (Enter /sw/arch/RedHatEnterpriseServer7/EB_production/2019/software/Gaussian/g16.c01/l101.exe)
 -------------------------------------
 Particle #ICFJFFQQTFMIBG-UHFFFAOYSA-N
 -------------------------------------
 Symbolic Z-matrix:
 Charge =  0 Multiplicity = 1
 N                     2.0517   -3.43163  -0.5617 
 C                     2.93991  -2.67885   0.05872 
 N                     4.09183  -3.22766   0.3672 
 N                     2.77421  -1.44368   0.37981 
 C                     1.7824   -0.61958   0.25122 
 N                     2.08747   0.66437   0.30446 
 N                     0.56742  -1.01772   0.10789 
 C                    -0.59958  -0.26404  -0.00847 
 C                    -1.80328  -1.19737  -0.27938 
 C                    -1.67554  -1.87635  -1.59731 
 C                    -1.22022  -3.21311  -1.69785 
 C                    -1.02053  -3.8078   -2.95836 
 C                    -1.30342  -3.08434  -4.13044 
 C                    -1.78391  -1.76544  -4.04346 
 C                    -1.97     -1.16604  -2.78536 
 H                     1.19879  -3.06203  -0.83688 
 H                     2.2523   -4.3627   -0.75155 
 H                     4.75628  -2.71957   0.85804 
 H                     4.28056  -4.14303   0.10607 
 H                     3.00951   0.94741   0.41789 
 H                     1.38923   1.33283   0.22984 
 H                    -0.77032   0.27857   0.92329 
 H                    -0.5016    0.46926  -0.81599 
 H                    -2.72516  -0.61219  -0.25805 
 H                    -1.87346  -1.92622   0.53163 
 H                    -1.01428  -3.75854  -0.85606 
 H                    -0.66516  -4.76522  -3.02092 
 H                    -1.16007  -3.51674  -5.04572 
 H                    -1.99546  -1.23717  -4.89316 
 H                    -2.31689  -0.20354  -2.7403 
 
 ITRead=  0  0  0  0  0  0  0  0  0  0  0  0  0  0  0  0  0  0  0  0
 ITRead=  0  0  0  0  0  0  0  0  0  0
 MicOpt= -1 -1 -1 -1 -1 -1 -1 -1 -1 -1 -1 -1 -1 -1 -1 -1 -1 -1 -1 -1
 MicOpt= -1 -1 -1 -1 -1 -1 -1 -1 -1 -1
 NAtoms=     30 NQM=       30 NQMF=       0 NMMI=      0 NMMIF=      0
                NMic=       0 NMicF=      0.
                    Isotopes and Nuclear Properties:
 (Nuclear quadrupole moments (NQMom) in fm**2, nuclear magnetic moments (NMagM)
  in nuclear magnetons)

  Atom         1           2           3           4           5           6           7           8           9          10
 IAtWgt=          14          12          14          14          12          14          14          12          12          12
 AtmWgt=  14.0030740  12.0000000  14.0030740  14.0030740  12.0000000  14.0030740  14.0030740  12.0000000  12.0000000  12.0000000
 NucSpn=           2           0           2           2           0           2           2           0           0           0
 AtZEff=  -0.0000000  -0.0000000  -0.0000000  -0.0000000  -0.0000000  -0.0000000  -0.0000000  -0.0000000  -0.0000000  -0.0000000
 NQMom=    2.0440000   0.0000000   2.0440000   2.0440000   0.0000000   2.0440000   2.0440000   0.0000000   0.0000000   0.0000000
 NMagM=    0.4037610   0.0000000   0.4037610   0.4037610   0.0000000   0.4037610   0.4037610   0.0000000   0.0000000   0.0000000
 AtZNuc=   7.0000000   6.0000000   7.0000000   7.0000000   6.0000000   7.0000000   7.0000000   6.0000000   6.0000000   6.0000000

  Atom        11          12          13          14          15          16          17          18          19          20
 IAtWgt=          12          12          12          12          12           1           1           1           1           1
 AtmWgt=  12.0000000  12.0000000  12.0000000  12.0000000  12.0000000   1.0078250   1.0078250   1.0078250   1.0078250   1.0078250
 NucSpn=           0           0           0           0           0           1           1           1           1           1
 AtZEff=  -0.0000000  -0.0000000  -0.0000000  -0.0000000  -0.0000000  -0.0000000  -0.0000000  -0.0000000  -0.0000000  -0.0000000
 NQMom=    0.0000000   0.0000000   0.0000000   0.0000000   0.0000000   0.0000000   0.0000000   0.0000000   0.0000000   0.0000000
 NMagM=    0.0000000   0.0000000   0.0000000   0.0000000   0.0000000   2.7928460   2.7928460   2.7928460   2.7928460   2.7928460
 AtZNuc=   6.0000000   6.0000000   6.0000000   6.0000000   6.0000000   1.0000000   1.0000000   1.0000000   1.0000000   1.0000000

  Atom        21          22          23          24          25          26          27          28          29          30
 IAtWgt=           1           1           1           1           1           1           1           1           1           1
 AtmWgt=   1.0078250   1.0078250   1.0078250   1.0078250   1.0078250   1.0078250   1.0078250   1.0078250   1.0078250   1.0078250
 NucSpn=           1           1           1           1           1           1           1           1           1           1
 AtZEff=  -0.0000000  -0.0000000  -0.0000000  -0.0000000  -0.0000000  -0.0000000  -0.0000000  -0.0000000  -0.0000000  -0.0000000
 NQMom=    0.0000000   0.0000000   0.0000000   0.0000000   0.0000000   0.0000000   0.0000000   0.0000000   0.0000000   0.0000000
 NMagM=    2.7928460   2.7928460   2.7928460   2.7928460   2.7928460   2.7928460   2.7928460   2.7928460   2.7928460   2.7928460
 AtZNuc=   1.0000000   1.0000000   1.0000000   1.0000000   1.0000000   1.0000000   1.0000000   1.0000000   1.0000000   1.0000000
 Leave Link  101 at Mon Feb 22 21:08:38 2021, MaxMem=   104857600 cpu:               3.1 elap:               0.1
 (Enter /sw/arch/RedHatEnterpriseServer7/EB_production/2019/software/Gaussian/g16.c01/l103.exe)

 GradGradGradGradGradGradGradGradGradGradGradGradGradGradGradGradGradGrad
 Berny optimization.
 Initialization pass.
                           ----------------------------
                           !    Initial Parameters    !
                           ! (Angstroms and Degrees)  !
 --------------------------                            --------------------------
 ! Name  Definition              Value          Derivative Info.                !
 --------------------------------------------------------------------------------
 ! R1    R(1,2)                  1.3193         estimate D2E/DX2                !
 ! R2    R(1,16)                 0.9694         estimate D2E/DX2                !
 ! R3    R(1,17)                 0.9712         estimate D2E/DX2                !
 ! R4    R(2,3)                  1.3127         estimate D2E/DX2                !
 ! R5    R(2,4)                  1.2869         estimate D2E/DX2                !
 ! R6    R(3,18)                 0.9698         estimate D2E/DX2                !
 ! R7    R(3,19)                 0.9704         estimate D2E/DX2                !
 ! R8    R(4,5)                  1.2959         estimate D2E/DX2                !
 ! R9    R(5,6)                  1.3208         estimate D2E/DX2                !
 ! R10   R(5,7)                  1.2866         estimate D2E/DX2                !
 ! R11   R(6,20)                 0.9712         estimate D2E/DX2                !
 ! R12   R(6,21)                 0.9695         estimate D2E/DX2                !
 ! R13   R(7,8)                  1.3941         estimate D2E/DX2                !
 ! R14   R(8,9)                  1.5471         estimate D2E/DX2                !
 ! R15   R(8,22)                 1.0917         estimate D2E/DX2                !
 ! R16   R(8,23)                 1.0952         estimate D2E/DX2                !
 ! R17   R(9,10)                 1.488          estimate D2E/DX2                !
 ! R18   R(9,24)                 1.0921         estimate D2E/DX2                !
 ! R19   R(9,25)                 1.0927         estimate D2E/DX2                !
 ! R20   R(10,11)                1.4158         estimate D2E/DX2                !
 ! R21   R(10,15)                1.4152         estimate D2E/DX2                !
 ! R22   R(11,12)                1.408          estimate D2E/DX2                !
 ! R23   R(11,26)                1.024          estimate D2E/DX2                !
 ! R24   R(12,13)                1.4061         estimate D2E/DX2                !
 ! R25   R(12,27)                1.0232         estimate D2E/DX2                !
 ! R26   R(13,14)                1.4064         estimate D2E/DX2                !
 ! R27   R(13,28)                1.0224         estimate D2E/DX2                !
 ! R28   R(14,15)                1.406          estimate D2E/DX2                !
 ! R29   R(14,29)                1.0226         estimate D2E/DX2                !
 ! R30   R(15,30)                1.0241         estimate D2E/DX2                !
 ! A1    A(2,1,16)             120.5493         estimate D2E/DX2                !
 ! A2    A(2,1,17)             119.9936         estimate D2E/DX2                !
 ! A3    A(16,1,17)            119.4559         estimate D2E/DX2                !
 ! A4    A(1,2,3)              117.5638         estimate D2E/DX2                !
 ! A5    A(1,2,4)              125.3306         estimate D2E/DX2                !
 ! A6    A(3,2,4)              117.1037         estimate D2E/DX2                !
 ! A7    A(2,3,18)             120.0726         estimate D2E/DX2                !
 ! A8    A(2,3,19)             120.1176         estimate D2E/DX2                !
 ! A9    A(18,3,19)            119.8097         estimate D2E/DX2                !
 ! A10   A(2,4,5)              133.1675         estimate D2E/DX2                !
 ! A11   A(4,5,6)              115.9395         estimate D2E/DX2                !
 ! A12   A(4,5,7)              122.4811         estimate D2E/DX2                !
 ! A13   A(6,5,7)              121.5642         estimate D2E/DX2                !
 ! A14   A(5,6,20)             120.4861         estimate D2E/DX2                !
 ! A15   A(5,6,21)             120.0536         estimate D2E/DX2                !
 ! A16   A(20,6,21)            119.4603         estimate D2E/DX2                !
 ! A17   A(5,7,8)              129.2372         estimate D2E/DX2                !
 ! A18   A(7,8,9)              109.8634         estimate D2E/DX2                !
 ! A19   A(7,8,22)             109.1718         estimate D2E/DX2                !
 ! A20   A(7,8,23)             110.4042         estimate D2E/DX2                !
 ! A21   A(9,8,22)             109.1253         estimate D2E/DX2                !
 ! A22   A(9,8,23)             110.1475         estimate D2E/DX2                !
 ! A23   A(22,8,23)            108.0904         estimate D2E/DX2                !
 ! A24   A(8,9,10)             111.3202         estimate D2E/DX2                !
 ! A25   A(8,9,24)             109.2744         estimate D2E/DX2                !
 ! A26   A(8,9,25)             108.8095         estimate D2E/DX2                !
 ! A27   A(10,9,24)            109.5267         estimate D2E/DX2                !
 ! A28   A(10,9,25)            111.0102         estimate D2E/DX2                !
 ! A29   A(24,9,25)            106.7802         estimate D2E/DX2                !
 ! A30   A(9,10,11)            121.422          estimate D2E/DX2                !
 ! A31   A(9,10,15)            119.7787         estimate D2E/DX2                !
 ! A32   A(11,10,15)           118.7652         estimate D2E/DX2                !
 ! A33   A(10,11,12)           120.5303         estimate D2E/DX2                !
 ! A34   A(10,11,26)           120.6135         estimate D2E/DX2                !
 ! A35   A(12,11,26)           118.8471         estimate D2E/DX2                !
 ! A36   A(11,12,13)           120.0265         estimate D2E/DX2                !
 ! A37   A(11,12,27)           119.9492         estimate D2E/DX2                !
 ! A38   A(13,12,27)           120.0237         estimate D2E/DX2                !
 ! A39   A(12,13,14)           119.9789         estimate D2E/DX2                !
 ! A40   A(12,13,28)           120.028          estimate D2E/DX2                !
 ! A41   A(14,13,28)           119.9931         estimate D2E/DX2                !
 ! A42   A(13,14,15)           120.0244         estimate D2E/DX2                !
 ! A43   A(13,14,29)           120.2466         estimate D2E/DX2                !
 ! A44   A(15,14,29)           119.7285         estimate D2E/DX2                !
 ! A45   A(10,15,14)           120.6436         estimate D2E/DX2                !
 ! A46   A(10,15,30)           120.3499         estimate D2E/DX2                !
 ! A47   A(14,15,30)           119.0054         estimate D2E/DX2                !
 ! D1    D(16,1,2,3)          -177.8913         estimate D2E/DX2                !
 ! D2    D(16,1,2,4)             1.5945         estimate D2E/DX2                !
 ! D3    D(17,1,2,3)             1.6972         estimate D2E/DX2                !
 ! D4    D(17,1,2,4)          -178.817          estimate D2E/DX2                !
 ! D5    D(1,2,3,18)          -177.3111         estimate D2E/DX2                !
 ! D6    D(1,2,3,19)             2.5986         estimate D2E/DX2                !
 ! D7    D(4,2,3,18)             3.1602         estimate D2E/DX2                !
 ! D8    D(4,2,3,19)          -176.9301         estimate D2E/DX2                !
 ! D9    D(1,2,4,5)              1.902          estimate D2E/DX2                !
 ! D10   D(3,2,4,5)           -178.6101         estimate D2E/DX2                !
 ! D11   D(2,4,5,6)           -159.4354         estimate D2E/DX2                !
 ! D12   D(2,4,5,7)             21.9626         estimate D2E/DX2                !
 ! D13   D(4,5,6,20)             1.0483         estimate D2E/DX2                !
 ! D14   D(4,5,6,21)          -178.9771         estimate D2E/DX2                !
 ! D15   D(7,5,6,20)           179.6642         estimate D2E/DX2                !
 ! D16   D(7,5,6,21)            -0.3611         estimate D2E/DX2                !
 ! D17   D(4,5,7,8)            178.2738         estimate D2E/DX2                !
 ! D18   D(6,5,7,8)             -0.2508         estimate D2E/DX2                !
 ! D19   D(5,7,8,9)            175.3464         estimate D2E/DX2                !
 ! D20   D(5,7,8,22)           -65.0218         estimate D2E/DX2                !
 ! D21   D(5,7,8,23)            53.6695         estimate D2E/DX2                !
 ! D22   D(7,8,9,10)           -65.1526         estimate D2E/DX2                !
 ! D23   D(7,8,9,24)           173.7436         estimate D2E/DX2                !
 ! D24   D(7,8,9,25)            57.4987         estimate D2E/DX2                !
 ! D25   D(22,8,9,10)          175.1872         estimate D2E/DX2                !
 ! D26   D(22,8,9,24)           54.0835         estimate D2E/DX2                !
 ! D27   D(22,8,9,25)          -62.1614         estimate D2E/DX2                !
 ! D28   D(23,8,9,10)           56.6775         estimate D2E/DX2                !
 ! D29   D(23,8,9,24)          -64.4262         estimate D2E/DX2                !
 ! D30   D(23,8,9,25)          179.3289         estimate D2E/DX2                !
 ! D31   D(8,9,10,11)          100.3111         estimate D2E/DX2                !
 ! D32   D(8,9,10,15)          -77.5381         estimate D2E/DX2                !
 ! D33   D(24,9,10,11)        -138.7329         estimate D2E/DX2                !
 ! D34   D(24,9,10,15)          43.418          estimate D2E/DX2                !
 ! D35   D(25,9,10,11)         -21.0653         estimate D2E/DX2                !
 ! D36   D(25,9,10,15)         161.0856         estimate D2E/DX2                !
 ! D37   D(9,10,11,12)        -175.702          estimate D2E/DX2                !
 ! D38   D(9,10,11,26)           3.1856         estimate D2E/DX2                !
 ! D39   D(15,10,11,12)          2.1683         estimate D2E/DX2                !
 ! D40   D(15,10,11,26)       -178.9441         estimate D2E/DX2                !
 ! D41   D(9,10,15,14)         176.4183         estimate D2E/DX2                !
 ! D42   D(9,10,15,30)          -3.19           estimate D2E/DX2                !
 ! D43   D(11,10,15,14)         -1.4879         estimate D2E/DX2                !
 ! D44   D(11,10,15,30)        178.9038         estimate D2E/DX2                !
 ! D45   D(10,11,12,13)         -1.4958         estimate D2E/DX2                !
 ! D46   D(10,11,12,27)        178.2112         estimate D2E/DX2                !
 ! D47   D(26,11,12,13)        179.5972         estimate D2E/DX2                !
 ! D48   D(26,11,12,27)         -0.6958         estimate D2E/DX2                !
 ! D49   D(11,12,13,14)          0.1054         estimate D2E/DX2                !
 ! D50   D(11,12,13,28)       -179.8868         estimate D2E/DX2                !
 ! D51   D(27,12,13,14)       -179.6014         estimate D2E/DX2                !
 ! D52   D(27,12,13,28)          0.4064         estimate D2E/DX2                !
 ! D53   D(12,13,14,15)          0.5734         estimate D2E/DX2                !
 ! D54   D(12,13,14,29)       -179.6905         estimate D2E/DX2                !
 ! D55   D(28,13,14,15)       -179.4344         estimate D2E/DX2                !
 ! D56   D(28,13,14,29)          0.3017         estimate D2E/DX2                !
 ! D57   D(13,14,15,10)          0.1315         estimate D2E/DX2                !
 ! D58   D(13,14,15,30)        179.7449         estimate D2E/DX2                !
 ! D59   D(29,14,15,10)       -179.606          estimate D2E/DX2                !
 ! D60   D(29,14,15,30)          0.0075         estimate D2E/DX2                !
 --------------------------------------------------------------------------------
 Trust Radius=3.00D-01 FncErr=1.00D-07 GrdErr=1.00D-06 EigMax=2.50D+02 EigMin=1.00D-04
 Number of steps in this run=    147 maximum allowed number of steps=    180.
 GradGradGradGradGradGradGradGradGradGradGradGradGradGradGradGradGradGrad

 Leave Link  103 at Mon Feb 22 21:08:39 2021, MaxMem=   104857600 cpu:               0.4 elap:               0.0
 (Enter /sw/arch/RedHatEnterpriseServer7/EB_production/2019/software/Gaussian/g16.c01/l202.exe)
                          Input orientation:                          
 ---------------------------------------------------------------------
 Center     Atomic      Atomic             Coordinates (Angstroms)
 Number     Number       Type             X           Y           Z
 ---------------------------------------------------------------------
      1          7           0        2.051700   -3.431630   -0.561700
      2          6           0        2.939910   -2.678850    0.058720
      3          7           0        4.091830   -3.227660    0.367200
      4          7           0        2.774210   -1.443680    0.379810
      5          6           0        1.782400   -0.619580    0.251220
      6          7           0        2.087470    0.664370    0.304460
      7          7           0        0.567420   -1.017720    0.107890
      8          6           0       -0.599580   -0.264040   -0.008470
      9          6           0       -1.803280   -1.197370   -0.279380
     10          6           0       -1.675540   -1.876350   -1.597310
     11          6           0       -1.220220   -3.213110   -1.697850
     12          6           0       -1.020530   -3.807800   -2.958360
     13          6           0       -1.303420   -3.084340   -4.130440
     14          6           0       -1.783910   -1.765440   -4.043460
     15          6           0       -1.970000   -1.166040   -2.785360
     16          1           0        1.198790   -3.062030   -0.836880
     17          1           0        2.252300   -4.362700   -0.751550
     18          1           0        4.756280   -2.719570    0.858040
     19          1           0        4.280560   -4.143030    0.106070
     20          1           0        3.009510    0.947410    0.417890
     21          1           0        1.389230    1.332830    0.229840
     22          1           0       -0.770320    0.278570    0.923290
     23          1           0       -0.501600    0.469260   -0.815990
     24          1           0       -2.725160   -0.612190   -0.258050
     25          1           0       -1.873460   -1.926220    0.531630
     26          1           0       -1.014280   -3.758540   -0.856060
     27          1           0       -0.665160   -4.765220   -3.020920
     28          1           0       -1.160070   -3.516740   -5.045720
     29          1           0       -1.995460   -1.237170   -4.893160
     30          1           0       -2.316890   -0.203540   -2.740300
 ---------------------------------------------------------------------
                    Distance matrix (angstroms):
                    1          2          3          4          5
     1  N    0.000000
     2  C    1.319286   0.000000
     3  N    2.250909   1.312735   0.000000
     4  N    2.315255   1.286934   2.217852   0.000000
     5  C    2.939556   2.370122   3.485542   1.295902   0.000000
     6  N    4.186732   3.458925   4.378275   2.218370   1.320769
     7  N    2.911769   2.896632   4.168038   2.263914   1.286560
     8  C    4.167610   4.285302   5.561789   3.595104   2.422329
     9  C    4.464582   4.980657   6.268370   4.631265   3.670488
    10  C    4.169377   4.968785   6.240825   4.888403   4.117509
    11  C    3.470454   4.547269   5.699344   4.837667   4.420520
    12  C    3.914598   5.105133   6.126348   5.579650   5.321895
    13  C    4.910534   5.976565   7.025527   6.297713   5.898836
    14  C    5.441576   6.322711   7.491083   6.359662   5.698758
    15  C    5.123635   5.872359   7.136855   5.709896   4.857977
    16  H    0.969424   1.995100   3.137981   2.565412   2.736809
    17  H    0.971172   1.991154   2.433883   3.173806   3.903499
    18  H    3.136470   1.984886   0.969832   2.405244   3.690820
    19  H    2.433069   1.985801   0.970418   3.103307   4.321640
    20  H    4.588354   3.644669   4.313374   2.402941   1.997257
    21  H    4.874985   4.304354   5.302922   3.106392   1.991719
    22  H    4.892298   4.822823   6.020248   3.978091   2.788320
    23  H    4.669148   4.745493   6.013880   3.977463   2.746118
    24  H    5.555163   6.038580   7.328231   5.598331   4.536244
    25  H    4.343790   4.894755   6.107820   4.675118   3.892461
    26  H    3.097378   4.199782   5.277363   4.608536   4.347477
    27  H    3.899686   5.180121   6.039239   5.867441   5.820978
    28  H    5.516262   6.600546   7.547564   7.015163   6.716341
    29  H    6.321132   7.138448   8.287855   7.113129   6.412354
    30  H    5.852473   6.449467   7.737800   6.098552   5.091803
                    6          7          8          9         10
     6  N    0.000000
     7  N    2.275658   0.000000
     8  C    2.860089   1.394081   0.000000
     9  C    4.352572   2.408832   1.547059   0.000000
    10  C    4.922624   2.945475   2.506321   1.488043   0.000000
    11  C    5.475848   3.357989   3.454882   2.532829   1.415751
    12  C    6.348698   4.439372   4.630042   3.821515   2.451937
    13  C    6.724530   5.072909   5.043820   4.317543   2.830982
    14  C    6.308405   4.829239   4.465197   3.806754   2.451060
    15  C    5.418529   3.851155   3.225333   2.511715   1.415171
    16  H    3.997307   2.338893   3.427703   3.577735   3.200916
    17  H    5.139432   3.842701   5.048208   5.166235   4.724952
    18  H    4.345118   4.583183   5.955309   6.829249   6.935998
    19  H    5.287731   4.853347   6.235018   6.770420   6.596550
    20  H    0.971152   3.149863   3.830786   5.314999   5.829609
    21  H    0.969508   2.493056   2.561670   4.105282   4.798972
    22  H    2.949365   2.033419   1.091675   2.166061   3.437518
    23  H    2.827854   2.051211   1.095179   2.181737   2.736875
    24  H    5.010732   3.337581   2.168315   1.092132   2.119769
    25  H    4.738326   2.638716   2.162711   1.092650   2.138702
    26  H    5.525377   3.308031   3.619657   2.741290   2.128228
    27  H    6.936539   5.035123   5.416620   4.641219   3.375367
    28  H    7.526794   5.982392   6.022300   5.339587   3.853326
    29  H    6.877603   5.623790   5.172587   4.617952   3.372466
    30  H    5.424225   4.134528   3.227338   2.703261   2.125100
                   11         12         13         14         15
    11  C    0.000000
    12  C    1.407984   0.000000
    13  C    2.437416   1.406127   0.000000
    14  C    2.813429   2.435452   1.406390   0.000000
    15  C    2.436256   2.812529   2.435866   1.405961   0.000000
    16  H    2.572101   3.159467   4.136314   4.567253   4.175234
    17  H    3.778285   3.986144   5.068949   5.820088   5.672992
    18  H    6.518796   7.008615   7.857350   8.228557   7.805809
    19  H    5.863229   6.132264   7.088700   7.723298   7.502822
    20  H    6.298960   7.088886   7.452763   7.088023   6.286732
    21  H    5.584871   6.511347   6.765633   6.158668   5.159478
    22  H    4.389147   5.641651   6.093730   5.465706   4.156948
    23  H    3.854081   4.811682   4.925096   4.129742   2.951071
    24  H    3.332064   4.517672   4.809186   4.067587   2.695239
    25  H    2.655822   4.055597   4.837467   4.578790   3.404353
    26  H    1.023970   2.102886   3.355549   3.837225   3.369964
    27  H    2.113682   1.023159   2.112763   3.360933   3.835648
    28  H    3.362149   2.112169   1.022378   2.112050   3.360209
    29  H    3.836058   3.361856   2.114875   1.022650   2.109154
    30  H    3.368516   3.836507   3.355387   2.102814   1.024094
                   16         17         18         19         20
    16  H    0.000000
    17  H    1.675979   0.000000
    18  H    3.955473   3.400084   0.000000
    19  H    3.399268   2.213053   1.678692   0.000000
    20  H    4.574797   5.489829   4.085545   5.255985   0.000000
    21  H    4.526473   5.843550   5.305997   6.193557   1.676072
    22  H    4.258544   5.786424   6.287798   6.762380   3.871678
    23  H    3.919410   5.562010   6.373093   6.707643   3.752197
    24  H    4.661989   6.251798   7.852302   7.853631   5.981278
    25  H    3.549874   4.960331   6.685013   6.554945   5.666929
    26  H    2.320167   3.323624   6.108761   5.395262   6.321376
    27  H    3.338442   3.718015   6.973021   5.884329   7.613327
    28  H    4.846165   5.549758   8.396014   7.518885   8.195430
    29  H    5.476016   6.705620   8.992208   8.533742   7.617701
    30  H    4.914670   6.490858   8.325154   8.194373   6.298364
                   21         22         23         24         25
    21  H    0.000000
    22  H    2.501198   0.000000
    23  H    2.326962   1.770217   0.000000
    24  H    4.577045   2.451615   2.534768   0.000000
    25  H    4.621432   2.496280   3.071873   1.753757   0.000000
    26  H    5.733942   4.418581   4.258960   3.631012   2.453828
    27  H    7.209312   6.403723   5.682275   5.396731   4.705372
    28  H    7.605839   7.084163   5.849136   5.814439   5.843416
    29  H    6.656287   6.134291   4.665494   4.733636   5.469737
    30  H    4.991742   4.005771   2.729635   2.548577   3.724216
                   26         27         28         29         30
    26  H    0.000000
    27  H    2.412863   0.000000
    28  H    4.199163   2.429702   0.000000
    29  H    4.859856   4.209765   2.432610   0.000000
    30  H    4.229087   4.859618   4.198867   2.409671   0.000000
 Stoichiometry    C10H15N5
 Framework group  C1[X(C10H15N5)]
 Deg. of freedom    84
 Full point group                 C1      NOp   1
 Largest Abelian subgroup         C1      NOp   1
 Largest concise Abelian subgroup C1      NOp   1
                         Standard orientation:                         
 ---------------------------------------------------------------------
 Center     Atomic      Atomic             Coordinates (Angstroms)
 Number     Number       Type             X           Y           Z
 ---------------------------------------------------------------------
      1          7           0        1.477653   -1.761983    0.345350
      2          6           0        2.621455   -1.195234    0.012141
      3          7           0        3.686559   -1.960874   -0.039057
      4          7           0        2.779172    0.048811   -0.277129
      5          6           0        1.971671    1.062009   -0.304266
      6          7           0        2.359539    2.090452   -1.036587
      7          7           0        0.870259    1.085691    0.360238
      8          6           0       -0.078086    2.102683    0.459388
      9          6           0       -1.290160    1.612366    1.286345
     10          6           0       -2.009278    0.510586    0.591202
     11          6           0       -1.813142   -0.843586    0.954660
     12          6           0       -2.433456   -1.876668    0.226395
     13          6           0       -3.280604   -1.566609   -0.852214
     14          6           0       -3.506522   -0.224054   -1.204976
     15          6           0       -2.876187    0.807558   -0.487216
     16          1           0        0.658747   -1.243609    0.366913
     17          1           0        1.450357   -2.707404    0.565827
     18          1           0        4.552999   -1.575224   -0.241857
     19          1           0        3.609643   -2.913860    0.127116
     20          1           0        3.196460    2.057540   -1.528131
     21          1           0        1.807836    2.886074   -1.087139
     22          1           0        0.370523    2.963803    0.958364
     23          1           0       -0.404394    2.418948   -0.537064
     24          1           0       -1.974492    2.447099    1.452672
     25          1           0       -0.938928    1.291586    2.270022
     26          1           0       -1.204688   -1.089670    1.740625
     27          1           0       -2.263797   -2.853327    0.479788
     28          1           0       -3.732411   -2.316686   -1.379955
     29          1           0       -4.125578    0.006260   -1.985705
     30          1           0       -3.048693    1.779482   -0.759933
 ---------------------------------------------------------------------
 Rotational constants (GHZ):           0.8943008           0.3844861           0.3046140
 Leave Link  202 at Mon Feb 22 21:08:39 2021, MaxMem=   104857600 cpu:               1.2 elap:               0.1
 (Enter /sw/arch/RedHatEnterpriseServer7/EB_production/2019/software/Gaussian/g16.c01/l301.exe)
 Standard basis: TZVP (5D, 7F)
 Ernie: Thresh=  0.10000D-02 Tol=  0.10000D-05 Strict=F.
 There are   390 symmetry adapted cartesian basis functions of A   symmetry.
 There are   375 symmetry adapted basis functions of A   symmetry.
   375 basis functions,   645 primitive gaussians,   390 cartesian basis functions
    55 alpha electrons       55 beta electrons
       nuclear repulsion energy       977.7043557650 Hartrees.
 IExCor=  404 DFT=T Ex=B Corr=P86 ExCW=0 ScaHFX=  0.000000
 ScaDFX=  1.000000  1.000000  1.000000  1.000000 ScalE2=  1.000000  1.000000
 IRadAn=      5 IRanWt=     -1 IRanGd=            0 ICorTp=0 IEmpDi=131
 NAtoms=   30 NActive=   30 NUniq=   30 SFac= 1.00D+00 NAtFMM=   60 NAOKFM=F Big=F
 Integral buffers will be    131072 words long.
 Raffenetti 2 integral format.
 Two-electron integral symmetry is turned on.
 R6Disp:  Grimme-D3 Dispersion energy=       -0.0298053414 Hartrees.
 Nuclear repulsion after empirical dispersion term =      977.6745504236 Hartrees.
 ------------------------------------------------------------------------------
 Polarizable Continuum Model (PCM)
 =================================
 Model                : PCM.
 Atomic radii         : UFF (Universal Force Field).
 Polarization charges : Total charges.
 Charge compensation  : None.
 Solution method      : On-the-fly selection.
 Cavity type          : Scaled VdW (van der Waals Surface) (Alpha=1.100).
 Cavity algorithm     : GePol (No added spheres)
                        Default sphere list used, NSphG=   30.
                        Lebedev-Laikov grids with approx.  5.0 points / Ang**2.
                        Smoothing algorithm: York/Karplus (Gamma=1.0000).
                        Polarization charges: spherical gaussians, with
                                              point-specific exponents (IZeta= 3).
                        Self-potential: point-specific (ISelfS= 7).
                        Self-field    : sphere-specific E.n sum rule (ISelfD= 2).
 1st derivatives      : Analytical E(r).r(x)/FMM algorithm (CHGder, D1EAlg=3).
                        Cavity 1st derivative terms included.
 Solvent              : Water, Eps=  78.355300 Eps(inf)=   1.777849
 ------------------------------------------------------------------------------
 GePol: Number of generator spheres                  =      30
 GePol: Total number of spheres                      =      30
 GePol: Number of exposed spheres                    =      30 (100.00%)
 GePol: Number of points                             =    2217
 GePol: Average weight of points                     =       0.13
 GePol: Minimum weight of points                     =   0.93D-10
 GePol: Maximum weight of points                     =    0.20577
 GePol: Number of points with low weight             =     155
 GePol: Fraction of low-weight points (<1% of avg)   =       6.99%
 GePol: Cavity surface area                          =    285.836 Ang**2
 GePol: Cavity volume                                =    300.022 Ang**3
 Leave Link  301 at Mon Feb 22 21:08:39 2021, MaxMem=   104857600 cpu:               1.9 elap:               0.1
 (Enter /sw/arch/RedHatEnterpriseServer7/EB_production/2019/software/Gaussian/g16.c01/l302.exe)
 NPDir=0 NMtPBC=     1 NCelOv=     1 NCel=       1 NClECP=     1 NCelD=      1
         NCelK=      1 NCelE2=     1 NClLst=     1 CellRange=     0.0.
 One-electron integrals computed using PRISM.
 One-electron integral symmetry used in STVInt
 PrsmSu:  requested number of processors reduced to:  26 ShMem   1 Linda.
 NBasis=   375 RedAO= T EigKep=  9.13D-06  NBF=   375
 NBsUse=   375 1.00D-06 EigRej= -1.00D+00 NBFU=   375
 Precomputing XC quadrature grid using
 IXCGrd= 4 IRadAn=           5 IRanWt=          -1 IRanGd=           0 AccXCQ= 0.00D+00.
 Generated NRdTot=       0 NPtTot=           0 NUsed=           0 NTot=          32
 NSgBfM=   384   384   384   384   384 MxSgAt=    30 MxSgA2=    30.
 Leave Link  302 at Mon Feb 22 21:08:39 2021, MaxMem=   104857600 cpu:              10.0 elap:               0.3
 (Enter /sw/arch/RedHatEnterpriseServer7/EB_production/2019/software/Gaussian/g16.c01/l303.exe)
 DipDrv:  MaxL=1.
 Leave Link  303 at Mon Feb 22 21:08:39 2021, MaxMem=   104857600 cpu:               2.6 elap:               0.1
 (Enter /sw/arch/RedHatEnterpriseServer7/EB_production/2019/software/Gaussian/g16.c01/l401.exe)
 ExpMin= 9.52D-02 ExpMax= 1.97D+04 ExpMxC= 6.73D+02 IAcc=3 IRadAn=         5 AccDes= 0.00D+00
 Harris functional with IExCor=  404 and IRadAn=       5 diagonalized for initial guess.
 HarFok:  IExCor=  404 AccDes= 0.00D+00 IRadAn=         5 IDoV= 1 UseB2=F ITyADJ=14
 ICtDFT=  3500011 ScaDFX=  1.000000  1.000000  1.000000  1.000000
 FoFCou: FMM=F IPFlag=           0 FMFlag=      100000 FMFlg1=           0
         NFxFlg=           0 DoJE=T BraDBF=F KetDBF=T FulRan=T
         wScrn=  0.000000 ICntrl=       500 IOpCl=  0 I1Cent=   200000004 NGrid=           0
         NMat0=    1 NMatS0=      1 NMatT0=    0 NMatD0=    1 NMtDS0=    0 NMtDT0=    0
 Petite list used in FoFCou.
 Harris En= -664.371030810039    
 JPrj=0 DoOrth=F DoCkMO=F.
 Leave Link  401 at Mon Feb 22 21:08:40 2021, MaxMem=   104857600 cpu:              22.8 elap:               0.8
 (Enter /sw/arch/RedHatEnterpriseServer7/EB_production/2019/software/Gaussian/g16.c01/l502.exe)
 Integral symmetry usage will be decided dynamically.
 Closed shell SCF:
 Using DIIS extrapolation, IDIIS=  1040.
 NGot=   104857600 LenX=   104536224 LenY=   104383683
 Requested convergence on RMS density matrix=1.00D-08 within 128 cycles.
 Requested convergence on MAX density matrix=1.00D-06.
 Requested convergence on             energy=1.00D-06.
 No special actions if energy rises.
 Fock matrices will be formed incrementally for  20 cycles.

 Cycle   1  Pass 1  IDiag  1:
 FoFJK:  IHMeth= 1 ICntrl=     500 DoSepK=F KAlg= 0 I1Cent=           0 FoldK=F
 IRaf= 850000000 NMat=       1 IRICut=       1 DoRegI=T DoRafI=F ISym2E= 0 IDoP0=0 IntGTp=1.
 FoFCou: FMM=F IPFlag=           0 FMFlag=      100000 FMFlg1=           0
         NFxFlg=           0 DoJE=T BraDBF=F KetDBF=F FulRan=T
         wScrn=  0.000000 ICntrl=       500 IOpCl=  0 I1Cent=           0 NGrid=           0
         NMat0=    1 NMatS0=      1 NMatT0=    0 NMatD0=    1 NMtDS0=    0 NMtDT0=    0
 Symmetry not used in FoFCou.
 Inv3:  Mode=1 IEnd=    14745267.
 Iteration    1 A*A^-1 deviation from unit magnitude is 3.11D-15 for   1498.
 Iteration    1 A*A^-1 deviation from orthogonality  is 1.83D-15 for   1172    436.
 Iteration    1 A^-1*A deviation from unit magnitude is 2.89D-15 for    442.
 Iteration    1 A^-1*A deviation from orthogonality  is 1.95D-15 for   1142    304.
 E= -663.666902621277    
 DIIS: error= 3.38D-02 at cycle   1 NSaved=   1.
 NSaved= 1 IEnMin= 1 EnMin= -663.666902621277     IErMin= 1 ErrMin= 3.38D-02
 ErrMax= 3.38D-02  0.00D+00 EMaxC= 1.00D-01 BMatC= 4.68D-01 BMatP= 4.68D-01
 IDIUse=3 WtCom= 6.62D-01 WtEn= 3.38D-01
 Coeff-Com:  0.100D+01
 Coeff-En:   0.100D+01
 Coeff:      0.100D+01
 Gap=     0.072 Goal=   None    Shift=    0.000
 GapD=    0.072 DampG=0.500 DampE=0.500 DampFc=0.2500 IDamp=-1.
 Damping current iteration by 2.50D-01
 RMSDP=1.52D-02 MaxDP=1.70D+00              OVMax= 3.76D-01

 Cycle   2  Pass 1  IDiag  1:
 RMSU=  3.81D-03    CP:  1.01D+00
 E= -663.817562270386     Delta-E=       -0.150659649109 Rises=F Damp=T
 DIIS: error= 1.46D-02 at cycle   2 NSaved=   2.
 NSaved= 2 IEnMin= 2 EnMin= -663.817562270386     IErMin= 2 ErrMin= 1.46D-02
 ErrMax= 1.46D-02  0.00D+00 EMaxC= 1.00D-01 BMatC= 8.73D-02 BMatP= 4.68D-01
 IDIUse=3 WtCom= 8.54D-01 WtEn= 1.46D-01
 Coeff-Com: -0.567D+00 0.157D+01
 Coeff-En:   0.000D+00 0.100D+01
 Coeff:     -0.484D+00 0.148D+01
 Gap=     0.170 Goal=   None    Shift=    0.000
 RMSDP=3.53D-03 MaxDP=4.02D-01 DE=-1.51D-01 OVMax= 3.29D-01

 Cycle   3  Pass 1  IDiag  1:
 RMSU=  2.14D-03    CP:  9.65D-01  2.73D-01
 E= -664.025295962201     Delta-E=       -0.207733691815 Rises=F Damp=F
 DIIS: error= 2.13D-02 at cycle   3 NSaved=   3.
 NSaved= 3 IEnMin= 3 EnMin= -664.025295962201     IErMin= 2 ErrMin= 1.46D-02
 ErrMax= 2.13D-02  0.00D+00 EMaxC= 1.00D-01 BMatC= 6.67D-02 BMatP= 8.73D-02
 IDIUse=3 WtCom= 7.87D-01 WtEn= 2.13D-01
 Coeff-Com: -0.379D+00 0.996D+00 0.384D+00
 Coeff-En:   0.000D+00 0.000D+00 0.100D+01
 Coeff:     -0.298D+00 0.783D+00 0.515D+00
 Gap=     0.127 Goal=   None    Shift=    0.000
 RMSDP=1.67D-03 MaxDP=1.14D-01 DE=-2.08D-01 OVMax= 2.03D-01

 Cycle   4  Pass 1  IDiag  1:
 RMSU=  1.33D-03    CP:  9.70D-01  4.99D-01  7.52D-01
 E= -664.052996500808     Delta-E=       -0.027700538607 Rises=F Damp=F
 DIIS: error= 1.64D-02 at cycle   4 NSaved=   4.
 NSaved= 4 IEnMin= 4 EnMin= -664.052996500808     IErMin= 2 ErrMin= 1.46D-02
 ErrMax= 1.64D-02  0.00D+00 EMaxC= 1.00D-01 BMatC= 3.76D-02 BMatP= 6.67D-02
 IDIUse=3 WtCom= 8.36D-01 WtEn= 1.64D-01
 Coeff-Com: -0.856D-01 0.226D+00 0.401D+00 0.459D+00
 Coeff-En:   0.000D+00 0.000D+00 0.394D+00 0.606D+00
 Coeff:     -0.715D-01 0.189D+00 0.400D+00 0.483D+00
 Gap=     0.122 Goal=   None    Shift=    0.000
 RMSDP=8.22D-04 MaxDP=6.21D-02 DE=-2.77D-02 OVMax= 1.03D-01

 Cycle   5  Pass 1  IDiag  1:
 RMSU=  2.34D-04    CP:  9.69D-01  3.67D-01  8.45D-01  5.68D-01
 E= -664.085488033641     Delta-E=       -0.032491532833 Rises=F Damp=F
 DIIS: error= 2.86D-03 at cycle   5 NSaved=   5.
 NSaved= 5 IEnMin= 5 EnMin= -664.085488033641     IErMin= 5 ErrMin= 2.86D-03
 ErrMax= 2.86D-03  0.00D+00 EMaxC= 1.00D-01 BMatC= 1.54D-03 BMatP= 3.76D-02
 IDIUse=3 WtCom= 9.71D-01 WtEn= 2.86D-02
 Coeff-Com: -0.305D-01 0.751D-01 0.214D+00 0.302D+00 0.439D+00
 Coeff-En:   0.000D+00 0.000D+00 0.000D+00 0.000D+00 0.100D+01
 Coeff:     -0.296D-01 0.730D-01 0.208D+00 0.294D+00 0.455D+00
 Gap=     0.124 Goal=   None    Shift=    0.000
 RMSDP=1.47D-04 MaxDP=4.01D-03 DE=-3.25D-02 OVMax= 1.52D-02

 Cycle   6  Pass 1  IDiag  1:
 RMSU=  1.07D-04    CP:  9.69D-01  3.73D-01  8.41D-01  5.95D-01  6.08D-01
 E= -664.086683163605     Delta-E=       -0.001195129964 Rises=F Damp=F
 DIIS: error= 9.02D-04 at cycle   6 NSaved=   6.
 NSaved= 6 IEnMin= 6 EnMin= -664.086683163605     IErMin= 6 ErrMin= 9.02D-04
 ErrMax= 9.02D-04  0.00D+00 EMaxC= 1.00D-01 BMatC= 2.43D-04 BMatP= 1.54D-03
 IDIUse=3 WtCom= 9.91D-01 WtEn= 9.02D-03
 Coeff-Com: -0.626D-02 0.103D-01 0.586D-01 0.106D+00 0.316D+00 0.516D+00
 Coeff-En:   0.000D+00 0.000D+00 0.000D+00 0.000D+00 0.152D+00 0.848D+00
 Coeff:     -0.620D-02 0.102D-01 0.581D-01 0.105D+00 0.314D+00 0.519D+00
 Gap=     0.124 Goal=   None    Shift=    0.000
 RMSDP=6.05D-05 MaxDP=1.83D-03 DE=-1.20D-03 OVMax= 5.50D-03

 Cycle   7  Pass 1  IDiag  1:
 RMSU=  2.76D-05    CP:  9.69D-01  3.75D-01  8.41D-01  5.99D-01  7.11D-01
                    CP:  5.63D-01
 E= -664.086887867969     Delta-E=       -0.000204704363 Rises=F Damp=F
 DIIS: error= 2.19D-04 at cycle   7 NSaved=   7.
 NSaved= 7 IEnMin= 7 EnMin= -664.086887867969     IErMin= 7 ErrMin= 2.19D-04
 ErrMax= 2.19D-04  0.00D+00 EMaxC= 1.00D-01 BMatC= 1.84D-05 BMatP= 2.43D-04
 IDIUse=3 WtCom= 9.98D-01 WtEn= 2.19D-03
 Coeff-Com: -0.294D-02 0.371D-02 0.178D-01 0.371D-01 0.150D+00 0.314D+00
 Coeff-Com:  0.481D+00
 Coeff-En:   0.000D+00 0.000D+00 0.000D+00 0.000D+00 0.000D+00 0.397D-02
 Coeff-En:   0.996D+00
 Coeff:     -0.293D-02 0.371D-02 0.177D-01 0.371D-01 0.150D+00 0.313D+00
 Coeff:      0.482D+00
 Gap=     0.123 Goal=   None    Shift=    0.000
 RMSDP=1.41D-05 MaxDP=3.75D-04 DE=-2.05D-04 OVMax= 1.09D-03

 Cycle   8  Pass 1  IDiag  1:
 RMSU=  1.05D-05    CP:  9.69D-01  3.75D-01  8.40D-01  6.01D-01  6.91D-01
                    CP:  5.95D-01  7.54D-01
 E= -664.086902936509     Delta-E=       -0.000015068540 Rises=F Damp=F
 DIIS: error= 5.52D-05 at cycle   8 NSaved=   8.
 NSaved= 8 IEnMin= 8 EnMin= -664.086902936509     IErMin= 8 ErrMin= 5.52D-05
 ErrMax= 5.52D-05  0.00D+00 EMaxC= 1.00D-01 BMatC= 1.44D-06 BMatP= 1.84D-05
 IDIUse=1 WtCom= 1.00D+00 WtEn= 0.00D+00
 Coeff-Com: -0.103D-02 0.122D-02 0.169D-02 0.540D-02 0.381D-01 0.999D-01
 Coeff-Com:  0.265D+00 0.589D+00
 Coeff:     -0.103D-02 0.122D-02 0.169D-02 0.540D-02 0.381D-01 0.999D-01
 Coeff:      0.265D+00 0.589D+00
 Gap=     0.123 Goal=   None    Shift=    0.000
 RMSDP=4.82D-06 MaxDP=1.55D-04 DE=-1.51D-05 OVMax= 3.79D-04

 Cycle   9  Pass 1  IDiag  1:
 RMSU=  3.19D-06    CP:  9.69D-01  3.75D-01  8.40D-01  6.00D-01  6.98D-01
                    CP:  6.09D-01  7.52D-01  7.61D-01
 E= -664.086904030850     Delta-E=       -0.000001094342 Rises=F Damp=F
 DIIS: error= 2.57D-05 at cycle   9 NSaved=   9.
 NSaved= 9 IEnMin= 9 EnMin= -664.086904030850     IErMin= 9 ErrMin= 2.57D-05
 ErrMax= 2.57D-05  0.00D+00 EMaxC= 1.00D-01 BMatC= 1.88D-07 BMatP= 1.44D-06
 IDIUse=1 WtCom= 1.00D+00 WtEn= 0.00D+00
 Coeff-Com: -0.455D-03 0.522D-03-0.608D-04 0.101D-02 0.140D-01 0.409D-01
 Coeff-Com:  0.132D+00 0.358D+00 0.454D+00
 Coeff:     -0.455D-03 0.522D-03-0.608D-04 0.101D-02 0.140D-01 0.409D-01
 Coeff:      0.132D+00 0.358D+00 0.454D+00
 Gap=     0.123 Goal=   None    Shift=    0.000
 RMSDP=1.64D-06 MaxDP=5.77D-05 DE=-1.09D-06 OVMax= 1.08D-04

 Cycle  10  Pass 1  IDiag  1:
 RMSU=  1.05D-06    CP:  9.69D-01  3.75D-01  8.40D-01  6.01D-01  6.99D-01
                    CP:  6.12D-01  7.60D-01  7.61D-01  6.79D-01
 E= -664.086904209301     Delta-E=       -0.000000178451 Rises=F Damp=F
 DIIS: error= 3.22D-06 at cycle  10 NSaved=  10.
 NSaved=10 IEnMin=10 EnMin= -664.086904209301     IErMin=10 ErrMin= 3.22D-06
 ErrMax= 3.22D-06  0.00D+00 EMaxC= 1.00D-01 BMatC= 5.55D-09 BMatP= 1.88D-07
 IDIUse=1 WtCom= 1.00D+00 WtEn= 0.00D+00
 Coeff-Com: -0.150D-03 0.184D-03-0.150D-03 0.308D-04 0.347D-02 0.107D-01
 Coeff-Com:  0.408D-01 0.115D+00 0.203D+00 0.628D+00
 Coeff:     -0.150D-03 0.184D-03-0.150D-03 0.308D-04 0.347D-02 0.107D-01
 Coeff:      0.408D-01 0.115D+00 0.203D+00 0.628D+00
 Gap=     0.123 Goal=   None    Shift=    0.000
 RMSDP=4.44D-07 MaxDP=1.37D-05 DE=-1.78D-07 OVMax= 4.62D-05

 Cycle  11  Pass 1  IDiag  1:
 RMSU=  2.95D-07    CP:  9.69D-01  3.75D-01  8.40D-01  6.00D-01  6.99D-01
                    CP:  6.11D-01  7.66D-01  7.72D-01  6.87D-01  8.53D-01
 E= -664.086904214682     Delta-E=       -0.000000005381 Rises=F Damp=F
 DIIS: error= 2.71D-06 at cycle  11 NSaved=  11.
 NSaved=11 IEnMin=11 EnMin= -664.086904214682     IErMin=11 ErrMin= 2.71D-06
 ErrMax= 2.71D-06  0.00D+00 EMaxC= 1.00D-01 BMatC= 2.47D-09 BMatP= 5.55D-09
 IDIUse=1 WtCom= 1.00D+00 WtEn= 0.00D+00
 Coeff-Com: -0.629D-04 0.814D-04-0.838D-04-0.508D-04 0.109D-02 0.347D-02
 Coeff-Com:  0.157D-01 0.451D-01 0.978D-01 0.445D+00 0.392D+00
 Coeff:     -0.629D-04 0.814D-04-0.838D-04-0.508D-04 0.109D-02 0.347D-02
 Coeff:      0.157D-01 0.451D-01 0.978D-01 0.445D+00 0.392D+00
 Gap=     0.123 Goal=   None    Shift=    0.000
 RMSDP=1.62D-07 MaxDP=5.59D-06 DE=-5.38D-09 OVMax= 2.35D-05

 Cycle  12  Pass 1  IDiag  1:
 RMSU=  1.07D-07    CP:  9.69D-01  3.75D-01  8.40D-01  6.00D-01  6.99D-01
                    CP:  6.11D-01  7.66D-01  7.71D-01  6.92D-01  8.68D-01
                    CP:  6.21D-01
 E= -664.086904217294     Delta-E=       -0.000000002612 Rises=F Damp=F
 DIIS: error= 4.64D-07 at cycle  12 NSaved=  12.
 NSaved=12 IEnMin=12 EnMin= -664.086904217294     IErMin=12 ErrMin= 4.64D-07
 ErrMax= 4.64D-07  0.00D+00 EMaxC= 1.00D-01 BMatC= 9.26D-11 BMatP= 2.47D-09
 IDIUse=1 WtCom= 1.00D+00 WtEn= 0.00D+00
 Coeff-Com: -0.119D-04 0.151D-04-0.220D-04-0.256D-04 0.610D-04 0.255D-03
 Coeff-Com:  0.227D-02 0.628D-02 0.199D-01 0.137D+00 0.203D+00 0.632D+00
 Coeff:     -0.119D-04 0.151D-04-0.220D-04-0.256D-04 0.610D-04 0.255D-03
 Coeff:      0.227D-02 0.628D-02 0.199D-01 0.137D+00 0.203D+00 0.632D+00
 Gap=     0.123 Goal=   None    Shift=    0.000
 RMSDP=5.57D-08 MaxDP=3.46D-06 DE=-2.61D-09 OVMax= 3.73D-06

 Cycle  13  Pass 1  IDiag  1:
 RMSU=  3.01D-08    CP:  9.69D-01  3.75D-01  8.40D-01  6.00D-01  6.99D-01
                    CP:  6.11D-01  7.66D-01  7.72D-01  7.00D-01  8.79D-01
                    CP:  6.32D-01  8.14D-01
 E= -664.086904217377     Delta-E=       -0.000000000083 Rises=F Damp=F
 DIIS: error= 1.11D-07 at cycle  13 NSaved=  13.
 NSaved=13 IEnMin=13 EnMin= -664.086904217377     IErMin=13 ErrMin= 1.11D-07
 ErrMax= 1.11D-07  0.00D+00 EMaxC= 1.00D-01 BMatC= 8.17D-12 BMatP= 9.26D-11
 IDIUse=1 WtCom= 1.00D+00 WtEn= 0.00D+00
 Coeff-Com: -0.297D-05 0.369D-05-0.607D-05-0.878D-05-0.367D-04-0.739D-04
 Coeff-Com:  0.225D-03 0.544D-03 0.438D-02 0.450D-01 0.854D-01 0.334D+00
 Coeff-Com:  0.530D+00
 Coeff:     -0.297D-05 0.369D-05-0.607D-05-0.878D-05-0.367D-04-0.739D-04
 Coeff:      0.225D-03 0.544D-03 0.438D-02 0.450D-01 0.854D-01 0.334D+00
 Coeff:      0.530D+00
 Gap=     0.123 Goal=   None    Shift=    0.000
 RMSDP=1.18D-08 MaxDP=2.95D-07 DE=-8.30D-11 OVMax= 8.46D-07

 Cycle  14  Pass 1  IDiag  1:
 RMSU=  7.27D-09    CP:  9.69D-01  3.75D-01  8.40D-01  6.00D-01  6.99D-01
                    CP:  6.11D-01  7.66D-01  7.72D-01  7.00D-01  8.84D-01
                    CP:  6.39D-01  8.19D-01  8.68D-01
 E= -664.086904217392     Delta-E=       -0.000000000015 Rises=F Damp=F
 DIIS: error= 5.04D-08 at cycle  14 NSaved=  14.
 NSaved=14 IEnMin=14 EnMin= -664.086904217392     IErMin=14 ErrMin= 5.04D-08
 ErrMax= 5.04D-08  0.00D+00 EMaxC= 1.00D-01 BMatC= 9.51D-13 BMatP= 8.17D-12
 IDIUse=1 WtCom= 1.00D+00 WtEn= 0.00D+00
 Coeff-Com: -0.222D-06 0.187D-06-0.740D-06-0.187D-05-0.316D-04-0.781D-04
 Coeff-Com: -0.179D-03-0.514D-03-0.162D-03 0.725D-02 0.219D-01 0.103D+00
 Coeff-Com:  0.295D+00 0.574D+00
 Coeff:     -0.222D-06 0.187D-06-0.740D-06-0.187D-05-0.316D-04-0.781D-04
 Coeff:     -0.179D-03-0.514D-03-0.162D-03 0.725D-02 0.219D-01 0.103D+00
 Coeff:      0.295D+00 0.574D+00
 Gap=     0.123 Goal=   None    Shift=    0.000
 RMSDP=4.16D-09 MaxDP=1.30D-07 DE=-1.46D-11 OVMax= 2.73D-07

 Error on total polarization charges =  0.01645
 SCF Done:  E(RB-P86) =  -664.086904217     A.U. after   14 cycles
            NFock= 14  Conv=0.42D-08     -V/T= 2.0019
 KE= 6.628043850224D+02 PE=-3.503792705798D+03 EE= 1.199226866134D+03
 Leave Link  502 at Mon Feb 22 21:09:14 2021, MaxMem=   104857600 cpu:            1063.1 elap:              33.9
 (Enter /sw/arch/RedHatEnterpriseServer7/EB_production/2019/software/Gaussian/g16.c01/l601.exe)
 Copying SCF densities to generalized density rwf, IOpCl= 0 IROHF=0.

 **********************************************************************

            Population analysis using the SCF Density.

 **********************************************************************

 Orbital symmetries:
       Occupied  (A) (A) (A) (A) (A) (A) (A) (A) (A) (A) (A) (A)
                 (A) (A) (A) (A) (A) (A) (A) (A) (A) (A) (A) (A)
                 (A) (A) (A) (A) (A) (A) (A) (A) (A) (A) (A) (A)
                 (A) (A) (A) (A) (A) (A) (A) (A) (A) (A) (A) (A)
                 (A) (A) (A) (A) (A) (A) (A)
       Virtual   (A) (A) (A) (A) (A) (A) (A) (A) (A) (A) (A) (A)
                 (A) (A) (A) (A) (A) (A) (A) (A) (A) (A) (A) (A)
                 (A) (A) (A) (A) (A) (A) (A) (A) (A) (A) (A) (A)
                 (A) (A) (A) (A) (A) (A) (A) (A) (A) (A) (A) (A)
                 (A) (A) (A) (A) (A) (A) (A) (A) (A) (A) (A) (A)
                 (A) (A) (A) (A) (A) (A) (A) (A) (A) (A) (A) (A)
                 (A) (A) (A) (A) (A) (A) (A) (A) (A) (A) (A) (A)
                 (A) (A) (A) (A) (A) (A) (A) (A) (A) (A) (A) (A)
                 (A) (A) (A) (A) (A) (A) (A) (A) (A) (A) (A) (A)
                 (A) (A) (A) (A) (A) (A) (A) (A) (A) (A) (A) (A)
                 (A) (A) (A) (A) (A) (A) (A) (A) (A) (A) (A) (A)
                 (A) (A) (A) (A) (A) (A) (A) (A) (A) (A) (A) (A)
                 (A) (A) (A) (A) (A) (A) (A) (A) (A) (A) (A) (A)
                 (A) (A) (A) (A) (A) (A) (A) (A) (A) (A) (A) (A)
                 (A) (A) (A) (A) (A) (A) (A) (A) (A) (A) (A) (A)
                 (A) (A) (A) (A) (A) (A) (A) (A) (A) (A) (A) (A)
                 (A) (A) (A) (A) (A) (A) (A) (A) (A) (A) (A) (A)
                 (A) (A) (A) (A) (A) (A) (A) (A) (A) (A) (A) (A)
                 (A) (A) (A) (A) (A) (A) (A) (A) (A) (A) (A) (A)
                 (A) (A) (A) (A) (A) (A) (A) (A) (A) (A) (A) (A)
                 (A) (A) (A) (A) (A) (A) (A) (A) (A) (A) (A) (A)
                 (A) (A) (A) (A) (A) (A) (A) (A) (A) (A) (A) (A)
                 (A) (A) (A) (A) (A) (A) (A) (A) (A) (A) (A) (A)
                 (A) (A) (A) (A) (A) (A) (A) (A) (A) (A) (A) (A)
                 (A) (A) (A) (A) (A) (A) (A) (A) (A) (A) (A) (A)
                 (A) (A) (A) (A) (A) (A) (A) (A) (A) (A) (A) (A)
                 (A) (A) (A) (A) (A) (A) (A) (A)
 The electronic state is 1-A.
 Alpha  occ. eigenvalues --  -14.00907 -14.00659 -13.99106 -13.94627 -13.93002
 Alpha  occ. eigenvalues --   -9.99635  -9.95997  -9.90906  -9.90895  -9.89649
 Alpha  occ. eigenvalues --   -9.89630  -9.89439  -9.89404  -9.89389  -9.88947
 Alpha  occ. eigenvalues --   -0.93575  -0.89153  -0.82437  -0.79491  -0.79052
 Alpha  occ. eigenvalues --   -0.77540  -0.70845  -0.68169  -0.65326  -0.61820
 Alpha  occ. eigenvalues --   -0.57268  -0.55915  -0.55425  -0.52580  -0.52033
 Alpha  occ. eigenvalues --   -0.49818  -0.48430  -0.47037  -0.44971  -0.44471
 Alpha  occ. eigenvalues --   -0.42814  -0.42314  -0.40631  -0.40046  -0.39073
 Alpha  occ. eigenvalues --   -0.38239  -0.36305  -0.35376  -0.33527  -0.32339
 Alpha  occ. eigenvalues --   -0.31909  -0.30074  -0.29693  -0.24083  -0.23351
 Alpha  occ. eigenvalues --   -0.22465  -0.21788  -0.21086  -0.18261  -0.17226
 Alpha virt. eigenvalues --   -0.04881  -0.04561  -0.00999   0.02263   0.03392
 Alpha virt. eigenvalues --    0.04716   0.05952   0.06270   0.06585   0.07369
 Alpha virt. eigenvalues --    0.07978   0.08653   0.09322   0.09469   0.09856
 Alpha virt. eigenvalues --    0.10725   0.11447   0.11758   0.12307   0.13645
 Alpha virt. eigenvalues --    0.13894   0.14350   0.15379   0.16531   0.16690
 Alpha virt. eigenvalues --    0.18482   0.18664   0.19242   0.20125   0.20467
 Alpha virt. eigenvalues --    0.21240   0.21965   0.22621   0.22982   0.23620
 Alpha virt. eigenvalues --    0.24813   0.25239   0.25800   0.26614   0.27122
 Alpha virt. eigenvalues --    0.27875   0.28810   0.29388   0.29582   0.30333
 Alpha virt. eigenvalues --    0.31002   0.31768   0.32192   0.32911   0.33143
 Alpha virt. eigenvalues --    0.33719   0.34214   0.35195   0.35578   0.37533
 Alpha virt. eigenvalues --    0.37730   0.38357   0.39024   0.39620   0.40327
 Alpha virt. eigenvalues --    0.40676   0.41099   0.41538   0.42431   0.43012
 Alpha virt. eigenvalues --    0.43214   0.43524   0.44713   0.45054   0.45575
 Alpha virt. eigenvalues --    0.45884   0.46559   0.47673   0.48064   0.48355
 Alpha virt. eigenvalues --    0.48901   0.49941   0.50602   0.50633   0.51487
 Alpha virt. eigenvalues --    0.51625   0.52625   0.53870   0.54343   0.55684
 Alpha virt. eigenvalues --    0.56869   0.57526   0.58989   0.59956   0.61155
 Alpha virt. eigenvalues --    0.62684   0.63440   0.64310   0.65265   0.66445
 Alpha virt. eigenvalues --    0.67157   0.67937   0.68137   0.69667   0.70912
 Alpha virt. eigenvalues --    0.71882   0.73005   0.74453   0.75158   0.77519
 Alpha virt. eigenvalues --    0.78585   0.78916   0.84607   0.85561   0.88290
 Alpha virt. eigenvalues --    1.11695   1.13024   1.15592   1.16688   1.17897
 Alpha virt. eigenvalues --    1.18388   1.19056   1.19860   1.20223   1.21659
 Alpha virt. eigenvalues --    1.22254   1.23561   1.24086   1.25077   1.25629
 Alpha virt. eigenvalues --    1.26115   1.27496   1.27971   1.29671   1.31441
 Alpha virt. eigenvalues --    1.32215   1.32820   1.34809   1.35028   1.36715
 Alpha virt. eigenvalues --    1.37633   1.37914   1.38873   1.39350   1.39522
 Alpha virt. eigenvalues --    1.41063   1.41909   1.42078   1.43583   1.44414
 Alpha virt. eigenvalues --    1.44756   1.45797   1.46635   1.46887   1.48257
 Alpha virt. eigenvalues --    1.48511   1.49729   1.50159   1.51036   1.52565
 Alpha virt. eigenvalues --    1.53081   1.55334   1.56246   1.57156   1.57759
 Alpha virt. eigenvalues --    1.59470   1.60171   1.60619   1.62173   1.63506
 Alpha virt. eigenvalues --    1.65084   1.66589   1.68761   1.69789   1.70454
 Alpha virt. eigenvalues --    1.70966   1.71911   1.72386   1.73696   1.74180
 Alpha virt. eigenvalues --    1.74812   1.75882   1.77595   1.79009   1.80300
 Alpha virt. eigenvalues --    1.81180   1.82105   1.83792   1.84532   1.85226
 Alpha virt. eigenvalues --    1.85652   1.87064   1.87388   1.88490   1.89765
 Alpha virt. eigenvalues --    1.91053   1.91372   1.92992   1.94397   1.95767
 Alpha virt. eigenvalues --    1.96113   1.97198   1.97547   2.00348   2.02490
 Alpha virt. eigenvalues --    2.05914   2.07235   2.10450   2.10810   2.12171
 Alpha virt. eigenvalues --    2.13783   2.14425   2.15625   2.15825   2.17994
 Alpha virt. eigenvalues --    2.18645   2.19014   2.20158   2.21216   2.21647
 Alpha virt. eigenvalues --    2.22753   2.23137   2.24903   2.25146   2.25754
 Alpha virt. eigenvalues --    2.26845   2.28689   2.30365   2.31015   2.31463
 Alpha virt. eigenvalues --    2.33151   2.34982   2.37039   2.38373   2.39147
 Alpha virt. eigenvalues --    2.41849   2.42991   2.43411   2.44568   2.45265
 Alpha virt. eigenvalues --    2.47127   2.48244   2.48796   2.49147   2.49948
 Alpha virt. eigenvalues --    2.51300   2.51670   2.52487   2.53045   2.53912
 Alpha virt. eigenvalues --    2.54268   2.55513   2.56653   2.59043   2.60641
 Alpha virt. eigenvalues --    2.61108   2.63304   2.64978   2.65611   2.66642
 Alpha virt. eigenvalues --    2.67146   2.68366   2.69565   2.71774   2.72479
 Alpha virt. eigenvalues --    2.72739   2.74539   2.77863   2.79132   2.81865
 Alpha virt. eigenvalues --    2.82706   2.83795   2.86660   2.88530   2.89992
 Alpha virt. eigenvalues --    2.92590   2.94868   3.00584   3.01066   3.03866
 Alpha virt. eigenvalues --    3.04571   3.05723   3.07096   3.07525   3.11166
 Alpha virt. eigenvalues --    3.13813   3.14338   3.18083   3.20797   3.28770
 Alpha virt. eigenvalues --    3.30607   3.31827   3.34479   3.35350   3.37544
 Alpha virt. eigenvalues --    3.39616   3.43077   3.44665   3.47212   3.58523
 Alpha virt. eigenvalues --    3.59672   3.61850   3.62605   3.69836   3.77431
 Alpha virt. eigenvalues --    3.78680   3.88178   3.98122   4.00974   4.08561
 Alpha virt. eigenvalues --   21.18040  21.64819  21.70486  21.81308  21.87643
 Alpha virt. eigenvalues --   21.90067  21.92200  21.94134  22.03256  22.06781
 Alpha virt. eigenvalues --   31.42603  31.47848  31.53268  31.64678  31.68644
          Condensed to atoms (all electrons):
               1          2          3          4          5          6
     1  N    6.496553   0.397853  -0.121630  -0.133307   0.008122  -0.001470
     2  C    0.397853   4.490578   0.409725   0.673868  -0.091662   0.005850
     3  N   -0.121630   0.409725   6.480566  -0.119403  -0.008793  -0.000244
     4  N   -0.133307   0.673868  -0.119403   6.714597   0.455997  -0.160939
     5  C    0.008122  -0.091662  -0.008793   0.455997   4.592415   0.370148
     6  N   -0.001470   0.005850  -0.000244  -0.160939   0.370148   6.614736
     7  N    0.003311  -0.013970  -0.002704  -0.174814   0.736414  -0.167668
     8  C    0.000527   0.004005   0.000112   0.019832  -0.067823   0.001469
     9  C    0.001670  -0.001181  -0.000002   0.001507  -0.018082  -0.002602
    10  C   -0.001132  -0.000056   0.000017   0.001194   0.000316  -0.000323
    11  C   -0.006916   0.003184   0.000053  -0.001032   0.004099   0.000487
    12  C    0.002038   0.000321   0.000002  -0.000074   0.000175  -0.000016
    13  C   -0.000731   0.000058  -0.000001   0.000016  -0.000078  -0.000003
    14  C    0.000337  -0.000002   0.000001  -0.000018   0.000392  -0.000006
    15  C   -0.000106  -0.000038  -0.000001  -0.000152  -0.000260  -0.000190
    16  H    0.384496  -0.030703   0.001353  -0.024776   0.003101   0.000032
    17  H    0.350508  -0.018320   0.000434   0.009278   0.001885   0.000108
    18  H    0.009381  -0.013371   0.358543   0.010643   0.004059  -0.000260
    19  H    0.009930  -0.031141   0.363651   0.004417   0.000193   0.000008
    20  H    0.000294   0.002539  -0.000389   0.018433  -0.009111   0.326878
    21  H    0.000080  -0.000533  -0.000050   0.000748  -0.037282   0.390592
    22  H    0.000031  -0.000327  -0.000009  -0.001853  -0.009436   0.007711
    23  H   -0.000336   0.000327  -0.000024  -0.002344  -0.021727   0.017064
    24  H   -0.000042   0.000026  -0.000000  -0.000053   0.001414   0.000129
    25  H   -0.000107  -0.000056  -0.000003  -0.000790   0.002497   0.000287
    26  H    0.002435   0.000297  -0.000071  -0.000464   0.001811   0.000090
    27  H    0.000479   0.000027   0.000003   0.000013  -0.000047  -0.000001
    28  H   -0.000024   0.000000  -0.000000   0.000001  -0.000005  -0.000000
    29  H    0.000001   0.000000   0.000000  -0.000000   0.000002   0.000000
    30  H   -0.000008   0.000000  -0.000000  -0.000010   0.000014   0.000044
               7          8          9         10         11         12
     1  N    0.003311   0.000527   0.001670  -0.001132  -0.006916   0.002038
     2  C   -0.013970   0.004005  -0.001181  -0.000056   0.003184   0.000321
     3  N   -0.002704   0.000112  -0.000002   0.000017   0.000053   0.000002
     4  N   -0.174814   0.019832   0.001507   0.001194  -0.001032  -0.000074
     5  C    0.736414  -0.067823  -0.018082   0.000316   0.004099   0.000175
     6  N   -0.167668   0.001469  -0.002602  -0.000323   0.000487  -0.000016
     7  N    6.922300   0.246930  -0.170116  -0.003917   0.038353  -0.001414
     8  C    0.246930   5.311169   0.192987  -0.100259  -0.010916  -0.000356
     9  C   -0.170116   0.192987   5.616155   0.158787  -0.136433   0.013783
    10  C   -0.003917  -0.100259   0.158787   5.568153   0.195675   0.072167
    11  C    0.038353  -0.010916  -0.136433   0.195675   5.510234   0.263746
    12  C   -0.001414  -0.000356   0.013783   0.072167   0.263746   5.206757
    13  C   -0.000184  -0.001260   0.005421  -0.120262   0.040253   0.347838
    14  C    0.000539   0.004499   0.005605   0.047745  -0.156119   0.043802
    15  C    0.000562   0.001642  -0.050270   0.313149   0.057661  -0.143879
    16  H    0.022079  -0.004734   0.001721   0.001280  -0.000816  -0.004197
    17  H    0.001306  -0.000075  -0.000182   0.000029  -0.000270   0.000369
    18  H    0.000254  -0.000026  -0.000000  -0.000001   0.000006   0.000001
    19  H    0.000177  -0.000008  -0.000001  -0.000002  -0.000006   0.000001
    20  H    0.016456   0.000146   0.000356  -0.000046  -0.000021   0.000002
    21  H   -0.014049  -0.000587  -0.000932   0.000139   0.000089  -0.000008
    22  H   -0.054362   0.403700  -0.076101   0.027165   0.000824   0.000069
    23  H   -0.080961   0.393044  -0.035755  -0.027661   0.003878  -0.000616
    24  H    0.013606  -0.036968   0.334639  -0.022622   0.022573  -0.002192
    25  H    0.011275  -0.029760   0.410108  -0.076192  -0.001326   0.001000
    26  H    0.009389   0.000037  -0.011386  -0.081970   0.452912  -0.065616
    27  H   -0.000178   0.000019  -0.000537   0.018633  -0.060112   0.440777
    28  H   -0.000013  -0.000013   0.000064  -0.003613   0.016671  -0.062722
    29  H   -0.000009   0.000090  -0.000685   0.015427  -0.002405   0.014000
    30  H    0.000004  -0.003072  -0.006017  -0.064381   0.019143  -0.004750
              13         14         15         16         17         18
     1  N   -0.000731   0.000337  -0.000106   0.384496   0.350508   0.009381
     2  C    0.000058  -0.000002  -0.000038  -0.030703  -0.018320  -0.013371
     3  N   -0.000001   0.000001  -0.000001   0.001353   0.000434   0.358543
     4  N    0.000016  -0.000018  -0.000152  -0.024776   0.009278   0.010643
     5  C   -0.000078   0.000392  -0.000260   0.003101   0.001885   0.004059
     6  N   -0.000003  -0.000006  -0.000190   0.000032   0.000108  -0.000260
     7  N   -0.000184   0.000539   0.000562   0.022079   0.001306   0.000254
     8  C   -0.001260   0.004499   0.001642  -0.004734  -0.000075  -0.000026
     9  C    0.005421   0.005605  -0.050270   0.001721  -0.000182  -0.000000
    10  C   -0.120262   0.047745   0.313149   0.001280   0.000029  -0.000001
    11  C    0.040253  -0.156119   0.057661  -0.000816  -0.000270   0.000006
    12  C    0.347838   0.043802  -0.143879  -0.004197   0.000369   0.000001
    13  C    5.167266   0.361214   0.018630  -0.000061  -0.000075   0.000000
    14  C    0.361214   5.150402   0.343419  -0.000821   0.000024  -0.000000
    15  C    0.018630   0.343419   5.240038   0.000157  -0.000027   0.000000
    16  H   -0.000061  -0.000821   0.000157   0.378356  -0.020437  -0.000290
    17  H   -0.000075   0.000024  -0.000027  -0.020437   0.420942  -0.000132
    18  H    0.000000  -0.000000   0.000000  -0.000290  -0.000132   0.384813
    19  H   -0.000000   0.000000   0.000000   0.001839  -0.001320  -0.016537
    20  H    0.000000  -0.000001   0.000010   0.000001  -0.000028   0.000162
    21  H    0.000001  -0.000005  -0.000041   0.000202  -0.000002   0.000024
    22  H   -0.000036   0.000072   0.000839   0.000315   0.000008   0.000005
    23  H    0.000207  -0.001364   0.001437   0.000539   0.000001  -0.000001
    24  H    0.000458  -0.001030  -0.016121   0.000031   0.000005   0.000000
    25  H    0.000167  -0.001102   0.009720   0.000245   0.000018  -0.000000
    26  H    0.015938  -0.004533   0.015902  -0.000424   0.000460   0.000000
    27  H   -0.062214   0.014136  -0.002532  -0.000435   0.000065  -0.000000
    28  H    0.442720  -0.061808   0.016566   0.000031  -0.000004  -0.000000
    29  H   -0.060809   0.439382  -0.058550  -0.000005   0.000000  -0.000000
    30  H    0.014412  -0.059345   0.440608   0.000025   0.000000   0.000000
              19         20         21         22         23         24
     1  N    0.009930   0.000294   0.000080   0.000031  -0.000336  -0.000042
     2  C   -0.031141   0.002539  -0.000533  -0.000327   0.000327   0.000026
     3  N    0.363651  -0.000389  -0.000050  -0.000009  -0.000024  -0.000000
     4  N    0.004417   0.018433   0.000748  -0.001853  -0.002344  -0.000053
     5  C    0.000193  -0.009111  -0.037282  -0.009436  -0.021727   0.001414
     6  N    0.000008   0.326878   0.390592   0.007711   0.017064   0.000129
     7  N    0.000177   0.016456  -0.014049  -0.054362  -0.080961   0.013606
     8  C   -0.000008   0.000146  -0.000587   0.403700   0.393044  -0.036968
     9  C   -0.000001   0.000356  -0.000932  -0.076101  -0.035755   0.334639
    10  C   -0.000002  -0.000046   0.000139   0.027165  -0.027661  -0.022622
    11  C   -0.000006  -0.000021   0.000089   0.000824   0.003878   0.022573
    12  C    0.000001   0.000002  -0.000008   0.000069  -0.000616  -0.002192
    13  C   -0.000000   0.000000   0.000001  -0.000036   0.000207   0.000458
    14  C    0.000000  -0.000001  -0.000005   0.000072  -0.001364  -0.001030
    15  C    0.000000   0.000010  -0.000041   0.000839   0.001437  -0.016121
    16  H    0.001839   0.000001   0.000202   0.000315   0.000539   0.000031
    17  H   -0.001320  -0.000028  -0.000002   0.000008   0.000001   0.000005
    18  H   -0.016537   0.000162   0.000024   0.000005  -0.000001   0.000000
    19  H    0.411413   0.000021   0.000001   0.000001  -0.000000   0.000000
    20  H    0.000021   0.427344  -0.024524  -0.000201  -0.000803  -0.000018
    21  H    0.000001  -0.024524   0.414877   0.002341   0.005869   0.000174
    22  H    0.000001  -0.000201   0.002341   0.627247  -0.058997   0.005311
    23  H   -0.000000  -0.000803   0.005869  -0.058997   0.664356   0.005630
    24  H    0.000000  -0.000018   0.000174   0.005311   0.005630   0.571982
    25  H   -0.000000  -0.000014   0.000111  -0.008416   0.012357  -0.022433
    26  H   -0.000005  -0.000004   0.000014  -0.000063   0.000726   0.001099
    27  H   -0.000000   0.000000  -0.000000  -0.000001  -0.000012  -0.000005
    28  H   -0.000000   0.000000  -0.000000  -0.000000   0.000002  -0.000001
    29  H   -0.000000  -0.000000  -0.000000  -0.000001   0.000003  -0.000047
    30  H    0.000000  -0.000002   0.000022  -0.000058   0.004399   0.002857
              25         26         27         28         29         30
     1  N   -0.000107   0.002435   0.000479  -0.000024   0.000001  -0.000008
     2  C   -0.000056   0.000297   0.000027   0.000000   0.000000   0.000000
     3  N   -0.000003  -0.000071   0.000003  -0.000000   0.000000  -0.000000
     4  N   -0.000790  -0.000464   0.000013   0.000001  -0.000000  -0.000010
     5  C    0.002497   0.001811  -0.000047  -0.000005   0.000002   0.000014
     6  N    0.000287   0.000090  -0.000001  -0.000000   0.000000   0.000044
     7  N    0.011275   0.009389  -0.000178  -0.000013  -0.000009   0.000004
     8  C   -0.029760   0.000037   0.000019  -0.000013   0.000090  -0.003072
     9  C    0.410108  -0.011386  -0.000537   0.000064  -0.000685  -0.006017
    10  C   -0.076192  -0.081970   0.018633  -0.003613   0.015427  -0.064381
    11  C   -0.001326   0.452912  -0.060112   0.016671  -0.002405   0.019143
    12  C    0.001000  -0.065616   0.440777  -0.062722   0.014000  -0.004750
    13  C    0.000167   0.015938  -0.062214   0.442720  -0.060809   0.014412
    14  C   -0.001102  -0.004533   0.014136  -0.061808   0.439382  -0.059345
    15  C    0.009720   0.015902  -0.002532   0.016566  -0.058550   0.440608
    16  H    0.000245  -0.000424  -0.000435   0.000031  -0.000005   0.000025
    17  H    0.000018   0.000460   0.000065  -0.000004   0.000000   0.000000
    18  H   -0.000000   0.000000  -0.000000  -0.000000  -0.000000   0.000000
    19  H   -0.000000  -0.000005  -0.000000  -0.000000  -0.000000   0.000000
    20  H   -0.000014  -0.000004   0.000000   0.000000  -0.000000  -0.000002
    21  H    0.000111   0.000014  -0.000000  -0.000000  -0.000000   0.000022
    22  H   -0.008416  -0.000063  -0.000001  -0.000000  -0.000001  -0.000058
    23  H    0.012357   0.000726  -0.000012   0.000002   0.000003   0.004399
    24  H   -0.022433   0.001099  -0.000005  -0.000001  -0.000047   0.002857
    25  H    0.554055   0.005743  -0.000072   0.000001   0.000015   0.000622
    26  H    0.005743   0.510974  -0.006410  -0.000131   0.000005   0.000089
    27  H   -0.000072  -0.006410   0.521653  -0.006223  -0.000191  -0.000007
    28  H    0.000001  -0.000131  -0.006223   0.519433  -0.006078  -0.000167
    29  H    0.000015   0.000005  -0.000191  -0.006078   0.522074  -0.005660
    30  H    0.000622   0.000089  -0.000007  -0.000167  -0.005660   0.515914
 Mulliken charges:
               1
     1  N   -0.402238
     2  C    0.212703
     3  N   -0.361137
     4  N   -0.290517
     5  C    0.081253
     6  N   -0.401910
     7  N   -0.338594
     8  C   -0.324351
     9  C   -0.232520
    10  C    0.082561
    11  C   -0.253469
    12  C   -0.121007
    13  C   -0.168884
    14  C   -0.125415
    15  C   -0.188176
    16  H    0.291896
    17  H    0.255431
    18  H    0.262728
    19  H    0.257365
    20  H    0.242517
    21  H    0.262732
    22  H    0.134224
    23  H    0.120762
    24  H    0.141597
    25  H    0.132050
    26  H    0.153154
    27  H    0.143172
    28  H    0.145314
    29  H    0.143440
    30  H    0.145321
 Sum of Mulliken charges =  -0.00000
 Mulliken charges with hydrogens summed into heavy atoms:
               1
     1  N    0.145089
     2  C    0.212703
     3  N    0.158956
     4  N   -0.290517
     5  C    0.081253
     6  N    0.103339
     7  N   -0.338594
     8  C   -0.069365
     9  C    0.041128
    10  C    0.082561
    11  C   -0.100315
    12  C    0.022165
    13  C   -0.023571
    14  C    0.018025
    15  C   -0.042855
 Electronic spatial extent (au):  <R**2>=           3682.7940
 Charge=             -0.0000 electrons
 Dipole moment (field-independent basis, Debye):
    X=              2.2822    Y=             -3.1926    Z=             -1.0734  Tot=              4.0686
 Quadrupole moment (field-independent basis, Debye-Ang):
   XX=            -80.9583   YY=            -65.0716   ZZ=            -90.4242
   XY=            -10.5296   XZ=              0.6899   YZ=             -6.1592
 Traceless Quadrupole moment (field-independent basis, Debye-Ang):
   XX=             -2.1402   YY=             13.7464   ZZ=            -11.6061
   XY=            -10.5296   XZ=              0.6899   YZ=             -6.1592
 Octapole moment (field-independent basis, Debye-Ang**2):
  XXX=            103.2490  YYY=            -36.5580  ZZZ=             -4.5216  XYY=             49.0137
  XXY=            -38.3131  XXZ=            -33.6604  XZZ=              4.3437  YZZ=              4.1046
  YYZ=             -4.4405  XYZ=            -14.7307
 Hexadecapole moment (field-independent basis, Debye-Ang**3):
 XXXX=          -2982.5196 YYYY=          -1087.6959 ZZZZ=           -416.8994 XXXY=           -194.1165
 XXXZ=             34.1277 YYYX=            -86.3434 YYYZ=            -62.3722 ZZZX=              0.2198
 ZZZY=            -16.0847 XXYY=           -577.0314 XXZZ=           -590.2204 YYZZ=           -276.4787
 XXYZ=            -24.5240 YYXZ=             -7.5336 ZZXY=             15.3718
 N-N= 9.776745504236D+02 E-N=-3.503792705702D+03  KE= 6.628043850224D+02
 No NMR shielding tensors so no spin-rotation constants.
 Leave Link  601 at Mon Feb 22 21:09:15 2021, MaxMem=   104857600 cpu:               6.8 elap:               0.3
 (Enter /sw/arch/RedHatEnterpriseServer7/EB_production/2019/software/Gaussian/g16.c01/l701.exe)
 ... and contract with generalized density number  0.
 Compute integral first derivatives.
 R6Disp: Adding Grimme-D3 dispersion energy 1st derivatives to the gradient.
 PrsmSu:  requested number of processors reduced to:  27 ShMem   1 Linda.
 D1PCM: PCM CHGder 1st derivatives, ID1Alg=3 FixD1E=F DoIter=F DoCFld=F I1PDM=0.
 GePol: Maximum number of non-zero 1st derivatives   =     199
 CoulSu:  requested number of processors reduced to:  28 ShMem   1 Linda.
 CoulSu:  requested number of processors reduced to:  29 ShMem   1 Linda.
 Leave Link  701 at Mon Feb 22 21:09:16 2021, MaxMem=   104857600 cpu:              38.1 elap:               1.3
 (Enter /sw/arch/RedHatEnterpriseServer7/EB_production/2019/software/Gaussian/g16.c01/l702.exe)
 L702 exits ... SP integral derivatives will be done elsewhere.
 Leave Link  702 at Mon Feb 22 21:09:16 2021, MaxMem=   104857600 cpu:               0.6 elap:               0.0
 (Enter /sw/arch/RedHatEnterpriseServer7/EB_production/2019/software/Gaussian/g16.c01/l703.exe)
 Integral derivatives from FoFJK, PRISM(SPDF).
 Compute integral first derivatives, UseDBF=F ICtDFT=           0.
 Calling FoFJK, ICntrl=      2527 FMM=F ISym2X=0 I1Cent= 0 IOpClX= 0 NMat=1 NMatS=1 NMatT=0.
 FoFJK:  IHMeth= 1 ICntrl=    2527 DoSepK=F KAlg= 0 I1Cent=           0 FoldK=F
 IRaf=         0 NMat=       1 IRICut=       1 DoRegI=T DoRafI=F ISym2E= 0 IDoP0=0 IntGTp=1.
 FoFCou: FMM=F IPFlag=           0 FMFlag=      100000 FMFlg1=         800
         NFxFlg=           0 DoJE=F BraDBF=F KetDBF=F FulRan=T
         wScrn=  0.000000 ICntrl=      2527 IOpCl=  0 I1Cent=           0 NGrid=           0
         NMat0=    1 NMatS0=      1 NMatT0=    0 NMatD0=    1 NMtDS0=    0 NMtDT0=    0
 Symmetry not used in FoFCou.
 Leave Link  703 at Mon Feb 22 21:09:21 2021, MaxMem=   104857600 cpu:             161.5 elap:               5.1
 (Enter /sw/arch/RedHatEnterpriseServer7/EB_production/2019/software/Gaussian/g16.c01/l716.exe)
 Dipole        = 8.97880435D-01-1.25607525D+00-4.22300090D-01
 ***** Axes restored to original set *****
 -------------------------------------------------------------------
 Center     Atomic                   Forces (Hartrees/Bohr)
 Number     Number              X              Y              Z
 -------------------------------------------------------------------
      1        7           0.006078819   -0.008997657   -0.002176547
      2        6          -0.024089686    0.028523481    0.002184219
      3        7           0.009617660   -0.015406657    0.000424808
      4        7           0.075096538   -0.000199462    0.021123708
      5        6          -0.060326424   -0.007023589   -0.010414061
      6        7           0.008937161    0.019688318    0.001666536
      7        7          -0.008445688   -0.055862513   -0.005044832
      8        6          -0.002667280    0.005600703    0.002284685
      9        6           0.000200367    0.007672948    0.002631482
     10        6          -0.000879624   -0.009787363   -0.012654259
     11        6          -0.010356291    0.033412861   -0.051511223
     12        6          -0.021239910    0.056557397    0.003575330
     13        6          -0.007395514    0.023694634    0.050968333
     14        6           0.012372619   -0.030593066    0.050846103
     15        6           0.021687558   -0.057778602   -0.004082767
     16        1          -0.042527420    0.022147501   -0.009147258
     17        1           0.005305728   -0.040870947   -0.011536151
     18        1           0.028257568    0.022501159    0.020300338
     19        1           0.013165808   -0.040175586   -0.008429598
[...]
 Alpha virt. eigenvalues --    1.26687   1.27074   1.28380   1.29142   1.29822
 Alpha virt. eigenvalues --    1.31760   1.32415   1.34080   1.34625   1.35913
 Alpha virt. eigenvalues --    1.36969   1.37663   1.38137   1.38366   1.38926
 Alpha virt. eigenvalues --    1.39553   1.41329   1.41577   1.42461   1.42995
 Alpha virt. eigenvalues --    1.44414   1.44713   1.45600   1.46410   1.47339
 Alpha virt. eigenvalues --    1.47830   1.48680   1.50135   1.50379   1.50969
 Alpha virt. eigenvalues --    1.52298   1.53051   1.56003   1.56491   1.57070
 Alpha virt. eigenvalues --    1.57545   1.59618   1.59804   1.60794   1.62603
 Alpha virt. eigenvalues --    1.63235   1.63436   1.65428   1.65661   1.67280
 Alpha virt. eigenvalues --    1.69323   1.69971   1.70388   1.71207   1.72579
 Alpha virt. eigenvalues --    1.72981   1.74621   1.76091   1.76956   1.78325
 Alpha virt. eigenvalues --    1.80011   1.80324   1.81224   1.83340   1.83478
 Alpha virt. eigenvalues --    1.83594   1.85253   1.85825   1.87633   1.88250
 Alpha virt. eigenvalues --    1.89078   1.90016   1.90885   1.91712   1.93229
 Alpha virt. eigenvalues --    1.93846   1.94439   1.95983   1.96456   1.98142
 Alpha virt. eigenvalues --    2.02184   2.05239   2.05596   2.07496   2.09042
 Alpha virt. eigenvalues --    2.10402   2.10997   2.11741   2.13042   2.14090
 Alpha virt. eigenvalues --    2.14991   2.16828   2.18385   2.18739   2.19983
 Alpha virt. eigenvalues --    2.20742   2.22300   2.22779   2.23784   2.24575
 Alpha virt. eigenvalues --    2.25405   2.26087   2.26352   2.27403   2.27501
 Alpha virt. eigenvalues --    2.28672   2.29802   2.31003   2.31626   2.32367
 Alpha virt. eigenvalues --    2.33867   2.35542   2.37563   2.39456   2.40152
 Alpha virt. eigenvalues --    2.41604   2.41835   2.42572   2.43942   2.45207
 Alpha virt. eigenvalues --    2.46125   2.47730   2.48309   2.49330   2.51451
 Alpha virt. eigenvalues --    2.51991   2.54564   2.54780   2.55344   2.56847
 Alpha virt. eigenvalues --    2.57758   2.58333   2.59222   2.60780   2.61377
 Alpha virt. eigenvalues --    2.62943   2.64877   2.67120   2.67189   2.67886
 Alpha virt. eigenvalues --    2.69302   2.70450   2.72246   2.74466   2.76015
 Alpha virt. eigenvalues --    2.77494   2.79403   2.80353   2.81887   2.83054
 Alpha virt. eigenvalues --    2.85078   2.88072   2.91403   2.94065   2.96564
 Alpha virt. eigenvalues --    3.00485   3.03829   3.05443   3.05682   3.09021
 Alpha virt. eigenvalues --    3.09435   3.10583   3.15589   3.18544   3.21156
 Alpha virt. eigenvalues --    3.23942   3.25385   3.30101   3.30174   3.32419
 Alpha virt. eigenvalues --    3.34281   3.35644   3.36682   3.44428   3.47954
 Alpha virt. eigenvalues --    3.52658   3.56228   3.57173   3.64835   3.68411
 Alpha virt. eigenvalues --    3.76352   3.80827   3.83370   3.83973   3.89195
 Alpha virt. eigenvalues --   21.09195  21.59609  21.61009  21.71876  21.73420
 Alpha virt. eigenvalues --   21.82708  21.84436  21.87573  21.90920  22.00371
 Alpha virt. eigenvalues --   31.38791  31.43407  31.50094  31.56396  31.64267
          Condensed to atoms (all electrons):
               1          2          3          4          5          6
     1  N    6.572101   0.413624  -0.111429  -0.088307  -0.020003  -0.002474
     2  C    0.413624   4.662572   0.392690   0.618949  -0.097235   0.004336
     3  N   -0.111429   0.392690   6.500385  -0.108914  -0.001033  -0.000062
     4  N   -0.088307   0.618949  -0.108914   6.653063   0.472493  -0.130728
     5  C   -0.020003  -0.097235  -0.001033   0.472493   4.743227   0.354649
     6  N   -0.002474   0.004336  -0.000062  -0.130728   0.354649   6.558301
     7  N   -0.056574  -0.018555  -0.002209  -0.124400   0.604964  -0.117137
     8  C    0.003638   0.004745   0.000158   0.011129  -0.048269   0.001147
     9  C    0.002267  -0.000923  -0.000018  -0.000383   0.003595  -0.000636
    10  C    0.001620   0.000401  -0.000018   0.000236  -0.000518  -0.000062
    11  C   -0.007308   0.001538   0.000060   0.000213   0.002630   0.000052
    12  C    0.005052   0.000399  -0.000022   0.000029   0.000141  -0.000004
    13  C   -0.000987  -0.000033   0.000003  -0.000027   0.000091  -0.000000
    14  C    0.000584   0.000061  -0.000000   0.000026   0.000008  -0.000002
    15  C   -0.000956  -0.000210  -0.000000  -0.000258  -0.000063  -0.000088
    16  H    0.342242  -0.037815   0.000735  -0.025723  -0.025487   0.000947
    17  H    0.340747  -0.018552  -0.001736   0.006298   0.003640   0.000124
    18  H    0.007632  -0.020102   0.350624   0.008942   0.002567  -0.000135
    19  H    0.004987  -0.027047   0.357683   0.002800  -0.000648   0.000013
    20  H    0.000375   0.001919  -0.000237   0.014211  -0.022570   0.340559
    21  H    0.000061  -0.001284  -0.000009   0.002937  -0.030874   0.366616
    22  H   -0.000169  -0.000235  -0.000002  -0.000657  -0.012986   0.005146
    23  H   -0.000603  -0.000016  -0.000018  -0.000761  -0.027195   0.012230
    24  H   -0.000081   0.000026   0.000000   0.000018   0.000287   0.000072
    25  H   -0.000347  -0.000157  -0.000002  -0.000260  -0.000472   0.000127
    26  H   -0.000699   0.000151  -0.000005  -0.000048   0.000147   0.000014
    27  H    0.000238   0.000010   0.000000   0.000002  -0.000008  -0.000000
    28  H   -0.000015  -0.000001   0.000000   0.000000  -0.000001  -0.000000
    29  H    0.000001   0.000000   0.000000   0.000000  -0.000001   0.000000
    30  H   -0.000024  -0.000000   0.000000  -0.000004  -0.000048   0.000027
               7          8          9         10         11         12
     1  N   -0.056574   0.003638   0.002267   0.001620  -0.007308   0.005052
     2  C   -0.018555   0.004745  -0.000923   0.000401   0.001538   0.000399
     3  N   -0.002209   0.000158  -0.000018  -0.000018   0.000060  -0.000022
     4  N   -0.124400   0.011129  -0.000383   0.000236   0.000213   0.000029
     5  C    0.604964  -0.048269   0.003595  -0.000518   0.002630   0.000141
     6  N   -0.117137   0.001147  -0.000636  -0.000062   0.000052  -0.000004
     7  N    6.984122   0.217599  -0.128882  -0.016170   0.032910  -0.004690
     8  C    0.217599   5.290017   0.247196  -0.106457  -0.013262  -0.000315
     9  C   -0.128882   0.247196   5.390044   0.185462  -0.109510   0.023784
    10  C   -0.016170  -0.106457   0.185462   5.638416   0.179980   0.087385
    11  C    0.032910  -0.013262  -0.109510   0.179980   5.477100   0.242307
    12  C   -0.004690  -0.000315   0.023784   0.087385   0.242307   5.243594
    13  C    0.001779  -0.001104  -0.002412  -0.145844   0.063281   0.312744
    14  C   -0.002686   0.004396   0.018915   0.078058  -0.181311   0.054932
    15  C    0.013082  -0.000843  -0.080331   0.243459   0.092878  -0.159052
    16  H    0.072964  -0.007264   0.001141   0.004774  -0.004377  -0.002260
    17  H    0.003190  -0.000210  -0.000126  -0.000517   0.000574   0.000105
    18  H    0.000224  -0.000013   0.000001  -0.000001   0.000002  -0.000001
    19  H    0.000217  -0.000002  -0.000003  -0.000001   0.000002  -0.000002
    20  H    0.009379  -0.001190   0.000006  -0.000019   0.000004   0.000000
    21  H   -0.005426   0.002625   0.000815   0.000091  -0.000020  -0.000001
    22  H   -0.038775   0.397232  -0.057093   0.021610   0.000914  -0.000056
    23  H   -0.057154   0.410213  -0.018389  -0.024418  -0.001731   0.000214
    24  H    0.010276  -0.044759   0.382208  -0.031020   0.014106  -0.002114
    25  H    0.003301  -0.032977   0.435783  -0.079336  -0.003348   0.001771
    26  H    0.004211  -0.001128  -0.007539  -0.074375   0.437130  -0.055971
    27  H   -0.000109   0.000020  -0.000546   0.019210  -0.061589   0.436181
    28  H   -0.000000  -0.000008  -0.000032  -0.004822   0.018105  -0.062981
    29  H   -0.000035   0.000079  -0.000444   0.016465  -0.003088   0.014768
    30  H    0.000147  -0.002605  -0.005754  -0.068243   0.017639  -0.004490
              13         14         15         16         17         18
     1  N   -0.000987   0.000584  -0.000956   0.342242   0.340747   0.007632
     2  C   -0.000033   0.000061  -0.000210  -0.037815  -0.018552  -0.020102
     3  N    0.000003  -0.000000  -0.000000   0.000735  -0.001736   0.350624
     4  N   -0.000027   0.000026  -0.000258  -0.025723   0.006298   0.008942
     5  C    0.000091   0.000008  -0.000063  -0.025487   0.003640   0.002567
     6  N   -0.000000  -0.000002  -0.000088   0.000947   0.000124  -0.000135
     7  N    0.001779  -0.002686   0.013082   0.072964   0.003190   0.000224
     8  C   -0.001104   0.004396  -0.000843  -0.007264  -0.000210  -0.000013
     9  C   -0.002412   0.018915  -0.080331   0.001141  -0.000126   0.000001
    10  C   -0.145844   0.078058   0.243459   0.004774  -0.000517  -0.000001
    11  C    0.063281  -0.181311   0.092878  -0.004377   0.000574   0.000002
    12  C    0.312744   0.054932  -0.159052  -0.002260   0.000105  -0.000001
    13  C    5.243819   0.312730   0.043457  -0.000610   0.000020   0.000000
    14  C    0.312730   5.231387   0.290669  -0.000598  -0.000012  -0.000000
    15  C    0.043457   0.290669   5.336429   0.000756   0.000010   0.000000
    16  H   -0.000610  -0.000598   0.000756   0.382145  -0.016670  -0.000317
    17  H    0.000020  -0.000012   0.000010  -0.016670   0.405350   0.000031
    18  H    0.000000  -0.000000   0.000000  -0.000317   0.000031   0.402148
    19  H    0.000001  -0.000000   0.000001   0.001080  -0.001178  -0.020420
    20  H    0.000000  -0.000000   0.000007  -0.000123  -0.000015   0.000089
    21  H    0.000000  -0.000001   0.000028   0.000164   0.000001   0.000010
    22  H    0.000024  -0.000099   0.001585   0.000061   0.000013   0.000002
    23  H   -0.000172   0.000013   0.002707   0.001955   0.000005  -0.000000
    24  H    0.000680  -0.001673  -0.006350   0.000140   0.000004  -0.000000
    25  H   -0.000011  -0.000813   0.009883   0.001128   0.000017  -0.000000
    26  H    0.015268  -0.004240   0.017003   0.002129   0.000296   0.000001
    27  H   -0.064651   0.015574  -0.003369  -0.000034  -0.000007  -0.000000
    28  H    0.438534  -0.063206   0.017309   0.000004  -0.000001   0.000000
    29  H   -0.062481   0.435191  -0.060161   0.000000  -0.000000  -0.000000
    30  H    0.014807  -0.058769   0.439988   0.000026   0.000001   0.000000
              19         20         21         22         23         24
     1  N    0.004987   0.000375   0.000061  -0.000169  -0.000603  -0.000081
     2  C   -0.027047   0.001919  -0.001284  -0.000235  -0.000016   0.000026
     3  N    0.357683  -0.000237  -0.000009  -0.000002  -0.000018   0.000000
     4  N    0.002800   0.014211   0.002937  -0.000657  -0.000761   0.000018
     5  C   -0.000648  -0.022570  -0.030874  -0.012986  -0.027195   0.000287
     6  N    0.000013   0.340559   0.366616   0.005146   0.012230   0.000072
     7  N    0.000217   0.009379  -0.005426  -0.038775  -0.057154   0.010276
     8  C   -0.000002  -0.001190   0.002625   0.397232   0.410213  -0.044759
     9  C   -0.000003   0.000006   0.000815  -0.057093  -0.018389   0.382208
    10  C   -0.000001  -0.000019   0.000091   0.021610  -0.024418  -0.031020
    11  C    0.000002   0.000004  -0.000020   0.000914  -0.001731   0.014106
    12  C   -0.000002   0.000000  -0.000001  -0.000056   0.000214  -0.002114
    13  C    0.000001   0.000000   0.000000   0.000024  -0.000172   0.000680
    14  C   -0.000000  -0.000000  -0.000001  -0.000099   0.000013  -0.001673
    15  C    0.000001   0.000007   0.000028   0.001585   0.002707  -0.006350
    16  H    0.001080  -0.000123   0.000164   0.000061   0.001955   0.000140
    17  H   -0.001178  -0.000015   0.000001   0.000013   0.000005   0.000004
    18  H   -0.020420   0.000089   0.000010   0.000002  -0.000000  -0.000000
    19  H    0.407439   0.000010  -0.000001   0.000001  -0.000001   0.000000
    20  H    0.000010   0.421813  -0.020878   0.000335  -0.000527  -0.000011
    21  H   -0.000001  -0.020878   0.410287   0.004636  -0.002086   0.000019
    22  H    0.000001   0.000335   0.004636   0.579481  -0.047432   0.002123
    23  H   -0.000001  -0.000527  -0.002086  -0.047432   0.583308   0.001403
    24  H    0.000000  -0.000011   0.000019   0.002123   0.001403   0.537082
    25  H   -0.000000  -0.000008  -0.000006  -0.007764   0.009044  -0.023331
    26  H   -0.000003  -0.000001   0.000001  -0.000048   0.000179   0.000635
    27  H   -0.000000  -0.000000  -0.000000  -0.000001   0.000001   0.000007
    28  H   -0.000000   0.000000   0.000000   0.000000  -0.000001   0.000001
    29  H   -0.000000  -0.000000  -0.000000  -0.000002   0.000020  -0.000032
    30  H    0.000000  -0.000001  -0.000003   0.000031   0.002882   0.001573
              25         26         27         28         29         30
     1  N   -0.000347  -0.000699   0.000238  -0.000015   0.000001  -0.000024
     2  C   -0.000157   0.000151   0.000010  -0.000001   0.000000  -0.000000
     3  N   -0.000002  -0.000005   0.000000   0.000000   0.000000   0.000000
     4  N   -0.000260  -0.000048   0.000002   0.000000   0.000000  -0.000004
     5  C   -0.000472   0.000147  -0.000008  -0.000001  -0.000001  -0.000048
     6  N    0.000127   0.000014  -0.000000  -0.000000   0.000000   0.000027
     7  N    0.003301   0.004211  -0.000109  -0.000000  -0.000035   0.000147
     8  C   -0.032977  -0.001128   0.000020  -0.000008   0.000079  -0.002605
     9  C    0.435783  -0.007539  -0.000546  -0.000032  -0.000444  -0.005754
    10  C   -0.079336  -0.074375   0.019210  -0.004822   0.016465  -0.068243
    11  C   -0.003348   0.437130  -0.061589   0.018105  -0.003088   0.017639
    12  C    0.001771  -0.055971   0.436181  -0.062981   0.014768  -0.004490
    13  C   -0.000011   0.015268  -0.064651   0.438534  -0.062481   0.014807
    14  C   -0.000813  -0.004240   0.015574  -0.063206   0.435191  -0.058769
    15  C    0.009883   0.017003  -0.003369   0.017309  -0.060161   0.439988
    16  H    0.001128   0.002129  -0.000034   0.000004   0.000000   0.000026
    17  H    0.000017   0.000296  -0.000007  -0.000001  -0.000000   0.000001
    18  H   -0.000000   0.000001  -0.000000   0.000000  -0.000000   0.000000
    19  H   -0.000000  -0.000003  -0.000000  -0.000000  -0.000000   0.000000
    20  H   -0.000008  -0.000001  -0.000000   0.000000  -0.000000  -0.000001
    21  H   -0.000006   0.000001  -0.000000   0.000000  -0.000000  -0.000003
    22  H   -0.007764  -0.000048  -0.000001   0.000000  -0.000002   0.000031
    23  H    0.009044   0.000179   0.000001  -0.000001   0.000020   0.002882
    24  H   -0.023331   0.000635   0.000007   0.000001  -0.000032   0.001573
    25  H    0.531885   0.003724  -0.000027  -0.000000   0.000014   0.000396
    26  H    0.003724   0.523992  -0.006445  -0.000148   0.000026  -0.000081
    27  H   -0.000027  -0.006445   0.529441  -0.007027  -0.000184   0.000015
    28  H   -0.000000  -0.000148  -0.007027   0.524042  -0.006824  -0.000148
    29  H    0.000014   0.000026  -0.000184  -0.006824   0.527951  -0.006441
    30  H    0.000396  -0.000081   0.000015  -0.000148  -0.006441   0.522162
 Mulliken charges:
               1
     1  N   -0.405190
     2  C    0.120745
     3  N   -0.376625
     4  N   -0.310875
     5  C    0.098970
     6  N   -0.393030
     7  N   -0.385564
     8  C   -0.329789
     9  C   -0.278197
    10  C    0.074652
    11  C   -0.195880
    12  C   -0.131447
    13  C   -0.168906
    14  C   -0.129132
    15  C   -0.197570
    16  H    0.308890
    17  H    0.278600
    18  H    0.268716
    19  H    0.275074
    20  H    0.256872
    21  H    0.272297
    22  H    0.152126
    23  H    0.156330
    24  H    0.158711
    25  H    0.151786
    26  H    0.145826
    27  H    0.143297
    28  H    0.147219
    29  H    0.145177
    30  H    0.146916
 Sum of Mulliken charges =  -0.00000
 Mulliken charges with hydrogens summed into heavy atoms:
               1
     1  N    0.182300
     2  C    0.120745
     3  N    0.167166
     4  N   -0.310875
     5  C    0.098970
     6  N    0.136139
     7  N   -0.385564
     8  C   -0.021332
     9  C    0.032300
    10  C    0.074652
    11  C   -0.050055
    12  C    0.011850
    13  C   -0.021687
    14  C    0.016045
    15  C   -0.050654
 Electronic spatial extent (au):  <R**2>=           3758.1846
 Charge=              0.0000 electrons
 Dipole moment (field-independent basis, Debye):
    X=              1.0867    Y=             -1.7599    Z=              0.3496  Tot=              2.0976
 Quadrupole moment (field-independent basis, Debye-Ang):
   XX=            -88.0182   YY=            -60.9038   ZZ=            -91.6750
   XY=             -5.1162   XZ=              0.2988   YZ=             -0.6848
 Traceless Quadrupole moment (field-independent basis, Debye-Ang):
   XX=             -7.8192   YY=             19.2952   ZZ=            -11.4760
   XY=             -5.1162   XZ=              0.2988   YZ=             -0.6848
 Octapole moment (field-independent basis, Debye-Ang**2):
  XXX=             73.0853  YYY=            -26.6108  ZZZ=              3.0792  XYY=             55.0453
  XXY=            -22.0212  XXZ=            -41.3041  XZZ=             -6.1594  YZZ=             -4.9242
  YYZ=              0.5649  XYZ=              6.3345
 Hexadecapole moment (field-independent basis, Debye-Ang**3):
 XXXX=          -3273.0969 YYYY=          -1054.4266 ZZZZ=           -418.1812 XXXY=            -64.4774
 XXXZ=            -27.4168 YYYX=            -57.1737 YYYZ=            -16.6059 ZZZX=             19.6752
 ZZZY=             -0.0706 XXYY=           -559.4480 XXZZ=           -615.1248 YYZZ=           -296.4609
 XXYZ=             38.9114 YYXZ=            -26.3257 ZZXY=             -6.1720
 N-N= 9.654023616491D+02 E-N=-3.478005364029D+03  KE= 6.609706358916D+02
 Unable to Open any file for archive entry.
 1\1\GINC-TCN1716\SP\RBP86\TZVP\C10H15N5\ELENAA\22-Feb-2021\0\\# BP86/T
 ZVP SCRF=COSMORS geom=CHECKPOINT guess=CHECKPOINT\\COSMO-file for #ICF
 JFFQQTFMIBG-UHFFFAOYSA-N\\0,1\N,0,1.9821482674,-3.3058112346,-0.540226
 6538\C,0,3.0128803,-2.6093878603,-0.0041012414\N,0,4.2016903673,-3.277
 2016405,0.2069080847\N,0,2.9698238679,-1.332348468,0.3541322026\C,0,1.
 7864218534,-0.6141652799,0.2922723174\N,0,1.9948795845,0.745023979,0.5
 14919538\N,0,0.6161345168,-1.131888496,0.0112514087\C,0,-0.5511292616,
 -0.2687319968,-0.053753938\C,0,-1.8098902847,-1.1034266994,-0.36710675
 21\C,0,-1.6811885021,-1.8670270201,-1.6654770046\C,0,-1.3901394192,-3.
 2412908517,-1.6735330836\C,0,-1.2085170999,-3.9341583641,-2.8770095275
 \C,0,-1.3179187416,-3.2592903796,-4.0989505524\C,0,-1.6136212336,-1.88
 9223721,-4.1061408384\C,0,-1.7916552762,-1.2024335281,-2.8999664132\H,
 0,1.0769546438,-2.7882936491,-0.5056811302\H,0,2.0334098407,-4.3109767
 717,-0.6709326525\H,0,5.0038362346,-2.6708622163,0.356586645\H,0,4.394
 6784223,-4.1010854413,-0.3572786224\H,0,2.8757500602,0.9680696402,0.97
 18044402\H,0,1.2047337844,1.2958559744,0.8407372643\H,0,-0.7278988665,
 0.2727316822,0.9006196965\H,0,-0.4340600522,0.5083995652,-0.8379189361
 \H,0,-2.6778440517,-0.4247361852,-0.4095865885\H,0,-1.9826021922,-1.80
 63211686,0.4633951686\H,0,-1.3009475844,-3.7729555956,-0.7222405697\H,
 0,-0.9794272165,-5.0022989551,-2.8596532933\H,0,-1.1776465313,-3.79659
 13735,-5.0394641234\H,0,-1.7064337245,-1.3549998207,-5.0547357925\H,0,
 -2.0196917054,-0.1326941236,-2.9137690522\\Version=ES64L-G16RevC.01\St
 ate=1-A\HF=-664.1299103\RMSD=4.234e-09\Dipole=0.5510456,-0.6039968,0.1
 123449\Quadrupole=-1.2778012,7.7915983,-6.5137971,-9.7400764,-1.670302
 4,4.5745439\PG=C01 [X(C10H15N5)]\\@
 The archive entry for this job was punched.


 In the race for quality, there is no finish line.
                               -- David T. Kearns
 Job cpu time:       0 days  0 hours 14 minutes  6.8 seconds.
 Elapsed time:       0 days  0 hours  0 minutes 27.3 seconds.
 File lengths (MBytes):  RWF=    110 Int=      0 D2E=      0 Chk=     16 Scr=      1
 Normal termination of Gaussian 16 at Mon Feb 22 21:43:03 2021.
