 Entering Gaussian System, Link 0=g16
 Input=ISWSIDIOOBJBQZ-UHFFFAOYSA-N.gjf
 Output=ISWSIDIOOBJBQZ-UHFFFAOYSA-N.log
 Initial command:
 /sw/arch/RedHatEnterpriseServer7/EB_production/2019/software/Gaussian/g16.c01/l1.exe "/scratch-local/elenaa.9715220/Gau-27291.inp" -scrdir="/scratch-local/elenaa.9715220/"
 Entering Link 1 = /sw/arch/RedHatEnterpriseServer7/EB_production/2019/software/Gaussian/g16.c01/l1.exe PID=     27293.
  
 Copyright (c) 1988-2019, Gaussian, Inc.  All Rights Reserved.
  
 This is part of the Gaussian(R) 16 program.  It is based on
 the Gaussian(R) 09 system (copyright 2009, Gaussian, Inc.),
 the Gaussian(R) 03 system (copyright 2003, Gaussian, Inc.),
 the Gaussian(R) 98 system (copyright 1998, Gaussian, Inc.),
 the Gaussian(R) 94 system (copyright 1995, Gaussian, Inc.),
 the Gaussian 92(TM) system (copyright 1992, Gaussian, Inc.),
 the Gaussian 90(TM) system (copyright 1990, Gaussian, Inc.),
 the Gaussian 88(TM) system (copyright 1988, Gaussian, Inc.),
 the Gaussian 86(TM) system (copyright 1986, Carnegie Mellon
 University), and the Gaussian 82(TM) system (copyright 1983,
 Carnegie Mellon University). Gaussian is a federally registered
 trademark of Gaussian, Inc.
  
 This software contains proprietary and confidential information,
 including trade secrets, belonging to Gaussian, Inc.
  
 This software is provided under written license and may be
 used, copied, transmitted, or stored only in accord with that
 written license.
  
 The following legend is applicable only to US Government
 contracts under FAR:
  
                    RESTRICTED RIGHTS LEGEND
  
 Use, reproduction and disclosure by the US Government is
 subject to restrictions as set forth in subparagraphs (a)
 and (c) of the Commercial Computer Software - Restricted
 Rights clause in FAR 52.227-19.
  
 Gaussian, Inc.
 340 Quinnipiac St., Bldg. 40, Wallingford CT 06492
  
  
 ---------------------------------------------------------------
 Warning -- This program may not be used in any manner that
 competes with the business of Gaussian, Inc. or will provide
 assistance to any competitor of Gaussian, Inc.  The licensee
 of this program is prohibited from giving any competitor of
 Gaussian, Inc. access to this program.  By using this program,
 the user acknowledges that Gaussian, Inc. is engaged in the
 business of creating and licensing software in the field of
 computational chemistry and represents and warrants to the
 licensee that it is not a competitor of Gaussian, Inc. and that
 it will not use this program in any manner prohibited above.
 ---------------------------------------------------------------
  

 Cite this work as:
 Gaussian 16, Revision C.01,
 M. J. Frisch, G. W. Trucks, H. B. Schlegel, G. E. Scuseria, 
 M. A. Robb, J. R. Cheeseman, G. Scalmani, V. Barone, 
 G. A. Petersson, H. Nakatsuji, X. Li, M. Caricato, A. V. Marenich, 
 J. Bloino, B. G. Janesko, R. Gomperts, B. Mennucci, H. P. Hratchian, 
 J. V. Ortiz, A. F. Izmaylov, J. L. Sonnenberg, D. Williams-Young, 
 F. Ding, F. Lipparini, F. Egidi, J. Goings, B. Peng, A. Petrone, 
 T. Henderson, D. Ranasinghe, V. G. Zakrzewski, J. Gao, N. Rega, 
 G. Zheng, W. Liang, M. Hada, M. Ehara, K. Toyota, R. Fukuda, 
 J. Hasegawa, M. Ishida, T. Nakajima, Y. Honda, O. Kitao, H. Nakai, 
 T. Vreven, K. Throssell, J. A. Montgomery, Jr., J. E. Peralta, 
 F. Ogliaro, M. J. Bearpark, J. J. Heyd, E. N. Brothers, K. N. Kudin, 
 V. N. Staroverov, T. A. Keith, R. Kobayashi, J. Normand, 
 K. Raghavachari, A. P. Rendell, J. C. Burant, S. S. Iyengar, 
 J. Tomasi, M. Cossi, J. M. Millam, M. Klene, C. Adamo, R. Cammi, 
 J. W. Ochterski, R. L. Martin, K. Morokuma, O. Farkas, 
 J. B. Foresman, and D. J. Fox, Gaussian, Inc., Wallingford CT, 2019.
 
 ******************************************
 Gaussian 16:  ES64L-G16RevC.01  3-Jul-2019
                22-Feb-2021 
 ******************************************
 %chk=ISWSIDIOOBJBQZ-UHFFFAOYSA-N.chk
 %NProcShared=32
 Will use up to   32 processors via shared memory.
 -------------------------------------------------------------
 #P BP86/TZVP EmpiricalDispersion=GD3 SCRF=(Solvent=Water) Opt
 -------------------------------------------------------------
 1/18=20,19=15,26=3,38=1/1,3;
 2/9=110,12=2,17=6,18=5,40=1/2;
 3/5=19,7=101,11=2,25=1,30=1,70=2201,71=1,72=1,74=404,124=31/1,2,3;
 4//1;
 5/5=2,38=5,53=1/2;
 6/7=2,8=2,9=2,10=2,28=1/1;
 7//1,2,3,16;
 1/18=20,19=15,26=3/3(2);
 2/9=110/2;
 99//99;
 2/9=110/2;
 3/5=19,7=101,11=2,25=1,30=1,70=2205,71=1,72=1,74=404,124=31/1,2,3;
 4/5=5,16=3,69=1/1;
 5/5=2,38=5,53=1/2;
 7//1,2,3,16;
 1/18=20,19=15,26=3/3(-5);
 2/9=110/2;
 6/7=2,8=2,9=2,10=2,19=2,28=1/1;
 99/9=1/99;
 Leave Link    1 at Mon Feb 22 21:11:17 2021, MaxMem=           0 cpu:               1.6 elap:               0.1
 (Enter /sw/arch/RedHatEnterpriseServer7/EB_production/2019/software/Gaussian/g16.c01/l101.exe)
 -------------------------------------
 Particle #ISWSIDIOOBJBQZ-UHFFFAOYSA-N
 -------------------------------------
 Symbolic Z-matrix:
 Charge =  0 Multiplicity = 1
 O                    -0.95385  -1.04412   0.16382 
 C                    -0.19769   0.06834   0.35034 
 C                    -0.55546   1.26636  -0.29922 
 C                     0.21621   2.43102  -0.11843 
 C                     1.35048   2.3995    0.71482 
 C                     1.71189   1.20534   1.36576 
 C                     0.93994   0.04203   1.18433 
 H                    -0.53106  -1.74802   0.69971 
 H                    -1.3782    1.29468  -0.90539 
 H                    -0.0459    3.2986   -0.59101 
 H                     1.91104   3.24309   0.84695 
 H                     2.53488   1.1817    1.97059 
 H                     1.20462  -0.82307   1.65797 
 
 ITRead=  0  0  0  0  0  0  0  0  0  0  0  0  0
 MicOpt= -1 -1 -1 -1 -1 -1 -1 -1 -1 -1 -1 -1 -1
 NAtoms=     13 NQM=       13 NQMF=       0 NMMI=      0 NMMIF=      0
                NMic=       0 NMicF=      0.
                    Isotopes and Nuclear Properties:
 (Nuclear quadrupole moments (NQMom) in fm**2, nuclear magnetic moments (NMagM)
  in nuclear magnetons)

  Atom         1           2           3           4           5           6           7           8           9          10
 IAtWgt=          16          12          12          12          12          12          12           1           1           1
 AtmWgt=  15.9949146  12.0000000  12.0000000  12.0000000  12.0000000  12.0000000  12.0000000   1.0078250   1.0078250   1.0078250
 NucSpn=           0           0           0           0           0           0           0           1           1           1
 AtZEff=  -0.0000000  -0.0000000  -0.0000000  -0.0000000  -0.0000000  -0.0000000  -0.0000000  -0.0000000  -0.0000000  -0.0000000
 NQMom=    0.0000000   0.0000000   0.0000000   0.0000000   0.0000000   0.0000000   0.0000000   0.0000000   0.0000000   0.0000000
 NMagM=    0.0000000   0.0000000   0.0000000   0.0000000   0.0000000   0.0000000   0.0000000   2.7928460   2.7928460   2.7928460
 AtZNuc=   8.0000000   6.0000000   6.0000000   6.0000000   6.0000000   6.0000000   6.0000000   1.0000000   1.0000000   1.0000000

  Atom        11          12          13
 IAtWgt=           1           1           1
 AtmWgt=   1.0078250   1.0078250   1.0078250
 NucSpn=           1           1           1
 AtZEff=  -0.0000000  -0.0000000  -0.0000000
 NQMom=    0.0000000   0.0000000   0.0000000
 NMagM=    2.7928460   2.7928460   2.7928460
 AtZNuc=   1.0000000   1.0000000   1.0000000
 Leave Link  101 at Mon Feb 22 21:11:17 2021, MaxMem=   104857600 cpu:               2.8 elap:               0.1
 (Enter /sw/arch/RedHatEnterpriseServer7/EB_production/2019/software/Gaussian/g16.c01/l103.exe)

 GradGradGradGradGradGradGradGradGradGradGradGradGradGradGradGradGradGrad
 Berny optimization.
 Initialization pass.
                           ----------------------------
                           !    Initial Parameters    !
                           ! (Angstroms and Degrees)  !
 --------------------------                            --------------------------
 ! Name  Definition              Value          Derivative Info.                !
 --------------------------------------------------------------------------------
 ! R1    R(1,2)                  1.358          estimate D2E/DX2                !
 ! R2    R(1,8)                  0.9805         estimate D2E/DX2                !
 ! R3    R(2,3)                  1.409          estimate D2E/DX2                !
 ! R4    R(2,7)                  1.4108         estimate D2E/DX2                !
 ! R5    R(3,4)                  1.4088         estimate D2E/DX2                !
 ! R6    R(3,9)                  1.0223         estimate D2E/DX2                !
 ! R7    R(4,5)                  1.4078         estimate D2E/DX2                !
 ! R8    R(4,10)                 1.0221         estimate D2E/DX2                !
 ! R9    R(5,6)                  1.4073         estimate D2E/DX2                !
 ! R10   R(5,11)                 1.0214         estimate D2E/DX2                !
 ! R11   R(6,7)                  1.4079         estimate D2E/DX2                !
 ! R12   R(6,12)                 1.0216         estimate D2E/DX2                !
 ! R13   R(7,13)                 1.0212         estimate D2E/DX2                !
 ! A1    A(2,1,8)              105.8385         estimate D2E/DX2                !
 ! A2    A(1,2,3)              119.4615         estimate D2E/DX2                !
 ! A3    A(1,2,7)              120.9917         estimate D2E/DX2                !
 ! A4    A(3,2,7)              119.5469         estimate D2E/DX2                !
 ! A5    A(2,3,4)              120.3114         estimate D2E/DX2                !
 ! A6    A(2,3,9)              120.0834         estimate D2E/DX2                !
 ! A7    A(4,3,9)              119.6052         estimate D2E/DX2                !
 ! A8    A(3,4,5)              119.92           estimate D2E/DX2                !
 ! A9    A(3,4,10)             120.1277         estimate D2E/DX2                !
 ! A10   A(5,4,10)             119.9523         estimate D2E/DX2                !
 ! A11   A(4,5,6)              119.9805         estimate D2E/DX2                !
 ! A12   A(4,5,11)             120.0162         estimate D2E/DX2                !
 ! A13   A(6,5,11)             120.0033         estimate D2E/DX2                !
 ! A14   A(5,6,7)              120.0491         estimate D2E/DX2                !
 ! A15   A(5,6,12)             120.025          estimate D2E/DX2                !
 ! A16   A(7,6,12)             119.926          estimate D2E/DX2                !
 ! A17   A(2,7,6)              120.1921         estimate D2E/DX2                !
 ! A18   A(2,7,13)             119.9326         estimate D2E/DX2                !
 ! A19   A(6,7,13)             119.8752         estimate D2E/DX2                !
 ! D1    D(8,1,2,3)            179.9999         estimate D2E/DX2                !
 ! D2    D(8,1,2,7)             -0.0001         estimate D2E/DX2                !
 ! D3    D(1,2,3,4)            179.9997         estimate D2E/DX2                !
 ! D4    D(1,2,3,9)              0.0            estimate D2E/DX2                !
 ! D5    D(7,2,3,4)             -0.0003         estimate D2E/DX2                !
 ! D6    D(7,2,3,9)           -180.0            estimate D2E/DX2                !
 ! D7    D(1,2,7,6)           -179.9998         estimate D2E/DX2                !
 ! D8    D(1,2,7,13)             0.0004         estimate D2E/DX2                !
 ! D9    D(3,2,7,6)              0.0002         estimate D2E/DX2                !
 ! D10   D(3,2,7,13)          -179.9997         estimate D2E/DX2                !
 ! D11   D(2,3,4,5)              0.0002         estimate D2E/DX2                !
 ! D12   D(2,3,4,10)          -179.9995         estimate D2E/DX2                !
 ! D13   D(9,3,4,5)            179.9999         estimate D2E/DX2                !
 ! D14   D(9,3,4,10)             0.0001         estimate D2E/DX2                !
 ! D15   D(3,4,5,6)              0.0            estimate D2E/DX2                !
 ! D16   D(3,4,5,11)          -179.9998         estimate D2E/DX2                !
 ! D17   D(10,4,5,6)           179.9997         estimate D2E/DX2                !
 ! D18   D(10,4,5,11)           -0.0001         estimate D2E/DX2                !
 ! D19   D(4,5,6,7)             -0.0001         estimate D2E/DX2                !
 ! D20   D(4,5,6,12)           180.0            estimate D2E/DX2                !
 ! D21   D(11,5,6,7)           179.9998         estimate D2E/DX2                !
 ! D22   D(11,5,6,12)           -0.0002         estimate D2E/DX2                !
 ! D23   D(5,6,7,2)              0.0            estimate D2E/DX2                !
 ! D24   D(5,6,7,13)           179.9998         estimate D2E/DX2                !
 ! D25   D(12,6,7,2)           179.9999         estimate D2E/DX2                !
 ! D26   D(12,6,7,13)           -0.0002         estimate D2E/DX2                !
 --------------------------------------------------------------------------------
 Trust Radius=3.00D-01 FncErr=1.00D-07 GrdErr=1.00D-06 EigMax=2.50D+02 EigMin=1.00D-04
 Number of steps in this run=     68 maximum allowed number of steps=    100.
 GradGradGradGradGradGradGradGradGradGradGradGradGradGradGradGradGradGrad

 Leave Link  103 at Mon Feb 22 21:11:17 2021, MaxMem=   104857600 cpu:               0.5 elap:               0.0
 (Enter /sw/arch/RedHatEnterpriseServer7/EB_production/2019/software/Gaussian/g16.c01/l202.exe)
                          Input orientation:                          
 ---------------------------------------------------------------------
 Center     Atomic      Atomic             Coordinates (Angstroms)
 Number     Number       Type             X           Y           Z
 ---------------------------------------------------------------------
      1          8           0       -0.953850   -1.044120    0.163820
      2          6           0       -0.197690    0.068340    0.350340
      3          6           0       -0.555460    1.266360   -0.299220
      4          6           0        0.216210    2.431020   -0.118430
      5          6           0        1.350480    2.399500    0.714820
      6          6           0        1.711890    1.205340    1.365760
      7          6           0        0.939940    0.042030    1.184330
      8          1           0       -0.531060   -1.748020    0.699710
      9          1           0       -1.378200    1.294680   -0.905390
     10          1           0       -0.045900    3.298600   -0.591010
     11          1           0        1.911040    3.243090    0.846950
     12          1           0        2.534880    1.181700    1.970590
     13          1           0        1.204620   -0.823070    1.657970
 ---------------------------------------------------------------------
                    Distance matrix (angstroms):
                    1          2          3          4          5
     1  O    0.000000
     2  C    1.357989   0.000000
     3  C    2.389862   1.408964   0.000000
     4  C    3.677676   2.444037   1.408756   0.000000
     5  C    4.179959   2.822053   2.438215   1.407788   0.000000
     6  C    3.689295   2.443428   2.813673   2.437657   1.407252
     7  C    2.409897   1.410827   2.436417   2.815713   2.438575
     8  H    0.980512   1.879457   3.175680   4.323441   4.554376
     9  H    2.606390   2.115271   1.022323   2.110146   3.360268
    10  H    4.500373   3.368050   2.115370   1.022120   2.112688
    11  H    5.201387   3.843488   3.362260   2.112786   1.021435
    12  H    4.515521   3.366262   3.835284   3.361701   2.112534
    13  H    2.634453   2.114470   3.360683   3.836881   3.360917
                    6          7          8          9         10
     6  C    0.000000
     7  C    1.407876   0.000000
     8  H    3.767862   2.367061   0.000000
     9  H    3.835982   3.363010   3.542882   0.000000
    10  H    3.361623   3.837833   5.231607   2.426840   0.000000
    11  H    2.112167   3.362089   5.558481   4.205484   2.429079
    12  H    1.021612   2.112081   4.427006   4.857594   4.207551
    13  H    2.111198   1.021170   2.187780   4.210301   4.858999
                   11         12         13
    11  H    0.000000
    12  H    2.429212   0.000000
    13  H    4.206000   2.426196   0.000000
 Stoichiometry    C6H6O
 Framework group  C1[X(C6H6O)]
 Deg. of freedom    33
 Full point group                 C1      NOp   1
 Largest Abelian subgroup         C1      NOp   1
 Largest concise Abelian subgroup C1      NOp   1
                         Standard orientation:                         
 ---------------------------------------------------------------------
 Center     Atomic      Atomic             Coordinates (Angstroms)
 Number     Number       Type             X           Y           Z
 ---------------------------------------------------------------------
      1          8           0        2.312309   -0.122588    0.000003
      2          6           0        0.956142   -0.052272   -0.000001
      3          6           0        0.200568   -1.241511   -0.000003
      4          6           0       -1.207225   -1.189444   -0.000000
      5          6           0       -1.863840    0.055837    0.000001
      6          6           0       -1.113583    1.246413   -0.000000
      7          6           0        0.293285    1.193141   -0.000001
      8          1           0        2.628402    0.805577    0.000002
      9          1           0        0.672420   -2.148429   -0.000002
     10          1           0       -1.752579   -2.053920    0.000005
     11          1           0       -2.884512    0.095302    0.000006
     12          1           0       -1.589377    2.150465    0.000000
     13          1           0        0.835084    2.058729   -0.000005
 ---------------------------------------------------------------------
 Rotational constants (GHZ):           5.6183861           2.6021668           1.7784665
 Leave Link  202 at Mon Feb 22 21:11:17 2021, MaxMem=   104857600 cpu:               0.5 elap:               0.0
 (Enter /sw/arch/RedHatEnterpriseServer7/EB_production/2019/software/Gaussian/g16.c01/l301.exe)
 Standard basis: TZVP (5D, 7F)
 Ernie: Thresh=  0.10000D-02 Tol=  0.10000D-05 Strict=F.
 There are   176 symmetry adapted cartesian basis functions of A   symmetry.
 There are   169 symmetry adapted basis functions of A   symmetry.
   169 basis functions,   293 primitive gaussians,   176 cartesian basis functions
    25 alpha electrons       25 beta electrons
       nuclear repulsion energy       271.0151853743 Hartrees.
 IExCor=  404 DFT=T Ex=B Corr=P86 ExCW=0 ScaHFX=  0.000000
 ScaDFX=  1.000000  1.000000  1.000000  1.000000 ScalE2=  1.000000  1.000000
 IRadAn=      5 IRanWt=     -1 IRanGd=            0 ICorTp=0 IEmpDi=131
 NAtoms=   13 NActive=   13 NUniq=   13 SFac= 1.00D+00 NAtFMM=   60 NAOKFM=F Big=F
 Integral buffers will be    131072 words long.
 Raffenetti 2 integral format.
 Two-electron integral symmetry is turned on.
 R6Disp:  Grimme-D3 Dispersion energy=       -0.0075764701 Hartrees.
 Nuclear repulsion after empirical dispersion term =      271.0076089042 Hartrees.
 ------------------------------------------------------------------------------
 Polarizable Continuum Model (PCM)
 =================================
 Model                : PCM.
 Atomic radii         : UFF (Universal Force Field).
 Polarization charges : Total charges.
 Charge compensation  : None.
 Solution method      : On-the-fly selection.
 Cavity type          : Scaled VdW (van der Waals Surface) (Alpha=1.100).
 Cavity algorithm     : GePol (No added spheres)
                        Default sphere list used, NSphG=   13.
                        Lebedev-Laikov grids with approx.  5.0 points / Ang**2.
                        Smoothing algorithm: York/Karplus (Gamma=1.0000).
                        Polarization charges: spherical gaussians, with
                                              point-specific exponents (IZeta= 3).
                        Self-potential: point-specific (ISelfS= 7).
                        Self-field    : sphere-specific E.n sum rule (ISelfD= 2).
 1st derivatives      : Analytical E(r).r(x)/FMM algorithm (CHGder, D1EAlg=3).
                        Cavity 1st derivative terms included.
 Solvent              : Water, Eps=  78.355300 Eps(inf)=   1.777849
 ------------------------------------------------------------------------------
 Spheres list:
 ISph  on   Nord     Re0    Alpha      Xe            Ye            Ze
    1   O      1    1.7500  1.100      2.312309     -0.122588      0.000003
    2   C      2    1.9255  1.100      0.956142     -0.052272     -0.000001
    3   C      3    1.9255  1.100      0.200568     -1.241511     -0.000003
    4   C      4    1.9255  1.100     -1.207225     -1.189444     -0.000000
    5   C      5    1.9255  1.100     -1.863840      0.055837      0.000001
    6   C      6    1.9255  1.100     -1.113583      1.246413     -0.000000
    7   C      7    1.9255  1.100      0.293285      1.193141     -0.000001
    8   H      8    1.4430  1.100      2.628402      0.805577      0.000002
    9   H      9    1.4430  1.100      0.672420     -2.148429     -0.000002
   10   H     10    1.4430  1.100     -1.752579     -2.053920      0.000005
   11   H     11    1.4430  1.100     -2.884512      0.095302      0.000006
   12   H     12    1.4430  1.100     -1.589377      2.150465      0.000000
   13   H     13    1.4430  1.100      0.835084      2.058729     -0.000005
 ------------------------------------------------------------------------------
 GePol: Number of generator spheres                  =      13
 GePol: Total number of spheres                      =      13
 GePol: Number of exposed spheres                    =      13 (100.00%)
 GePol: Number of points                             =    1167
 GePol: Average weight of points                     =       0.13
 GePol: Minimum weight of points                     =   0.84D-06
 GePol: Maximum weight of points                     =    0.20577
 GePol: Number of points with low weight             =      73
 GePol: Fraction of low-weight points (<1% of avg)   =       6.26%
 GePol: Cavity surface area                          =    152.274 Ang**2
 GePol: Cavity volume                                =    145.189 Ang**3
 Leave Link  301 at Mon Feb 22 21:11:18 2021, MaxMem=   104857600 cpu:               1.8 elap:               0.1
 (Enter /sw/arch/RedHatEnterpriseServer7/EB_production/2019/software/Gaussian/g16.c01/l302.exe)
 NPDir=0 NMtPBC=     1 NCelOv=     1 NCel=       1 NClECP=     1 NCelD=      1
         NCelK=      1 NCelE2=     1 NClLst=     1 CellRange=     0.0.
 One-electron integrals computed using PRISM.
 One-electron integral symmetry used in STVInt
 PrsmSu:  requested number of processors reduced to:  29 ShMem   1 Linda.
 NBasis=   169 RedAO= T EigKep=  1.20D-05  NBF=   169
 NBsUse=   169 1.00D-06 EigRej= -1.00D+00 NBFU=   169
 Precomputing XC quadrature grid using
 IXCGrd= 4 IRadAn=           5 IRanWt=          -1 IRanGd=           0 AccXCQ= 0.00D+00.
 Generated NRdTot=       0 NPtTot=           0 NUsed=           0 NTot=          32
 NSgBfM=   175   175   175   175   175 MxSgAt=    13 MxSgA2=    13.
 Leave Link  302 at Mon Feb 22 21:11:18 2021, MaxMem=   104857600 cpu:               5.3 elap:               0.2
 (Enter /sw/arch/RedHatEnterpriseServer7/EB_production/2019/software/Gaussian/g16.c01/l303.exe)
 DipDrv:  MaxL=1.
 Leave Link  303 at Mon Feb 22 21:11:18 2021, MaxMem=   104857600 cpu:               0.9 elap:               0.1
 (Enter /sw/arch/RedHatEnterpriseServer7/EB_production/2019/software/Gaussian/g16.c01/l401.exe)
 ExpMin= 9.52D-02 ExpMax= 2.70D+04 ExpMxC= 9.22D+02 IAcc=3 IRadAn=         5 AccDes= 0.00D+00
 Harris functional with IExCor=  404 and IRadAn=       5 diagonalized for initial guess.
 HarFok:  IExCor=  404 AccDes= 0.00D+00 IRadAn=         5 IDoV= 1 UseB2=F ITyADJ=14
 ICtDFT=  3500011 ScaDFX=  1.000000  1.000000  1.000000  1.000000
 FoFCou: FMM=F IPFlag=           0 FMFlag=      100000 FMFlg1=           0
         NFxFlg=           0 DoJE=T BraDBF=F KetDBF=T FulRan=T
         wScrn=  0.000000 ICntrl=       500 IOpCl=  0 I1Cent=   200000004 NGrid=           0
         NMat0=    1 NMatS0=      1 NMatT0=    0 NMatD0=    1 NMtDS0=    0 NMtDT0=    0
 Petite list used in FoFCou.
 Harris En= -307.710126415429    
 JPrj=0 DoOrth=F DoCkMO=F.
 Leave Link  401 at Mon Feb 22 21:11:18 2021, MaxMem=   104857600 cpu:               8.7 elap:               0.3
 (Enter /sw/arch/RedHatEnterpriseServer7/EB_production/2019/software/Gaussian/g16.c01/l502.exe)
 Integral symmetry usage will be decided dynamically.
 Closed shell SCF:
 Using DIIS extrapolation, IDIIS=  1040.
 NGot=   104857600 LenX=   104787862 LenY=   104756445
 Requested convergence on RMS density matrix=1.00D-08 within 128 cycles.
 Requested convergence on MAX density matrix=1.00D-06.
 Requested convergence on             energy=1.00D-06.
 No special actions if energy rises.
 Fock matrices will be formed incrementally for  20 cycles.

 Cycle   1  Pass 1  IDiag  1:
 FoFJK:  IHMeth= 1 ICntrl=     500 DoSepK=F KAlg= 0 I1Cent=           0 FoldK=F
 IRaf= 960000000 NMat=       1 IRICut=       1 DoRegI=T DoRafI=F ISym2E= 0 IDoP0=0 IntGTp=1.
 FoFCou: FMM=F IPFlag=           0 FMFlag=      100000 FMFlg1=           0
         NFxFlg=           0 DoJE=T BraDBF=F KetDBF=F FulRan=T
         wScrn=  0.000000 ICntrl=       500 IOpCl=  0 I1Cent=           0 NGrid=           0
         NMat0=    1 NMatS0=      1 NMatT0=    0 NMatD0=    1 NMtDS0=    0 NMtDT0=    0
 Symmetry not used in FoFCou.
 Inv3:  Mode=1 IEnd=     4085667.
 Iteration    1 A*A^-1 deviation from unit magnitude is 2.89D-15 for    916.
 Iteration    1 A*A^-1 deviation from orthogonality  is 1.87D-15 for    609    295.
 Iteration    1 A^-1*A deviation from unit magnitude is 2.89D-15 for    617.
 Iteration    1 A^-1*A deviation from orthogonality  is 2.22D-15 for    921    358.
 E= -307.403232140052    
 DIIS: error= 4.54D-02 at cycle   1 NSaved=   1.
 NSaved= 1 IEnMin= 1 EnMin= -307.403232140052     IErMin= 1 ErrMin= 4.54D-02
 ErrMax= 4.54D-02  0.00D+00 EMaxC= 1.00D-01 BMatC= 1.65D-01 BMatP= 1.65D-01
 IDIUse=3 WtCom= 5.46D-01 WtEn= 4.54D-01
 Coeff-Com:  0.100D+01
 Coeff-En:   0.100D+01
 Coeff:      0.100D+01
 Gap=     0.164 Goal=   None    Shift=    0.000
 GapD=    0.164 DampG=1.000 DampE=0.500 DampFc=0.5000 IDamp=-1.
 Damping current iteration by 5.00D-01
 RMSDP=9.84D-03 MaxDP=4.20D-01              OVMax= 2.22D-01

 Cycle   2  Pass 1  IDiag  1:
 RMSU=  4.92D-03    CP:  9.93D-01
 E= -307.463371295910     Delta-E=       -0.060139155858 Rises=F Damp=T
 DIIS: error= 8.34D-03 at cycle   2 NSaved=   2.
 NSaved= 2 IEnMin= 2 EnMin= -307.463371295910     IErMin= 2 ErrMin= 8.34D-03
 ErrMax= 8.34D-03  0.00D+00 EMaxC= 1.00D-01 BMatC= 1.39D-02 BMatP= 1.65D-01
 IDIUse=3 WtCom= 9.17D-01 WtEn= 8.34D-02
 Coeff-Com:  0.154D+00 0.846D+00
 Coeff-En:   0.256D+00 0.744D+00
 Coeff:      0.163D+00 0.837D+00
 Gap=     0.158 Goal=   None    Shift=    0.000
 RMSDP=2.21D-03 MaxDP=8.10D-02 DE=-6.01D-02 OVMax= 1.77D-01

 Cycle   3  Pass 1  IDiag  1:
 RMSU=  1.77D-03    CP:  9.75D-01  7.37D-01
 E= -307.559539295633     Delta-E=       -0.096167999723 Rises=F Damp=F
 DIIS: error= 9.45D-03 at cycle   3 NSaved=   3.
 NSaved= 3 IEnMin= 3 EnMin= -307.559539295633     IErMin= 2 ErrMin= 8.34D-03
 ErrMax= 9.45D-03  0.00D+00 EMaxC= 1.00D-01 BMatC= 8.41D-03 BMatP= 1.39D-02
 IDIUse=3 WtCom= 9.05D-01 WtEn= 9.45D-02
 Coeff-Com:  0.426D-01 0.437D+00 0.520D+00
 Coeff-En:   0.000D+00 0.000D+00 0.100D+01
 Coeff:      0.386D-01 0.396D+00 0.565D+00
 Gap=     0.156 Goal=   None    Shift=    0.000
 RMSDP=9.43D-04 MaxDP=2.07D-02 DE=-9.62D-02 OVMax= 6.99D-02

 Cycle   4  Pass 1  IDiag  1:
 RMSU=  7.68D-04    CP:  9.76D-01  6.46D-01  8.23D-01
 E= -307.563919272235     Delta-E=       -0.004379976603 Rises=F Damp=F
 DIIS: error= 7.74D-03 at cycle   4 NSaved=   4.
 NSaved= 4 IEnMin= 4 EnMin= -307.563919272235     IErMin= 4 ErrMin= 7.74D-03
 ErrMax= 7.74D-03  0.00D+00 EMaxC= 1.00D-01 BMatC= 3.97D-03 BMatP= 8.41D-03
 IDIUse=3 WtCom= 9.23D-01 WtEn= 7.74D-02
 Coeff-Com:  0.716D-02 0.143D+00 0.403D+00 0.447D+00
 Coeff-En:   0.000D+00 0.000D+00 0.371D+00 0.629D+00
 Coeff:      0.660D-02 0.132D+00 0.401D+00 0.461D+00
 Gap=     0.154 Goal=   None    Shift=    0.000
 RMSDP=4.96D-04 MaxDP=1.27D-02 DE=-4.38D-03 OVMax= 3.28D-02

 Cycle   5  Pass 1  IDiag  1:
 RMSU=  1.70D-04    CP:  9.76D-01  7.02D-01  8.78D-01  5.26D-01
 E= -307.568278986878     Delta-E=       -0.004359714642 Rises=F Damp=F
 DIIS: error= 1.57D-03 at cycle   5 NSaved=   5.
 NSaved= 5 IEnMin= 5 EnMin= -307.568278986878     IErMin= 5 ErrMin= 1.57D-03
 ErrMax= 1.57D-03  0.00D+00 EMaxC= 1.00D-01 BMatC= 1.50D-04 BMatP= 3.97D-03
 IDIUse=3 WtCom= 9.84D-01 WtEn= 1.57D-02
 Coeff-Com:  0.150D-02 0.416D-01 0.183D+00 0.259D+00 0.515D+00
 Coeff-En:   0.000D+00 0.000D+00 0.000D+00 0.000D+00 0.100D+01
 Coeff:      0.147D-02 0.410D-01 0.180D+00 0.255D+00 0.522D+00
 Gap=     0.155 Goal=   None    Shift=    0.000
 RMSDP=1.29D-04 MaxDP=5.46D-03 DE=-4.36D-03 OVMax= 7.67D-03

 Cycle   6  Pass 1  IDiag  1:
 RMSU=  7.31D-05    CP:  9.76D-01  6.84D-01  8.71D-01  5.75D-01  7.17D-01
 E= -307.568405484484     Delta-E=       -0.000126497606 Rises=F Damp=F
 DIIS: error= 4.70D-04 at cycle   6 NSaved=   6.
 NSaved= 6 IEnMin= 6 EnMin= -307.568405484484     IErMin= 6 ErrMin= 4.70D-04
 ErrMax= 4.70D-04  0.00D+00 EMaxC= 1.00D-01 BMatC= 2.87D-05 BMatP= 1.50D-04
 IDIUse=3 WtCom= 9.95D-01 WtEn= 4.70D-03
 Coeff-Com: -0.416D-04 0.106D-01 0.667D-01 0.106D+00 0.341D+00 0.476D+00
 Coeff-En:   0.000D+00 0.000D+00 0.000D+00 0.000D+00 0.153D+00 0.847D+00
 Coeff:     -0.414D-04 0.105D-01 0.664D-01 0.105D+00 0.340D+00 0.477D+00
 Gap=     0.155 Goal=   None    Shift=    0.000
 RMSDP=5.21D-05 MaxDP=2.20D-03 DE=-1.26D-04 OVMax= 1.74D-03

 Cycle   7  Pass 1  IDiag  1:
 RMSU=  1.64D-05    CP:  9.76D-01  6.92D-01  8.73D-01  5.66D-01  7.52D-01
                    CP:  5.68D-01
 E= -307.568430228518     Delta-E=       -0.000024744034 Rises=F Damp=F
 DIIS: error= 8.62D-05 at cycle   7 NSaved=   7.
 NSaved= 7 IEnMin= 7 EnMin= -307.568430228518     IErMin= 7 ErrMin= 8.62D-05
 ErrMax= 8.62D-05  0.00D+00 EMaxC= 1.00D-01 BMatC= 5.00D-07 BMatP= 2.87D-05
 IDIUse=1 WtCom= 1.00D+00 WtEn= 0.00D+00
 Coeff-Com: -0.533D-04 0.384D-02 0.280D-01 0.449D-01 0.155D+00 0.241D+00
 Coeff-Com:  0.527D+00
 Coeff:     -0.533D-04 0.384D-02 0.280D-01 0.449D-01 0.155D+00 0.241D+00
 Coeff:      0.527D+00
 Gap=     0.155 Goal=   None    Shift=    0.000
 RMSDP=9.03D-06 MaxDP=4.11D-04 DE=-2.47D-05 OVMax= 3.61D-04

 Cycle   8  Pass 1  IDiag  1:
 RMSU=  4.94D-06    CP:  9.76D-01  6.90D-01  8.73D-01  5.67D-01  7.48D-01
                    CP:  6.10D-01  9.03D-01
 E= -307.568430564251     Delta-E=       -0.000000335733 Rises=F Damp=F
 DIIS: error= 4.28D-05 at cycle   8 NSaved=   8.
 NSaved= 8 IEnMin= 8 EnMin= -307.568430564251     IErMin= 8 ErrMin= 4.28D-05
 ErrMax= 4.28D-05  0.00D+00 EMaxC= 1.00D-01 BMatC= 1.68D-07 BMatP= 5.00D-07
 IDIUse=1 WtCom= 1.00D+00 WtEn= 0.00D+00
 Coeff-Com: -0.287D-04 0.512D-03 0.524D-02 0.829D-02 0.342D-01 0.652D-01
 Coeff-Com:  0.378D+00 0.508D+00
 Coeff:     -0.287D-04 0.512D-03 0.524D-02 0.829D-02 0.342D-01 0.652D-01
 Coeff:      0.378D+00 0.508D+00
 Gap=     0.155 Goal=   None    Shift=    0.000
 RMSDP=4.48D-06 MaxDP=2.08D-04 DE=-3.36D-07 OVMax= 1.94D-04

 Cycle   9  Pass 1  IDiag  1:
 RMSU=  1.51D-06    CP:  9.76D-01  6.91D-01  8.73D-01  5.66D-01  7.53D-01
                    CP:  5.95D-01  9.70D-01  6.74D-01
 E= -307.568430685933     Delta-E=       -0.000000121682 Rises=F Damp=F
 DIIS: error= 3.95D-06 at cycle   9 NSaved=   9.
 NSaved= 9 IEnMin= 9 EnMin= -307.568430685933     IErMin= 9 ErrMin= 3.95D-06
 ErrMax= 3.95D-06  0.00D+00 EMaxC= 1.00D-01 BMatC= 2.74D-09 BMatP= 1.68D-07
 IDIUse=1 WtCom= 1.00D+00 WtEn= 0.00D+00
 Coeff-Com: -0.932D-05 0.127D-04 0.561D-03 0.836D-03 0.477D-02 0.130D-01
 Coeff-Com:  0.118D+00 0.200D+00 0.663D+00
 Coeff:     -0.932D-05 0.127D-04 0.561D-03 0.836D-03 0.477D-02 0.130D-01
 Coeff:      0.118D+00 0.200D+00 0.663D+00
 Gap=     0.155 Goal=   None    Shift=    0.000
 RMSDP=5.26D-07 MaxDP=1.92D-05 DE=-1.22D-07 OVMax= 3.62D-05

 Cycle  10  Pass 1  IDiag  1:
 RMSU=  3.25D-07    CP:  9.76D-01  6.91D-01  8.73D-01  5.66D-01  7.53D-01
                    CP:  5.98D-01  9.76D-01  6.95D-01  8.67D-01
 E= -307.568430687102     Delta-E=       -0.000000001169 Rises=F Damp=F
 DIIS: error= 3.22D-06 at cycle  10 NSaved=  10.
 NSaved=10 IEnMin=10 EnMin= -307.568430687102     IErMin=10 ErrMin= 3.22D-06
 ErrMax= 3.22D-06  0.00D+00 EMaxC= 1.00D-01 BMatC= 1.38D-09 BMatP= 2.74D-09
 IDIUse=1 WtCom= 1.00D+00 WtEn= 0.00D+00
 Coeff-Com: -0.372D-05-0.271D-04-0.506D-04-0.123D-03 0.281D-03 0.324D-02
 Coeff-Com:  0.454D-01 0.883D-01 0.445D+00 0.418D+00
 Coeff:     -0.372D-05-0.271D-04-0.506D-04-0.123D-03 0.281D-03 0.324D-02
 Coeff:      0.454D-01 0.883D-01 0.445D+00 0.418D+00
 Gap=     0.155 Goal=   None    Shift=    0.000
 RMSDP=1.94D-07 MaxDP=5.24D-06 DE=-1.17D-09 OVMax= 1.50D-05

 Cycle  11  Pass 1  IDiag  1:
 RMSU=  1.13D-07    CP:  9.76D-01  6.91D-01  8.73D-01  5.66D-01  7.53D-01
                    CP:  5.99D-01  9.79D-01  6.97D-01  8.76D-01  5.88D-01
 E= -307.568430688480     Delta-E=       -0.000000001378 Rises=F Damp=F
 DIIS: error= 4.23D-07 at cycle  11 NSaved=  11.
 NSaved=11 IEnMin=11 EnMin= -307.568430688480     IErMin=11 ErrMin= 4.23D-07
 ErrMax= 4.23D-07  0.00D+00 EMaxC= 1.00D-01 BMatC= 2.01D-11 BMatP= 1.38D-09
 IDIUse=1 WtCom= 1.00D+00 WtEn= 0.00D+00
 Coeff-Com: -0.779D-06-0.876D-05-0.477D-04-0.954D-04-0.219D-03 0.422D-03
 Coeff-Com:  0.855D-02 0.196D-01 0.119D+00 0.163D+00 0.690D+00
 Coeff:     -0.779D-06-0.876D-05-0.477D-04-0.954D-04-0.219D-03 0.422D-03
 Coeff:      0.855D-02 0.196D-01 0.119D+00 0.163D+00 0.690D+00
 Gap=     0.155 Goal=   None    Shift=    0.000
 RMSDP=5.07D-08 MaxDP=9.24D-07 DE=-1.38D-09 OVMax= 3.87D-06

 Cycle  12  Pass 1  IDiag  1:
 RMSU=  2.80D-08    CP:  9.76D-01  6.91D-01  8.73D-01  5.66D-01  7.53D-01
                    CP:  5.99D-01  9.81D-01  6.98D-01  8.85D-01  6.19D-01
                    CP:  7.73D-01
 E= -307.568430688489     Delta-E=       -0.000000000010 Rises=F Damp=F
 DIIS: error= 3.44D-07 at cycle  12 NSaved=  12.
 NSaved=12 IEnMin=12 EnMin= -307.568430688489     IErMin=12 ErrMin= 3.44D-07
 ErrMax= 3.44D-07  0.00D+00 EMaxC= 1.00D-01 BMatC= 1.15D-11 BMatP= 2.01D-11
 IDIUse=1 WtCom= 1.00D+00 WtEn= 0.00D+00
 Coeff-Com: -0.300D-06-0.417D-05-0.287D-04-0.565D-04-0.170D-03 0.739D-04
 Coeff-Com:  0.268D-02 0.753D-02 0.514D-01 0.846D-01 0.493D+00 0.361D+00
 Coeff:     -0.300D-06-0.417D-05-0.287D-04-0.565D-04-0.170D-03 0.739D-04
 Coeff:      0.268D-02 0.753D-02 0.514D-01 0.846D-01 0.493D+00 0.361D+00
 Gap=     0.155 Goal=   None    Shift=    0.000
 RMSDP=1.78D-08 MaxDP=4.12D-07 DE=-9.66D-12 OVMax= 1.90D-06

 Cycle  13  Pass 1  IDiag  1:
 RMSU=  7.95D-09    CP:  9.76D-01  6.91D-01  8.73D-01  5.66D-01  7.53D-01
                    CP:  5.99D-01  9.81D-01  6.99D-01  8.86D-01  6.10D-01
                    CP:  8.15D-01  5.08D-01
 E= -307.568430688502     Delta-E=       -0.000000000013 Rises=F Damp=F
 DIIS: error= 2.17D-08 at cycle  13 NSaved=  13.
 NSaved=13 IEnMin=13 EnMin= -307.568430688502     IErMin=13 ErrMin= 2.17D-08
 ErrMax= 2.17D-08  0.00D+00 EMaxC= 1.00D-01 BMatC= 7.46D-14 BMatP= 1.15D-11
 IDIUse=1 WtCom= 1.00D+00 WtEn= 0.00D+00
 Coeff-Com: -0.307D-07-0.508D-06-0.415D-05-0.756D-05-0.301D-04-0.259D-04
 Coeff-Com: -0.975D-04 0.432D-03 0.272D-02 0.793D-02 0.736D-01 0.973D-01
 Coeff-Com:  0.818D+00
 Coeff:     -0.307D-07-0.508D-06-0.415D-05-0.756D-05-0.301D-04-0.259D-04
 Coeff:     -0.975D-04 0.432D-03 0.272D-02 0.793D-02 0.736D-01 0.973D-01
 Coeff:      0.818D+00
 Gap=     0.155 Goal=   None    Shift=    0.000
 RMSDP=3.27D-09 MaxDP=5.02D-08 DE=-1.26D-11 OVMax= 1.14D-07

 Error on total polarization charges =  0.01219
 SCF Done:  E(RB-P86) =  -307.568430689     A.U. after   13 cycles
            NFock= 13  Conv=0.33D-08     -V/T= 2.0031
 KE= 3.066060484842D+02 PE=-1.259073457861D+03 EE= 3.738913697845D+02
 Leave Link  502 at Mon Feb 22 21:11:25 2021, MaxMem=   104857600 cpu:             214.1 elap:               6.8
 (Enter /sw/arch/RedHatEnterpriseServer7/EB_production/2019/software/Gaussian/g16.c01/l601.exe)
 Copying SCF densities to generalized density rwf, IOpCl= 0 IROHF=0.

 **********************************************************************

            Population analysis using the SCF Density.

 **********************************************************************

 Orbital symmetries:
       Occupied  (A) (A) (A) (A) (A) (A) (A) (A) (A) (A) (A) (A)
                 (A) (A) (A) (A) (A) (A) (A) (A) (A) (A) (A) (A)
                 (A)
       Virtual   (A) (A) (A) (A) (A) (A) (A) (A) (A) (A) (A) (A)
                 (A) (A) (A) (A) (A) (A) (A) (A) (A) (A) (A) (A)
                 (A) (A) (A) (A) (A) (A) (A) (A) (A) (A) (A) (A)
                 (A) (A) (A) (A) (A) (A) (A) (A) (A) (A) (A) (A)
                 (A) (A) (A) (A) (A) (A) (A) (A) (A) (A) (A) (A)
                 (A) (A) (A) (A) (A) (A) (A) (A) (A) (A) (A) (A)
                 (A) (A) (A) (A) (A) (A) (A) (A) (A) (A) (A) (A)
                 (A) (A) (A) (A) (A) (A) (A) (A) (A) (A) (A) (A)
                 (A) (A) (A) (A) (A) (A) (A) (A) (A) (A) (A) (A)
                 (A) (A) (A) (A) (A) (A) (A) (A) (A) (A) (A) (A)
                 (A) (A) (A) (A) (A) (A) (A) (A) (A) (A) (A) (A)
                 (A) (A) (A) (A) (A) (A) (A) (A) (A) (A) (A) (A)
 The electronic state is 1-A.
 Alpha  occ. eigenvalues --  -18.81011  -9.96753  -9.90262  -9.90235  -9.90024
 Alpha  occ. eigenvalues --   -9.89818  -9.89330  -0.99007  -0.77867  -0.68924
 Alpha  occ. eigenvalues --   -0.67703  -0.57813  -0.55606  -0.50501  -0.46500
 Alpha  occ. eigenvalues --   -0.42982  -0.40600  -0.38974  -0.37530  -0.35594
 Alpha  occ. eigenvalues --   -0.32942  -0.30907  -0.30673  -0.23769  -0.20784
 Alpha virt. eigenvalues --   -0.05312  -0.03643   0.02161   0.05421   0.08355
 Alpha virt. eigenvalues --    0.09229   0.09330   0.10424   0.11612   0.13040
 Alpha virt. eigenvalues --    0.15765   0.17846   0.18184   0.20198   0.20635
 Alpha virt. eigenvalues --    0.21286   0.22387   0.22413   0.23137   0.24844
 Alpha virt. eigenvalues --    0.28419   0.29897   0.29960   0.30525   0.31893
 Alpha virt. eigenvalues --    0.32411   0.34061   0.37814   0.38036   0.40704
 Alpha virt. eigenvalues --    0.41560   0.43013   0.43488   0.44411   0.46222
 Alpha virt. eigenvalues --    0.46574   0.46894   0.47807   0.47996   0.49021
 Alpha virt. eigenvalues --    0.54986   0.60174   0.61159   0.62999   0.63168
 Alpha virt. eigenvalues --    0.69635   0.71467   0.75374   0.83003   0.86806
 Alpha virt. eigenvalues --    1.08520   1.11792   1.15744   1.16988   1.17515
 Alpha virt. eigenvalues --    1.17574   1.20559   1.22807   1.23022   1.23757
 Alpha virt. eigenvalues --    1.24483   1.29284   1.31174   1.33385   1.36335
 Alpha virt. eigenvalues --    1.37936   1.38193   1.38571   1.39655   1.39724
 Alpha virt. eigenvalues --    1.42845   1.44658   1.45275   1.45632   1.45775
 Alpha virt. eigenvalues --    1.47034   1.47865   1.55112   1.68954   1.71332
 Alpha virt. eigenvalues --    1.73173   1.73485   1.74364   1.75500   1.80695
 Alpha virt. eigenvalues --    1.81079   1.81582   1.83721   1.83761   1.86622
 Alpha virt. eigenvalues --    1.90737   1.95477   1.95580   1.98893   1.99109
 Alpha virt. eigenvalues --    2.10240   2.13738   2.19321   2.20337   2.21141
 Alpha virt. eigenvalues --    2.21878   2.22136   2.23840   2.30306   2.31795
 Alpha virt. eigenvalues --    2.42144   2.43982   2.48073   2.49818   2.50280
 Alpha virt. eigenvalues --    2.51311   2.53268   2.56653   2.59510   2.65289
 Alpha virt. eigenvalues --    2.67619   2.72276   2.73279   2.84007   2.84109
 Alpha virt. eigenvalues --    2.89227   2.89243   2.99020   2.99981   3.03357
 Alpha virt. eigenvalues --    3.05307   3.06506   3.08290   3.12269   3.20975
 Alpha virt. eigenvalues --    3.21884   3.32292   3.33986   3.43098   3.65649
 Alpha virt. eigenvalues --    3.97122   4.19201  21.08440  21.62797  21.63547
 Alpha virt. eigenvalues --   21.82625  21.83786  21.97337  43.14466
          Condensed to atoms (all electrons):
               1          2          3          4          5          6
     1  O    7.780114   0.365705  -0.075357   0.006850  -0.001414   0.017549
     2  C    0.365705   5.020577   0.410223  -0.008425  -0.114369   0.105065
     3  C   -0.075357   0.410223   5.218376   0.441169  -0.008685  -0.084516
     4  C    0.006850  -0.008425   0.441169   4.995312   0.416515  -0.009101
     5  C   -0.001414  -0.114369  -0.008685   0.416515   5.156689   0.376359
     6  C    0.017549   0.105065  -0.084516  -0.009101   0.376359   5.226405
     7  C   -0.111031   0.218485  -0.037889  -0.106168   0.044139   0.118065
     8  H    0.303673  -0.024386   0.011426  -0.000747  -0.000501   0.006587
     9  H    0.004375  -0.072462   0.428140  -0.044143   0.015427  -0.005664
    10  H   -0.000112   0.019827  -0.069069   0.451892  -0.065732   0.016573
    11  H    0.000000  -0.001719   0.012430  -0.054266   0.432581  -0.056494
    12  H   -0.000071   0.009385  -0.000401   0.011050  -0.050930   0.430826
    13  H   -0.006250  -0.058569   0.008203   0.000262   0.009827  -0.027084
               7          8          9         10         11         12
     1  O   -0.111031   0.303673   0.004375  -0.000112   0.000000  -0.000071
     2  C    0.218485  -0.024386  -0.072462   0.019827  -0.001719   0.009385
     3  C   -0.037889   0.011426   0.428140  -0.069069   0.012430  -0.000401
     4  C   -0.106168  -0.000747  -0.044143   0.451892  -0.054266   0.011050
     5  C    0.044139  -0.000501   0.015427  -0.065732   0.432581  -0.050930
     6  C    0.118065   0.006587  -0.005664   0.016573  -0.056494   0.430826
     7  C    5.739901  -0.028294   0.019719  -0.004946   0.016373  -0.048464
     8  H   -0.028294   0.425857  -0.000824   0.000034  -0.000008  -0.000047
     9  H    0.019719  -0.000824   0.506846  -0.007962  -0.000192   0.000026
    10  H   -0.004946   0.000034  -0.007962   0.519011  -0.006081  -0.000233
    11  H    0.016373  -0.000008  -0.000192  -0.006081   0.511762  -0.005486
    12  H   -0.048464  -0.000047   0.000026  -0.000233  -0.005486   0.509084
    13  H    0.420306   0.000736  -0.000134  -0.000009  -0.000242  -0.004170
              13
     1  O   -0.006250
     2  C   -0.058569
     3  C    0.008203
     4  C    0.000262
     5  C    0.009827
     6  C   -0.027084
     7  C    0.420306
     8  H    0.000736
     9  H   -0.000134
    10  H   -0.000009
    11  H   -0.000242
    12  H   -0.004170
    13  H    0.495745
 Mulliken charges:
               1
     1  O   -0.284033
     2  C    0.130663
     3  C   -0.254049
     4  C   -0.100200
     5  C   -0.209906
     6  C   -0.114571
     7  C   -0.240198
     8  H    0.306492
     9  H    0.156848
    10  H    0.146807
    11  H    0.151341
    12  H    0.149429
    13  H    0.161377
 Sum of Mulliken charges =  -0.00000
 Mulliken charges with hydrogens summed into heavy atoms:
               1
     1  O    0.022459
     2  C    0.130663
     3  C   -0.097202
     4  C    0.046607
     5  C   -0.058565
     6  C    0.034858
     7  C   -0.078821
 Electronic spatial extent (au):  <R**2>=            666.1868
 Charge=             -0.0000 electrons
 Dipole moment (field-independent basis, Debye):
    X=              0.0935    Y=              1.7944    Z=              0.0000  Tot=              1.7968
 Quadrupole moment (field-independent basis, Debye-Ang):
   XX=            -37.1020   YY=            -34.9235   ZZ=            -45.2691
   XY=              5.1378   XZ=             -0.0000   YZ=             -0.0000
 Traceless Quadrupole moment (field-independent basis, Debye-Ang):
   XX=              1.9962   YY=              4.1747   ZZ=             -6.1709
   XY=              5.1378   XZ=             -0.0000   YZ=             -0.0000
 Octapole moment (field-independent basis, Debye-Ang**2):
  XXX=              6.4996  YYY=              1.7829  ZZZ=              0.0000  XYY=              4.6016
  XXY=             14.2172  XXZ=              0.0001  XZZ=              5.7569  YZZ=              0.2411
  YYZ=              0.0000  XYZ=              0.0000
 Hexadecapole moment (field-independent basis, Debye-Ang**3):
 XXXX=           -484.2383 YYYY=           -268.3763 ZZZZ=            -51.9062 XXXY=             40.4625
 XXXZ=             -0.0002 YYYX=              4.9371 YYYZ=             -0.0001 ZZZX=             -0.0000
 ZZZY=             -0.0000 XXYY=           -117.2524 XXZZ=           -104.6662 YYZZ=            -65.2796
 XXYZ=             -0.0000 YYXZ=             -0.0001 ZZXY=              0.8418
 N-N= 2.710076089042D+02 E-N=-1.259073458510D+03  KE= 3.066060484842D+02
 No NMR shielding tensors so no spin-rotation constants.
 Leave Link  601 at Mon Feb 22 21:11:25 2021, MaxMem=   104857600 cpu:               3.2 elap:               0.1
 (Enter /sw/arch/RedHatEnterpriseServer7/EB_production/2019/software/Gaussian/g16.c01/l701.exe)
 ... and contract with generalized density number  0.
 Compute integral first derivatives.
 R6Disp: Adding Grimme-D3 dispersion energy 1st derivatives to the gradient.
 PrsmSu:  requested number of processors reduced to:  30 ShMem   1 Linda.
 D1PCM: PCM CHGder 1st derivatives, ID1Alg=3 FixD1E=F DoIter=F DoCFld=F I1PDM=0.
 GePol: Maximum number of non-zero 1st derivatives   =     199
 CoulSu:  requested number of processors reduced to:  29 ShMem   1 Linda.
 CoulSu:  requested number of processors reduced to:  30 ShMem   1 Linda.
 Leave Link  701 at Mon Feb 22 21:11:26 2021, MaxMem=   104857600 cpu:              15.4 elap:               0.5
 (Enter /sw/arch/RedHatEnterpriseServer7/EB_production/2019/software/Gaussian/g16.c01/l702.exe)
 L702 exits ... SP integral derivatives will be done elsewhere.
 Leave Link  702 at Mon Feb 22 21:11:26 2021, MaxMem=   104857600 cpu:               0.6 elap:               0.0
 (Enter /sw/arch/RedHatEnterpriseServer7/EB_production/2019/software/Gaussian/g16.c01/l703.exe)
 Integral derivatives from FoFJK, PRISM(SPDF).
 Compute integral first derivatives, UseDBF=F ICtDFT=           0.
 Calling FoFJK, ICntrl=      2527 FMM=F ISym2X=0 I1Cent= 0 IOpClX= 0 NMat=1 NMatS=1 NMatT=0.
 FoFJK:  IHMeth= 1 ICntrl=    2527 DoSepK=F KAlg= 0 I1Cent=           0 FoldK=F
 IRaf=         0 NMat=       1 IRICut=       1 DoRegI=T DoRafI=F ISym2E= 0 IDoP0=0 IntGTp=1.
 FoFCou: FMM=F IPFlag=           0 FMFlag=      100000 FMFlg1=         800
         NFxFlg=           0 DoJE=F BraDBF=F KetDBF=F FulRan=T
         wScrn=  0.000000 ICntrl=      2527 IOpCl=  0 I1Cent=           0 NGrid=           0
         NMat0=    1 NMatS0=      1 NMatT0=    0 NMatD0=    1 NMtDS0=    0 NMtDT0=    0
 Symmetry not used in FoFCou.
 Leave Link  703 at Mon Feb 22 21:11:27 2021, MaxMem=   104857600 cpu:              25.9 elap:               0.9
 (Enter /sw/arch/RedHatEnterpriseServer7/EB_production/2019/software/Gaussian/g16.c01/l716.exe)
 Dipole        = 3.67911839D-02 7.05977170D-01 2.30544307D-06
 ***** Axes restored to original set *****
 -------------------------------------------------------------------
 Center     Atomic                   Forces (Hartrees/Bohr)
 Number     Number              X              Y              Z
 -------------------------------------------------------------------
      1        8          -0.003039826   -0.011345595    0.001487377
      2        6           0.013382638    0.018400408    0.003720302
      3        6           0.043977150    0.002082432    0.031230831
      4        6           0.017000953   -0.057001933    0.030890057
      5        6          -0.031094252   -0.046580459   -0.007398534
      6        6          -0.052257446    0.000913417   -0.038213636
      7        6          -0.011759976    0.054288172   -0.026204205
      8        1          -0.006326632   -0.001493515   -0.004104190
      9        1          -0.044833276   -0.000427349   -0.032390393
     10        1          -0.015218724    0.046124358   -0.026056216
     11        1           0.030740037    0.046110051    0.007294727
     12        1           0.044730300   -0.002179130    0.033164147
     13        1           0.014699054   -0.048890856    0.026579733
 -------------------------------------------------------------------
 Cartesian Forces:  Max     0.057001933 RMS     0.029928239
 Leave Link  716 at Mon Feb 22 21:11:27 2021, MaxMem=   104857600 cpu:               1.0 elap:               0.1
 (Enter /sw/arch/RedHatEnterpriseServer7/EB_production/2019/software/Gaussian/g16.c01/l103.exe)

 GradGradGradGradGradGradGradGradGradGradGradGradGradGradGradGradGradGrad
 Berny optimization.
 FormGI is forming the generalized inverse of G from B-inverse, IUseBI=4.
 Internal  Forces:  Max     0.057557060 RMS     0.016807755
 Search for a local minimum.
 Step number   1 out of a maximum of   68
 All quantities printed in internal units (Hartrees-Bohrs-Radians)
 RMS Force = .16808D-01 SwitMx=.10000D-02 MixMth= 1
 Mixed Optimization -- RFO/linear search
 Second derivative matrix not updated -- first step.
 ITU=  0
     Eigenvalues ---    0.01958   0.01967   0.01972   0.01977   0.01979
     Eigenvalues ---    0.01988   0.01988   0.01990   0.02013   0.02248
     Eigenvalues ---    0.16000   0.16000   0.16000   0.16000   0.16000
     Eigenvalues ---    0.16000   0.22000   0.22000   0.23481   0.25000
     Eigenvalues ---    0.40332   0.40534   0.43969   0.44002   0.44020
     Eigenvalues ---    0.44082   0.44110   0.44152   0.44240   0.44281
     Eigenvalues ---    0.44388   0.51285   0.53356
 RFO step:  Lambda=-3.50615508D-02 EMin= 1.95798516D-02
 Linear search not attempted -- first point.
 Iteration  1 RMS(Cart)=  0.04074728 RMS(Int)=  0.00084635
 Iteration  2 RMS(Cart)=  0.00092405 RMS(Int)=  0.00000336
 Iteration  3 RMS(Cart)=  0.00000017 RMS(Int)=  0.00000336
 ITry= 1 IFail=0 DXMaxC= 1.30D-01 DCOld= 1.00D+10 DXMaxT= 3.00D-01 DXLimC= 3.00D+00 Rises=F
 Variable       Old X    -DE/DX   Delta X   Delta X   Delta X     New X
                                 (Linear)    (Quad)   (Total)
    R1        2.56623   0.01609   0.00000   0.02830   0.02830   2.59453
    R2        1.85290  -0.00390   0.00000  -0.00712  -0.00712   1.84578
    R3        2.66256  -0.00534   0.00000  -0.01115  -0.01115   2.65141
    R4        2.66608  -0.00267   0.00000  -0.00547  -0.00548   2.66060
    R5        2.66216  -0.00717   0.00000  -0.01512  -0.01512   2.64705
    R6        1.93191   0.05527   0.00000   0.11643   0.11643   2.04834
    R7        2.66033  -0.00422   0.00000  -0.00897  -0.00896   2.65137
    R8        1.93153   0.05510   0.00000   0.11598   0.11598   2.04751
    R9        2.65932  -0.00470   0.00000  -0.00986  -0.00986   2.64946
   R10        1.93023   0.05590   0.00000   0.11739   0.11739   2.04762
   R11        2.66050  -0.00665   0.00000  -0.01379  -0.01379   2.64670
   R12        1.93057   0.05572   0.00000   0.11709   0.11709   2.04765
   R13        1.92973   0.05756   0.00000   0.12077   0.12077   2.05050
    A1        1.84723   0.01228   0.00000   0.06296   0.06296   1.91019
    A2        2.08500  -0.00786   0.00000  -0.02782  -0.02782   2.05718
    A3        2.11170   0.00616   0.00000   0.02136   0.02137   2.13307
    A4        2.08649   0.00171   0.00000   0.00646   0.00645   2.09294
    A5        2.09983  -0.00256   0.00000  -0.00999  -0.00999   2.08984
    A6        2.09585  -0.00067   0.00000  -0.00502  -0.00502   2.09083
    A7        2.08750   0.00323   0.00000   0.01501   0.01501   2.10252
    A8        2.09300   0.00323   0.00000   0.01232   0.01233   2.10533
    A9        2.09662  -0.00296   0.00000  -0.01303  -0.01304   2.08358
   A10        2.09356  -0.00028   0.00000   0.00071   0.00071   2.09427
   A11        2.09405  -0.00236   0.00000  -0.00951  -0.00950   2.08455
   A12        2.09468   0.00128   0.00000   0.00530   0.00530   2.09997
   A13        2.09445   0.00107   0.00000   0.00421   0.00421   2.09866
   A14        2.09525   0.00146   0.00000   0.00593   0.00593   2.10118
   A15        2.09483   0.00016   0.00000   0.00161   0.00161   2.09644
   A16        2.09310  -0.00162   0.00000  -0.00754  -0.00754   2.08557
   A17        2.09775  -0.00148   0.00000  -0.00520  -0.00521   2.09254
   A18        2.09322   0.00047   0.00000   0.00120   0.00120   2.09442
   A19        2.09222   0.00102   0.00000   0.00401   0.00401   2.09623
    D1        3.14159  -0.00000   0.00000   0.00000   0.00000   3.14159
    D2       -0.00000   0.00000   0.00000   0.00000   0.00000  -0.00000
    D3        3.14159   0.00000   0.00000   0.00000   0.00000   3.14159
    D4        0.00000  -0.00000   0.00000  -0.00000  -0.00000  -0.00000
    D5       -0.00000   0.00000   0.00000   0.00000   0.00000  -0.00000
    D6       -3.14159  -0.00000   0.00000  -0.00000  -0.00000  -3.14159
    D7       -3.14159  -0.00000   0.00000  -0.00000  -0.00000  -3.14159
    D8        0.00001  -0.00000   0.00000  -0.00000  -0.00000   0.00000
    D9        0.00000  -0.00000   0.00000  -0.00000  -0.00000   0.00000
   D10       -3.14159  -0.00000   0.00000  -0.00000  -0.00000  -3.14159
   D11        0.00000  -0.00000   0.00000  -0.00000  -0.00000   0.00000
   D12       -3.14158  -0.00000   0.00000  -0.00000  -0.00000  -3.14159
   D13        3.14159   0.00000   0.00000   0.00000   0.00000   3.14159
   D14        0.00000  -0.00000   0.00000  -0.00000  -0.00000   0.00000
   D15       -0.00000   0.00000   0.00000   0.00000   0.00000  -0.00000
   D16       -3.14159  -0.00000   0.00000  -0.00000  -0.00000  -3.14159
   D17        3.14159   0.00000   0.00000   0.00000   0.00000   3.14159
   D18       -0.00000   0.00000   0.00000   0.00000   0.00000  -0.00000
   D19       -0.00000   0.00000   0.00000   0.00000   0.00000  -0.00000
   D20        3.14159  -0.00000   0.00000  -0.00000  -0.00000   3.14159
   D21        3.14159   0.00000   0.00000   0.00000   0.00000   3.14159
   D22       -0.00000   0.00000   0.00000   0.00000   0.00000  -0.00000
   D23       -0.00000  -0.00000   0.00000  -0.00000  -0.00000  -0.00000
   D24        3.14159   0.00000   0.00000   0.00000   0.00000   3.14159
   D25        3.14159   0.00000   0.00000   0.00000   0.00000   3.14159
   D26       -0.00000   0.00000   0.00000   0.00000   0.00000  -0.00000
         Item               Value     Threshold  Converged?
 Maximum Force            0.057557     0.000450     NO 
 RMS     Force            0.016808     0.000300     NO 
 Maximum Displacement     0.129671     0.001800     NO 
 RMS     Displacement     0.040825     0.001200     NO 
 Predicted change in Energy=-1.887834D-02
 Lowest energy point so far.  Saving SCF results.
 GradGradGradGradGradGradGradGradGradGradGradGradGradGradGradGradGradGrad

 Leave Link  103 at Mon Feb 22 21:11:28 2021, MaxMem=   104857600 cpu:               5.6 elap:               0.2
 (Enter /sw/arch/RedHatEnterpriseServer7/EB_production/2019/software/Gaussian/g16.c01/l202.exe)
                          Input orientation:                          
 ---------------------------------------------------------------------
 Center     Atomic      Atomic             Coordinates (Angstroms)
 Number     Number       Type             X           Y           Z
 ---------------------------------------------------------------------
      1          8           0       -0.963612   -1.038462    0.154894
      2          6           0       -0.183721    0.072914    0.358987
      3          6           0       -0.550045    1.259947   -0.293202
      4          6           0        0.217958    2.417410   -0.112731
      5          6           0        1.351048    2.401597    0.714550
      6          6           0        1.713307    1.213165    1.364241
      7          6           0        0.952196    0.050348    1.190515
      8          1           0       -0.599679   -1.788911    0.663231
      9          1           0       -1.424935    1.275111   -0.932928
     10          1           0       -0.070215    3.330888   -0.619164
     11          1           0        1.941563    3.299854    0.850618
     12          1           0        2.586281    1.188496    2.005673
     13          1           0        1.236755   -0.866907    1.695557
 ---------------------------------------------------------------------
                    Distance matrix (angstroms):
                    1          2          3          4          5
     1  O    0.000000
     2  C    1.372967   0.000000
     3  C    2.377921   1.403065   0.000000
     4  C    3.662073   2.424980   1.400757   0.000000
     5  C    4.183882   2.811531   2.435792   1.403046   0.000000
     6  C    3.701113   2.430931   2.805721   2.422339   1.402035
     7  C    2.434818   1.407927   2.433367   2.800096   2.431871
     8  H    0.976743   1.931832   3.195740   4.354742   4.622588
     9  H    2.597844   2.157530   1.083933   2.162560   3.418952
    10  H    4.526427   3.403536   2.150648   1.083494   2.159251
    11  H    5.267358   3.895085   3.417259   2.162768   1.083554
    12  H    4.581098   3.410134   3.889277   3.406879   2.159725
    13  H    2.691596   2.165049   3.416332   3.885176   3.414462
                    6          7          8          9         10
     6  C    0.000000
     7  C    1.400576   0.000000
     8  H    3.854060   2.463578   0.000000
     9  H    3.889651   3.414646   3.552042   0.000000
    10  H    3.405819   3.883582   5.304451   2.481921   0.000000
    11  H    2.161061   3.413747   5.691094   4.314387   2.491681
    12  H    1.083571   2.151765   4.562613   4.973201   4.305414
    13  H    2.159530   1.085079   2.299626   4.310658   4.968660
                   11         12         13
    11  H    0.000000
    12  H    2.491515   0.000000
    13  H    4.309591   2.478320   0.000000
 Stoichiometry    C6H6O
 Framework group  C1[X(C6H6O)]
 Deg. of freedom    33
 Full point group                 C1      NOp   1
 RotChk:  IX=0 Diff= 1.56D-02
 Largest Abelian subgroup         C1      NOp   1
 Largest concise Abelian subgroup C1      NOp   1
                         Standard orientation:                         
 ---------------------------------------------------------------------
 Center     Atomic      Atomic             Coordinates (Angstroms)
 Number     Number       Type             X           Y           Z
 ---------------------------------------------------------------------
      1          8           0        2.317158   -0.112961    0.000002
      2          6           0        0.946613   -0.031436   -0.000000
      3          6           0        0.218285   -1.230656   -0.000002
      4          6           0       -1.181971   -1.193184   -0.000000
      5          6           0       -1.864183    0.032836    0.000001
      6          6           0       -1.132238    1.228644   -0.000000
      7          6           0        0.268088    1.202202   -0.000001
      8          1           0        2.696448    0.787131    0.000001
      9          1           0        0.742667   -2.179305   -0.000002
     10          1           0       -1.738609   -2.122761    0.000003
     11          1           0       -2.947489    0.056020    0.000004
     12          1           0       -1.647816    2.181696    0.000000
     13          1           0        0.829975    2.130469   -0.000003
 ---------------------------------------------------------------------
 Rotational constants (GHZ):           5.6016207           2.5912241           1.7716745
 Leave Link  202 at Mon Feb 22 21:11:28 2021, MaxMem=   104857600 cpu:               0.5 elap:               0.0
 (Enter /sw/arch/RedHatEnterpriseServer7/EB_production/2019/software/Gaussian/g16.c01/l301.exe)
 Standard basis: TZVP (5D, 7F)
 Ernie: Thresh=  0.10000D-02 Tol=  0.10000D-05 Strict=F.
 There are   176 symmetry adapted cartesian basis functions of A   symmetry.
 There are   169 symmetry adapted basis functions of A   symmetry.
   169 basis functions,   293 primitive gaussians,   176 cartesian basis functions
    25 alpha electrons       25 beta electrons
       nuclear repulsion energy       269.7188983572 Hartrees.
 IExCor=  404 DFT=T Ex=B Corr=P86 ExCW=0 ScaHFX=  0.000000
 ScaDFX=  1.000000  1.000000  1.000000  1.000000 ScalE2=  1.000000  1.000000
 IRadAn=      5 IRanWt=     -1 IRanGd=            0 ICorTp=0 IEmpDi=131
 NAtoms=   13 NActive=   13 NUniq=   13 SFac= 1.00D+00 NAtFMM=   60 NAOKFM=F Big=F
 Integral buffers will be    131072 words long.
 Raffenetti 2 integral format.
 Two-electron integral symmetry is turned on.
 R6Disp:  Grimme-D3 Dispersion energy=       -0.0075773568 Hartrees.
 Nuclear repulsion after empirical dispersion term =      269.7113210004 Hartrees.
 ------------------------------------------------------------------------------
 Polarizable Continuum Model (PCM)
 =================================
 Model                : PCM.
 Atomic radii         : UFF (Universal Force Field).
 Polarization charges : Total charges.
 Charge compensation  : None.
 Solution method      : On-the-fly selection.
 Cavity type          : Scaled VdW (van der Waals Surface) (Alpha=1.100).
 Cavity algorithm     : GePol (No added spheres)
                        Default sphere list used, NSphG=   13.
                        Lebedev-Laikov grids with approx.  5.0 points / Ang**2.
                        Smoothing algorithm: York/Karplus (Gamma=1.0000).
                        Polarization charges: spherical gaussians, with
                                              point-specific exponents (IZeta= 3).
                        Self-potential: point-specific (ISelfS= 7).
                        Self-field    : sphere-specific E.n sum rule (ISelfD= 2).
 1st derivatives      : Analytical E(r).r(x)/FMM algorithm (CHGder, D1EAlg=3).
                        Cavity 1st derivative terms included.
 Solvent              : Water, Eps=  78.355300 Eps(inf)=   1.777849
 ------------------------------------------------------------------------------
 Spheres list:
 ISph  on   Nord     Re0    Alpha      Xe            Ye            Ze
    1   O      1    1.7500  1.100      2.317158     -0.112961      0.000002
    2   C      2    1.9255  1.100      0.946613     -0.031436     -0.000000
    3   C      3    1.9255  1.100      0.218285     -1.230656     -0.000002
    4   C      4    1.9255  1.100     -1.181971     -1.193184     -0.000000
    5   C      5    1.9255  1.100     -1.864183      0.032836      0.000001
    6   C      6    1.9255  1.100     -1.132238      1.228644     -0.000000
    7   C      7    1.9255  1.100      0.268088      1.202202     -0.000001
    8   H      8    1.4430  1.100      2.696448      0.787131      0.000001
    9   H      9    1.4430  1.100      0.742667     -2.179305     -0.000002
   10   H     10    1.4430  1.100     -1.738609     -2.122761      0.000003
   11   H     11    1.4430  1.100     -2.947489      0.056020      0.000004
   12   H     12    1.4430  1.100     -1.647816      2.181696      0.000000
   13   H     13    1.4430  1.100      0.829975      2.130469     -0.000003
 ------------------------------------------------------------------------------
 GePol: Number of generator spheres                  =      13
 GePol: Total number of spheres                      =      13
 GePol: Number of exposed spheres                    =      13 (100.00%)
 GePol: Number of points                             =    1159
 GePol: Average weight of points                     =       0.13
 GePol: Minimum weight of points                     =   0.45D-11
 GePol: Maximum weight of points                     =    0.20577
 GePol: Number of points with low weight             =      56
 GePol: Fraction of low-weight points (<1% of avg)   =       4.83%
 GePol: Cavity surface area                          =    154.937 Ang**2
 GePol: Cavity volume                                =    147.344 Ang**3
 Leave Link  301 at Mon Feb 22 21:11:28 2021, MaxMem=   104857600 cpu:               1.8 elap:               0.1
 (Enter /sw/arch/RedHatEnterpriseServer7/EB_production/2019/software/Gaussian/g16.c01/l302.exe)
 NPDir=0 NMtPBC=     1 NCelOv=     1 NCel=       1 NClECP=     1 NCelD=      1
         NCelK=      1 NCelE2=     1 NClLst=     1 CellRange=     0.0.
 One-electron integrals computed using PRISM.
 One-electron integral symmetry used in STVInt
 PrsmSu:  requested number of processors reduced to:  29 ShMem   1 Linda.
 NBasis=   169 RedAO= T EigKep=  1.20D-05  NBF=   169
 NBsUse=   169 1.00D-06 EigRej= -1.00D+00 NBFU=   169
 Precomputing XC quadrature grid using
 IXCGrd= 4 IRadAn=           5 IRanWt=          -1 IRanGd=           0 AccXCQ= 0.00D+00.
 Generated NRdTot=       0 NPtTot=           0 NUsed=           0 NTot=          32
 NSgBfM=   175   175   175   175   175 MxSgAt=    13 MxSgA2=    13.
 Leave Link  302 at Mon Feb 22 21:11:28 2021, MaxMem=   104857600 cpu:               4.9 elap:               0.2
 (Enter /sw/arch/RedHatEnterpriseServer7/EB_production/2019/software/Gaussian/g16.c01/l303.exe)
 DipDrv:  MaxL=1.
 Leave Link  303 at Mon Feb 22 21:11:28 2021, MaxMem=   104857600 cpu:               2.1 elap:               0.1
 (Enter /sw/arch/RedHatEnterpriseServer7/EB_production/2019/software/Gaussian/g16.c01/l401.exe)
 Initial guess from the checkpoint file:  "ISWSIDIOOBJBQZ-UHFFFAOYSA-N.chk"
 B after Tr=    -0.000000    0.000000    0.000000
         Rot=    0.999985   -0.000000    0.000000   -0.005545 Ang=  -0.64 deg.
 Guess basis will be translated and rotated to current coordinates.
 JPrj=2 DoOrth=T DoCkMO=T.
 Generating alternative initial guess.
 ExpMin= 9.52D-02 ExpMax= 2.70D+04 ExpMxC= 9.22D+02 IAcc=3 IRadAn=         5 AccDes= 0.00D+00
 Harris functional with IExCor=  404 and IRadAn=       5 diagonalized for initial guess.
 HarFok:  IExCor=  404 AccDes= 0.00D+00 IRadAn=         5 IDoV= 1 UseB2=F ITyADJ=14
 ICtDFT=  3500011 ScaDFX=  1.000000  1.000000  1.000000  1.000000
 FoFCou: FMM=F IPFlag=           0 FMFlag=      100000 FMFlg1=           0
         NFxFlg=           0 DoJE=T BraDBF=F KetDBF=T FulRan=T
         wScrn=  0.000000 ICntrl=       500 IOpCl=  0 I1Cent=   200000004 NGrid=           0
         NMat0=    1 NMatS0=      1 NMatT0=    0 NMatD0=    1 NMtDS0=    0 NMtDT0=    0
 Petite list used in FoFCou.
 Harris En= -307.709870736714    
 Leave Link  401 at Mon Feb 22 21:11:28 2021, MaxMem=   104857600 cpu:               9.5 elap:               0.3
 (Enter /sw/arch/RedHatEnterpriseServer7/EB_production/2019/software/Gaussian/g16.c01/l502.exe)
 Integral symmetry usage will be decided dynamically.
 Closed shell SCF:
 Using DIIS extrapolation, IDIIS=  1040.
 NGot=   104857600 LenX=   104787862 LenY=   104756445
 Requested convergence on RMS density matrix=1.00D-08 within 128 cycles.
 Requested convergence on MAX density matrix=1.00D-06.
 Requested convergence on             energy=1.00D-06.
 No special actions if energy rises.
 Fock matrices will be formed incrementally for  20 cycles.

 Cycle   1  Pass 1  IDiag  1:
 FoFJK:  IHMeth= 1 ICntrl=     500 DoSepK=F KAlg= 0 I1Cent=           0 FoldK=F
 IRaf= 960000000 NMat=       1 IRICut=       1 DoRegI=T DoRafI=F ISym2E= 0 IDoP0=0 IntGTp=1.
 FoFCou: FMM=F IPFlag=           0 FMFlag=      100000 FMFlg1=           0
         NFxFlg=           0 DoJE=T BraDBF=F KetDBF=F FulRan=T
         wScrn=  0.000000 ICntrl=       500 IOpCl=  0 I1Cent=           0 NGrid=           0
         NMat0=    1 NMatS0=      1 NMatT0=    0 NMatD0=    1 NMtDS0=    0 NMtDT0=    0
 Symmetry not used in FoFCou.
 Inv3:  Mode=1 IEnd=     4029843.
 Iteration    1 A*A^-1 deviation from unit magnitude is 2.89D-15 for     78.
 Iteration    1 A*A^-1 deviation from orthogonality  is 2.99D-15 for    823     79.
 Iteration    1 A^-1*A deviation from unit magnitude is 2.66D-15 for    248.
 Iteration    1 A^-1*A deviation from orthogonality  is 2.44D-15 for    918    367.
 E= -307.582819745578    
 DIIS: error= 4.26D-03 at cycle   1 NSaved=   1.
 NSaved= 1 IEnMin= 1 EnMin= -307.582819745578     IErMin= 1 ErrMin= 4.26D-03
 ErrMax= 4.26D-03  0.00D+00 EMaxC= 1.00D-01 BMatC= 3.98D-03 BMatP= 3.98D-03
 IDIUse=3 WtCom= 9.57D-01 WtEn= 4.26D-02
 Coeff-Com:  0.100D+01
 Coeff-En:   0.100D+01
 Coeff:      0.100D+01
 Gap=     0.616 Goal=   None    Shift=    0.000
 GapD=    0.616 DampG=2.000 DampE=1.000 DampFc=2.0000 IDamp=-1.
 RMSDP=8.14D-04 MaxDP=1.32D-02              OVMax= 1.88D-02

 Cycle   2  Pass 1  IDiag  1:
 RMSU=  8.07D-04    CP:  9.93D-01
 E= -307.586463680837     Delta-E=       -0.003643935259 Rises=F Damp=F
 DIIS: error= 1.86D-03 at cycle   2 NSaved=   2.
 NSaved= 2 IEnMin= 2 EnMin= -307.586463680837     IErMin= 2 ErrMin= 1.86D-03
 ErrMax= 1.86D-03  0.00D+00 EMaxC= 1.00D-01 BMatC= 3.45D-04 BMatP= 3.98D-03
 IDIUse=3 WtCom= 9.81D-01 WtEn= 1.86D-02
 Coeff-Com:  0.156D+00 0.844D+00
 Coeff-En:   0.000D+00 0.100D+01
 Coeff:      0.153D+00 0.847D+00
 Gap=     0.156 Goal=   None    Shift=    0.000
 RMSDP=2.06D-04 MaxDP=3.54D-03 DE=-3.64D-03 OVMax= 1.62D-02

 Cycle   3  Pass 1  IDiag  1:
 RMSU=  2.05D-04    CP:  9.94D-01  9.94D-01
 E= -307.586470643721     Delta-E=       -0.000006962884 Rises=F Damp=F
 DIIS: error= 1.53D-03 at cycle   3 NSaved=   3.
 NSaved= 3 IEnMin= 3 EnMin= -307.586470643721     IErMin= 3 ErrMin= 1.53D-03
 ErrMax= 1.53D-03  0.00D+00 EMaxC= 1.00D-01 BMatC= 3.50D-04 BMatP= 3.45D-04
 IDIUse=3 WtCom= 9.85D-01 WtEn= 1.53D-02
 Coeff-Com:  0.500D-01 0.503D+00 0.447D+00
 Coeff-En:   0.000D+00 0.495D+00 0.505D+00
 Coeff:      0.492D-01 0.503D+00 0.448D+00
 Gap=     0.158 Goal=   None    Shift=    0.000
 RMSDP=1.19D-04 MaxDP=3.41D-03 DE=-6.96D-06 OVMax= 1.31D-02

 Cycle   4  Pass 1  IDiag  1:
 RMSU=  8.65D-05    CP:  9.93D-01  1.03D+00  6.30D-01
 E= -307.586791125137     Delta-E=       -0.000320481416 Rises=F Damp=F
 DIIS: error= 6.34D-04 at cycle   4 NSaved=   4.
 NSaved= 4 IEnMin= 4 EnMin= -307.586791125137     IErMin= 4 ErrMin= 6.34D-04
 ErrMax= 6.34D-04  0.00D+00 EMaxC= 1.00D-01 BMatC= 4.45D-05 BMatP= 3.45D-04
 IDIUse=3 WtCom= 9.94D-01 WtEn= 6.34D-03
 Coeff-Com:  0.803D-02 0.202D+00 0.284D+00 0.506D+00
 Coeff-En:   0.000D+00 0.000D+00 0.109D+00 0.891D+00
 Coeff:      0.798D-02 0.201D+00 0.283D+00 0.508D+00
 Gap=     0.157 Goal=   None    Shift=    0.000
 RMSDP=6.73D-05 MaxDP=2.43D-03 DE=-3.20D-04 OVMax= 4.30D-03

 Cycle   5  Pass 1  IDiag  1:
 RMSU=  3.33D-05    CP:  9.94D-01  9.96D-01  6.49D-01  4.17D-01
 E= -307.586832681837     Delta-E=       -0.000041556701 Rises=F Damp=F
 DIIS: error= 2.54D-04 at cycle   5 NSaved=   5.
 NSaved= 5 IEnMin= 5 EnMin= -307.586832681837     IErMin= 5 ErrMin= 2.54D-04
 ErrMax= 2.54D-04  0.00D+00 EMaxC= 1.00D-01 BMatC= 5.23D-06 BMatP= 4.45D-05
 IDIUse=3 WtCom= 9.97D-01 WtEn= 2.54D-03
 Coeff-Com:  0.977D-03 0.888D-01 0.147D+00 0.328D+00 0.435D+00
 Coeff-En:   0.000D+00 0.000D+00 0.000D+00 0.678D-01 0.932D+00
 Coeff:      0.975D-03 0.886D-01 0.147D+00 0.327D+00 0.437D+00
 Gap=     0.158 Goal=   None    Shift=    0.000
 RMSDP=2.51D-05 MaxDP=1.18D-03 DE=-4.16D-05 OVMax= 1.11D-03

 Cycle   6  Pass 1  IDiag  1:
 RMSU=  8.93D-06    CP:  9.93D-01  1.01D+00  6.44D-01  5.62D-01  5.02D-01
 E= -307.586837649837     Delta-E=       -0.000004967999 Rises=F Damp=F
 DIIS: error= 5.84D-05 at cycle   6 NSaved=   6.
 NSaved= 6 IEnMin= 6 EnMin= -307.586837649837     IErMin= 6 ErrMin= 5.84D-05
 ErrMax= 5.84D-05  0.00D+00 EMaxC= 1.00D-01 BMatC= 2.80D-07 BMatP= 5.23D-06
 IDIUse=1 WtCom= 1.00D+00 WtEn= 0.00D+00
 Coeff-Com: -0.429D-03 0.234D-01 0.435D-01 0.108D+00 0.238D+00 0.587D+00
 Coeff:     -0.429D-03 0.234D-01 0.435D-01 0.108D+00 0.238D+00 0.587D+00
 Gap=     0.158 Goal=   None    Shift=    0.000
 RMSDP=4.28D-06 MaxDP=1.41D-04 DE=-4.97D-06 OVMax= 2.51D-04

 Cycle   7  Pass 1  IDiag  1:
 RMSU=  2.84D-06    CP:  9.93D-01  1.01D+00  6.44D-01  5.45D-01  5.43D-01
                    CP:  8.05D-01
 E= -307.586837893312     Delta-E=       -0.000000243475 Rises=F Damp=F
 DIIS: error= 1.48D-05 at cycle   7 NSaved=   7.
 NSaved= 7 IEnMin= 7 EnMin= -307.586837893312     IErMin= 7 ErrMin= 1.48D-05
 ErrMax= 1.48D-05  0.00D+00 EMaxC= 1.00D-01 BMatC= 2.36D-08 BMatP= 2.80D-07
 IDIUse=1 WtCom= 1.00D+00 WtEn= 0.00D+00
 Coeff-Com: -0.296D-03 0.721D-02 0.150D-01 0.401D-01 0.109D+00 0.336D+00
 Coeff-Com:  0.493D+00
 Coeff:     -0.296D-03 0.721D-02 0.150D-01 0.401D-01 0.109D+00 0.336D+00
 Coeff:      0.493D+00
 Gap=     0.158 Goal=   None    Shift=    0.000
 RMSDP=9.72D-07 MaxDP=1.87D-05 DE=-2.43D-07 OVMax= 4.78D-05

 Cycle   8  Pass 1  IDiag  1:
 RMSU=  7.99D-07    CP:  9.93D-01  1.01D+00  6.43D-01  5.42D-01  5.53D-01
                    CP:  8.20D-01  9.02D-01
 E= -307.586837917477     Delta-E=       -0.000000024165 Rises=F Damp=F
 DIIS: error= 1.72D-06 at cycle   8 NSaved=   8.
 NSaved= 8 IEnMin= 8 EnMin= -307.586837917477     IErMin= 8 ErrMin= 1.72D-06
 ErrMax= 1.72D-06  0.00D+00 EMaxC= 1.00D-01 BMatC= 4.75D-10 BMatP= 2.36D-08
 IDIUse=1 WtCom= 1.00D+00 WtEn= 0.00D+00
 Coeff-Com: -0.828D-04 0.118D-02 0.280D-02 0.763D-02 0.250D-01 0.815D-01
 Coeff-Com:  0.173D+00 0.709D+00
 Coeff:     -0.828D-04 0.118D-02 0.280D-02 0.763D-02 0.250D-01 0.815D-01
 Coeff:      0.173D+00 0.709D+00
 Gap=     0.158 Goal=   None    Shift=    0.000
 RMSDP=2.24D-07 MaxDP=4.58D-06 DE=-2.42D-08 OVMax= 1.30D-05

 Cycle   9  Pass 1  IDiag  1:
 RMSU=  1.66D-07    CP:  9.93D-01  1.01D+00  6.43D-01  5.41D-01  5.55D-01
                    CP:  8.25D-01  9.34D-01  1.00D+00
 E= -307.586837917640     Delta-E=       -0.000000000163 Rises=F Damp=F
 DIIS: error= 1.49D-06 at cycle   9 NSaved=   9.
 NSaved= 9 IEnMin= 9 EnMin= -307.586837917640     IErMin= 9 ErrMin= 1.49D-06
 ErrMax= 1.49D-06  0.00D+00 EMaxC= 1.00D-01 BMatC= 2.96D-10 BMatP= 4.75D-10
 IDIUse=1 WtCom= 1.00D+00 WtEn= 0.00D+00
 Coeff-Com: -0.294D-04 0.210D-03 0.662D-03 0.181D-02 0.755D-02 0.261D-01
 Coeff-Com:  0.737D-01 0.477D+00 0.413D+00
 Coeff:     -0.294D-04 0.210D-03 0.662D-03 0.181D-02 0.755D-02 0.261D-01
 Coeff:      0.737D-01 0.477D+00 0.413D+00
 Gap=     0.158 Goal=   None    Shift=    0.000
 RMSDP=9.26D-08 MaxDP=2.06D-06 DE=-1.63D-10 OVMax= 8.41D-06

 Cycle  10  Pass 1  IDiag  1:
 RMSU=  5.10D-08    CP:  9.93D-01  1.01D+00  6.44D-01  5.41D-01  5.55D-01
                    CP:  8.27D-01  9.42D-01  1.01D+00  6.12D-01
 E= -307.586837917941     Delta-E=       -0.000000000301 Rises=F Damp=F
 DIIS: error= 2.94D-07 at cycle  10 NSaved=  10.
 NSaved=10 IEnMin=10 EnMin= -307.586837917941     IErMin=10 ErrMin= 2.94D-07
 ErrMax= 2.94D-07  0.00D+00 EMaxC= 1.00D-01 BMatC= 7.38D-12 BMatP= 2.96D-10
 IDIUse=1 WtCom= 1.00D+00 WtEn= 0.00D+00
 Coeff-Com: -0.383D-05-0.385D-04 0.565D-06-0.278D-05 0.715D-03 0.355D-02
 Coeff-Com:  0.169D-01 0.149D+00 0.186D+00 0.643D+00
 Coeff:     -0.383D-05-0.385D-04 0.565D-06-0.278D-05 0.715D-03 0.355D-02
 Coeff:      0.169D-01 0.149D+00 0.186D+00 0.643D+00
 Gap=     0.158 Goal=   None    Shift=    0.000
 RMSDP=2.51D-08 MaxDP=4.21D-07 DE=-3.01D-10 OVMax= 2.15D-06

 Cycle  11  Pass 1  IDiag  1:
 RMSU=  1.68D-08    CP:  9.93D-01  1.01D+00  6.44D-01  5.41D-01  5.55D-01
                    CP:  8.28D-01  9.45D-01  1.02D+00  6.55D-01  7.65D-01
 E= -307.586837917945     Delta-E=       -0.000000000003 Rises=F Damp=F
 DIIS: error= 2.08D-07 at cycle  11 NSaved=  11.
 NSaved=11 IEnMin=11 EnMin= -307.586837917945     IErMin=11 ErrMin= 2.08D-07
 ErrMax= 2.08D-07  0.00D+00 EMaxC= 1.00D-01 BMatC= 3.80D-12 BMatP= 7.38D-12
 IDIUse=1 WtCom= 1.00D+00 WtEn= 0.00D+00
 Coeff-Com:  0.417D-06-0.542D-04-0.785D-04-0.214D-03-0.379D-03-0.420D-03
 Coeff-Com:  0.399D-02 0.536D-01 0.865D-01 0.459D+00 0.398D+00
 Coeff:      0.417D-06-0.542D-04-0.785D-04-0.214D-03-0.379D-03-0.420D-03
 Coeff:      0.399D-02 0.536D-01 0.865D-01 0.459D+00 0.398D+00
 Gap=     0.158 Goal=   None    Shift=    0.000
 RMSDP=1.13D-08 MaxDP=2.42D-07 DE=-3.41D-12 OVMax= 9.88D-07

 Cycle  12  Pass 1  IDiag  1:
 RMSU=  4.88D-09    CP:  9.93D-01  1.01D+00  6.44D-01  5.41D-01  5.55D-01
                    CP:  8.28D-01  9.46D-01  1.02D+00  6.47D-01  8.23D-01
                    CP:  5.34D-01
 E= -307.586837917950     Delta-E=       -0.000000000005 Rises=F Damp=F
 DIIS: error= 1.56D-08 at cycle  12 NSaved=  12.
 NSaved=12 IEnMin=12 EnMin= -307.586837917950     IErMin=12 ErrMin= 1.56D-08
 ErrMax= 1.56D-08  0.00D+00 EMaxC= 1.00D-01 BMatC= 3.72D-14 BMatP= 3.80D-12
 IDIUse=1 WtCom= 1.00D+00 WtEn= 0.00D+00
 Coeff-Com:  0.224D-06-0.159D-04-0.272D-04-0.695D-04-0.198D-03-0.412D-03
 Coeff-Com:  0.156D-03 0.573D-02 0.137D-01 0.106D+00 0.140D+00 0.734D+00
 Coeff:      0.224D-06-0.159D-04-0.272D-04-0.695D-04-0.198D-03-0.412D-03
 Coeff:      0.156D-03 0.573D-02 0.137D-01 0.106D+00 0.140D+00 0.734D+00
 Gap=     0.158 Goal=   None    Shift=    0.000
 RMSDP=2.72D-09 MaxDP=8.33D-08 DE=-4.83D-12 OVMax= 9.33D-08

 Error on total polarization charges =  0.01253
 SCF Done:  E(RB-P86) =  -307.586837918     A.U. after   12 cycles
            NFock= 12  Conv=0.27D-08     -V/T= 2.0046
 KE= 3.061848113011D+02 PE=-1.256245390248D+03 EE= 3.727624200290D+02
 Leave Link  502 at Mon Feb 22 21:11:35 2021, MaxMem=   104857600 cpu:             201.5 elap:               6.5
 (Enter /sw/arch/RedHatEnterpriseServer7/EB_production/2019/software/Gaussian/g16.c01/l701.exe)
 ... and contract with generalized density number  0.
 Compute integral first derivatives.
 R6Disp: Adding Grimme-D3 dispersion energy 1st derivatives to the gradient.
 PrsmSu:  requested number of processors reduced to:  30 ShMem   1 Linda.
 D1PCM: PCM CHGder 1st derivatives, ID1Alg=3 FixD1E=F DoIter=F DoCFld=F I1PDM=0.
 GePol: Maximum number of non-zero 1st derivatives   =     194
 CoulSu:  requested number of processors reduced to:  29 ShMem   1 Linda.
 CoulSu:  requested number of processors reduced to:  30 ShMem   1 Linda.
 Leave Link  701 at Mon Feb 22 21:11:35 2021, MaxMem=   104857600 cpu:              14.7 elap:               0.5
 (Enter /sw/arch/RedHatEnterpriseServer7/EB_production/2019/software/Gaussian/g16.c01/l702.exe)
 L702 exits ... SP integral derivatives will be done elsewhere.
 Leave Link  702 at Mon Feb 22 21:11:35 2021, MaxMem=   104857600 cpu:               0.7 elap:               0.1
 (Enter /sw/arch/RedHatEnterpriseServer7/EB_production/2019/software/Gaussian/g16.c01/l703.exe)
 Integral derivatives from FoFJK, PRISM(SPDF).
 Compute integral first derivatives, UseDBF=F ICtDFT=           0.
 Calling FoFJK, ICntrl=      2527 FMM=F ISym2X=0 I1Cent= 0 IOpClX= 0 NMat=1 NMatS=1 NMatT=0.
 FoFJK:  IHMeth= 1 ICntrl=    2527 DoSepK=F KAlg= 0 I1Cent=           0 FoldK=F
 IRaf=         0 NMat=       1 IRICut=       1 DoRegI=T DoRafI=F ISym2E= 0 IDoP0=0 IntGTp=1.
 FoFCou: FMM=F IPFlag=           0 FMFlag=      100000 FMFlg1=         800
         NFxFlg=           0 DoJE=F BraDBF=F KetDBF=F FulRan=T
         wScrn=  0.000000 ICntrl=      2527 IOpCl=  0 I1Cent=           0 NGrid=           0
         NMat0=    1 NMatS0=      1 NMatT0=    0 NMatD0=    1 NMtDS0=    0 NMtDT0=    0
 Symmetry not used in FoFCou.
 Leave Link  703 at Mon Feb 22 21:11:36 2021, MaxMem=   104857600 cpu:              23.6 elap:               0.8
 (Enter /sw/arch/RedHatEnterpriseServer7/EB_production/2019/software/Gaussian/g16.c01/l716.exe)
 Dipole        = 5.71048513D-02 7.05891862D-01 7.28762424D-07
 ***** Axes restored to original set *****
 -------------------------------------------------------------------
 Center     Atomic                   Forces (Hartrees/Bohr)
 Number     Number              X              Y              Z
 -------------------------------------------------------------------
      1        8          -0.001845193   -0.001993155   -0.000690128
      2        6           0.004418500    0.001234062    0.002804140
      3        6           0.004108136    0.002250069    0.002248542
      4        6           0.002280681   -0.006942039    0.003914610
      5        6          -0.002965803   -0.004303310   -0.000751003
      6        6          -0.006440716    0.000468118   -0.004825572
      7        6          -0.001477311    0.005539022   -0.002875068
[...]
      9          1           0       -1.430489    1.261336   -0.932471
     10          1           0       -0.074764    3.334909   -0.623776
     11          1           0        1.945629    3.307916    0.850940
     12          1           0        2.592012    1.188462    2.009842
     13          1           0        1.240464   -0.874629    1.700765
 ---------------------------------------------------------------------
                    Distance matrix (angstroms):
                    1          2          3          4          5
     1  O    0.000000
     2  C    1.376833   0.000000
     3  C    2.373283   1.403857   0.000000
     4  C    3.656997   2.422069   1.397819   0.000000
     5  C    4.183971   2.808213   2.433296   1.402101   0.000000
     6  C    3.702844   2.424025   2.800497   2.418106   1.400464
     7  C    2.441072   1.404420   2.433153   2.799558   2.432900
     8  H    0.975464   1.933036   3.191648   4.352105   4.626858
     9  H    2.579083   2.157792   1.091679   2.173951   3.428450
    10  H    4.525378   3.408451   2.153651   1.092310   2.166530
    11  H    5.275206   3.899561   3.422141   2.169109   1.091348
    12  H    4.590139   3.409999   3.892737   3.411748   2.165992
    13  H    2.703202   2.168471   3.423494   3.893048   3.424362
                    6          7          8          9         10
     6  C    0.000000
     7  C    1.399703   0.000000
     8  H    3.861238   2.472915   0.000000
     9  H    3.892081   3.416348   3.533798   0.000000
    10  H    3.410921   3.891847   5.306542   2.496595   0.000000
    11  H    2.167150   3.421889   5.703651   4.332115   2.501501
    12  H    1.092268   2.154868   4.576486   4.984278   4.319129
    13  H    2.168792   1.093493   2.313236   4.316280   4.985331
                   11         12         13
    11  H    0.000000
    12  H    2.500590   0.000000
    13  H    4.325869   2.485669   0.000000
 Stoichiometry    C6H6O
 Framework group  C1[X(C6H6O)]
 Deg. of freedom    33
 Full point group                 C1      NOp   1
 Largest Abelian subgroup         C1      NOp   1
 Largest concise Abelian subgroup C1      NOp   1
                         Standard orientation:                         
 ---------------------------------------------------------------------
 Center     Atomic      Atomic             Coordinates (Angstroms)
 Number     Number       Type             X           Y           Z
 ---------------------------------------------------------------------
      1          8           0        2.317272   -0.114290    0.000000
      2          6           0        0.943454   -0.023230    0.000000
      3          6           0        0.220941   -1.226887    0.000000
      4          6           0       -1.176506   -1.194634    0.000000
      5          6           0       -1.864307    0.027175   -0.000000
      6          6           0       -1.135607    1.223126    0.000000
      7          6           0        0.263989    1.205886    0.000000
      8          1           0        2.700438    0.782769   -0.000000
      9          1           0        0.764551   -2.173593    0.000000
     10          1           0       -1.731750   -2.135296    0.000000
     11          1           0       -2.955485    0.046442   -0.000000
     12          1           0       -1.656520    2.183178   -0.000000
     13          1           0        0.828812    2.142209    0.000000
 ---------------------------------------------------------------------
 Rotational constants (GHZ):           5.6047771           2.5915946           1.7721634
 Standard basis: TZVP (5D, 7F)
 There are   176 symmetry adapted cartesian basis functions of A   symmetry.
 There are   169 symmetry adapted basis functions of A   symmetry.
   169 basis functions,   293 primitive gaussians,   176 cartesian basis functions
    25 alpha electrons       25 beta electrons
       nuclear repulsion energy       269.6524815220 Hartrees.
 NAtoms=   13 NActive=   13 NUniq=   13 SFac= 1.00D+00 NAtFMM=   60 NAOKFM=F Big=F
 Integral buffers will be    131072 words long.
 Raffenetti 2 integral format.
 Two-electron integral symmetry is turned on.
 Warning! Using old PCM defaults because the COSMOthermo output has been requested.
 These settings can be overridden by following keywords.
 ------------------------------------------------------------------------------
 Polarizable Continuum Model (PCM)
 =================================
 Model                : C-PCM.
 Atomic radii         : Klamt.
 XCosmo               : -1.000 (infinite dielectric limit)
 Polarization charges : Electronic and nuclear charges.
 Charge compensation  : Type 3 (Electronic density weighted correction).
 Solution method      : On-the-fly selection.
 Cavity type          : VdW (van der Waals Surface) (Alpha=1.000).
 Cavity algorithm     : GePol (No added spheres)
                        Default sphere list used, NSphG=   13.
                        Tesserae with average area of 0.200 Ang**2.
                        Smoothing algorithm: None.
                        Polarization charges: point-like.
                        Self-potential: constant (ISelfS= 1).
                        Self-field    : global E.n sum rule (ISelfD= 3).
 Solvent              : Water, Eps=  78.355300 Eps(inf)=   1.777849
 ------------------------------------------------------------------------------
 Spheres list:
 ISph  on   Nord     Re0    Alpha      Xe            Ye            Ze
    1   O      1    1.7200  1.000      2.317272     -0.114290      0.000000
    2   C      2    2.0000  1.000      0.943454     -0.023230      0.000000
    3   C      3    2.0000  1.000      0.220941     -1.226887      0.000000
    4   C      4    2.0000  1.000     -1.176506     -1.194634      0.000000
    5   C      5    2.0000  1.000     -1.864307      0.027175     -0.000000
    6   C      6    2.0000  1.000     -1.135607      1.223126      0.000000
    7   C      7    2.0000  1.000      0.263989      1.205886      0.000000
    8   H      8    1.3000  1.000      2.700438      0.782769     -0.000000
    9   H      9    1.3000  1.000      0.764551     -2.173593     -0.000000
   10   H     10    1.3000  1.000     -1.731750     -2.135296     -0.000000
   11   H     11    1.3000  1.000     -2.955485      0.046442     -0.000000
   12   H     12    1.3000  1.000     -1.656520      2.183178     -0.000000
   13   H     13    1.3000  1.000      0.828812      2.142209      0.000000
 ------------------------------------------------------------------------------
 One-electron integrals computed using PRISM.
 PrsmSu:  requested number of processors reduced to:  29 ShMem   1 Linda.
 NBasis=   169 RedAO= T EigKep=  1.19D-05  NBF=   169
 NBsUse=   169 1.00D-06 EigRej= -1.00D+00 NBFU=   169
 Initial guess from the checkpoint file:  "ISWSIDIOOBJBQZ-UHFFFAOYSA-N.chk"
 B after Tr=    -0.000000    0.000000    0.000000
         Rot=    1.000000    0.000000    0.000000   -0.000000 Ang=   0.00 deg.
 Requested convergence on RMS density matrix=1.00D-08 within 128 cycles.
 Requested convergence on MAX density matrix=1.00D-06.
 Requested convergence on             energy=1.00D-06.
 No special actions if energy rises.
 Inv3:  Mode=1 IEnd=     2776332.
 Iteration    1 A*A^-1 deviation from unit magnitude is 7.11D-15 for     40.
 Iteration    1 A*A^-1 deviation from orthogonality  is 2.49D-14 for    437     40.
 Iteration    1 A^-1*A deviation from unit magnitude is 3.55D-15 for     40.
 Iteration    1 A^-1*A deviation from orthogonality  is 2.93D-15 for    437     40.
 Error on nuclear    polarization charges =  0.02396
 Error on electronic polarization charges = -0.05008
 SCF Done:  E(RB-P86) =  -307.584264846     A.U. after   10 cycles
            NFock= 10  Conv=0.79D-08     -V/T= 2.0047
 --------------------------------------------------------------------
 Variational C-PCM results
 =========================
 <psi(f)|   H    |psi(f)>                     (a.u.) =    -307.570868
 <psi(f)|H+V(f)/2|psi(f)>                     (a.u.) =    -307.584265
 Total free energy in solution:
 - with all non electrostatic terms           (a.u.) =    -307.576120
 --------------------------------------------------------------------
 (Polarized solute)-Solvent               (kcal/mol) =      -8.41
 --------------------------------------------------------------------
 Cavitation energy                        (kcal/mol) =      16.75
 Dispersion energy                        (kcal/mol) =     -12.71
 Repulsion energy                         (kcal/mol) =       1.07
 Total non electrostatic                  (kcal/mol) =       5.11
 --------------------------------------------------------------------
 Partition over spheres:
 Sphere  on Atom  Surface  Charge   GEl     GCav    GDR
    1      O1      16.17   0.134   -1.77    2.01   -1.49
    2      C2       7.93   0.018   -0.20    0.93   -0.52
    3      C3      13.70   0.040   -0.36    1.61   -0.99
    4      C4      13.94   0.041   -0.36    1.64   -1.00
    5      C5      14.10   0.049   -0.38    1.66   -1.01
    6      C6      13.95   0.040   -0.29    1.64   -1.00
    7      C7      13.41   0.029   -0.35    1.57   -0.99
    8      H8       8.12  -0.144   -3.10    1.15   -0.81
    9      H9       6.44  -0.041   -0.12    0.91   -0.75
   10      H10      6.44  -0.040   -0.24    0.91   -0.79
   11      H11      6.43  -0.037   -0.22    0.91   -0.78
   12      H12      6.44  -0.041   -0.32    0.91   -0.79
   13      H13      6.46  -0.047   -0.69    0.91   -0.71
 --------------------------------------------------------------------
 - cavitation energy not included in the total energy.
 - dispersion energy not included in the total energy.
 - repulsion  energy not included in the total energy.
 After PCM corrections, the energy is  -307.584264846     a.u.
 --------------------------------------------------------------------
 Writing COSMO formatted file "ISWSIDIOOBJBQZ-UHFFFAOYSA-N.cosmo"
 Recomputed dielectric energy= -0.013453 old= -0.013397 diff=-5.58D-05

 **********************************************************************

            Population analysis using the SCF Density.

 **********************************************************************

 Orbital symmetries:
       Occupied  (A) (A) (A) (A) (A) (A) (A) (A) (A) (A) (A) (A)
                 (A) (A) (A) (A) (A) (A) (A) (A) (A) (A) (A) (A)
                 (A)
       Virtual   (A) (A) (A) (A) (A) (A) (A) (A) (A) (A) (A) (A)
                 (A) (A) (A) (A) (A) (A) (A) (A) (A) (A) (A) (A)
                 (A) (A) (A) (A) (A) (A) (A) (A) (A) (A) (A) (A)
                 (A) (A) (A) (A) (A) (A) (A) (A) (A) (A) (A) (A)
                 (A) (A) (A) (A) (A) (A) (A) (A) (A) (A) (A) (A)
                 (A) (A) (A) (A) (A) (A) (A) (A) (A) (A) (A) (A)
                 (A) (A) (A) (A) (A) (A) (A) (A) (A) (A) (A) (A)
                 (A) (A) (A) (A) (A) (A) (A) (A) (A) (A) (A) (A)
                 (A) (A) (A) (A) (A) (A) (A) (A) (A) (A) (A) (A)
                 (A) (A) (A) (A) (A) (A) (A) (A) (A) (A) (A) (A)
                 (A) (A) (A) (A) (A) (A) (A) (A) (A) (A) (A) (A)
                 (A) (A) (A) (A) (A) (A) (A) (A) (A) (A) (A) (A)
 The electronic state is 1-A.
 Alpha  occ. eigenvalues --  -18.80330  -9.96551  -9.90671  -9.90629  -9.90434
 Alpha  occ. eigenvalues --   -9.90203  -9.89867  -0.97685  -0.78013  -0.68375
 Alpha  occ. eigenvalues --   -0.67386  -0.56837  -0.54766  -0.49517  -0.44975
 Alpha  occ. eigenvalues --   -0.42063  -0.39334  -0.37933  -0.37095  -0.34872
 Alpha  occ. eigenvalues --   -0.32186  -0.30563  -0.30163  -0.23785  -0.20771
 Alpha virt. eigenvalues --   -0.04938  -0.03503   0.03287   0.04114   0.07645
 Alpha virt. eigenvalues --    0.08705   0.09696   0.10415   0.11315   0.12342
 Alpha virt. eigenvalues --    0.15645   0.17846   0.18098   0.20039   0.20547
 Alpha virt. eigenvalues --    0.21244   0.22311   0.22594   0.23114   0.24467
 Alpha virt. eigenvalues --    0.28450   0.29998   0.30006   0.30567   0.31120
 Alpha virt. eigenvalues --    0.32528   0.34049   0.36341   0.37969   0.39740
 Alpha virt. eigenvalues --    0.40436   0.41749   0.42658   0.44702   0.45035
 Alpha virt. eigenvalues --    0.46171   0.46723   0.47327   0.47835   0.49167
 Alpha virt. eigenvalues --    0.55264   0.59533   0.61168   0.62767   0.63292
 Alpha virt. eigenvalues --    0.69031   0.70137   0.73628   0.82600   0.85525
 Alpha virt. eigenvalues --    1.06458   1.12080   1.16288   1.17394   1.17982
 Alpha virt. eigenvalues --    1.18731   1.20800   1.23272   1.24038   1.25332
 Alpha virt. eigenvalues --    1.26465   1.30086   1.32476   1.33154   1.36310
 Alpha virt. eigenvalues --    1.37444   1.37899   1.37945   1.38583   1.39144
 Alpha virt. eigenvalues --    1.42474   1.44501   1.45174   1.45788   1.46734
 Alpha virt. eigenvalues --    1.47257   1.48437   1.55882   1.68306   1.68998
 Alpha virt. eigenvalues --    1.70078   1.70641   1.72830   1.74290   1.77872
 Alpha virt. eigenvalues --    1.79144   1.79897   1.82450   1.82499   1.84347
 Alpha virt. eigenvalues --    1.90289   1.91876   1.93297   1.95986   1.99325
 Alpha virt. eigenvalues --    2.11087   2.13462   2.19204   2.20048   2.20430
 Alpha virt. eigenvalues --    2.21056   2.22538   2.24973   2.27915   2.30084
 Alpha virt. eigenvalues --    2.39397   2.40519   2.43917   2.47716   2.49234
 Alpha virt. eigenvalues --    2.50846   2.53671   2.54698   2.56347   2.61837
 Alpha virt. eigenvalues --    2.63025   2.69414   2.71063   2.83149   2.83590
 Alpha virt. eigenvalues --    2.88708   2.89145   2.92321   2.95143   2.98761
 Alpha virt. eigenvalues --    2.99897   3.04670   3.06460   3.08413   3.15072
 Alpha virt. eigenvalues --    3.17906   3.26344   3.29947   3.43493   3.57690
 Alpha virt. eigenvalues --    3.94110   4.19342  21.02239  21.55400  21.57546
 Alpha virt. eigenvalues --   21.78864  21.79130  21.93991  43.14072
          Condensed to atoms (all electrons):
               1          2          3          4          5          6
     1  O    7.816106   0.359075  -0.073590   0.006611  -0.001083   0.017874
     2  C    0.359075   5.061756   0.377913   0.007539  -0.121289   0.116686
     3  C   -0.073590   0.377913   5.255225   0.411908  -0.005800  -0.093267
     4  C    0.006611   0.007539   0.411908   5.078514   0.382750  -0.001992
     5  C   -0.001083  -0.121289  -0.005800   0.382750   5.200815   0.351162
     6  C    0.017874   0.116686  -0.093267  -0.001992   0.351162   5.286315
     7  C   -0.105281   0.204186  -0.028786  -0.105338   0.037837   0.118319
     8  H    0.307829  -0.025588   0.009453  -0.000849  -0.000323   0.005049
     9  H    0.005243  -0.077351   0.427264  -0.043289   0.015783  -0.005912
    10  H   -0.000133   0.020344  -0.069214   0.444448  -0.065300   0.017100
    11  H    0.000006  -0.003041   0.014230  -0.057504   0.431878  -0.058841
    12  H   -0.000121   0.009983  -0.001212   0.012406  -0.052412   0.421794
    13  H   -0.005550  -0.054799   0.008863  -0.000704   0.010704  -0.034873
               7          8          9         10         11         12
     1  O   -0.105281   0.307829   0.005243  -0.000133   0.000006  -0.000121
     2  C    0.204186  -0.025588  -0.077351   0.020344  -0.003041   0.009983
     3  C   -0.028786   0.009453   0.427264  -0.069214   0.014230  -0.001212
     4  C   -0.105338  -0.000849  -0.043289   0.444448  -0.057504   0.012406
     5  C    0.037837  -0.000323   0.015783  -0.065300   0.431878  -0.052412
     6  C    0.118319   0.005049  -0.005912   0.017100  -0.058841   0.421794
     7  C    5.708603  -0.021602   0.019182  -0.005097   0.016386  -0.046335
     8  H   -0.021602   0.396536  -0.000715   0.000029  -0.000006  -0.000049
     9  H    0.019182  -0.000715   0.512136  -0.008558  -0.000137   0.000033
    10  H   -0.005097   0.000029  -0.008558   0.523946  -0.006819  -0.000228
    11  H    0.016386  -0.000006  -0.000137  -0.006819   0.519239  -0.006299
    12  H   -0.046335  -0.000049   0.000033  -0.000228  -0.006299   0.516479
    13  H    0.417689   0.001067  -0.000153   0.000005  -0.000175  -0.005655
              13
     1  O   -0.005550
     2  C   -0.054799
     3  C    0.008863
     4  C   -0.000704
     5  C    0.010704
     6  C   -0.034873
     7  C    0.417689
     8  H    0.001067
     9  H   -0.000153
    10  H    0.000005
    11  H   -0.000175
    12  H   -0.005655
    13  H    0.497608
 Mulliken charges:
               1
     1  O   -0.326987
     2  C    0.124584
     3  C   -0.232988
     4  C   -0.134500
     5  C   -0.184723
     6  C   -0.139414
     7  C   -0.209765
     8  H    0.329168
     9  H    0.156474
    10  H    0.149477
    11  H    0.151084
    12  H    0.151616
    13  H    0.165972
 Sum of Mulliken charges =  -0.00000
 Mulliken charges with hydrogens summed into heavy atoms:
               1
     1  O    0.002181
     2  C    0.124584
     3  C   -0.076513
     4  C    0.014978
     5  C   -0.033639
     6  C    0.012201
     7  C   -0.043792
 Electronic spatial extent (au):  <R**2>=            671.1832
 Charge=              0.0000 electrons
 Dipole moment (field-independent basis, Debye):
    X=              0.1929    Y=              1.9517    Z=              0.0003  Tot=              1.9612
 Quadrupole moment (field-independent basis, Debye-Ang):
   XX=            -36.5415   YY=            -34.7010   ZZ=            -45.6705
   XY=              5.4673   XZ=              0.0004   YZ=              0.0002
 Traceless Quadrupole moment (field-independent basis, Debye-Ang):
   XX=              2.4295   YY=              4.2700   ZZ=             -6.6995
   XY=              5.4673   XZ=              0.0004   YZ=              0.0002
 Octapole moment (field-independent basis, Debye-Ang**2):
  XXX=              8.9434  YYY=              2.1644  ZZZ=              0.0004  XYY=              5.1001
  XXY=             15.4887  XXZ=              0.0012  XZZ=              6.0140  YZZ=              0.3084
  YYZ=              0.0003  XYZ=             -0.0001
 Hexadecapole moment (field-independent basis, Debye-Ang**3):
 XXXX=           -476.7298 YYYY=           -269.3283 ZZZZ=            -52.4863 XXXY=             44.3265
 XXXZ=              0.0022 YYYX=              5.4051 YYYZ=              0.0008 ZZZX=              0.0007
 ZZZY=              0.0003 XXYY=           -117.8497 XXZZ=           -106.7876 YYZZ=            -66.9901
 XXYZ=              0.0003 YYXZ=              0.0004 ZZXY=              0.9975
 N-N= 2.696524815220D+02 E-N=-1.256163190529D+03  KE= 3.061454999942D+02
 Unable to Open any file for archive entry.
 1\1\GINC-TCN1659\SP\RBP86\TZVP\C6H6O1\ELENAA\22-Feb-2021\0\\# BP86/TZV
 P SCRF=COSMORS geom=CHECKPOINT guess=CHECKPOINT\\COSMO-file for #ISWSI
 DIOOBJBQZ-UHFFFAOYSA-N\\0,1\O,0,-0.9680154213,-1.0334240592,0.15005568
 22\C,0,-0.1780364586,0.0739860823,0.3627627831\C,0,-0.5470702146,1.260
 1854138,-0.2911178699\C,0,0.2186522072,2.4157694754,-0.11169173\C,0,1.
 3514338516,2.4027388065,0.7144582976\C,0,1.7123363365,1.2150724101,1.3
 629167512\C,0,0.9548774207,0.050444726,1.1924301564\H,0,-0.6101300715,
 -1.7873160456,0.6551255232\H,0,-1.4304886428,1.2613358874,-0.932471202
 5\H,0,-0.0747643804,3.3349088486,-0.6237758306\H,0,1.9456289437,3.3079
 161017,0.8509402476\H,0,2.5920120418,1.188461508,2.0098420568\H,0,1.24
 04644083,-0.8746291642,1.7007651061\\Version=ES64L-G16RevC.01\State=1-
 A\HF=-307.5842648\RMSD=7.884e-09\Dipole=0.4407652,-0.4340061,0.461213\
 Quadrupole=-2.5633611,4.9709473,-2.4075862,-0.5207873,1.9235349,-3.617
 7444\PG=C01 [X(C6H6O1)]\\@
 The archive entry for this job was punched.


 Standing in the middle of the road is very dangerous;
 you get knocked down by the traffic from both sides.
                                -- Margaret Thatcher
 Job cpu time:       0 days  0 hours  3 minutes 21.4 seconds.
 Elapsed time:       0 days  0 hours  0 minutes  6.7 seconds.
 File lengths (MBytes):  RWF=     29 Int=      0 D2E=      0 Chk=      5 Scr=      1
 Normal termination of Gaussian 16 at Mon Feb 22 21:12:05 2021.
