 Entering Gaussian System, Link 0=g16
 Input=JNMRHUJNCSQMMB-UHFFFAOYSA-N.gjf
 Output=JNMRHUJNCSQMMB-UHFFFAOYSA-N.log
 Initial command:
 /sw/arch/RedHatEnterpriseServer7/EB_production/2019/software/Gaussian/g16.c01/l1.exe "/scratch-local/elenaa.9715223/Gau-26089.inp" -scrdir="/scratch-local/elenaa.9715223/"
 Entering Link 1 = /sw/arch/RedHatEnterpriseServer7/EB_production/2019/software/Gaussian/g16.c01/l1.exe PID=     26091.
  
 Copyright (c) 1988-2019, Gaussian, Inc.  All Rights Reserved.
  
 This is part of the Gaussian(R) 16 program.  It is based on
 the Gaussian(R) 09 system (copyright 2009, Gaussian, Inc.),
 the Gaussian(R) 03 system (copyright 2003, Gaussian, Inc.),
 the Gaussian(R) 98 system (copyright 1998, Gaussian, Inc.),
 the Gaussian(R) 94 system (copyright 1995, Gaussian, Inc.),
 the Gaussian 92(TM) system (copyright 1992, Gaussian, Inc.),
 the Gaussian 90(TM) system (copyright 1990, Gaussian, Inc.),
 the Gaussian 88(TM) system (copyright 1988, Gaussian, Inc.),
 the Gaussian 86(TM) system (copyright 1986, Carnegie Mellon
 University), and the Gaussian 82(TM) system (copyright 1983,
 Carnegie Mellon University). Gaussian is a federally registered
 trademark of Gaussian, Inc.
  
 This software contains proprietary and confidential information,
 including trade secrets, belonging to Gaussian, Inc.
  
 This software is provided under written license and may be
 used, copied, transmitted, or stored only in accord with that
 written license.
  
 The following legend is applicable only to US Government
 contracts under FAR:
  
                    RESTRICTED RIGHTS LEGEND
  
 Use, reproduction and disclosure by the US Government is
 subject to restrictions as set forth in subparagraphs (a)
 and (c) of the Commercial Computer Software - Restricted
 Rights clause in FAR 52.227-19.
  
 Gaussian, Inc.
 340 Quinnipiac St., Bldg. 40, Wallingford CT 06492
  
  
 ---------------------------------------------------------------
 Warning -- This program may not be used in any manner that
 competes with the business of Gaussian, Inc. or will provide
 assistance to any competitor of Gaussian, Inc.  The licensee
 of this program is prohibited from giving any competitor of
 Gaussian, Inc. access to this program.  By using this program,
 the user acknowledges that Gaussian, Inc. is engaged in the
 business of creating and licensing software in the field of
 computational chemistry and represents and warrants to the
 licensee that it is not a competitor of Gaussian, Inc. and that
 it will not use this program in any manner prohibited above.
 ---------------------------------------------------------------
  

 Cite this work as:
 Gaussian 16, Revision C.01,
 M. J. Frisch, G. W. Trucks, H. B. Schlegel, G. E. Scuseria, 
 M. A. Robb, J. R. Cheeseman, G. Scalmani, V. Barone, 
 G. A. Petersson, H. Nakatsuji, X. Li, M. Caricato, A. V. Marenich, 
 J. Bloino, B. G. Janesko, R. Gomperts, B. Mennucci, H. P. Hratchian, 
 J. V. Ortiz, A. F. Izmaylov, J. L. Sonnenberg, D. Williams-Young, 
 F. Ding, F. Lipparini, F. Egidi, J. Goings, B. Peng, A. Petrone, 
 T. Henderson, D. Ranasinghe, V. G. Zakrzewski, J. Gao, N. Rega, 
 G. Zheng, W. Liang, M. Hada, M. Ehara, K. Toyota, R. Fukuda, 
 J. Hasegawa, M. Ishida, T. Nakajima, Y. Honda, O. Kitao, H. Nakai, 
 T. Vreven, K. Throssell, J. A. Montgomery, Jr., J. E. Peralta, 
 F. Ogliaro, M. J. Bearpark, J. J. Heyd, E. N. Brothers, K. N. Kudin, 
 V. N. Staroverov, T. A. Keith, R. Kobayashi, J. Normand, 
 K. Raghavachari, A. P. Rendell, J. C. Burant, S. S. Iyengar, 
 J. Tomasi, M. Cossi, J. M. Millam, M. Klene, C. Adamo, R. Cammi, 
 J. W. Ochterski, R. L. Martin, K. Morokuma, O. Farkas, 
 J. B. Foresman, and D. J. Fox, Gaussian, Inc., Wallingford CT, 2019.
 
 ******************************************
 Gaussian 16:  ES64L-G16RevC.01  3-Jul-2019
                22-Feb-2021 
 ******************************************
 %chk=JNMRHUJNCSQMMB-UHFFFAOYSA-N.chk
 %NProcShared=32
 Will use up to   32 processors via shared memory.
 -------------------------------------------------------------
 #P BP86/TZVP EmpiricalDispersion=GD3 SCRF=(Solvent=Water) Opt
 -------------------------------------------------------------
 1/18=20,19=15,26=3,38=1/1,3;
 2/9=110,12=2,17=6,18=5,40=1/2;
 3/5=19,7=101,11=2,25=1,30=1,70=2201,71=1,72=1,74=404,124=31/1,2,3;
 4//1;
 5/5=2,38=5,53=1/2;
 6/7=2,8=2,9=2,10=2,28=1/1;
 7//1,2,3,16;
 1/18=20,19=15,26=3/3(2);
 2/9=110/2;
 99//99;
 2/9=110/2;
 3/5=19,7=101,11=2,25=1,30=1,70=2205,71=1,72=1,74=404,124=31/1,2,3;
 4/5=5,16=3,69=1/1;
 5/5=2,38=5,53=1/2;
 7//1,2,3,16;
 1/18=20,19=15,26=3/3(-5);
 2/9=110/2;
 6/7=2,8=2,9=2,10=2,19=2,28=1/1;
 99/9=1/99;
 Leave Link    1 at Mon Feb 22 21:11:35 2021, MaxMem=           0 cpu:               2.7 elap:               0.1
 (Enter /sw/arch/RedHatEnterpriseServer7/EB_production/2019/software/Gaussian/g16.c01/l101.exe)
 -------------------------------------
 Particle #JNMRHUJNCSQMMB-UHFFFAOYSA-N
 -------------------------------------
 Symbolic Z-matrix:
 Charge =  0 Multiplicity = 1
 N                     2.99028   2.44534   3.02627 
 C                     1.75057   2.66953   2.5474 
 C                     0.89529   3.58824   3.18947 
 C                    -0.38608   3.84683   2.66703 
 C                    -0.82344   3.18702   1.49975 
 S                    -2.4236    3.52326   0.81956 
 O                    -2.35804   3.51471  -0.78442 
 O                    -3.46543   2.40143   1.29966 
 N                    -2.99025   5.05348   1.34207 
 C                    -2.3799    6.21431   1.02423 
 N                    -2.77527   7.4276    1.46755 
 C                    -2.03629   8.49731   1.06494 
 C                    -0.95146   8.22009   0.22874 
 S                    -0.96669   6.48308   0.01107 
 C                     0.02585   2.25577   0.8698 
 C                     1.30512   1.99621   1.39238 
 H                     3.30448   2.9284    3.80736 
 H                     3.57611   1.80995   2.58378 
 H                     1.20168   4.07597   4.03537 
 H                    -0.99474   4.52084   3.13933 
 H                    -3.77867   5.08355   1.90528 
 H                    -2.26074   9.44759   1.36238 
 H                    -0.28881   8.88398  -0.17089 
 H                    -0.27765   1.76478   0.02565 
 H                     1.90845   1.31965   0.91975 
 
 ITRead=  0  0  0  0  0  0  0  0  0  0  0  0  0  0  0  0  0  0  0  0
 ITRead=  0  0  0  0  0
 MicOpt= -1 -1 -1 -1 -1 -1 -1 -1 -1 -1 -1 -1 -1 -1 -1 -1 -1 -1 -1 -1
 MicOpt= -1 -1 -1 -1 -1
 NAtoms=     25 NQM=       25 NQMF=       0 NMMI=      0 NMMIF=      0
                NMic=       0 NMicF=      0.
                    Isotopes and Nuclear Properties:
 (Nuclear quadrupole moments (NQMom) in fm**2, nuclear magnetic moments (NMagM)
  in nuclear magnetons)

  Atom         1           2           3           4           5           6           7           8           9          10
 IAtWgt=          14          12          12          12          12          32          16          16          14          12
 AtmWgt=  14.0030740  12.0000000  12.0000000  12.0000000  12.0000000  31.9720718  15.9949146  15.9949146  14.0030740  12.0000000
 NucSpn=           2           0           0           0           0           0           0           0           2           0
 AtZEff=  -0.0000000  -0.0000000  -0.0000000  -0.0000000  -0.0000000  -0.0000000  -0.0000000  -0.0000000  -0.0000000  -0.0000000
 NQMom=    2.0440000   0.0000000   0.0000000   0.0000000   0.0000000   0.0000000   0.0000000   0.0000000   2.0440000   0.0000000
 NMagM=    0.4037610   0.0000000   0.0000000   0.0000000   0.0000000   0.0000000   0.0000000   0.0000000   0.4037610   0.0000000
 AtZNuc=   7.0000000   6.0000000   6.0000000   6.0000000   6.0000000  16.0000000   8.0000000   8.0000000   7.0000000   6.0000000

  Atom        11          12          13          14          15          16          17          18          19          20
 IAtWgt=          14          12          12          32          12          12           1           1           1           1
 AtmWgt=  14.0030740  12.0000000  12.0000000  31.9720718  12.0000000  12.0000000   1.0078250   1.0078250   1.0078250   1.0078250
 NucSpn=           2           0           0           0           0           0           1           1           1           1
 AtZEff=  -0.0000000  -0.0000000  -0.0000000  -0.0000000  -0.0000000  -0.0000000  -0.0000000  -0.0000000  -0.0000000  -0.0000000
 NQMom=    2.0440000   0.0000000   0.0000000   0.0000000   0.0000000   0.0000000   0.0000000   0.0000000   0.0000000   0.0000000
 NMagM=    0.4037610   0.0000000   0.0000000   0.0000000   0.0000000   0.0000000   2.7928460   2.7928460   2.7928460   2.7928460
 AtZNuc=   7.0000000   6.0000000   6.0000000  16.0000000   6.0000000   6.0000000   1.0000000   1.0000000   1.0000000   1.0000000

  Atom        21          22          23          24          25
 IAtWgt=           1           1           1           1           1
 AtmWgt=   1.0078250   1.0078250   1.0078250   1.0078250   1.0078250
 NucSpn=           1           1           1           1           1
 AtZEff=  -0.0000000  -0.0000000  -0.0000000  -0.0000000  -0.0000000
 NQMom=    0.0000000   0.0000000   0.0000000   0.0000000   0.0000000
 NMagM=    2.7928460   2.7928460   2.7928460   2.7928460   2.7928460
 AtZNuc=   1.0000000   1.0000000   1.0000000   1.0000000   1.0000000
 Leave Link  101 at Mon Feb 22 21:11:36 2021, MaxMem=   104857600 cpu:               2.7 elap:               0.1
 (Enter /sw/arch/RedHatEnterpriseServer7/EB_production/2019/software/Gaussian/g16.c01/l103.exe)

 GradGradGradGradGradGradGradGradGradGradGradGradGradGradGradGradGradGrad
 Berny optimization.
 Initialization pass.
                           ----------------------------
                           !    Initial Parameters    !
                           ! (Angstroms and Degrees)  !
 --------------------------                            --------------------------
 ! Name  Definition              Value          Derivative Info.                !
 --------------------------------------------------------------------------------
 ! R1    R(1,2)                  1.3478         estimate D2E/DX2                !
 ! R2    R(1,17)                 0.9707         estimate D2E/DX2                !
 ! R3    R(1,18)                 0.9709         estimate D2E/DX2                !
 ! R4    R(2,3)                  1.4099         estimate D2E/DX2                !
 ! R5    R(2,16)                 1.4092         estimate D2E/DX2                !
 ! R6    R(3,4)                  1.4077         estimate D2E/DX2                !
 ! R7    R(3,19)                 1.0234         estimate D2E/DX2                !
 ! R8    R(4,5)                  1.4104         estimate D2E/DX2                !
 ! R9    R(4,20)                 1.0236         estimate D2E/DX2                !
 ! R10   R(5,6)                  1.7709         estimate D2E/DX2                !
 ! R11   R(5,15)                 1.409          estimate D2E/DX2                !
 ! R12   R(6,7)                  1.6053         estimate D2E/DX2                !
 ! R13   R(6,8)                  1.6045         estimate D2E/DX2                !
 ! R14   R(6,9)                  1.7134         estimate D2E/DX2                !
 ! R15   R(9,10)                 1.3495         estimate D2E/DX2                !
 ! R16   R(9,21)                 0.9694         estimate D2E/DX2                !
 ! R17   R(10,11)                1.3509         estimate D2E/DX2                !
 ! R18   R(10,14)                1.7595         estimate D2E/DX2                !
 ! R19   R(11,12)                1.3611         estimate D2E/DX2                !
 ! R20   R(12,13)                1.3975         estimate D2E/DX2                !
 ! R21   R(12,22)                1.0207         estimate D2E/DX2                !
 ! R22   R(13,14)                1.7507         estimate D2E/DX2                !
 ! R23   R(13,23)                1.0196         estimate D2E/DX2                !
 ! R24   R(15,16)                1.4061         estimate D2E/DX2                !
 ! R25   R(15,24)                1.0226         estimate D2E/DX2                !
 ! R26   R(16,25)                1.0223         estimate D2E/DX2                !
 ! A1    A(2,1,17)             120.0584         estimate D2E/DX2                !
 ! A2    A(2,1,18)             120.1274         estimate D2E/DX2                !
 ! A3    A(17,1,18)            119.8083         estimate D2E/DX2                !
 ! A4    A(1,2,3)              120.3034         estimate D2E/DX2                !
 ! A5    A(1,2,16)             120.1655         estimate D2E/DX2                !
 ! A6    A(3,2,16)             119.5281         estimate D2E/DX2                !
 ! A7    A(2,3,4)              120.1895         estimate D2E/DX2                !
 ! A8    A(2,3,19)             120.3554         estimate D2E/DX2                !
 ! A9    A(4,3,19)             119.4544         estimate D2E/DX2                !
 ! A10   A(3,4,5)              120.2306         estimate D2E/DX2                !
 ! A11   A(3,4,20)             119.4031         estimate D2E/DX2                !
 ! A12   A(5,4,20)             120.3657         estimate D2E/DX2                !
 ! A13   A(4,5,6)              120.6141         estimate D2E/DX2                !
 ! A14   A(4,5,15)             119.4919         estimate D2E/DX2                !
 ! A15   A(6,5,15)             119.8936         estimate D2E/DX2                !
 ! A16   A(5,6,7)              110.2335         estimate D2E/DX2                !
 ! A17   A(5,6,8)              109.8176         estimate D2E/DX2                !
 ! A18   A(5,6,9)              110.5648         estimate D2E/DX2                !
 ! A19   A(7,6,8)              108.7695         estimate D2E/DX2                !
 ! A20   A(7,6,9)              108.8422         estimate D2E/DX2                !
 ! A21   A(8,6,9)              108.5688         estimate D2E/DX2                !
 ! A22   A(6,9,10)             123.1509         estimate D2E/DX2                !
 ! A23   A(6,9,21)             118.2853         estimate D2E/DX2                !
 ! A24   A(10,9,21)            118.5556         estimate D2E/DX2                !
 ! A25   A(9,10,11)            124.2581         estimate D2E/DX2                !
 ! A26   A(9,10,14)            129.0715         estimate D2E/DX2                !
 ! A27   A(11,10,14)           106.6689         estimate D2E/DX2                !
 ! A28   A(10,11,12)           116.7375         estimate D2E/DX2                !
 ! A29   A(11,12,13)           116.268          estimate D2E/DX2                !
 ! A30   A(11,12,22)           121.7432         estimate D2E/DX2                !
 ! A31   A(13,12,22)           121.9881         estimate D2E/DX2                !
 ! A32   A(12,13,14)           105.3355         estimate D2E/DX2                !
 ! A33   A(12,13,23)           127.581          estimate D2E/DX2                !
 ! A34   A(14,13,23)           127.0835         estimate D2E/DX2                !
 ! A35   A(10,14,13)            94.9884         estimate D2E/DX2                !
 ! A36   A(5,15,16)            120.281          estimate D2E/DX2                !
 ! A37   A(5,15,24)            120.4967         estimate D2E/DX2                !
 ! A38   A(16,15,24)           119.2215         estimate D2E/DX2                !
 ! A39   A(2,16,15)            120.2663         estimate D2E/DX2                !
 ! A40   A(2,16,25)            120.5694         estimate D2E/DX2                !
 ! A41   A(15,16,25)           119.1626         estimate D2E/DX2                !
 ! D1    D(17,1,2,3)            -1.0797         estimate D2E/DX2                !
 ! D2    D(17,1,2,16)          178.2837         estimate D2E/DX2                !
 ! D3    D(18,1,2,3)           179.7999         estimate D2E/DX2                !
 ! D4    D(18,1,2,16)           -0.8368         estimate D2E/DX2                !
 ! D5    D(1,2,3,4)            178.3231         estimate D2E/DX2                !
 ! D6    D(1,2,3,19)            -1.3585         estimate D2E/DX2                !
 ! D7    D(16,2,3,4)            -1.0443         estimate D2E/DX2                !
 ! D8    D(16,2,3,19)          179.2741         estimate D2E/DX2                !
 ! D9    D(1,2,16,15)         -178.2484         estimate D2E/DX2                !
 ! D10   D(1,2,16,25)            1.2672         estimate D2E/DX2                !
 ! D11   D(3,2,16,15)            1.1199         estimate D2E/DX2                !
 ! D12   D(3,2,16,25)         -179.3645         estimate D2E/DX2                !
 ! D13   D(2,3,4,5)              0.1162         estimate D2E/DX2                !
 ! D14   D(2,3,4,20)          -179.5894         estimate D2E/DX2                !
 ! D15   D(19,3,4,5)           179.8007         estimate D2E/DX2                !
 ! D16   D(19,3,4,20)            0.0951         estimate D2E/DX2                !
 ! D17   D(3,4,5,6)           -179.0468         estimate D2E/DX2                !
 ! D18   D(3,4,5,15)             0.7392         estimate D2E/DX2                !
 ! D19   D(20,4,5,6)             0.656          estimate D2E/DX2                !
 ! D20   D(20,4,5,15)         -179.558          estimate D2E/DX2                !
 ! D21   D(4,5,6,7)            142.4996         estimate D2E/DX2                !
 ! D22   D(4,5,6,8)            -97.6763         estimate D2E/DX2                !
 ! D23   D(4,5,6,9)             22.1074         estimate D2E/DX2                !
 ! D24   D(15,5,6,7)           -37.2855         estimate D2E/DX2                !
 ! D25   D(15,5,6,8)            82.5386         estimate D2E/DX2                !
 ! D26   D(15,5,6,9)          -157.6777         estimate D2E/DX2                !
 ! D27   D(4,5,15,16)           -0.6648         estimate D2E/DX2                !
 ! D28   D(4,5,15,24)          179.6641         estimate D2E/DX2                !
 ! D29   D(6,5,15,16)          179.1227         estimate D2E/DX2                !
 ! D30   D(6,5,15,24)           -0.5484         estimate D2E/DX2                !
 ! D31   D(5,6,9,10)            63.7279         estimate D2E/DX2                !
 ! D32   D(5,6,9,21)          -115.2095         estimate D2E/DX2                !
 ! D33   D(7,6,9,10)           -57.4923         estimate D2E/DX2                !
 ! D34   D(7,6,9,21)           123.5703         estimate D2E/DX2                !
 ! D35   D(8,6,9,10)          -175.7401         estimate D2E/DX2                !
 ! D36   D(8,6,9,21)             5.3225         estimate D2E/DX2                !
 ! D37   D(6,9,10,11)         -177.2119         estimate D2E/DX2                !
 ! D38   D(6,9,10,14)            2.2864         estimate D2E/DX2                !
 ! D39   D(21,9,10,11)           1.7228         estimate D2E/DX2                !
 ! D40   D(21,9,10,14)        -178.7789         estimate D2E/DX2                !
 ! D41   D(9,10,11,12)         179.1452         estimate D2E/DX2                !
 ! D42   D(14,10,11,12)         -0.4483         estimate D2E/DX2                !
 ! D43   D(9,10,14,13)        -179.2145         estimate D2E/DX2                !
 ! D44   D(11,10,14,13)          0.3527         estimate D2E/DX2                !
 ! D45   D(10,11,12,13)          0.3432         estimate D2E/DX2                !
 ! D46   D(10,11,12,22)       -179.3427         estimate D2E/DX2                !
 ! D47   D(11,12,13,14)         -0.0435         estimate D2E/DX2                !
 ! D48   D(11,12,13,23)       -179.9669         estimate D2E/DX2                !
 ! D49   D(22,12,13,14)        179.6416         estimate D2E/DX2                !
 ! D50   D(22,12,13,23)         -0.2818         estimate D2E/DX2                !
 ! D51   D(12,13,14,10)         -0.1792         estimate D2E/DX2                !
 ! D52   D(23,13,14,10)        179.7448         estimate D2E/DX2                !
 ! D53   D(5,15,16,2)           -0.2663         estimate D2E/DX2                !
 ! D54   D(5,15,16,25)        -179.7887         estimate D2E/DX2                !
 ! D55   D(24,15,16,2)         179.409          estimate D2E/DX2                !
 ! D56   D(24,15,16,25)         -0.1134         estimate D2E/DX2                !
 --------------------------------------------------------------------------------
 Trust Radius=3.00D-01 FncErr=1.00D-07 GrdErr=1.00D-06 EigMax=2.50D+02 EigMin=1.00D-04
 Number of steps in this run=    133 maximum allowed number of steps=    150.
 GradGradGradGradGradGradGradGradGradGradGradGradGradGradGradGradGradGrad

 Leave Link  103 at Mon Feb 22 21:11:36 2021, MaxMem=   104857600 cpu:               0.4 elap:               0.0
 (Enter /sw/arch/RedHatEnterpriseServer7/EB_production/2019/software/Gaussian/g16.c01/l202.exe)
                          Input orientation:                          
 ---------------------------------------------------------------------
 Center     Atomic      Atomic             Coordinates (Angstroms)
 Number     Number       Type             X           Y           Z
 ---------------------------------------------------------------------
      1          7           0        2.990280    2.445340    3.026270
      2          6           0        1.750570    2.669530    2.547400
      3          6           0        0.895290    3.588240    3.189470
      4          6           0       -0.386080    3.846830    2.667030
      5          6           0       -0.823440    3.187020    1.499750
      6         16           0       -2.423600    3.523260    0.819560
      7          8           0       -2.358040    3.514710   -0.784420
      8          8           0       -3.465430    2.401430    1.299660
      9          7           0       -2.990250    5.053480    1.342070
     10          6           0       -2.379900    6.214310    1.024230
     11          7           0       -2.775270    7.427600    1.467550
     12          6           0       -2.036290    8.497310    1.064940
     13          6           0       -0.951460    8.220090    0.228740
     14         16           0       -0.966690    6.483080    0.011070
     15          6           0        0.025850    2.255770    0.869800
     16          6           0        1.305120    1.996210    1.392380
     17          1           0        3.304480    2.928400    3.807360
     18          1           0        3.576110    1.809950    2.583780
     19          1           0        1.201680    4.075970    4.035370
     20          1           0       -0.994740    4.520840    3.139330
     21          1           0       -3.778670    5.083550    1.905280
     22          1           0       -2.260740    9.447590    1.362380
     23          1           0       -0.288810    8.883980   -0.170890
     24          1           0       -0.277650    1.764780    0.025650
     25          1           0        1.908450    1.319650    0.919750
 ---------------------------------------------------------------------
                    Distance matrix (angstroms):
                    1          2          3          4          5
     1  N    0.000000
     2  C    1.347761   0.000000
     3  C    2.392036   1.409889   0.000000
     4  C    3.673287   2.442462   1.407736   0.000000
     5  C    4.174304   2.826817   2.443392   1.410381   0.000000
     6  S    5.944878   4.597606   4.078692   2.769356   1.770940
     7  O    6.653528   5.356868   5.136279   3.988914   2.771247
     8  O    6.682762   5.369859   4.898549   3.666235   2.763566
     9  N    6.738372   5.441637   4.545023   3.161206   2.864193
    10  C    6.859456   5.652105   4.723492   3.504151   3.437029
    11  N    7.777795   6.654963   5.583789   4.468657   4.668318
    12  C    8.107994   7.106407   6.099734   5.188145   5.464361
    13  C    7.530686   6.594381   5.799176   5.038880   5.192653
    14  S    6.407214   5.325377   4.685007   3.786957   3.619489
    15  C    3.670714   2.441352   2.812876   2.435404   1.409027
    16  C    2.389786   1.409204   2.435581   2.812416   2.441378
    17  H    0.970655   2.017213   2.573203   3.970403   4.736209
    18  H    0.970935   2.018117   3.273526   4.455868   4.735766
    19  H    2.622275   2.119766   1.023378   2.108516   3.364627
    20  H    4.494537   3.363697   2.108191   1.023633   2.120529
    21  H    7.350881   6.067315   5.072573   3.690448   3.534779
    22  H    8.909166   7.964733   6.901505   6.048551   6.424908
    23  H    7.901288   7.082906   6.382709   5.782398   5.960891
    24  H    4.488457   3.360279   3.835434   3.365052   2.119817
    25  H    2.622015   2.120459   3.365208   3.834644   3.359567
                    6          7          8          9         10
     6  S    0.000000
     7  O    1.605342   0.000000
     8  O    1.604496   2.609424   0.000000
     9  N    1.713383   2.699900   2.694618   0.000000
    10  C    2.699176   3.249543   3.973952   1.349472   0.000000
    11  N    3.973340   4.533890   5.076110   2.387134   1.350897
    12  C    4.995137   5.324468   6.265564   3.584244   2.309072
    13  C    4.957467   5.014535   6.428353   3.927288   2.587740
    14  S    3.396583   3.373408   4.956212   2.812492   1.759515
    15  C    2.758416   3.162958   3.520658   4.140903   4.634816
    16  C    4.069810   4.523609   4.788627   5.272536   5.613134
    17  H    6.487812   7.313845   7.238642   7.086413   7.131283
    18  H    6.484167   7.033144   7.182068   7.428285   7.569983
    19  H    4.877456   6.018056   5.663048   5.077565   5.144626
    20  H    2.901403   4.273956   3.739063   2.737866   3.043051
    21  H    2.334418   3.422563   2.767429   0.969389   2.002854
    22  H    5.951375   6.310094   7.148677   4.454301   3.253098
    23  H    5.854540   5.786812   7.367285   4.925399   3.595568
    24  H    2.885766   2.836634   3.491470   4.461693   5.021447
    25  H    4.861336   5.091701   5.494831   6.173905   6.508345
                   11         12         13         14         15
    11  N    0.000000
    12  C    1.361053   0.000000
    13  C    2.342856   1.397475   0.000000
    14  S    2.506873   2.512331   1.750662   0.000000
    15  C    5.911971   6.576270   6.077763   4.426365   0.000000
    16  C    6.793764   7.316867   6.721822   5.215471   1.406056
    17  H    7.917125   8.188861   7.676036   6.729819   4.453213
    18  H    8.552426   8.861529   8.193595   7.006712   3.967471
    19  H    5.800281   6.233470   6.024963   5.166333   3.836214
    20  H    3.796629   4.604371   4.707213   3.692856   3.364954
    21  H    2.587081   3.923750   4.543323   3.667962   4.852106
    22  H    2.087142   1.020725   2.122760   3.505556   7.562632
    23  H    3.314817   2.174966   1.019588   2.501390   6.716786
    24  H    6.354897   7.035616   6.493558   4.768369   1.022630
    25  H    7.716500   8.191511   7.501510   5.979393   2.103093
                   16         17         18         19         20
    16  C    0.000000
    17  H    3.270863   0.000000
    18  H    2.571288   1.679840   0.000000
    19  H    3.364743   2.406382   3.588855   0.000000
    20  H    3.836007   4.633079   5.343242   2.413516   0.000000
    21  H    5.969896   7.644187   8.078961   5.509663   3.096738
    22  H    8.260710   8.913441   9.689901   6.927303   5.388244
    23  H    7.240566   8.012936   8.518669   6.559813   5.522036
    24  H    2.103966   5.337321   4.625747   4.858793   4.219608
    25  H    1.022311   3.588212   2.406342   4.219468   4.858257
                   21         22         23         24         25
    21  H    0.000000
    22  H    4.652279   0.000000
    23  H    5.561733   2.560680   0.000000
    24  H    5.177295   8.046432   7.121921   0.000000
    25  H    6.890685   9.145571   7.952140   2.403454   0.000000
 Stoichiometry    C9H9N3O2S2
 Framework group  C1[X(C9H9N3O2S2)]
 Deg. of freedom    69
 Full point group                 C1      NOp   1
 Largest Abelian subgroup         C1      NOp   1
 Largest concise Abelian subgroup C1      NOp   1
                         Standard orientation:                         
 ---------------------------------------------------------------------
 Center     Atomic      Atomic             Coordinates (Angstroms)
 Number     Number       Type             X           Y           Z
 ---------------------------------------------------------------------
      1          7           0        4.388249   -2.048213   -0.123362
      2          6           0        3.367512   -1.168153   -0.130317
      3          6           0        2.341271   -1.276562   -1.090975
      4          6           0        1.258103   -0.377569   -1.074240
      5          6           0        1.193655    0.638561   -0.098279
      6         16           0       -0.176792    1.759271   -0.052320
      7          8           0       -0.569344    2.094232    1.467821
      8          8           0        0.212569    3.125550   -0.798032
      9          7           0       -1.538283    1.077655   -0.838082
     10          6           0       -2.163290   -0.034907   -0.399165
     11          7           0       -3.203659   -0.621768   -1.030156
     12          6           0       -3.707259   -1.750768   -0.460760
     13          6           0       -3.093840   -2.173730    0.721509
     14         16           0       -1.827402   -1.005012    1.029809
     15          6           0        2.229364    0.756501    0.849747
     16          6           0        3.312100   -0.140365    0.832200
     17          1           0        4.411929   -2.770432   -0.771443
     18          1           0        5.095141   -1.969428    0.537554
     19          1           0        2.374500   -2.011282   -1.802582
     20          1           0        0.516439   -0.471209   -1.773519
     21          1           0       -1.864533    1.504697   -1.644874
     22          1           0       -4.486315   -2.261250   -0.878324
     23          1           0       -3.329037   -2.988932    1.286917
     24          1           0        2.200790    1.490763    1.560954
     25          1           0        4.052546   -0.041110    1.530060
 ---------------------------------------------------------------------
 Rotational constants (GHZ):           0.6377905           0.3138602           0.2466796
 Leave Link  202 at Mon Feb 22 21:11:36 2021, MaxMem=   104857600 cpu:               0.7 elap:               0.1
 (Enter /sw/arch/RedHatEnterpriseServer7/EB_production/2019/software/Gaussian/g16.c01/l301.exe)
 Standard basis: TZVP (5D, 7F)
 Ernie: Thresh=  0.10000D-02 Tol=  0.10000D-05 Strict=F.
 There are   380 symmetry adapted cartesian basis functions of A   symmetry.
 There are   364 symmetry adapted basis functions of A   symmetry.
   364 basis functions,   656 primitive gaussians,   380 cartesian basis functions
    66 alpha electrons       66 beta electrons
       nuclear repulsion energy      1341.6689098509 Hartrees.
 IExCor=  404 DFT=T Ex=B Corr=P86 ExCW=0 ScaHFX=  0.000000
 ScaDFX=  1.000000  1.000000  1.000000  1.000000 ScalE2=  1.000000  1.000000
 IRadAn=      5 IRanWt=     -1 IRanGd=            0 ICorTp=0 IEmpDi=131
 NAtoms=   25 NActive=   25 NUniq=   25 SFac= 1.00D+00 NAtFMM=   60 NAOKFM=F Big=F
 Integral buffers will be    131072 words long.
 Raffenetti 2 integral format.
 Two-electron integral symmetry is turned on.
 R6Disp:  Grimme-D3 Dispersion energy=       -0.0287720361 Hartrees.
 Nuclear repulsion after empirical dispersion term =     1341.6401378148 Hartrees.
 ------------------------------------------------------------------------------
 Polarizable Continuum Model (PCM)
 =================================
 Model                : PCM.
 Atomic radii         : UFF (Universal Force Field).
 Polarization charges : Total charges.
 Charge compensation  : None.
 Solution method      : On-the-fly selection.
 Cavity type          : Scaled VdW (van der Waals Surface) (Alpha=1.100).
 Cavity algorithm     : GePol (No added spheres)
                        Default sphere list used, NSphG=   25.
                        Lebedev-Laikov grids with approx.  5.0 points / Ang**2.
                        Smoothing algorithm: York/Karplus (Gamma=1.0000).
                        Polarization charges: spherical gaussians, with
                                              point-specific exponents (IZeta= 3).
                        Self-potential: point-specific (ISelfS= 7).
                        Self-field    : sphere-specific E.n sum rule (ISelfD= 2).
 1st derivatives      : Analytical E(r).r(x)/FMM algorithm (CHGder, D1EAlg=3).
                        Cavity 1st derivative terms included.
 Solvent              : Water, Eps=  78.355300 Eps(inf)=   1.777849
 ------------------------------------------------------------------------------
 GePol: Number of generator spheres                  =      25
 GePol: Total number of spheres                      =      25
 GePol: Number of exposed spheres                    =      25 (100.00%)
 GePol: Number of points                             =    2226
 GePol: Average weight of points                     =       0.13
 GePol: Minimum weight of points                     =   0.16D-11
 GePol: Maximum weight of points                     =    0.20577
 GePol: Number of points with low weight             =     127
 GePol: Fraction of low-weight points (<1% of avg)   =       5.71%
 GePol: Cavity surface area                          =    293.466 Ang**2
 GePol: Cavity volume                                =    310.014 Ang**3
 Leave Link  301 at Mon Feb 22 21:11:36 2021, MaxMem=   104857600 cpu:               2.3 elap:               0.1
 (Enter /sw/arch/RedHatEnterpriseServer7/EB_production/2019/software/Gaussian/g16.c01/l302.exe)
 NPDir=0 NMtPBC=     1 NCelOv=     1 NCel=       1 NClECP=     1 NCelD=      1
         NCelK=      1 NCelE2=     1 NClLst=     1 CellRange=     0.0.
 One-electron integrals computed using PRISM.
 One-electron integral symmetry used in STVInt
 PrsmSu:  requested number of processors reduced to:  27 ShMem   1 Linda.
 NBasis=   364 RedAO= T EigKep=  9.37D-06  NBF=   364
 NBsUse=   364 1.00D-06 EigRej= -1.00D+00 NBFU=   364
 Precomputing XC quadrature grid using
 IXCGrd= 4 IRadAn=           5 IRanWt=          -1 IRanGd=           0 AccXCQ= 0.00D+00.
 Generated NRdTot=       0 NPtTot=           0 NUsed=           0 NTot=          32
 NSgBfM=   373   373   373   373   373 MxSgAt=    25 MxSgA2=    25.
 Leave Link  302 at Mon Feb 22 21:11:37 2021, MaxMem=   104857600 cpu:               9.4 elap:               0.3
 (Enter /sw/arch/RedHatEnterpriseServer7/EB_production/2019/software/Gaussian/g16.c01/l303.exe)
 DipDrv:  MaxL=1.
 Leave Link  303 at Mon Feb 22 21:11:37 2021, MaxMem=   104857600 cpu:               4.6 elap:               0.3
 (Enter /sw/arch/RedHatEnterpriseServer7/EB_production/2019/software/Gaussian/g16.c01/l401.exe)
 ExpMin= 9.52D-02 ExpMax= 6.07D+04 ExpMxC= 2.07D+03 IAcc=3 IRadAn=         5 AccDes= 0.00D+00
 Harris functional with IExCor=  404 and IRadAn=       5 diagonalized for initial guess.
 HarFok:  IExCor=  404 AccDes= 0.00D+00 IRadAn=         5 IDoV= 1 UseB2=F ITyADJ=14
 ICtDFT=  3500011 ScaDFX=  1.000000  1.000000  1.000000  1.000000
 FoFCou: FMM=F IPFlag=           0 FMFlag=      100000 FMFlg1=           0
         NFxFlg=           0 DoJE=T BraDBF=F KetDBF=T FulRan=T
         wScrn=  0.000000 ICntrl=       500 IOpCl=  0 I1Cent=   200000004 NGrid=           0
         NMat0=    1 NMatS0=      1 NMatT0=    0 NMatD0=    1 NMtDS0=    0 NMtDT0=    0
 Petite list used in FoFCou.
 Harris En= -1459.90830827918    
 JPrj=0 DoOrth=F DoCkMO=F.
 Leave Link  401 at Mon Feb 22 21:11:38 2021, MaxMem=   104857600 cpu:              19.6 elap:               0.7
 (Enter /sw/arch/RedHatEnterpriseServer7/EB_production/2019/software/Gaussian/g16.c01/l502.exe)
 Integral symmetry usage will be decided dynamically.
 Closed shell SCF:
 Using DIIS extrapolation, IDIIS=  1040.
 NGot=   104857600 LenX=   104552298 LenY=   104407457
 Requested convergence on RMS density matrix=1.00D-08 within 128 cycles.
 Requested convergence on MAX density matrix=1.00D-06.
 Requested convergence on             energy=1.00D-06.
 No special actions if energy rises.
 Fock matrices will be formed incrementally for  20 cycles.

 Cycle   1  Pass 1  IDiag  1:
 FoFJK:  IHMeth= 1 ICntrl=     500 DoSepK=F KAlg= 0 I1Cent=           0 FoldK=F
 IRaf= 820000000 NMat=       1 IRICut=       1 DoRegI=T DoRafI=F ISym2E= 0 IDoP0=0 IntGTp=1.
 FoFCou: FMM=F IPFlag=           0 FMFlag=      100000 FMFlg1=           0
         NFxFlg=           0 DoJE=T BraDBF=F KetDBF=F FulRan=T
         wScrn=  0.000000 ICntrl=       500 IOpCl=  0 I1Cent=           0 NGrid=           0
         NMat0=    1 NMatS0=      1 NMatT0=    0 NMatD0=    1 NMtDS0=    0 NMtDT0=    0
 Symmetry not used in FoFCou.
 Inv3:  Mode=1 IEnd=    14865228.
 Iteration    1 A*A^-1 deviation from unit magnitude is 3.55D-15 for    255.
 Iteration    1 A*A^-1 deviation from orthogonality  is 2.91D-15 for   1818   1341.
 Iteration    1 A^-1*A deviation from unit magnitude is 3.33D-15 for    256.
 Iteration    1 A^-1*A deviation from orthogonality  is 6.16D-15 for   2144   2118.
 E= -1459.04162901908    
 DIIS: error= 3.08D-02 at cycle   1 NSaved=   1.
 NSaved= 1 IEnMin= 1 EnMin= -1459.04162901908     IErMin= 1 ErrMin= 3.08D-02
 ErrMax= 3.08D-02  0.00D+00 EMaxC= 1.00D-01 BMatC= 7.68D-01 BMatP= 7.68D-01
 IDIUse=3 WtCom= 6.92D-01 WtEn= 3.08D-01
 Coeff-Com:  0.100D+01
 Coeff-En:   0.100D+01
 Coeff:      0.100D+01
 Gap=     0.263 Goal=   None    Shift=    0.000
 GapD=    0.263 DampG=1.000 DampE=0.500 DampFc=0.5000 IDamp=-1.
 Damping current iteration by 5.00D-01
 RMSDP=5.00D-02 MaxDP=5.04D+00              OVMax= 6.82D-01

 Cycle   2  Pass 1  IDiag  1:
 RMSU=  2.45D-02    CP:  1.33D+00
 E= -1458.19340628560     Delta-E=        0.848222733475 Rises=F Damp=T
 DIIS: error= 3.40D-02 at cycle   2 NSaved=   2.
 NSaved= 2 IEnMin= 1 EnMin= -1459.04162901908     IErMin= 1 ErrMin= 3.08D-02
 ErrMax= 3.40D-02  0.00D+00 EMaxC= 1.00D-01 BMatC= 7.80D-01 BMatP= 7.68D-01
 IDIUse=3 WtCom= 6.60D-01 WtEn= 3.40D-01
 Coeff-Com:  0.502D+00 0.498D+00
 Coeff-En:   0.711D+00 0.289D+00
 Coeff:      0.573D+00 0.427D+00
 Gap=    -0.074 Goal=   None    Shift=    0.000
 RMSDP=2.12D-02 MaxDP=2.14D+00 DE= 8.48D-01 OVMax= 8.09D-01

 Cycle   3  Pass 1  IDiag  1:
 RMSU=  3.45D-03    CP:  1.05D+00  1.66D-01
 E= -1459.46313146708     Delta-E=       -1.269725181481 Rises=F Damp=F
 DIIS: error= 1.92D-02 at cycle   3 NSaved=   3.
 NSaved= 3 IEnMin= 3 EnMin= -1459.46313146708     IErMin= 3 ErrMin= 1.92D-02
 ErrMax= 1.92D-02  0.00D+00 EMaxC= 1.00D-01 BMatC= 2.34D-01 BMatP= 7.68D-01
 IDIUse=3 WtCom= 8.08D-01 WtEn= 1.92D-01
 Coeff-Com:  0.306D+00 0.295D+00 0.399D+00
 Coeff-En:   0.197D+00 0.000D+00 0.803D+00
 Coeff:      0.285D+00 0.238D+00 0.477D+00
 Gap=     0.144 Goal=   None    Shift=    0.000
 RMSDP=3.05D-03 MaxDP=1.87D-01 DE=-1.27D+00 OVMax= 2.02D-01

 Cycle   4  Pass 1  IDiag  1:
 RMSU=  2.21D-03    CP:  1.04D+00  1.11D-01  5.32D-01
 E= -1459.62597609012     Delta-E=       -0.162844623035 Rises=F Damp=F
 DIIS: error= 1.18D-02 at cycle   4 NSaved=   4.
 NSaved= 4 IEnMin= 4 EnMin= -1459.62597609012     IErMin= 4 ErrMin= 1.18D-02
 ErrMax= 1.18D-02  0.00D+00 EMaxC= 1.00D-01 BMatC= 8.16D-02 BMatP= 2.34D-01
 IDIUse=3 WtCom= 8.82D-01 WtEn= 1.18D-01
 Coeff-Com:  0.113D+00 0.580D-01 0.345D+00 0.484D+00
 Coeff-En:   0.000D+00 0.000D+00 0.291D+00 0.709D+00
 Coeff:      0.993D-01 0.512D-01 0.339D+00 0.511D+00
 Gap=     0.127 Goal=   None    Shift=    0.000
 RMSDP=1.15D-03 MaxDP=5.28D-02 DE=-1.63D-01 OVMax= 1.15D-01

 Cycle   5  Pass 1  IDiag  1:
 RMSU=  6.53D-04    CP:  1.05D+00  1.23D-01  6.09D-01  6.18D-01
 E= -1459.69563342378     Delta-E=       -0.069657333660 Rises=F Damp=F
 DIIS: error= 3.94D-03 at cycle   5 NSaved=   5.
 NSaved= 5 IEnMin= 5 EnMin= -1459.69563342378     IErMin= 5 ErrMin= 3.94D-03
 ErrMax= 3.94D-03  0.00D+00 EMaxC= 1.00D-01 BMatC= 9.34D-03 BMatP= 8.16D-02
 IDIUse=3 WtCom= 9.61D-01 WtEn= 3.94D-02
 Coeff-Com:  0.379D-01 0.101D-01 0.184D+00 0.346D+00 0.422D+00
 Coeff-En:   0.000D+00 0.000D+00 0.000D+00 0.949D-01 0.905D+00
 Coeff:      0.364D-01 0.969D-02 0.177D+00 0.336D+00 0.441D+00
 Gap=     0.121 Goal=   None    Shift=    0.000
 RMSDP=5.05D-04 MaxDP=1.73D-02 DE=-6.97D-02 OVMax= 4.68D-02

 Cycle   6  Pass 1  IDiag  1:
 RMSU=  3.28D-04    CP:  1.05D+00  1.23D-01  6.23D-01  6.57D-01  4.38D-01
 E= -1459.70164707467     Delta-E=       -0.006013650895 Rises=F Damp=F
 DIIS: error= 3.26D-03 at cycle   6 NSaved=   6.
 NSaved= 6 IEnMin= 6 EnMin= -1459.70164707467     IErMin= 6 ErrMin= 3.26D-03
 ErrMax= 3.26D-03  0.00D+00 EMaxC= 1.00D-01 BMatC= 3.30D-03 BMatP= 9.34D-03
 IDIUse=3 WtCom= 9.67D-01 WtEn= 3.26D-02
 Coeff-Com:  0.132D-01-0.246D-03 0.863D-01 0.180D+00 0.359D+00 0.362D+00
 Coeff-En:   0.000D+00 0.000D+00 0.000D+00 0.000D+00 0.287D+00 0.713D+00
 Coeff:      0.127D-01-0.237D-03 0.835D-01 0.174D+00 0.356D+00 0.374D+00
 Gap=     0.121 Goal=   None    Shift=    0.000
 RMSDP=2.47D-04 MaxDP=7.84D-03 DE=-6.01D-03 OVMax= 1.41D-02

 Cycle   7  Pass 1  IDiag  1:
 RMSU=  1.16D-04    CP:  1.04D+00  1.21D-01  6.28D-01  6.38D-01  5.12D-01
                    CP:  3.83D-01
 E= -1459.70420336178     Delta-E=       -0.002556287104 Rises=F Damp=F
 DIIS: error= 9.29D-04 at cycle   7 NSaved=   7.
 NSaved= 7 IEnMin= 7 EnMin= -1459.70420336178     IErMin= 7 ErrMin= 9.29D-04
 ErrMax= 9.29D-04  0.00D+00 EMaxC= 1.00D-01 BMatC= 2.95D-04 BMatP= 3.30D-03
 IDIUse=3 WtCom= 9.91D-01 WtEn= 9.29D-03
 Coeff-Com:  0.495D-02-0.149D-02 0.345D-01 0.712D-01 0.188D+00 0.267D+00
 Coeff-Com:  0.437D+00
 Coeff-En:   0.000D+00 0.000D+00 0.000D+00 0.000D+00 0.000D+00 0.595D-01
 Coeff-En:   0.941D+00
 Coeff:      0.490D-02-0.148D-02 0.341D-01 0.706D-01 0.186D+00 0.265D+00
 Coeff:      0.441D+00
 Gap=     0.122 Goal=   None    Shift=    0.000
 RMSDP=8.00D-05 MaxDP=3.83D-03 DE=-2.56D-03 OVMax= 6.30D-03

 Cycle   8  Pass 1  IDiag  1:
 RMSU=  4.93D-05    CP:  1.04D+00  1.21D-01  6.31D-01  6.32D-01  4.92D-01
                    CP:  5.01D-01  6.13D-01
 E= -1459.70439375292     Delta-E=       -0.000190391148 Rises=F Damp=F
 DIIS: error= 3.31D-04 at cycle   8 NSaved=   8.
 NSaved= 8 IEnMin= 8 EnMin= -1459.70439375292     IErMin= 8 ErrMin= 3.31D-04
 ErrMax= 3.31D-04  0.00D+00 EMaxC= 1.00D-01 BMatC= 7.24D-05 BMatP= 2.95D-04
 IDIUse=3 WtCom= 9.97D-01 WtEn= 3.31D-03
 Coeff-Com:  0.148D-02-0.948D-03 0.920D-02 0.172D-01 0.726D-01 0.134D+00
 Coeff-Com:  0.356D+00 0.410D+00
 Coeff-En:   0.000D+00 0.000D+00 0.000D+00 0.000D+00 0.000D+00 0.000D+00
 Coeff-En:   0.244D+00 0.756D+00
 Coeff:      0.148D-02-0.945D-03 0.916D-02 0.171D-01 0.724D-01 0.134D+00
 Coeff:      0.356D+00 0.411D+00
 Gap=     0.121 Goal=   None    Shift=    0.000
 RMSDP=3.42D-05 MaxDP=1.64D-03 DE=-1.90D-04 OVMax= 3.74D-03

 Cycle   9  Pass 1  IDiag  1:
 RMSU=  1.42D-05    CP:  1.04D+00  1.22D-01  6.29D-01  6.35D-01  5.08D-01
                    CP:  4.84D-01  6.28D-01  4.75D-01
 E= -1459.70445956764     Delta-E=       -0.000065814713 Rises=F Damp=F
 DIIS: error= 8.09D-05 at cycle   9 NSaved=   9.
 NSaved= 9 IEnMin= 9 EnMin= -1459.70445956764     IErMin= 9 ErrMin= 8.09D-05
 ErrMax= 8.09D-05  0.00D+00 EMaxC= 1.00D-01 BMatC= 2.76D-06 BMatP= 7.24D-05
 IDIUse=1 WtCom= 1.00D+00 WtEn= 0.00D+00
 Coeff-Com:  0.477D-03-0.424D-03 0.226D-02 0.335D-02 0.249D-01 0.516D-01
 Coeff-Com:  0.164D+00 0.238D+00 0.516D+00
 Coeff:      0.477D-03-0.424D-03 0.226D-02 0.335D-02 0.249D-01 0.516D-01
 Coeff:      0.164D+00 0.238D+00 0.516D+00
 Gap=     0.121 Goal=   None    Shift=    0.000
 RMSDP=6.64D-06 MaxDP=1.73D-04 DE=-6.58D-05 OVMax= 8.72D-04

 Cycle  10  Pass 1  IDiag  1:
 RMSU=  4.58D-06    CP:  1.04D+00  1.22D-01  6.29D-01  6.34D-01  5.10D-01
                    CP:  4.89D-01  6.35D-01  5.13D-01  7.33D-01
 E= -1459.70446164468     Delta-E=       -0.000002077045 Rises=F Damp=F
 DIIS: error= 7.50D-05 at cycle  10 NSaved=  10.
 NSaved=10 IEnMin=10 EnMin= -1459.70446164468     IErMin=10 ErrMin= 7.50D-05
 ErrMax= 7.50D-05  0.00D+00 EMaxC= 1.00D-01 BMatC= 6.90D-07 BMatP= 2.76D-06
 IDIUse=1 WtCom= 1.00D+00 WtEn= 0.00D+00
 Coeff-Com:  0.207D-03-0.137D-03 0.533D-03 0.241D-03 0.836D-02 0.186D-01
 Coeff-Com:  0.683D-01 0.114D+00 0.365D+00 0.425D+00
 Coeff:      0.207D-03-0.137D-03 0.533D-03 0.241D-03 0.836D-02 0.186D-01
 Coeff:      0.683D-01 0.114D+00 0.365D+00 0.425D+00
 Gap=     0.121 Goal=   None    Shift=    0.000
 RMSDP=3.43D-06 MaxDP=1.58D-04 DE=-2.08D-06 OVMax= 3.70D-04

 Cycle  11  Pass 1  IDiag  1:
 RMSU=  1.69D-06    CP:  1.04D+00  1.21D-01  6.29D-01  6.34D-01  5.09D-01
                    CP:  4.88D-01  6.45D-01  5.15D-01  7.15D-01  5.41D-01
 E= -1459.70446243253     Delta-E=       -0.000000787844 Rises=F Damp=F
 DIIS: error= 1.09D-05 at cycle  11 NSaved=  11.
 NSaved=11 IEnMin=11 EnMin= -1459.70446243253     IErMin=11 ErrMin= 1.09D-05
 ErrMax= 1.09D-05  0.00D+00 EMaxC= 1.00D-01 BMatC= 4.14D-08 BMatP= 6.90D-07
 IDIUse=1 WtCom= 1.00D+00 WtEn= 0.00D+00
 Coeff-Com:  0.937D-04-0.504D-04 0.135D-03-0.167D-03 0.301D-02 0.697D-02
 Coeff-Com:  0.279D-01 0.499D-01 0.182D+00 0.260D+00 0.471D+00
 Coeff:      0.937D-04-0.504D-04 0.135D-03-0.167D-03 0.301D-02 0.697D-02
 Coeff:      0.279D-01 0.499D-01 0.182D+00 0.260D+00 0.471D+00
 Gap=     0.121 Goal=   None    Shift=    0.000
 RMSDP=1.29D-06 MaxDP=6.64D-05 DE=-7.88D-07 OVMax= 1.20D-04

 Cycle  12  Pass 1  IDiag  1:
 RMSU=  7.20D-07    CP:  1.04D+00  1.21D-01  6.29D-01  6.34D-01  5.10D-01
                    CP:  4.88D-01  6.43D-01  5.12D-01  7.22D-01  5.96D-01
                    CP:  5.68D-01
 E= -1459.70446244858     Delta-E=       -0.000000016054 Rises=F Damp=F
 DIIS: error= 5.95D-06 at cycle  12 NSaved=  12.
 NSaved=12 IEnMin=12 EnMin= -1459.70446244858     IErMin=12 ErrMin= 5.95D-06
 ErrMax= 5.95D-06  0.00D+00 EMaxC= 1.00D-01 BMatC= 9.00D-09 BMatP= 4.14D-08
 IDIUse=1 WtCom= 1.00D+00 WtEn= 0.00D+00
 Coeff-Com:  0.353D-04-0.120D-04 0.152D-04-0.137D-03 0.577D-03 0.138D-02
 Coeff-Com:  0.637D-02 0.132D-01 0.577D-01 0.101D+00 0.335D+00 0.485D+00
 Coeff:      0.353D-04-0.120D-04 0.152D-04-0.137D-03 0.577D-03 0.138D-02
 Coeff:      0.637D-02 0.132D-01 0.577D-01 0.101D+00 0.335D+00 0.485D+00
 Gap=     0.121 Goal=   None    Shift=    0.000
 RMSDP=4.56D-07 MaxDP=1.71D-05 DE=-1.61D-08 OVMax= 5.46D-05

 Cycle  13  Pass 1  IDiag  1:
 RMSU=  1.65D-07    CP:  1.04D+00  1.21D-01  6.29D-01  6.34D-01  5.09D-01
                    CP:  4.87D-01  6.43D-01  5.14D-01  7.28D-01  5.75D-01
                    CP:  6.46D-01  5.84D-01
 E= -1459.70446245774     Delta-E=       -0.000000009165 Rises=F Damp=F
 DIIS: error= 1.13D-06 at cycle  13 NSaved=  13.
 NSaved=13 IEnMin=13 EnMin= -1459.70446245774     IErMin=13 ErrMin= 1.13D-06
 ErrMax= 1.13D-06  0.00D+00 EMaxC= 1.00D-01 BMatC= 5.22D-10 BMatP= 9.00D-09
 IDIUse=1 WtCom= 1.00D+00 WtEn= 0.00D+00
 Coeff-Com:  0.174D-04-0.762D-05 0.402D-05-0.752D-04 0.166D-03 0.422D-03
 Coeff-Com:  0.217D-02 0.497D-02 0.240D-01 0.462D-01 0.171D+00 0.290D+00
 Coeff-Com:  0.461D+00
 Coeff:      0.174D-04-0.762D-05 0.402D-05-0.752D-04 0.166D-03 0.422D-03
 Coeff:      0.217D-02 0.497D-02 0.240D-01 0.462D-01 0.171D+00 0.290D+00
 Coeff:      0.461D+00
 Gap=     0.121 Goal=   None    Shift=    0.000
 RMSDP=8.41D-08 MaxDP=1.94D-06 DE=-9.17D-09 OVMax= 9.81D-06

 Cycle  14  Pass 1  IDiag  1:
 RMSU=  6.28D-08    CP:  1.04D+00  1.21D-01  6.29D-01  6.34D-01  5.09D-01
                    CP:  4.87D-01  6.43D-01  5.14D-01  7.28D-01  5.79D-01
                    CP:  6.49D-01  5.75D-01  7.13D-01
 E= -1459.70446245816     Delta-E=       -0.000000000419 Rises=F Damp=F
 DIIS: error= 6.20D-07 at cycle  14 NSaved=  14.
 NSaved=14 IEnMin=14 EnMin= -1459.70446245816     IErMin=14 ErrMin= 6.20D-07
 ErrMax= 6.20D-07  0.00D+00 EMaxC= 1.00D-01 BMatC= 9.34D-11 BMatP= 5.22D-10
 IDIUse=1 WtCom= 1.00D+00 WtEn= 0.00D+00
 Coeff-Com:  0.708D-05-0.312D-05 0.645D-06-0.299D-04-0.162D-04-0.119D-04
 Coeff-Com:  0.148D-03 0.728D-03 0.512D-02 0.124D-01 0.526D-01 0.109D+00
 Coeff-Com:  0.303D+00 0.518D+00
 Coeff:      0.708D-05-0.312D-05 0.645D-06-0.299D-04-0.162D-04-0.119D-04
 Coeff:      0.148D-03 0.728D-03 0.512D-02 0.124D-01 0.526D-01 0.109D+00
 Coeff:      0.303D+00 0.518D+00
 Gap=     0.121 Goal=   None    Shift=    0.000
 RMSDP=3.90D-08 MaxDP=2.19D-06 DE=-4.19D-10 OVMax= 3.08D-06

 Cycle  15  Pass 1  IDiag  1:
 RMSU=  2.30D-08    CP:  1.04D+00  1.21D-01  6.29D-01  6.34D-01  5.09D-01
                    CP:  4.87D-01  6.43D-01  5.14D-01  7.28D-01  5.81D-01
                    CP:  6.53D-01  5.79D-01  7.24D-01  6.86D-01
 E= -1459.70446245824     Delta-E=       -0.000000000077 Rises=F Damp=F
 DIIS: error= 1.52D-07 at cycle  15 NSaved=  15.
 NSaved=15 IEnMin=15 EnMin= -1459.70446245824     IErMin=15 ErrMin= 1.52D-07
 ErrMax= 1.52D-07  0.00D+00 EMaxC= 1.00D-01 BMatC= 1.29D-11 BMatP= 9.34D-11
 IDIUse=1 WtCom= 1.00D+00 WtEn= 0.00D+00
 Coeff-Com:  0.316D-05-0.145D-05 0.294D-06-0.125D-04-0.325D-04-0.579D-04
 Coeff-Com: -0.144D-03-0.811D-04 0.699D-03 0.295D-02 0.140D-01 0.370D-01
 Coeff-Com:  0.140D+00 0.327D+00 0.479D+00
 Coeff:      0.316D-05-0.145D-05 0.294D-06-0.125D-04-0.325D-04-0.579D-04
 Coeff:     -0.144D-03-0.811D-04 0.699D-03 0.295D-02 0.140D-01 0.370D-01
 Coeff:      0.140D+00 0.327D+00 0.479D+00
 Gap=     0.121 Goal=   None    Shift=    0.000
 RMSDP=1.56D-08 MaxDP=5.65D-07 DE=-7.71D-11 OVMax= 1.36D-06

 Cycle  16  Pass 1  IDiag  1:
 RMSU=  9.35D-09    CP:  1.04D+00  1.21D-01  6.29D-01  6.34D-01  5.09D-01
                    CP:  4.87D-01  6.43D-01  5.14D-01  7.28D-01  5.81D-01
                    CP:  6.53D-01  5.85D-01  7.25D-01  7.31D-01  5.98D-01
 E= -1459.70446245824     Delta-E=       -0.000000000000 Rises=F Damp=F
 DIIS: error= 6.82D-08 at cycle  16 NSaved=  16.
 NSaved=16 IEnMin=16 EnMin= -1459.70446245824     IErMin=16 ErrMin= 6.82D-08
 ErrMax= 6.82D-08  0.00D+00 EMaxC= 1.00D-01 BMatC= 2.33D-12 BMatP= 1.29D-11
 IDIUse=1 WtCom= 1.00D+00 WtEn= 0.00D+00
 Coeff-Com:  0.105D-05-0.598D-06-0.137D-07-0.392D-05-0.240D-04-0.466D-04
 Coeff-Com: -0.153D-03-0.230D-03-0.523D-03-0.219D-03 0.346D-03 0.677D-02
 Coeff-Com:  0.428D-01 0.128D+00 0.327D+00 0.496D+00
 Coeff:      0.105D-05-0.598D-06-0.137D-07-0.392D-05-0.240D-04-0.466D-04
 Coeff:     -0.153D-03-0.230D-03-0.523D-03-0.219D-03 0.346D-03 0.677D-02
 Coeff:      0.428D-01 0.128D+00 0.327D+00 0.496D+00
 Gap=     0.121 Goal=   None    Shift=    0.000
 RMSDP=6.54D-09 MaxDP=2.86D-07 DE=-2.27D-13 OVMax= 4.72D-07

 Error on total polarization charges =  0.01518
 SCF Done:  E(RB-P86) =  -1459.70446246     A.U. after   16 cycles
            NFock= 16  Conv=0.65D-08     -V/T= 2.0037
 KE= 1.454380403785D+03 PE=-6.122035530490D+03 EE= 1.866310526432D+03
 Leave Link  502 at Mon Feb 22 21:12:11 2021, MaxMem=   104857600 cpu:            1019.7 elap:              32.6
 (Enter /sw/arch/RedHatEnterpriseServer7/EB_production/2019/software/Gaussian/g16.c01/l601.exe)
 Copying SCF densities to generalized density rwf, IOpCl= 0 IROHF=0.

 **********************************************************************

            Population analysis using the SCF Density.

 **********************************************************************

 Orbital symmetries:
       Occupied  (A) (A) (A) (A) (A) (A) (A) (A) (A) (A) (A) (A)
                 (A) (A) (A) (A) (A) (A) (A) (A) (A) (A) (A) (A)
                 (A) (A) (A) (A) (A) (A) (A) (A) (A) (A) (A) (A)
                 (A) (A) (A) (A) (A) (A) (A) (A) (A) (A) (A) (A)
                 (A) (A) (A) (A) (A) (A) (A) (A) (A) (A) (A) (A)
                 (A) (A) (A) (A) (A) (A)
       Virtual   (A) (A) (A) (A) (A) (A) (A) (A) (A) (A) (A) (A)
                 (A) (A) (A) (A) (A) (A) (A) (A) (A) (A) (A) (A)
                 (A) (A) (A) (A) (A) (A) (A) (A) (A) (A) (A) (A)
                 (A) (A) (A) (A) (A) (A) (A) (A) (A) (A) (A) (A)
                 (A) (A) (A) (A) (A) (A) (A) (A) (A) (A) (A) (A)
                 (A) (A) (A) (A) (A) (A) (A) (A) (A) (A) (A) (A)
                 (A) (A) (A) (A) (A) (A) (A) (A) (A) (A) (A) (A)
                 (A) (A) (A) (A) (A) (A) (A) (A) (A) (A) (A) (A)
                 (A) (A) (A) (A) (A) (A) (A) (A) (A) (A) (A) (A)
                 (A) (A) (A) (A) (A) (A) (A) (A) (A) (A) (A) (A)
                 (A) (A) (A) (A) (A) (A) (A) (A) (A) (A) (A) (A)
                 (A) (A) (A) (A) (A) (A) (A) (A) (A) (A) (A) (A)
                 (A) (A) (A) (A) (A) (A) (A) (A) (A) (A) (A) (A)
                 (A) (A) (A) (A) (A) (A) (A) (A) (A) (A) (A) (A)
                 (A) (A) (A) (A) (A) (A) (A) (A) (A) (A) (A) (A)
                 (A) (A) (A) (A) (A) (A) (A) (A) (A) (A) (A) (A)
                 (A) (A) (A) (A) (A) (A) (A) (A) (A) (A) (A) (A)
                 (A) (A) (A) (A) (A) (A) (A) (A) (A) (A) (A) (A)
                 (A) (A) (A) (A) (A) (A) (A) (A) (A) (A) (A) (A)
                 (A) (A) (A) (A) (A) (A) (A) (A) (A) (A) (A) (A)
                 (A) (A) (A) (A) (A) (A) (A) (A) (A) (A) (A) (A)
                 (A) (A) (A) (A) (A) (A) (A) (A) (A) (A) (A) (A)
                 (A) (A) (A) (A) (A) (A) (A) (A) (A) (A) (A) (A)
                 (A) (A) (A) (A) (A) (A) (A) (A) (A) (A) (A) (A)
                 (A) (A) (A) (A) (A) (A) (A) (A) (A) (A)
 The electronic state is 1-A.
 Alpha  occ. eigenvalues --  -88.38123 -88.18692 -18.78350 -18.78282 -14.09059
 Alpha  occ. eigenvalues --  -14.02406 -14.01280 -10.02364  -9.96794  -9.95957
 Alpha  occ. eigenvalues --   -9.93688  -9.93563  -9.93258  -9.93205  -9.91560
 Alpha  occ. eigenvalues --   -9.91502  -7.90531  -7.73902  -5.92888  -5.92639
 Alpha  occ. eigenvalues --   -5.92528  -5.76225  -5.75754  -5.75385  -0.99725
 Alpha  occ. eigenvalues --   -0.92556  -0.88156  -0.88129  -0.86916  -0.80276
 Alpha  occ. eigenvalues --   -0.73972  -0.72476  -0.70975  -0.69387  -0.65177
 Alpha  occ. eigenvalues --   -0.59966  -0.59181  -0.57961  -0.55205  -0.52305
 Alpha  occ. eigenvalues --   -0.50889  -0.50184  -0.47509  -0.46230  -0.44958
 Alpha  occ. eigenvalues --   -0.43491  -0.42504  -0.41683  -0.40845  -0.40271
 Alpha  occ. eigenvalues --   -0.40204  -0.37943  -0.37594  -0.33967  -0.33322
 Alpha  occ. eigenvalues --   -0.32820  -0.31745  -0.30094  -0.28105  -0.27105
 Alpha  occ. eigenvalues --   -0.26627  -0.25585  -0.25379  -0.24497  -0.21474
 Alpha  occ. eigenvalues --   -0.20749
 Alpha virt. eigenvalues --   -0.08608  -0.07515  -0.07027  -0.06043  -0.01938
 Alpha virt. eigenvalues --   -0.01541  -0.00980  -0.00716   0.00698   0.02886
 Alpha virt. eigenvalues --    0.03916   0.05100   0.06581   0.06910   0.07606
 Alpha virt. eigenvalues --    0.07895   0.08663   0.09561   0.10371   0.10608
 Alpha virt. eigenvalues --    0.12055   0.13317   0.13533   0.14699   0.15315
 Alpha virt. eigenvalues --    0.17157   0.17383   0.18629   0.19046   0.19514
 Alpha virt. eigenvalues --    0.20070   0.20473   0.20819   0.21248   0.21637
 Alpha virt. eigenvalues --    0.22442   0.23467   0.24537   0.24935   0.25897
 Alpha virt. eigenvalues --    0.26805   0.27498   0.28062   0.28221   0.28977
 Alpha virt. eigenvalues --    0.29597   0.30408   0.30844   0.31638   0.32147
 Alpha virt. eigenvalues --    0.33290   0.34242   0.34515   0.34625   0.35341
 Alpha virt. eigenvalues --    0.35901   0.37433   0.37558   0.38891   0.38963
 Alpha virt. eigenvalues --    0.39870   0.40791   0.41484   0.41731   0.42283
 Alpha virt. eigenvalues --    0.42692   0.43145   0.43631   0.43992   0.44860
 Alpha virt. eigenvalues --    0.45735   0.46371   0.46526   0.48327   0.48794
 Alpha virt. eigenvalues --    0.49113   0.49945   0.50816   0.51202   0.51610
 Alpha virt. eigenvalues --    0.52571   0.53334   0.55641   0.56150   0.57088
 Alpha virt. eigenvalues --    0.57897   0.58543   0.59745   0.60930   0.61788
 Alpha virt. eigenvalues --    0.62439   0.62810   0.64345   0.65385   0.65492
 Alpha virt. eigenvalues --    0.67769   0.68543   0.70090   0.70849   0.72384
 Alpha virt. eigenvalues --    0.73749   0.75802   0.76917   0.78184   0.80587
 Alpha virt. eigenvalues --    0.81546   0.83706   0.86260   0.86955   0.89363
 Alpha virt. eigenvalues --    0.91757   0.93599   0.98839   1.00353   1.09871
 Alpha virt. eigenvalues --    1.14274   1.14749   1.16322   1.17079   1.17951
 Alpha virt. eigenvalues --    1.18488   1.18952   1.20214   1.22081   1.23776
 Alpha virt. eigenvalues --    1.24895   1.25130   1.25610   1.28191   1.28883
 Alpha virt. eigenvalues --    1.30331   1.31042   1.33002   1.33370   1.34450
 Alpha virt. eigenvalues --    1.34757   1.36856   1.36943   1.37195   1.38586
 Alpha virt. eigenvalues --    1.38661   1.39884   1.40830   1.41850   1.42979
 Alpha virt. eigenvalues --    1.43546   1.44742   1.45933   1.46092   1.47817
 Alpha virt. eigenvalues --    1.49153   1.49829   1.51278   1.52889   1.54556
 Alpha virt. eigenvalues --    1.55852   1.57413   1.58058   1.59828   1.62893
 Alpha virt. eigenvalues --    1.63858   1.66803   1.67366   1.68529   1.70350
 Alpha virt. eigenvalues --    1.70505   1.72202   1.74470   1.75080   1.76532
 Alpha virt. eigenvalues --    1.78571   1.80508   1.81237   1.82006   1.82482
 Alpha virt. eigenvalues --    1.83107   1.85909   1.86476   1.87353   1.87779
 Alpha virt. eigenvalues --    1.88910   1.89979   1.93929   1.95424   1.96381
 Alpha virt. eigenvalues --    1.97502   1.98084   1.98983   2.00104   2.02044
 Alpha virt. eigenvalues --    2.05136   2.05820   2.07164   2.08045   2.09511
 Alpha virt. eigenvalues --    2.10838   2.10952   2.12753   2.14674   2.15668
 Alpha virt. eigenvalues --    2.16545   2.16899   2.17426   2.17680   2.20327
 Alpha virt. eigenvalues --    2.22884   2.23537   2.25009   2.27184   2.27906
 Alpha virt. eigenvalues --    2.29141   2.29263   2.30181   2.31145   2.34449
 Alpha virt. eigenvalues --    2.36834   2.39129   2.41561   2.43834   2.44548
 Alpha virt. eigenvalues --    2.45039   2.45924   2.45995   2.47535   2.48458
 Alpha virt. eigenvalues --    2.51224   2.52678   2.53141   2.54664   2.55150
 Alpha virt. eigenvalues --    2.55644   2.56158   2.57755   2.58749   2.58872
 Alpha virt. eigenvalues --    2.60177   2.61312   2.61750   2.62280   2.62878
 Alpha virt. eigenvalues --    2.63778   2.66252   2.66355   2.66903   2.67541
 Alpha virt. eigenvalues --    2.68364   2.69923   2.72000   2.72316   2.74853
 Alpha virt. eigenvalues --    2.76124   2.78308   2.81580   2.81760   2.89369
 Alpha virt. eigenvalues --    2.90132   2.92688   2.94012   2.96020   2.97446
 Alpha virt. eigenvalues --    3.02214   3.03088   3.05742   3.06459   3.07292
 Alpha virt. eigenvalues --    3.07831   3.13621   3.16628   3.25063   3.27384
 Alpha virt. eigenvalues --    3.32782   3.35525   3.39105   3.42513   3.44527
 Alpha virt. eigenvalues --    3.45695   3.47596   3.54168   3.62783   3.81144
 Alpha virt. eigenvalues --    3.82894   3.92645  18.70940  19.18250  21.13849
 Alpha virt. eigenvalues --   21.40990  21.63677  21.67401  21.73344  21.81683
 Alpha virt. eigenvalues --   21.84065  21.84718  21.97084  31.45097  31.47569
 Alpha virt. eigenvalues --   31.53362  42.86987  43.01167
          Condensed to atoms (all electrons):
               1          2          3          4          5          6
     1  N    6.337418   0.356546  -0.042330   0.003963   0.003566   0.000007
     2  C    0.356546   5.152009   0.163222   0.212991  -0.319881   0.008917
     3  C   -0.042330   0.163222   5.855321  -0.138438   0.196415  -0.015298
     4  C    0.003963   0.212991  -0.138438   6.199647  -0.346691   0.045767
     5  C    0.003566  -0.319881   0.196415  -0.346691   7.217666   0.015897
     6  S    0.000007   0.008917  -0.015298   0.045767   0.015897  14.808347
     7  O   -0.000000   0.000825  -0.003101   0.036510  -0.094629   0.289091
     8  O   -0.000001   0.000773  -0.004385   0.024221  -0.083479   0.316721
     9  N    0.000002   0.000936  -0.002264  -0.052451  -0.029808  -0.075266
    10  C   -0.000000   0.000177  -0.003931   0.007110   0.002962   0.014034
    11  N   -0.000000   0.000033  -0.000153  -0.000427  -0.003913   0.001308
    12  C    0.000000   0.000010  -0.000165  -0.000746   0.000256   0.000701
    13  C   -0.000000   0.000047   0.000184   0.000140  -0.002460   0.001565
    14  S   -0.000017  -0.001132   0.001112  -0.007036   0.000914   0.003133
    15  C    0.008196   0.247820  -0.010500  -0.341601  -0.342890   0.039381
    16  C   -0.062562   0.126959  -0.160279  -0.043396   0.244040  -0.013479
    17  H    0.378450  -0.021717  -0.017482   0.002374  -0.000133  -0.000001
    18  H    0.379596  -0.022733   0.013378  -0.001907  -0.000192  -0.000000
    19  H    0.001801  -0.085709   0.452858  -0.051984   0.027324  -0.000677
    20  H   -0.000344   0.024912  -0.060088   0.497599  -0.153058   0.008351
    21  H   -0.000000  -0.000017  -0.000032  -0.000982   0.003738  -0.003572
    22  H    0.000000  -0.000000   0.000000   0.000014   0.000001   0.000006
    23  H   -0.000000  -0.000001   0.000009   0.000011  -0.000017  -0.000018
    24  H   -0.000214   0.024085  -0.004971   0.016501  -0.129709   0.007140
    25  H    0.001137  -0.092408   0.002348   0.002737   0.031137  -0.000902
               7          8          9         10         11         12
     1  N   -0.000000  -0.000001   0.000002  -0.000000  -0.000000   0.000000
     2  C    0.000825   0.000773   0.000936   0.000177   0.000033   0.000010
     3  C   -0.003101  -0.004385  -0.002264  -0.003931  -0.000153  -0.000165
     4  C    0.036510   0.024221  -0.052451   0.007110  -0.000427  -0.000746
     5  C   -0.094629  -0.083479  -0.029808   0.002962  -0.003913   0.000256
     6  S    0.289091   0.316721  -0.075266   0.014034   0.001308   0.000701
     7  O    8.338602  -0.095160  -0.065869  -0.000982   0.000194  -0.000073
     8  O   -0.095160   8.309801  -0.053852   0.005805  -0.000066   0.000003
     9  N   -0.065869  -0.053852   7.092022   0.197015  -0.086479  -0.000627
    10  C   -0.000982   0.005805   0.197015   5.177133   0.478078  -0.070403
    11  N    0.000194  -0.000066  -0.086479   0.478078   6.503074   0.514305
    12  C   -0.000073   0.000003  -0.000627  -0.070403   0.514305   4.845357
    13  C    0.000886   0.000009   0.006755  -0.117276  -0.106113   0.542287
    14  S    0.007076   0.000325  -0.099501   0.425185  -0.141547  -0.044639
    15  C   -0.013955  -0.001045   0.050745  -0.005716  -0.000174   0.000022
    16  C   -0.002035  -0.004176  -0.005112   0.000680   0.000001  -0.000011
    17  H    0.000000  -0.000000  -0.000000   0.000000   0.000000   0.000000
    18  H    0.000000  -0.000000   0.000000  -0.000000  -0.000000  -0.000000
    19  H   -0.000012  -0.000026   0.000092  -0.000043  -0.000021  -0.000014
    20  H    0.001526   0.002762   0.004334  -0.008710   0.001937   0.000840
    21  H    0.002328  -0.000597   0.324453  -0.011488   0.005414   0.002429
    22  H    0.000001  -0.000000  -0.000380   0.008943  -0.028628   0.418932
    23  H    0.000006   0.000000   0.000068   0.004048   0.009936  -0.006531
    24  H    0.016383   0.002795   0.001607   0.000007   0.000003  -0.000001
    25  H   -0.000072  -0.000028  -0.000024   0.000008   0.000000  -0.000000
              13         14         15         16         17         18
     1  N   -0.000000  -0.000017   0.008196  -0.062562   0.378450   0.379596
     2  C    0.000047  -0.001132   0.247820   0.126959  -0.021717  -0.022733
     3  C    0.000184   0.001112  -0.010500  -0.160279  -0.017482   0.013378
     4  C    0.000140  -0.007036  -0.341601  -0.043396   0.002374  -0.001907
     5  C   -0.002460   0.000914  -0.342890   0.244040  -0.000133  -0.000192
     6  S    0.001565   0.003133   0.039381  -0.013479  -0.000001  -0.000000
     7  O    0.000886   0.007076  -0.013955  -0.002035   0.000000   0.000000
     8  O    0.000009   0.000325  -0.001045  -0.004176  -0.000000  -0.000000
     9  N    0.006755  -0.099501   0.050745  -0.005112  -0.000000   0.000000
    10  C   -0.117276   0.425185  -0.005716   0.000680   0.000000  -0.000000
    11  N   -0.106113  -0.141547  -0.000174   0.000001   0.000000  -0.000000
    12  C    0.542287  -0.044639   0.000022  -0.000011   0.000000  -0.000000
    13  C    5.265204   0.318431   0.000221  -0.000115   0.000000   0.000000
    14  S    0.318431  15.418402   0.004511   0.000156  -0.000001  -0.000000
    15  C    0.000221   0.004511   6.127720  -0.097534  -0.001681   0.002414
    16  C   -0.000115   0.000156  -0.097534   5.838536   0.013266  -0.017683
    17  H    0.000000  -0.000001  -0.001681   0.013266   0.394932  -0.022522
    18  H    0.000000  -0.000000   0.002414  -0.017683  -0.022522   0.394858
    19  H   -0.000003   0.000178   0.003200   0.002713   0.000974   0.000129
    20  H    0.000694  -0.003338   0.002085  -0.002556  -0.000001   0.000006
    21  H   -0.000313   0.005715  -0.000682   0.000029  -0.000000  -0.000000
    22  H   -0.060659   0.010033  -0.000001   0.000000   0.000000  -0.000000
    23  H    0.350146  -0.027501  -0.000005   0.000001  -0.000000  -0.000000
    24  H    0.000007   0.000301   0.472570  -0.060733   0.000012  -0.000007
    25  H   -0.000001  -0.000000  -0.056218   0.458965   0.000112   0.000923
              19         20         21         22         23         24
     1  N    0.001801  -0.000344  -0.000000   0.000000  -0.000000  -0.000214
     2  C   -0.085709   0.024912  -0.000017  -0.000000  -0.000001   0.024085
     3  C    0.452858  -0.060088  -0.000032   0.000000   0.000009  -0.004971
     4  C   -0.051984   0.497599  -0.000982   0.000014   0.000011   0.016501
     5  C    0.027324  -0.153058   0.003738   0.000001  -0.000017  -0.129709
     6  S   -0.000677   0.008351  -0.003572   0.000006  -0.000018   0.007140
     7  O   -0.000012   0.001526   0.002328   0.000001   0.000006   0.016383
     8  O   -0.000026   0.002762  -0.000597  -0.000000   0.000000   0.002795
     9  N    0.000092   0.004334   0.324453  -0.000380   0.000068   0.001607
    10  C   -0.000043  -0.008710  -0.011488   0.008943   0.004048   0.000007
    11  N   -0.000021   0.001937   0.005414  -0.028628   0.009936   0.000003
    12  C   -0.000014   0.000840   0.002429   0.418932  -0.006531  -0.000001
    13  C   -0.000003   0.000694  -0.000313  -0.060659   0.350146   0.000007
    14  S    0.000178  -0.003338   0.005715   0.010033  -0.027501   0.000301
    15  C    0.003200   0.002085  -0.000682  -0.000001  -0.000005   0.472570
    16  C    0.002713  -0.002556   0.000029   0.000000   0.000001  -0.060733
    17  H    0.000974  -0.000001  -0.000000   0.000000  -0.000000   0.000012
    18  H    0.000129   0.000006  -0.000000  -0.000000  -0.000000  -0.000007
    19  H    0.490089  -0.009318  -0.000002   0.000000   0.000000  -0.000030
    20  H   -0.009318   0.487277   0.000214  -0.000021  -0.000010   0.000082
    21  H   -0.000002   0.000214   0.339387  -0.000019  -0.000022  -0.000036
    22  H    0.000000  -0.000021  -0.000019   0.489198  -0.000636  -0.000000
    23  H    0.000000  -0.000010  -0.000022  -0.000636   0.443745  -0.000000
    24  H   -0.000030   0.000082  -0.000036  -0.000000  -0.000000   0.494066
    25  H   -0.000363  -0.000003   0.000000   0.000000   0.000000  -0.009489
              25
     1  N    0.001137
     2  C   -0.092408
     3  C    0.002348
     4  C    0.002737
     5  C    0.031137
     6  S   -0.000902
     7  O   -0.000072
     8  O   -0.000028
     9  N   -0.000024
    10  C    0.000008
    11  N    0.000000
    12  C   -0.000000
    13  C   -0.000001
    14  S   -0.000000
    15  C   -0.056218
    16  C    0.458965
    17  H    0.000112
    18  H    0.000923
    19  H   -0.000363
    20  H   -0.000003
    21  H    0.000000
    22  H    0.000000
    23  H    0.000000
    24  H   -0.009489
    25  H    0.492590
 Mulliken charges:
               1
     1  N   -0.365215
     2  C    0.223338
     3  C   -0.221430
     4  C   -0.063926
     5  C   -0.237055
     6  S    0.548847
     7  O   -0.417538
     8  O   -0.420400
     9  N   -0.206395
    10  C   -0.102635
    11  N   -0.146762
    12  C   -0.201934
    13  C   -0.199635
    14  S    0.129241
    15  C   -0.086883
    16  C   -0.215675
    17  H    0.273419
    18  H    0.273740
    19  H    0.168845
    20  H    0.204829
    21  H    0.334053
    22  H    0.163216
    23  H    0.226771
    24  H    0.169630
    25  H    0.169552
 Sum of Mulliken charges =  -0.00000
 Mulliken charges with hydrogens summed into heavy atoms:
               1
     1  N    0.181944
     2  C    0.223338
     3  C   -0.052585
     4  C    0.140904
     5  C   -0.237055
     6  S    0.548847
     7  O   -0.417538
     8  O   -0.420400
     9  N    0.127658
    10  C   -0.102635
    11  N   -0.146762
    12  C   -0.038717
    13  C    0.027137
    14  S    0.129241
    15  C    0.082747
    16  C   -0.046123
 Electronic spatial extent (au):  <R**2>=           4475.6451
 Charge=             -0.0000 electrons
 Dipole moment (field-independent basis, Debye):
    X=              6.7492    Y=            -10.3763    Z=             -1.5588  Tot=             12.4760
 Quadrupole moment (field-independent basis, Debye-Ang):
   XX=            -73.5348   YY=           -113.1913   ZZ=           -107.4644
   XY=            -10.2478   XZ=              3.4622   YZ=             -1.6256
 Traceless Quadrupole moment (field-independent basis, Debye-Ang):
   XX=             24.5287   YY=            -15.1278   ZZ=             -9.4009
   XY=            -10.2478   XZ=              3.4622   YZ=             -1.6256
 Octapole moment (field-independent basis, Debye-Ang**2):
  XXX=            163.6544  YYY=           -100.5217  ZZZ=             -7.1465  XYY=             12.9237
  XXY=            -99.6451  XXZ=             30.8108  XZZ=             17.3746  YZZ=            -12.3589
  YYZ=             -3.3669  XYZ=             30.2931
 Hexadecapole moment (field-independent basis, Debye-Ang**3):
 XXXX=          -3005.3317 YYYY=          -1723.8962 ZZZZ=           -567.1932 XXXY=           -277.3624
 XXXZ=             85.4187 YYYX=            -78.5006 YYYZ=             21.9906 ZZZX=              3.5083
 ZZZY=            -16.1421 XXYY=           -600.2462 XXZZ=           -703.0858 YYZZ=           -354.8317
 XXYZ=              6.4857 YYXZ=            -25.7305 ZZXY=            -23.2895
 N-N= 1.341640137815D+03 E-N=-6.122035525404D+03  KE= 1.454380403785D+03
 No NMR shielding tensors so no spin-rotation constants.
 Leave Link  601 at Mon Feb 22 21:12:11 2021, MaxMem=   104857600 cpu:               6.8 elap:               0.3
 (Enter /sw/arch/RedHatEnterpriseServer7/EB_production/2019/software/Gaussian/g16.c01/l701.exe)
 ... and contract with generalized density number  0.
 Compute integral first derivatives.
 R6Disp: Adding Grimme-D3 dispersion energy 1st derivatives to the gradient.
 PrsmSu:  requested number of processors reduced to:  27 ShMem   1 Linda.
 D1PCM: PCM CHGder 1st derivatives, ID1Alg=3 FixD1E=F DoIter=F DoCFld=F I1PDM=0.
 GePol: Maximum number of non-zero 1st derivatives   =     236
 CoulSu:  requested number of processors reduced to:  28 ShMem   1 Linda.
 CoulSu:  requested number of processors reduced to:  29 ShMem   1 Linda.
 Leave Link  701 at Mon Feb 22 21:12:13 2021, MaxMem=   104857600 cpu:              39.1 elap:               1.4
 (Enter /sw/arch/RedHatEnterpriseServer7/EB_production/2019/software/Gaussian/g16.c01/l702.exe)
 L702 exits ... SP integral derivatives will be done elsewhere.
 Leave Link  702 at Mon Feb 22 21:12:14 2021, MaxMem=   104857600 cpu:               0.9 elap:               0.1
 (Enter /sw/arch/RedHatEnterpriseServer7/EB_production/2019/software/Gaussian/g16.c01/l703.exe)
 Integral derivatives from FoFJK, PRISM(SPDF).
 Compute integral first derivatives, UseDBF=F ICtDFT=           0.
 Calling FoFJK, ICntrl=      2527 FMM=F ISym2X=0 I1Cent= 0 IOpClX= 0 NMat=1 NMatS=1 NMatT=0.
 FoFJK:  IHMeth= 1 ICntrl=    2527 DoSepK=F KAlg= 0 I1Cent=           0 FoldK=F
 IRaf=         0 NMat=       1 IRICut=       1 DoRegI=T DoRafI=F ISym2E= 0 IDoP0=0 IntGTp=1.
 FoFCou: FMM=F IPFlag=           0 FMFlag=      100000 FMFlg1=         800
         NFxFlg=           0 DoJE=F BraDBF=F KetDBF=F FulRan=T
         wScrn=  0.000000 ICntrl=      2527 IOpCl=  0 I1Cent=           0 NGrid=           0
         NMat0=    1 NMatS0=      1 NMatT0=    0 NMatD0=    1 NMtDS0=    0 NMtDT0=    0
 Symmetry not used in FoFCou.
 Leave Link  703 at Mon Feb 22 21:12:18 2021, MaxMem=   104857600 cpu:             135.5 elap:               4.3
 (Enter /sw/arch/RedHatEnterpriseServer7/EB_production/2019/software/Gaussian/g16.c01/l716.exe)
 Dipole        = 2.65534802D+00-4.08235434D+00-6.13261415D-01
 ***** Axes restored to original set *****
 -------------------------------------------------------------------
 Center     Atomic                   Forces (Hartrees/Bohr)
 Number     Number              X              Y              Z
 -------------------------------------------------------------------
      1        7          -0.029360087    0.004405383   -0.010588613
      2        6          -0.002367478    0.001481403   -0.000678115
      3        6          -0.038508386   -0.018975016   -0.049457660
      4        6           0.040391156   -0.035216799   -0.019140416
      5        6           0.013923254    0.011856699    0.010269827
      6       16          -0.054101074   -0.081206765   -0.067907548
      7        8           0.006696293    0.010931438    0.069962821
      8        8           0.040717782    0.058623080   -0.007165888
      9        7           0.039053795   -0.023277512   -0.023304982
     10        6           0.023347225    0.093905741   -0.005709928
     11        7          -0.024294682   -0.026521616    0.016798461
     12        6           0.032570426   -0.059425229   -0.033137124
     13        6          -0.067543715   -0.043682932    0.044931956
     14       16           0.024300130   -0.020536368   -0.021457836
     15        6           0.023664389    0.021780709    0.042222650
     16        6          -0.054171235    0.037372873    0.013839532
     17        1           0.016905184    0.018833631    0.033728578
     18        1           0.027802508   -0.026479479   -0.016562439
     19        1           0.015597681    0.025952861    0.044106995
     20        1          -0.031239039    0.035750803    0.025186855
     21        1          -0.041455981   -0.002332062    0.030721774
     22        1          -0.017367145    0.049188776    0.018938435
     23        1           0.039473283    0.029057150   -0.024905464
     24        1          -0.016039242   -0.025333926   -0.045320387
     25        1           0.032004959   -0.036152845   -0.025371483
 -------------------------------------------------------------------
 Cartesian Forces:  Max     0.093905741 RMS     0.035375413
 Leave Link  716 at Mon Feb 22 21:12:18 2021, MaxMem=   104857600 cpu:               1.7 elap:               0.1
 (Enter /sw/arch/RedHatEnterpriseServer7/EB_production/2019/software/Gaussian/g16.c01/l103.exe)

 GradGradGradGradGradGradGradGradGradGradGradGradGradGradGradGradGradGrad
 Berny optimization.
 FormGI is forming the generalized inverse of G from B-inverse, IUseBI=4.
 GSVD:  received Info=                   1 from GESDD.
 Internal  Forces:  Max     0.069689035 RMS     0.018964088
 Search for a local minimum.
 Step number   1 out of a maximum of  133
 All quantities printed in internal units (Hartrees-Bohrs-Radians)
 RMS Force = .18964D-01 SwitMx=.10000D-02 MixMth= 1
 Mixed Optimization -- RFO/linear search
 Second derivative matrix not updated -- first step.
 ITU=  0
     Eigenvalues ---    0.00755   0.01119   0.01437   0.01478   0.01618
     Eigenvalues ---    0.01727   0.01960   0.01967   0.01970   0.01974
     Eigenvalues ---    0.01984   0.01986   0.01989   0.01993   0.02094
     Eigenvalues ---    0.02148   0.02177   0.02360   0.02383   0.02384
     Eigenvalues ---    0.08094   0.09603   0.14999   0.15998   0.15999
     Eigenvalues ---    0.16000   0.16000   0.16000   0.16000   0.16000
     Eigenvalues ---    0.16000   0.16000   0.20379   0.21999   0.22000
     Eigenvalues ---    0.22491   0.22972   0.24000   0.24707   0.24998
     Eigenvalues ---    0.24999   0.25000   0.25000   0.28546   0.29067
     Eigenvalues ---    0.29982   0.34327   0.40405   0.40601   0.43764
     Eigenvalues ---    0.43804   0.43921   0.43971   0.44020   0.44081
     Eigenvalues ---    0.44090   0.44219   0.44223   0.44404   0.44522
     Eigenvalues ---    0.50198   0.50358   0.50750   0.53185   0.53186
     Eigenvalues ---    0.53243   0.53502   0.55134   0.55501
 RFO step:  Lambda=-9.06243171D-02 EMin= 7.54712136D-03
 Linear search not attempted -- first point.
 Maximum step size (   0.300) exceeded in Quadratic search.
    -- Step size scaled by   0.693
 Iteration  1 RMS(Cart)=  0.06396393 RMS(Int)=  0.00085519
 Iteration  2 RMS(Cart)=  0.00187220 RMS(Int)=  0.00022314
 Iteration  3 RMS(Cart)=  0.00000171 RMS(Int)=  0.00022314
 Iteration  4 RMS(Cart)=  0.00000000 RMS(Int)=  0.00022314
 ITry= 1 IFail=0 DXMaxC= 2.06D-01 DCOld= 1.00D+10 DXMaxT= 3.00D-01 DXLimC= 3.00D+00 Rises=F
 Variable       Old X    -DE/DX   Delta X   Delta X   Delta X     New X
                                 (Linear)    (Quad)   (Total)
    R1        2.54690   0.01700   0.00000   0.01825   0.01825   2.56515
    R2        1.83427   0.04199   0.00000   0.04672   0.04672   1.88099
    R3        1.83480   0.04165   0.00000   0.04638   0.04638   1.88118
    R4        2.66430   0.00916   0.00000   0.01240   0.01239   2.67669
    R5        2.66301   0.01073   0.00000   0.01447   0.01446   2.67747
    R6        2.66024  -0.01764   0.00000  -0.02292  -0.02292   2.63731
    R7        1.93390   0.05350   0.00000   0.07015   0.07015   2.00405
    R8        2.66523  -0.00280   0.00000  -0.00414  -0.00413   2.66111
    R9        1.93439   0.05374   0.00000   0.07052   0.07052   2.00490
   R10        3.34659  -0.00329   0.00000  -0.00607  -0.00607   3.34052
   R11        2.66268  -0.00351   0.00000  -0.00501  -0.00500   2.65768
   R12        3.03366  -0.06969   0.00000  -0.08152  -0.08152   2.95214
   R13        3.03206  -0.06957   0.00000  -0.08116  -0.08116   2.95090
   R14        3.23783  -0.00505   0.00000  -0.00807  -0.00807   3.22975
   R15        2.55013   0.02473   0.00000   0.02670   0.02670   2.57683
   R16        1.83188   0.05149   0.00000   0.05705   0.05705   1.88893
   R17        2.55283  -0.02973   0.00000  -0.03272  -0.03259   2.52023
   R18        3.32500   0.00524   0.00000   0.01017   0.01048   3.33548
   R19        2.57202  -0.00768   0.00000  -0.00942  -0.00962   2.56239
   R20        2.64085  -0.01060   0.00000  -0.01359  -0.01388   2.62696
   R21        1.92889   0.05513   0.00000   0.07172   0.07172   2.00061
   R22        3.30827  -0.00711   0.00000  -0.01140  -0.01142   3.29685
   R23        1.92674   0.05434   0.00000   0.07045   0.07045   1.99719
   R24        2.65706  -0.01683   0.00000  -0.02169  -0.02169   2.63537
   R25        1.93249   0.05433   0.00000   0.07109   0.07109   2.00358
   R26        1.93189   0.05454   0.00000   0.07129   0.07129   2.00318
    A1        2.09542   0.00251   0.00000   0.00693   0.00693   2.10235
    A2        2.09662   0.00213   0.00000   0.00590   0.00590   2.10252
    A3        2.09105  -0.00464   0.00000  -0.01282  -0.01282   2.07823
    A4        2.09969   0.00176   0.00000   0.00275   0.00276   2.10245
    A5        2.09728   0.00188   0.00000   0.00299   0.00300   2.10028
    A6        2.08616  -0.00364   0.00000  -0.00573  -0.00575   2.08041
    A7        2.09770   0.00064   0.00000   0.00236   0.00235   2.10005
    A8        2.10060   0.00024   0.00000   0.00038   0.00038   2.10098
    A9        2.08487  -0.00088   0.00000  -0.00273  -0.00273   2.08214
   A10        2.09842  -0.00365   0.00000  -0.00883  -0.00882   2.08960
   A11        2.08398   0.00102   0.00000   0.00219   0.00219   2.08617
   A12        2.10078   0.00263   0.00000   0.00665   0.00664   2.10742
   A13        2.10511  -0.00119   0.00000  -0.00179  -0.00180   2.10331
   A14        2.08553   0.01023   0.00000   0.01956   0.01958   2.10511
   A15        2.09254  -0.00904   0.00000  -0.01776  -0.01777   2.07477
   A16        1.92394  -0.00004   0.00000  -0.00076  -0.00159   1.92235
[...]
                 (A) (A) (A) (A) (A) (A) (A) (A) (A) (A) (A) (A)
                 (A) (A) (A) (A) (A) (A) (A) (A) (A) (A) (A) (A)
                 (A) (A) (A) (A) (A) (A) (A) (A) (A) (A) (A) (A)
                 (A) (A) (A) (A) (A) (A) (A) (A) (A) (A) (A) (A)
                 (A) (A) (A) (A) (A) (A) (A) (A) (A) (A) (A) (A)
                 (A) (A) (A) (A) (A) (A) (A) (A) (A) (A) (A) (A)
                 (A) (A) (A) (A) (A) (A) (A) (A) (A) (A) (A) (A)
                 (A) (A) (A) (A) (A) (A) (A) (A) (A) (A) (A) (A)
                 (A) (A) (A) (A) (A) (A) (A) (A) (A) (A) (A) (A)
                 (A) (A) (A) (A) (A) (A) (A) (A) (A) (A) (A) (A)
                 (A) (A) (A) (A) (A) (A) (A) (A) (A) (A)
 The electronic state is 1-A.
 Alpha  occ. eigenvalues --  -88.36342 -88.18372 -18.78998 -18.78959 -14.05636
 Alpha  occ. eigenvalues --  -14.01971 -14.01747 -10.00606  -9.96279  -9.94256
 Alpha  occ. eigenvalues --   -9.93931  -9.93871  -9.92597  -9.92585  -9.91256
 Alpha  occ. eigenvalues --   -9.91217  -7.89084  -7.73600  -5.91291  -5.91269
 Alpha  occ. eigenvalues --   -5.91072  -5.75879  -5.75485  -5.75114  -1.03717
 Alpha  occ. eigenvalues --   -0.93756  -0.91534  -0.85854  -0.84766  -0.79208
 Alpha  occ. eigenvalues --   -0.74309  -0.70351  -0.69857  -0.67365  -0.62042
 Alpha  occ. eigenvalues --   -0.57625  -0.56580  -0.54658  -0.53456  -0.50354
 Alpha  occ. eigenvalues --   -0.48634  -0.47967  -0.46812  -0.46288  -0.43398
 Alpha  occ. eigenvalues --   -0.42145  -0.40871  -0.40237  -0.39462  -0.39139
 Alpha  occ. eigenvalues --   -0.37964  -0.37292  -0.36601  -0.34029  -0.32196
 Alpha  occ. eigenvalues --   -0.31980  -0.31415  -0.30105  -0.29574  -0.28898
 Alpha  occ. eigenvalues --   -0.28309  -0.26781  -0.26237  -0.25083  -0.22061
 Alpha  occ. eigenvalues --   -0.20006
 Alpha virt. eigenvalues --   -0.08760  -0.06476  -0.05870  -0.02683  -0.01634
 Alpha virt. eigenvalues --   -0.00360   0.01223   0.03078   0.03465   0.03972
 Alpha virt. eigenvalues --    0.04724   0.05623   0.06313   0.06845   0.07635
 Alpha virt. eigenvalues --    0.08155   0.09230   0.09468   0.10475   0.11226
 Alpha virt. eigenvalues --    0.12069   0.13477   0.14220   0.14856   0.15978
 Alpha virt. eigenvalues --    0.16559   0.17240   0.18747   0.19437   0.19616
 Alpha virt. eigenvalues --    0.20428   0.20826   0.21607   0.22191   0.22642
 Alpha virt. eigenvalues --    0.23909   0.24491   0.25089   0.25627   0.26261
 Alpha virt. eigenvalues --    0.27316   0.27964   0.28748   0.29122   0.29651
 Alpha virt. eigenvalues --    0.30318   0.30950   0.31372   0.31645   0.32022
 Alpha virt. eigenvalues --    0.32957   0.33765   0.34324   0.34491   0.34858
 Alpha virt. eigenvalues --    0.35938   0.36796   0.37337   0.38124   0.38206
 Alpha virt. eigenvalues --    0.39912   0.40159   0.40725   0.41042   0.41311
 Alpha virt. eigenvalues --    0.41847   0.42893   0.43478   0.44014   0.44783
 Alpha virt. eigenvalues --    0.44934   0.46166   0.47349   0.48515   0.49134
 Alpha virt. eigenvalues --    0.50042   0.50057   0.50430   0.51950   0.52853
 Alpha virt. eigenvalues --    0.54139   0.54761   0.55737   0.56997   0.57425
 Alpha virt. eigenvalues --    0.57675   0.59412   0.60292   0.60373   0.62568
 Alpha virt. eigenvalues --    0.63271   0.63959   0.65183   0.65469   0.66534
 Alpha virt. eigenvalues --    0.68361   0.68497   0.69687   0.70327   0.72212
 Alpha virt. eigenvalues --    0.73083   0.75292   0.77446   0.77950   0.78737
 Alpha virt. eigenvalues --    0.80503   0.82395   0.84555   0.84827   0.88659
 Alpha virt. eigenvalues --    0.90125   0.94864   1.00442   1.02869   1.11014
 Alpha virt. eigenvalues --    1.15196   1.16717   1.17052   1.17487   1.17739
 Alpha virt. eigenvalues --    1.18416   1.20534   1.22303   1.22927   1.24942
 Alpha virt. eigenvalues --    1.26236   1.28151   1.29439   1.30284   1.30637
 Alpha virt. eigenvalues --    1.32343   1.33523   1.33563   1.34025   1.34690
 Alpha virt. eigenvalues --    1.36285   1.36900   1.37608   1.38282   1.38615
 Alpha virt. eigenvalues --    1.39734   1.40695   1.42494   1.43279   1.44479
 Alpha virt. eigenvalues --    1.45312   1.46439   1.46735   1.47872   1.49591
 Alpha virt. eigenvalues --    1.50587   1.51536   1.52632   1.54844   1.56004
 Alpha virt. eigenvalues --    1.57094   1.59208   1.60182   1.62307   1.62861
 Alpha virt. eigenvalues --    1.63086   1.64392   1.67334   1.67879   1.69855
 Alpha virt. eigenvalues --    1.70462   1.72502   1.73376   1.75584   1.76419
 Alpha virt. eigenvalues --    1.77327   1.79166   1.79815   1.81085   1.82493
 Alpha virt. eigenvalues --    1.82824   1.83728   1.85986   1.88024   1.88826
 Alpha virt. eigenvalues --    1.89137   1.90376   1.90774   1.90918   1.92755
 Alpha virt. eigenvalues --    1.92979   1.96008   1.98417   2.00176   2.01484
 Alpha virt. eigenvalues --    2.04219   2.05566   2.06830   2.07739   2.09266
 Alpha virt. eigenvalues --    2.09852   2.12361   2.13498   2.14021   2.15449
 Alpha virt. eigenvalues --    2.15516   2.17184   2.17217   2.21763   2.22409
 Alpha virt. eigenvalues --    2.23176   2.23776   2.25594   2.27126   2.27210
 Alpha virt. eigenvalues --    2.28106   2.30948   2.32563   2.33926   2.33974
 Alpha virt. eigenvalues --    2.35858   2.37120   2.37891   2.39611   2.42724
 Alpha virt. eigenvalues --    2.43359   2.43920   2.45558   2.46397   2.47393
 Alpha virt. eigenvalues --    2.48788   2.51160   2.51360   2.52693   2.54207
 Alpha virt. eigenvalues --    2.54497   2.54968   2.55596   2.55834   2.56184
 Alpha virt. eigenvalues --    2.57642   2.59063   2.59885   2.61785   2.62252
 Alpha virt. eigenvalues --    2.62903   2.65095   2.65996   2.66635   2.67468
 Alpha virt. eigenvalues --    2.68368   2.70864   2.72496   2.74509   2.75233
 Alpha virt. eigenvalues --    2.76419   2.78623   2.82303   2.84091   2.87849
 Alpha virt. eigenvalues --    2.90112   2.91976   2.94806   2.96163   2.96997
 Alpha virt. eigenvalues --    2.97302   3.02493   3.02698   3.06024   3.07123
 Alpha virt. eigenvalues --    3.08685   3.09008   3.16707   3.23368   3.24447
 Alpha virt. eigenvalues --    3.30930   3.34676   3.36077   3.38824   3.41473
 Alpha virt. eigenvalues --    3.44196   3.46047   3.61529   3.69269   3.75691
 Alpha virt. eigenvalues --    3.77163   3.83237  18.65980  19.39490  21.13444
 Alpha virt. eigenvalues --   21.35999  21.56717  21.69000  21.74484  21.78174
 Alpha virt. eigenvalues --   21.81790  21.83268  21.95982  31.42099  31.50008
 Alpha virt. eigenvalues --   31.54647  42.98113  43.13825
          Condensed to atoms (all electrons):
               1          2          3          4          5          6
     1  N    6.381569   0.399418  -0.084299   0.013117  -0.000604   0.000063
     2  C    0.399418   5.755600  -0.293123   0.572632  -0.748886   0.006441
     3  C   -0.084299  -0.293123   6.210068  -0.482938   0.662518  -0.001334
     4  C    0.013117   0.572632  -0.482938   6.579335  -0.863551   0.001561
     5  C   -0.000604  -0.748886   0.662518  -0.863551   8.193995   0.142874
     6  S    0.000063   0.006441  -0.001334   0.001561   0.142874  14.522252
     7  O    0.000001   0.000986  -0.002886   0.034439  -0.076084   0.352051
     8  O    0.000001   0.001380  -0.005654  -0.023572  -0.074482   0.331796
     9  N   -0.000009  -0.002756   0.002994   0.002175  -0.050692   0.086896
    10  C    0.000072  -0.003103   0.002690  -0.014933  -0.015805  -0.014201
    11  N   -0.000013   0.003704  -0.004661   0.016435  -0.032495  -0.003321
    12  C   -0.000022  -0.000726  -0.000066   0.001324   0.008501   0.001019
    13  C   -0.000006   0.000644  -0.000380   0.000341  -0.002568  -0.000126
    14  S    0.000004   0.001009  -0.000757   0.003153  -0.030758  -0.003134
    15  C    0.014655   0.752923  -0.510700   0.223371  -1.468866  -0.016994
    16  C   -0.087495  -0.415736   0.338096  -0.427302   0.835656  -0.005875
    17  H    0.364691  -0.021524  -0.014165   0.000878   0.000310   0.000002
    18  H    0.364991  -0.020080   0.013141  -0.002003   0.000187   0.000002
    19  H   -0.002379  -0.099536   0.466074  -0.072202   0.035325  -0.000272
    20  H   -0.000109   0.032336  -0.080432   0.482526  -0.135122  -0.008919
    21  H   -0.000000   0.000209  -0.000758   0.000534  -0.005920  -0.006872
    22  H    0.000003  -0.000130   0.000042  -0.000042   0.000314   0.000006
    23  H    0.000000  -0.000006   0.000002  -0.000013   0.000048  -0.000011
    24  H   -0.000150   0.027346  -0.007059   0.015826  -0.147716   0.000736
    25  H   -0.002161  -0.103700   0.016886  -0.006312   0.040529  -0.000420
               7          8          9         10         11         12
     1  N    0.000001   0.000001  -0.000009   0.000072  -0.000013  -0.000022
     2  C    0.000986   0.001380  -0.002756  -0.003103   0.003704  -0.000726
     3  C   -0.002886  -0.005654   0.002994   0.002690  -0.004661  -0.000066
     4  C    0.034439  -0.023572   0.002175  -0.014933   0.016435   0.001324
     5  C   -0.076084  -0.074482  -0.050692  -0.015805  -0.032495   0.008501
     6  S    0.352051   0.331796   0.086896  -0.014201  -0.003321   0.001019
     7  O    8.225129  -0.073907  -0.063755  -0.013600   0.001132   0.000103
     8  O   -0.073907   8.232010  -0.064416   0.007129   0.000439   0.000017
     9  N   -0.063755  -0.064416   7.001722   0.199410  -0.116849   0.014138
    10  C   -0.013600   0.007129   0.199410   5.396844   0.498019  -0.071866
    11  N    0.001132   0.000439  -0.116849   0.498019   6.501675   0.441517
    12  C    0.000103   0.000017   0.014138  -0.071866   0.441517   4.923058
    13  C    0.000266  -0.000007   0.002611  -0.134201  -0.095189   0.544643
    14  S    0.001250  -0.000053  -0.074036   0.371935  -0.105492  -0.061833
    15  C   -0.020214   0.041652  -0.039755   0.012244   0.020836  -0.011409
    16  C   -0.004196  -0.003528   0.003742   0.004390  -0.006107   0.002687
    17  H    0.000000   0.000000  -0.000000   0.000001   0.000000  -0.000000
    18  H    0.000000   0.000000  -0.000000   0.000002  -0.000000  -0.000001
    19  H   -0.000005  -0.000072   0.000052   0.000011  -0.000055   0.000001
    20  H    0.000689   0.019835  -0.000691  -0.000090   0.000435  -0.000012
    21  H    0.003740   0.000581   0.339934  -0.042678   0.007929   0.001747
    22  H   -0.000001  -0.000000  -0.000374   0.008517  -0.029511   0.407319
    23  H   -0.000003  -0.000000  -0.000046   0.003858   0.005969  -0.003668
    24  H    0.013202   0.000915   0.000847  -0.001584   0.000775  -0.001120
    25  H   -0.000049  -0.000006   0.000057   0.000140  -0.000153   0.000201
              13         14         15         16         17         18
     1  N   -0.000006   0.000004   0.014655  -0.087495   0.364691   0.364991
     2  C    0.000644   0.001009   0.752923  -0.415736  -0.021524  -0.020080
     3  C   -0.000380  -0.000757  -0.510700   0.338096  -0.014165   0.013141
     4  C    0.000341   0.003153   0.223371  -0.427302   0.000878  -0.002003
     5  C   -0.002568  -0.030758  -1.468866   0.835656   0.000310   0.000187
     6  S   -0.000126  -0.003134  -0.016994  -0.005875   0.000002   0.000002
     7  O    0.000266   0.001250  -0.020214  -0.004196   0.000000   0.000000
     8  O   -0.000007  -0.000053   0.041652  -0.003528   0.000000   0.000000
     9  N    0.002611  -0.074036  -0.039755   0.003742  -0.000000  -0.000000
    10  C   -0.134201   0.371935   0.012244   0.004390   0.000001   0.000002
    11  N   -0.095189  -0.105492   0.020836  -0.006107   0.000000  -0.000000
    12  C    0.544643  -0.061833  -0.011409   0.002687  -0.000000  -0.000001
    13  C    5.227817   0.338796   0.003355   0.000175   0.000000  -0.000000
    14  S    0.338796  15.393322   0.015292  -0.003771   0.000000   0.000000
    15  C    0.003355   0.015292   7.400004  -0.825936  -0.002221   0.001176
    16  C    0.000175  -0.003771  -0.825936   6.421946   0.013817  -0.015064
    17  H    0.000000   0.000000  -0.002221   0.013817   0.397585  -0.023411
    18  H   -0.000000   0.000000   0.001176  -0.015064  -0.023411   0.396973
    19  H   -0.000002  -0.000004  -0.008814   0.019145   0.002161   0.000082
    20  H    0.000003   0.000056   0.035086  -0.013979  -0.000029   0.000010
    21  H   -0.000204   0.005874   0.003788  -0.000172  -0.000000   0.000000
    22  H   -0.051122   0.007932  -0.000389   0.000095   0.000000   0.000000
    23  H    0.355737  -0.027199   0.000006   0.000046   0.000000   0.000000
    24  H    0.000514   0.004319   0.491137  -0.060064   0.000010  -0.000018
    25  H   -0.000002  -0.000111  -0.079514   0.471428   0.000108   0.001992
              19         20         21         22         23         24
     1  N   -0.002379  -0.000109  -0.000000   0.000003   0.000000  -0.000150
     2  C   -0.099536   0.032336   0.000209  -0.000130  -0.000006   0.027346
     3  C    0.466074  -0.080432  -0.000758   0.000042   0.000002  -0.007059
     4  C   -0.072202   0.482526   0.000534  -0.000042  -0.000013   0.015826
     5  C    0.035325  -0.135122  -0.005920   0.000314   0.000048  -0.147716
     6  S   -0.000272  -0.008919  -0.006872   0.000006  -0.000011   0.000736
     7  O   -0.000005   0.000689   0.003740  -0.000001  -0.000003   0.013202
     8  O   -0.000072   0.019835   0.000581  -0.000000  -0.000000   0.000915
     9  N    0.000052  -0.000691   0.339934  -0.000374  -0.000046   0.000847
    10  C    0.000011  -0.000090  -0.042678   0.008517   0.003858  -0.001584
    11  N   -0.000055   0.000435   0.007929  -0.029511   0.005969   0.000775
    12  C    0.000001  -0.000012   0.001747   0.407319  -0.003668  -0.001120
    13  C   -0.000002   0.000003  -0.000204  -0.051122   0.355737   0.000514
    14  S   -0.000004   0.000056   0.005874   0.007932  -0.027199   0.004319
    15  C   -0.008814   0.035086   0.003788  -0.000389   0.000006   0.491137
    16  C    0.019145  -0.013979  -0.000172   0.000095   0.000046  -0.060064
    17  H    0.002161  -0.000029  -0.000000   0.000000   0.000000   0.000010
    18  H    0.000082   0.000010   0.000000   0.000000   0.000000  -0.000018
    19  H    0.504443  -0.010284  -0.000015   0.000000   0.000000  -0.000025
    20  H   -0.010284   0.510116   0.000707  -0.000001  -0.000000   0.000150
    21  H   -0.000015   0.000707   0.391104  -0.000061  -0.000005  -0.000100
    22  H    0.000000  -0.000001  -0.000061   0.487188  -0.000479  -0.000051
    23  H    0.000000  -0.000000  -0.000005  -0.000479   0.436270   0.000025
    24  H   -0.000025   0.000150  -0.000100  -0.000051   0.000025   0.497078
    25  H   -0.000112  -0.000059  -0.000002   0.000013  -0.000001  -0.009178
              25
     1  N   -0.002161
     2  C   -0.103700
     3  C    0.016886
     4  C   -0.006312
     5  C    0.040529
     6  S   -0.000420
     7  O   -0.000049
     8  O   -0.000006
     9  N    0.000057
    10  C    0.000140
    11  N   -0.000153
    12  C    0.000201
    13  C   -0.000002
    14  S   -0.000111
    15  C   -0.079514
    16  C    0.471428
    17  H    0.000108
    18  H    0.001992
    19  H   -0.000112
    20  H   -0.000059
    21  H   -0.000002
    22  H    0.000013
    23  H   -0.000001
    24  H   -0.009178
    25  H    0.504944
 Mulliken charges:
               1
     1  N   -0.361338
     2  C    0.154677
     3  C   -0.223298
     4  C   -0.054780
     5  C   -0.266706
     6  S    0.615780
     7  O   -0.378290
     8  O   -0.390056
     9  N   -0.241197
    10  C   -0.193200
    11  N   -0.105020
    12  C   -0.195553
    13  C   -0.191093
    14  S    0.164205
    15  C   -0.030711
    16  C   -0.241997
    17  H    0.281787
    18  H    0.282022
    19  H    0.166482
    20  H    0.167776
    21  H    0.300639
    22  H    0.170733
    23  H    0.229471
    24  H    0.174184
    25  H    0.165483
 Sum of Mulliken charges =  -0.00000
 Mulliken charges with hydrogens summed into heavy atoms:
               1
     1  N    0.202471
     2  C    0.154677
     3  C   -0.056816
     4  C    0.112996
     5  C   -0.266706
     6  S    0.615780
     7  O   -0.378290
     8  O   -0.390056
     9  N    0.059442
    10  C   -0.193200
    11  N   -0.105020
    12  C   -0.024820
    13  C    0.038378
    14  S    0.164205
    15  C    0.143472
    16  C   -0.076515
 Electronic spatial extent (au):  <R**2>=           4074.2307
 Charge=             -0.0000 electrons
 Dipole moment (field-independent basis, Debye):
    X=              6.4544    Y=             -9.8077    Z=             -1.2192  Tot=             11.8041
 Quadrupole moment (field-independent basis, Debye-Ang):
   XX=            -82.3843   YY=           -107.1567   ZZ=           -106.3872
   XY=             -4.8658   XZ=             -5.1606   YZ=             -9.6639
 Traceless Quadrupole moment (field-independent basis, Debye-Ang):
   XX=             16.2584   YY=             -8.5140   ZZ=             -7.7445
   XY=             -4.8658   XZ=             -5.1606   YZ=             -9.6639
 Octapole moment (field-independent basis, Debye-Ang**2):
  XXX=            117.9639  YYY=           -107.8779  ZZZ=             -3.1180  XYY=             24.9634
  XXY=            -78.6510  XXZ=            -23.1074  XZZ=             12.6365  YZZ=             -4.7784
  YYZ=              6.1424  XYZ=              4.7688
 Hexadecapole moment (field-independent basis, Debye-Ang**3):
 XXXX=          -2571.3407 YYYY=          -1777.0867 ZZZZ=           -606.5765 XXXY=           -288.1289
 XXXZ=           -188.2151 YYYX=            -26.3020 YYYZ=              0.7094 ZZZX=            -15.1067
 ZZZY=            -51.3372 XXYY=           -604.2181 XXZZ=           -572.3291 YYZZ=           -379.2639
 XXYZ=            -41.8246 YYXZ=              8.2810 ZZXY=            -13.0569
 N-N= 1.367179553587D+03 E-N=-6.173771311570D+03  KE= 1.454103458721D+03
 Unable to Open any file for archive entry.
 1\1\GINC-TCN1655\SP\RBP86\TZVP\C9H9N3O2S2\ELENAA\22-Feb-2021\0\\# BP86
 /TZVP SCRF=COSMORS geom=CHECKPOINT guess=CHECKPOINT\\COSMO-file for #J
 NMRHUJNCSQMMB-UHFFFAOYSA-N\\0,1\N,0,2.8170151012,3.0548002061,3.057534
 9306\C,0,1.5290432968,3.1247421071,2.5983139273\C,0,0.4356219589,2.892
 3478667,3.4747051076\C,0,-0.8694745883,2.9323706752,3.0068964968\C,0,-
 1.107717375,3.172727683,1.6436182528\S,0,-2.7812643518,3.361884257,1.0
 689479388\O,0,-2.8217761632,3.1566891823,-0.4068620027\O,0,-3.73495643
 84,2.659147344,1.9743304381\N,0,-3.1889323099,5.0859396792,1.303126913
 8\C,0,-2.2492472545,6.0186367634,0.8507900314\N,0,-1.540242318,6.79055
 46293,1.6426065715\C,0,-0.7397815257,7.6373100494,0.9051288101\C,0,-0.
 8100710801,7.5039720991,-0.4573456652\S,0,-1.9768526811,6.2777403207,-
 0.8816017624\C,0,-0.0452675298,3.4164999103,0.7570362873\C,0,1.2594188
 499,3.3817571513,1.2285762976\H,0,2.9896727763,3.0628338293,4.05783254
 75\H,0,3.5721681473,3.4114096161,2.4805332122\H,0,0.6258657112,2.68972
 05739,4.5306481997\H,0,-1.7038584882,2.7610516864,3.6887487307\H,0,-3.
 3623582376,5.2186791598,2.3069914867\H,0,-0.0918563143,8.3421610153,1.
 4246425202\H,0,-0.2478988978,8.0296678151,-1.2247684221\H,0,-0.2438848
 398,3.6159111023,-0.2963813822\H,0,2.0874045519,3.5603652779,0.5394605
 338\\Version=ES64L-G16RevC.01\State=1-A\HF=-1459.7567368\RMSD=6.257e-0
 9\Dipole=4.265185,1.3282981,1.2693484\Quadrupole=5.8360751,-8.9871659,
 3.1510908,-6.1472967,3.6566676,-8.6923725\PG=C01 [X(C9H9N3O2S2)]\\@
 The archive entry for this job was punched.


 AND HERE I AM, FOR ALL MY LORE,
 THE WRETCHED FOOL I WAS BEFORE.
 CALLED MASTER OF ARTS, AND DOCTOR TO BOOT,
 FOR TEN YEARS ALMOST I CONFUTE
 AND UP AND DOWN, WHEREVER IT GOES
 I DRAG MY STUDENTS BY THE NOSE --
 AND SEE THAT FOR ALL OUR SCIENCE AND ART
 WE CAN KNOW NOTHING.  IT BURNS MY HEART.

                                       -- FAUST
 Job cpu time:       0 days  0 hours 13 minutes 18.4 seconds.
 Elapsed time:       0 days  0 hours  0 minutes 25.7 seconds.
 File lengths (MBytes):  RWF=    102 Int=      0 D2E=      0 Chk=     15 Scr=      1
 Normal termination of Gaussian 16 at Mon Feb 22 21:32:42 2021.
