 Entering Gaussian System, Link 0=g16
 Input=JOOXCMJARBKPKM-UHFFFAOYSA-N.gjf
 Output=JOOXCMJARBKPKM-UHFFFAOYSA-N.log
 Initial command:
 /sw/arch/RedHatEnterpriseServer7/EB_production/2019/software/Gaussian/g16.c01/l1.exe "/scratch-local/elenaa.9715224/Gau-29837.inp" -scrdir="/scratch-local/elenaa.9715224/"
 Entering Link 1 = /sw/arch/RedHatEnterpriseServer7/EB_production/2019/software/Gaussian/g16.c01/l1.exe PID=     29839.
  
 Copyright (c) 1988-2019, Gaussian, Inc.  All Rights Reserved.
  
 This is part of the Gaussian(R) 16 program.  It is based on
 the Gaussian(R) 09 system (copyright 2009, Gaussian, Inc.),
 the Gaussian(R) 03 system (copyright 2003, Gaussian, Inc.),
 the Gaussian(R) 98 system (copyright 1998, Gaussian, Inc.),
 the Gaussian(R) 94 system (copyright 1995, Gaussian, Inc.),
 the Gaussian 92(TM) system (copyright 1992, Gaussian, Inc.),
 the Gaussian 90(TM) system (copyright 1990, Gaussian, Inc.),
 the Gaussian 88(TM) system (copyright 1988, Gaussian, Inc.),
 the Gaussian 86(TM) system (copyright 1986, Carnegie Mellon
 University), and the Gaussian 82(TM) system (copyright 1983,
 Carnegie Mellon University). Gaussian is a federally registered
 trademark of Gaussian, Inc.
  
 This software contains proprietary and confidential information,
 including trade secrets, belonging to Gaussian, Inc.
  
 This software is provided under written license and may be
 used, copied, transmitted, or stored only in accord with that
 written license.
  
 The following legend is applicable only to US Government
 contracts under FAR:
  
                    RESTRICTED RIGHTS LEGEND
  
 Use, reproduction and disclosure by the US Government is
 subject to restrictions as set forth in subparagraphs (a)
 and (c) of the Commercial Computer Software - Restricted
 Rights clause in FAR 52.227-19.
  
 Gaussian, Inc.
 340 Quinnipiac St., Bldg. 40, Wallingford CT 06492
  
  
 ---------------------------------------------------------------
 Warning -- This program may not be used in any manner that
 competes with the business of Gaussian, Inc. or will provide
 assistance to any competitor of Gaussian, Inc.  The licensee
 of this program is prohibited from giving any competitor of
 Gaussian, Inc. access to this program.  By using this program,
 the user acknowledges that Gaussian, Inc. is engaged in the
 business of creating and licensing software in the field of
 computational chemistry and represents and warrants to the
 licensee that it is not a competitor of Gaussian, Inc. and that
 it will not use this program in any manner prohibited above.
 ---------------------------------------------------------------
  

 Cite this work as:
 Gaussian 16, Revision C.01,
 M. J. Frisch, G. W. Trucks, H. B. Schlegel, G. E. Scuseria, 
 M. A. Robb, J. R. Cheeseman, G. Scalmani, V. Barone, 
 G. A. Petersson, H. Nakatsuji, X. Li, M. Caricato, A. V. Marenich, 
 J. Bloino, B. G. Janesko, R. Gomperts, B. Mennucci, H. P. Hratchian, 
 J. V. Ortiz, A. F. Izmaylov, J. L. Sonnenberg, D. Williams-Young, 
 F. Ding, F. Lipparini, F. Egidi, J. Goings, B. Peng, A. Petrone, 
 T. Henderson, D. Ranasinghe, V. G. Zakrzewski, J. Gao, N. Rega, 
 G. Zheng, W. Liang, M. Hada, M. Ehara, K. Toyota, R. Fukuda, 
 J. Hasegawa, M. Ishida, T. Nakajima, Y. Honda, O. Kitao, H. Nakai, 
 T. Vreven, K. Throssell, J. A. Montgomery, Jr., J. E. Peralta, 
 F. Ogliaro, M. J. Bearpark, J. J. Heyd, E. N. Brothers, K. N. Kudin, 
 V. N. Staroverov, T. A. Keith, R. Kobayashi, J. Normand, 
 K. Raghavachari, A. P. Rendell, J. C. Burant, S. S. Iyengar, 
 J. Tomasi, M. Cossi, J. M. Millam, M. Klene, C. Adamo, R. Cammi, 
 J. W. Ochterski, R. L. Martin, K. Morokuma, O. Farkas, 
 J. B. Foresman, and D. J. Fox, Gaussian, Inc., Wallingford CT, 2019.
 
 ******************************************
 Gaussian 16:  ES64L-G16RevC.01  3-Jul-2019
                22-Feb-2021 
 ******************************************
 %chk=JOOXCMJARBKPKM-UHFFFAOYSA-N.chk
 %NProcShared=32
 Will use up to   32 processors via shared memory.
 -------------------------------------------------------------
 #P BP86/TZVP EmpiricalDispersion=GD3 SCRF=(Solvent=Water) Opt
 -------------------------------------------------------------
 1/18=20,19=15,26=3,38=1/1,3;
 2/9=110,12=2,17=6,18=5,40=1/2;
 3/5=19,7=101,11=2,25=1,30=1,70=2201,71=1,72=1,74=404,124=31/1,2,3;
 4//1;
 5/5=2,38=5,53=1/2;
 6/7=2,8=2,9=2,10=2,28=1/1;
 7//1,2,3,16;
 1/18=20,19=15,26=3/3(2);
 2/9=110/2;
 99//99;
 2/9=110/2;
 3/5=19,7=101,11=2,25=1,30=1,70=2205,71=1,72=1,74=404,124=31/1,2,3;
 4/5=5,16=3,69=1/1;
 5/5=2,38=5,53=1/2;
 7//1,2,3,16;
 1/18=20,19=15,26=3/3(-5);
 2/9=110/2;
 6/7=2,8=2,9=2,10=2,19=2,28=1/1;
 99/9=1/99;
 Leave Link    1 at Mon Feb 22 21:11:35 2021, MaxMem=           0 cpu:               2.7 elap:               0.1
 (Enter /sw/arch/RedHatEnterpriseServer7/EB_production/2019/software/Gaussian/g16.c01/l101.exe)
 -------------------------------------
 Particle #JOOXCMJARBKPKM-UHFFFAOYSA-N
 -------------------------------------
 Symbolic Z-matrix:
 Charge =  0 Multiplicity = 1
 C                    -1.04269  -0.78851  -2.88375 
 C                    -0.08392  -0.17228  -1.94579 
 O                     1.0172    0.23711  -2.38197 
 C                    -0.36973  -0.07968  -0.49251 
 C                    -1.40764   1.01386  -0.11794 
 C                    -0.94066   2.39065  -0.38263 
 O                     0.07907   2.83795   0.18854 
 O                    -1.6124    3.20153  -1.23447 
 H                    -0.61537  -0.86993  -3.88681 
 H                    -1.30235  -1.79207  -2.54309 
 H                    -1.94875  -0.18486  -2.94214 
 H                    -0.73996  -1.04838  -0.14743 
 H                     0.5573    0.11135   0.05427 
 H                    -2.33943   0.83045  -0.65945 
 H                    -1.6345    0.93331   0.9488 
 H                    -1.3014    4.11846  -1.39132 
 
 ITRead=  0  0  0  0  0  0  0  0  0  0  0  0  0  0  0  0
 MicOpt= -1 -1 -1 -1 -1 -1 -1 -1 -1 -1 -1 -1 -1 -1 -1 -1
 NAtoms=     16 NQM=       16 NQMF=       0 NMMI=      0 NMMIF=      0
                NMic=       0 NMicF=      0.
                    Isotopes and Nuclear Properties:
 (Nuclear quadrupole moments (NQMom) in fm**2, nuclear magnetic moments (NMagM)
  in nuclear magnetons)

  Atom         1           2           3           4           5           6           7           8           9          10
 IAtWgt=          12          12          16          12          12          12          16          16           1           1
 AtmWgt=  12.0000000  12.0000000  15.9949146  12.0000000  12.0000000  12.0000000  15.9949146  15.9949146   1.0078250   1.0078250
 NucSpn=           0           0           0           0           0           0           0           0           1           1
 AtZEff=  -0.0000000  -0.0000000  -0.0000000  -0.0000000  -0.0000000  -0.0000000  -0.0000000  -0.0000000  -0.0000000  -0.0000000
 NQMom=    0.0000000   0.0000000   0.0000000   0.0000000   0.0000000   0.0000000   0.0000000   0.0000000   0.0000000   0.0000000
 NMagM=    0.0000000   0.0000000   0.0000000   0.0000000   0.0000000   0.0000000   0.0000000   0.0000000   2.7928460   2.7928460
 AtZNuc=   6.0000000   6.0000000   8.0000000   6.0000000   6.0000000   6.0000000   8.0000000   8.0000000   1.0000000   1.0000000

  Atom        11          12          13          14          15          16
 IAtWgt=           1           1           1           1           1           1
 AtmWgt=   1.0078250   1.0078250   1.0078250   1.0078250   1.0078250   1.0078250
 NucSpn=           1           1           1           1           1           1
 AtZEff=  -0.0000000  -0.0000000  -0.0000000  -0.0000000  -0.0000000  -0.0000000
 NQMom=    0.0000000   0.0000000   0.0000000   0.0000000   0.0000000   0.0000000
 NMagM=    2.7928460   2.7928460   2.7928460   2.7928460   2.7928460   2.7928460
 AtZNuc=   1.0000000   1.0000000   1.0000000   1.0000000   1.0000000   1.0000000
 Leave Link  101 at Mon Feb 22 21:11:36 2021, MaxMem=   104857600 cpu:               2.3 elap:               0.1
 (Enter /sw/arch/RedHatEnterpriseServer7/EB_production/2019/software/Gaussian/g16.c01/l103.exe)

 GradGradGradGradGradGradGradGradGradGradGradGradGradGradGradGradGradGrad
 Berny optimization.
 Initialization pass.
                           ----------------------------
                           !    Initial Parameters    !
                           ! (Angstroms and Degrees)  !
 --------------------------                            --------------------------
 ! Name  Definition              Value          Derivative Info.                !
 --------------------------------------------------------------------------------
 ! R1    R(1,2)                  1.4761         estimate D2E/DX2                !
 ! R2    R(1,9)                  1.0933         estimate D2E/DX2                !
 ! R3    R(1,10)                 1.0911         estimate D2E/DX2                !
 ! R4    R(1,11)                 1.0903         estimate D2E/DX2                !
 ! R5    R(2,3)                  1.2531         estimate D2E/DX2                !
 ! R6    R(2,4)                  1.484          estimate D2E/DX2                !
 ! R7    R(4,5)                  1.5535         estimate D2E/DX2                !
 ! R8    R(4,12)                 1.0929         estimate D2E/DX2                !
 ! R9    R(4,13)                 1.0931         estimate D2E/DX2                !
 ! R10   R(5,6)                  1.4777         estimate D2E/DX2                !
 ! R11   R(5,14)                 1.0932         estimate D2E/DX2                !
 ! R12   R(5,15)                 1.0936         estimate D2E/DX2                !
 ! R13   R(6,7)                  1.2515         estimate D2E/DX2                !
 ! R14   R(6,8)                  1.3544         estimate D2E/DX2                !
 ! R15   R(8,16)                 0.9809         estimate D2E/DX2                !
 ! A1    A(2,1,9)              111.1127         estimate D2E/DX2                !
 ! A2    A(2,1,10)             109.8863         estimate D2E/DX2                !
 ! A3    A(2,1,11)             110.04           estimate D2E/DX2                !
 ! A4    A(9,1,10)             108.1161         estimate D2E/DX2                !
 ! A5    A(9,1,11)             108.4754         estimate D2E/DX2                !
 ! A6    A(10,1,11)            109.1581         estimate D2E/DX2                !
 ! A7    A(1,2,3)              119.0757         estimate D2E/DX2                !
 ! A8    A(1,2,4)              121.55           estimate D2E/DX2                !
 ! A9    A(3,2,4)              119.3217         estimate D2E/DX2                !
 ! A10   A(2,4,5)              114.1242         estimate D2E/DX2                !
 ! A11   A(2,4,12)             108.6104         estimate D2E/DX2                !
 ! A12   A(2,4,13)             109.7202         estimate D2E/DX2                !
 ! A13   A(5,4,12)             108.7506         estimate D2E/DX2                !
 ! A14   A(5,4,13)             108.8435         estimate D2E/DX2                !
 ! A15   A(12,4,13)            106.5136         estimate D2E/DX2                !
 ! A16   A(4,5,6)              113.673          estimate D2E/DX2                !
 ! A17   A(4,5,14)             109.3858         estimate D2E/DX2                !
 ! A18   A(4,5,15)             108.7807         estimate D2E/DX2                !
 ! A19   A(6,5,14)             109.6904         estimate D2E/DX2                !
 ! A20   A(6,5,15)             107.9935         estimate D2E/DX2                !
 ! A21   A(14,5,15)            107.0983         estimate D2E/DX2                !
 ! A22   A(5,6,7)              120.5808         estimate D2E/DX2                !
 ! A23   A(5,6,8)              120.9126         estimate D2E/DX2                !
 ! A24   A(7,6,8)              118.5022         estimate D2E/DX2                !
 ! A25   A(6,8,16)             120.1986         estimate D2E/DX2                !
 ! D1    D(9,1,2,3)              3.8315         estimate D2E/DX2                !
 ! D2    D(9,1,2,4)           -173.5121         estimate D2E/DX2                !
 ! D3    D(10,1,2,3)           123.4436         estimate D2E/DX2                !
 ! D4    D(10,1,2,4)           -53.9            estimate D2E/DX2                !
 ! D5    D(11,1,2,3)          -116.3298         estimate D2E/DX2                !
 ! D6    D(11,1,2,4)            66.3266         estimate D2E/DX2                !
 ! D7    D(1,2,4,5)            -75.0428         estimate D2E/DX2                !
 ! D8    D(1,2,4,12)            46.4536         estimate D2E/DX2                !
 ! D9    D(1,2,4,13)           162.5139         estimate D2E/DX2                !
 ! D10   D(3,2,4,5)            107.62           estimate D2E/DX2                !
 ! D11   D(3,2,4,12)          -130.8836         estimate D2E/DX2                !
 ! D12   D(3,2,4,13)           -14.8233         estimate D2E/DX2                !
 ! D13   D(2,4,5,6)            -65.8299         estimate D2E/DX2                !
 ! D14   D(2,4,5,14)            57.1451         estimate D2E/DX2                !
 ! D15   D(2,4,5,15)           173.8162         estimate D2E/DX2                !
 ! D16   D(12,4,5,6)           172.7512         estimate D2E/DX2                !
 ! D17   D(12,4,5,14)          -64.2738         estimate D2E/DX2                !
 ! D18   D(12,4,5,15)           52.3972         estimate D2E/DX2                !
 ! D19   D(13,4,5,6)            57.0915         estimate D2E/DX2                !
 ! D20   D(13,4,5,14)         -179.9335         estimate D2E/DX2                !
 ! D21   D(13,4,5,15)          -63.2625         estimate D2E/DX2                !
 ! D22   D(4,5,6,7)            -60.6029         estimate D2E/DX2                !
 ! D23   D(4,5,6,8)            120.1686         estimate D2E/DX2                !
 ! D24   D(14,5,6,7)           176.5893         estimate D2E/DX2                !
 ! D25   D(14,5,6,8)            -2.6392         estimate D2E/DX2                !
 ! D26   D(15,5,6,7)            60.194          estimate D2E/DX2                !
 ! D27   D(15,5,6,8)          -119.0345         estimate D2E/DX2                !
 ! D28   D(5,6,8,16)           179.0028         estimate D2E/DX2                !
 ! D29   D(7,6,8,16)            -0.2413         estimate D2E/DX2                !
 --------------------------------------------------------------------------------
 Trust Radius=3.00D-01 FncErr=1.00D-07 GrdErr=1.00D-06 EigMax=2.50D+02 EigMin=1.00D-04
 Number of steps in this run=     79 maximum allowed number of steps=    100.
 GradGradGradGradGradGradGradGradGradGradGradGradGradGradGradGradGradGrad

 Leave Link  103 at Mon Feb 22 21:11:36 2021, MaxMem=   104857600 cpu:               0.7 elap:               0.1
 (Enter /sw/arch/RedHatEnterpriseServer7/EB_production/2019/software/Gaussian/g16.c01/l202.exe)
                          Input orientation:                          
 ---------------------------------------------------------------------
 Center     Atomic      Atomic             Coordinates (Angstroms)
 Number     Number       Type             X           Y           Z
 ---------------------------------------------------------------------
      1          6           0       -1.042690   -0.788510   -2.883750
      2          6           0       -0.083920   -0.172280   -1.945790
      3          8           0        1.017200    0.237110   -2.381970
      4          6           0       -0.369730   -0.079680   -0.492510
      5          6           0       -1.407640    1.013860   -0.117940
      6          6           0       -0.940660    2.390650   -0.382630
      7          8           0        0.079070    2.837950    0.188540
      8          8           0       -1.612400    3.201530   -1.234470
      9          1           0       -0.615370   -0.869930   -3.886810
     10          1           0       -1.302350   -1.792070   -2.543090
     11          1           0       -1.948750   -0.184860   -2.942140
     12          1           0       -0.739960   -1.048380   -0.147430
     13          1           0        0.557300    0.111350    0.054270
     14          1           0       -2.339430    0.830450   -0.659450
     15          1           0       -1.634500    0.933310    0.948800
     16          1           0       -1.301400    4.118460   -1.391320
 ---------------------------------------------------------------------
                    Distance matrix (angstroms):
                    1          2          3          4          5
     1  C    0.000000
     2  C    1.476058   0.000000
     3  O    2.355170   1.253123   0.000000
     4  C    2.583282   1.484010   2.365162   0.000000
     5  C    3.321360   2.549549   3.407201   1.553509   0.000000
     6  C    4.046365   3.121872   3.531050   2.537827   1.477729
     7  O    4.883495   3.693699   3.775179   3.029491   2.373087
     8  O    4.354895   3.771581   4.125450   3.586234   2.464643
     9  H    1.093326   2.129956   2.481001   3.493724   4.287276
    10  H    1.091149   2.113069   3.086072   2.829653   3.710213
    11  H    1.090297   2.114347   3.047738   2.916343   3.115419
    12  H    2.765253   2.105241   3.119818   1.092946   2.167833
    13  H    3.464344   2.119398   2.482456   1.093090   2.169140
    14  H    3.041394   2.783427   3.819174   2.176218   1.093209
    15  H    4.243035   3.464863   4.313958   2.168678   1.093567
    16  H    5.135429   4.494457   4.628409   4.393205   3.357279
                    6          7          8          9         10
     6  C    0.000000
     7  O    1.251464   0.000000
     8  O    1.354397   2.240138   0.000000
     9  H    4.797549   5.553296   4.960420   0.000000
    10  H    4.721605   5.550424   5.171524   1.768578   0.000000
    11  H    3.768367   4.801103   3.807480   1.771899   1.777695
    12  H    3.452901   3.985881   4.472644   3.745708   2.570709
    13  H    2.762241   2.771476   3.989694   4.227313   3.718546
    14  H    2.113625   3.255501   2.545828   4.034790   3.391349
    15  H    2.092357   2.672447   3.148329   5.260554   4.441995
    16  H    2.032958   2.457918   0.980859   5.619799   6.021706
                   11         12         13         14         15
    11  H    0.000000
    12  H    3.165003   0.000000
    13  H    3.917461   1.751725   0.000000
    14  H    2.528667   2.520014   3.068802   0.000000
    15  H    4.060600   2.434957   2.505951   1.758970   0.000000
    16  H    4.619813   5.344035   4.647734   3.524791   3.966396
                   16
    16  H    0.000000
 Stoichiometry    C5H8O3
 Framework group  C1[X(C5H8O3)]
 Deg. of freedom    42
 Full point group                 C1      NOp   1
 Largest Abelian subgroup         C1      NOp   1
 Largest concise Abelian subgroup C1      NOp   1
                         Standard orientation:                         
 ---------------------------------------------------------------------
 Center     Atomic      Atomic             Coordinates (Angstroms)
 Number     Number       Type             X           Y           Z
 ---------------------------------------------------------------------
      1          6           0       -2.366679    0.965635    0.226222
      2          6           0       -1.526020   -0.171518   -0.196773
      3          8           0       -1.579491   -0.558623   -1.387407
      4          6           0       -0.665200   -0.901479    0.766777
      5          6           0        0.619489   -0.131909    1.179970
      6          6           0        1.575315    0.065911    0.070490
      7          8           0        2.077271   -0.916548   -0.520252
      8          8           0        1.940028    1.310410   -0.320150
      9          1           0       -3.013104    1.302118   -0.588808
     10          1           0       -3.001737    0.667116    1.061801
     11          1           0       -1.737535    1.800677    0.535464
     12          1           0       -1.250497   -1.115673    1.664596
     13          1           0       -0.377513   -1.868211    0.345457
     14          1           0        0.341699    0.836686    1.603953
     15          1           0        1.128360   -0.693846    1.968110
     16          1           0        2.586439    1.429376   -1.048218
 ---------------------------------------------------------------------
 Rotational constants (GHZ):           3.2732651           1.2399127           1.2124120
 Leave Link  202 at Mon Feb 22 21:11:36 2021, MaxMem=   104857600 cpu:               0.3 elap:               0.0
 (Enter /sw/arch/RedHatEnterpriseServer7/EB_production/2019/software/Gaussian/g16.c01/l301.exe)
 Standard basis: TZVP (5D, 7F)
 Ernie: Thresh=  0.10000D-02 Tol=  0.10000D-05 Strict=F.
 There are   208 symmetry adapted cartesian basis functions of A   symmetry.
 There are   200 symmetry adapted basis functions of A   symmetry.
   200 basis functions,   344 primitive gaussians,   208 cartesian basis functions
    31 alpha electrons       31 beta electrons
       nuclear repulsion energy       372.9947257043 Hartrees.
 IExCor=  404 DFT=T Ex=B Corr=P86 ExCW=0 ScaHFX=  0.000000
 ScaDFX=  1.000000  1.000000  1.000000  1.000000 ScalE2=  1.000000  1.000000
 IRadAn=      5 IRanWt=     -1 IRanGd=            0 ICorTp=0 IEmpDi=131
 NAtoms=   16 NActive=   16 NUniq=   16 SFac= 1.00D+00 NAtFMM=   60 NAOKFM=F Big=F
 Integral buffers will be    131072 words long.
 Raffenetti 2 integral format.
 Two-electron integral symmetry is turned on.
 R6Disp:  Grimme-D3 Dispersion energy=       -0.0136768749 Hartrees.
 Nuclear repulsion after empirical dispersion term =      372.9810488294 Hartrees.
 ------------------------------------------------------------------------------
 Polarizable Continuum Model (PCM)
 =================================
 Model                : PCM.
 Atomic radii         : UFF (Universal Force Field).
 Polarization charges : Total charges.
 Charge compensation  : None.
 Solution method      : On-the-fly selection.
 Cavity type          : Scaled VdW (van der Waals Surface) (Alpha=1.100).
 Cavity algorithm     : GePol (No added spheres)
                        Default sphere list used, NSphG=   16.
                        Lebedev-Laikov grids with approx.  5.0 points / Ang**2.
                        Smoothing algorithm: York/Karplus (Gamma=1.0000).
                        Polarization charges: spherical gaussians, with
                                              point-specific exponents (IZeta= 3).
                        Self-potential: point-specific (ISelfS= 7).
                        Self-field    : sphere-specific E.n sum rule (ISelfD= 2).
 1st derivatives      : Analytical E(r).r(x)/FMM algorithm (CHGder, D1EAlg=3).
                        Cavity 1st derivative terms included.
 Solvent              : Water, Eps=  78.355300 Eps(inf)=   1.777849
 ------------------------------------------------------------------------------
 Spheres list:
 ISph  on   Nord     Re0    Alpha      Xe            Ye            Ze
    1   C      1    1.9255  1.100     -2.366679      0.965635      0.226222
    2   C      2    1.9255  1.100     -1.526020     -0.171518     -0.196773
    3   O      3    1.7500  1.100     -1.579491     -0.558623     -1.387407
    4   C      4    1.9255  1.100     -0.665200     -0.901479      0.766777
    5   C      5    1.9255  1.100      0.619489     -0.131909      1.179970
    6   C      6    1.9255  1.100      1.575315      0.065911      0.070490
    7   O      7    1.7500  1.100      2.077271     -0.916548     -0.520252
    8   O      8    1.7500  1.100      1.940028      1.310410     -0.320150
    9   H      9    1.4430  1.100     -3.013104      1.302118     -0.588808
   10   H     10    1.4430  1.100     -3.001737      0.667116      1.061801
   11   H     11    1.4430  1.100     -1.737535      1.800677      0.535464
   12   H     12    1.4430  1.100     -1.250497     -1.115673      1.664596
   13   H     13    1.4430  1.100     -0.377513     -1.868211      0.345457
   14   H     14    1.4430  1.100      0.341699      0.836686      1.603953
   15   H     15    1.4430  1.100      1.128360     -0.693846      1.968110
   16   H     16    1.4430  1.100      2.586439      1.429376     -1.048218
 ------------------------------------------------------------------------------
 GePol: Number of generator spheres                  =      16
 GePol: Total number of spheres                      =      16
 GePol: Number of exposed spheres                    =      16 (100.00%)
 GePol: Number of points                             =    1393
 GePol: Average weight of points                     =       0.13
 GePol: Minimum weight of points                     =   0.49D-07
 GePol: Maximum weight of points                     =    0.20577
 GePol: Number of points with low weight             =      77
 GePol: Fraction of low-weight points (<1% of avg)   =       5.53%
 GePol: Cavity surface area                          =    186.150 Ang**2
 GePol: Cavity volume                                =    176.072 Ang**3
 Leave Link  301 at Mon Feb 22 21:11:37 2021, MaxMem=   104857600 cpu:               1.8 elap:               0.1
 (Enter /sw/arch/RedHatEnterpriseServer7/EB_production/2019/software/Gaussian/g16.c01/l302.exe)
 NPDir=0 NMtPBC=     1 NCelOv=     1 NCel=       1 NClECP=     1 NCelD=      1
         NCelK=      1 NCelE2=     1 NClLst=     1 CellRange=     0.0.
 One-electron integrals computed using PRISM.
 One-electron integral symmetry used in STVInt
 PrsmSu:  requested number of processors reduced to:  29 ShMem   1 Linda.
 NBasis=   200 RedAO= T EigKep=  2.14D-04  NBF=   200
 NBsUse=   200 1.00D-06 EigRej= -1.00D+00 NBFU=   200
 Precomputing XC quadrature grid using
 IXCGrd= 4 IRadAn=           5 IRanWt=          -1 IRanGd=           0 AccXCQ= 0.00D+00.
 Generated NRdTot=       0 NPtTot=           0 NUsed=           0 NTot=          32
 NSgBfM=   206   206   206   206   206 MxSgAt=    16 MxSgA2=    16.
 Leave Link  302 at Mon Feb 22 21:11:37 2021, MaxMem=   104857600 cpu:               9.2 elap:               0.4
 (Enter /sw/arch/RedHatEnterpriseServer7/EB_production/2019/software/Gaussian/g16.c01/l303.exe)
 DipDrv:  MaxL=1.
 Leave Link  303 at Mon Feb 22 21:11:37 2021, MaxMem=   104857600 cpu:               3.4 elap:               0.2
 (Enter /sw/arch/RedHatEnterpriseServer7/EB_production/2019/software/Gaussian/g16.c01/l401.exe)
 ExpMin= 9.52D-02 ExpMax= 2.70D+04 ExpMxC= 9.22D+02 IAcc=3 IRadAn=         5 AccDes= 0.00D+00
 Harris functional with IExCor=  404 and IRadAn=       5 diagonalized for initial guess.
 HarFok:  IExCor=  404 AccDes= 0.00D+00 IRadAn=         5 IDoV= 1 UseB2=F ITyADJ=14
 ICtDFT=  3500011 ScaDFX=  1.000000  1.000000  1.000000  1.000000
 FoFCou: FMM=F IPFlag=           0 FMFlag=      100000 FMFlg1=           0
         NFxFlg=           0 DoJE=T BraDBF=F KetDBF=T FulRan=T
         wScrn=  0.000000 ICntrl=       500 IOpCl=  0 I1Cent=   200000004 NGrid=           0
         NMat0=    1 NMatS0=      1 NMatT0=    0 NMatD0=    1 NMtDS0=    0 NMtDT0=    0
 Petite list used in FoFCou.
 Harris En= -421.352024294650    
 JPrj=0 DoOrth=F DoCkMO=F.
 Leave Link  401 at Mon Feb 22 21:11:38 2021, MaxMem=   104857600 cpu:               9.1 elap:               0.3
 (Enter /sw/arch/RedHatEnterpriseServer7/EB_production/2019/software/Gaussian/g16.c01/l502.exe)
 Integral symmetry usage will be decided dynamically.
 Closed shell SCF:
 Using DIIS extrapolation, IDIIS=  1040.
 NGot=   104857600 LenX=   104761834 LenY=   104718129
 Requested convergence on RMS density matrix=1.00D-08 within 128 cycles.
 Requested convergence on MAX density matrix=1.00D-06.
 Requested convergence on             energy=1.00D-06.
 No special actions if energy rises.
 Fock matrices will be formed incrementally for  20 cycles.

 Cycle   1  Pass 1  IDiag  1:
 FoFJK:  IHMeth= 1 ICntrl=     500 DoSepK=F KAlg= 0 I1Cent=           0 FoldK=F
 IRaf= 940000000 NMat=       1 IRICut=       1 DoRegI=T DoRafI=F ISym2E= 0 IDoP0=0 IntGTp=1.
 FoFCou: FMM=F IPFlag=           0 FMFlag=      100000 FMFlg1=           0
         NFxFlg=           0 DoJE=T BraDBF=F KetDBF=F FulRan=T
         wScrn=  0.000000 ICntrl=       500 IOpCl=  0 I1Cent=           0 NGrid=           0
         NMat0=    1 NMatS0=      1 NMatT0=    0 NMatD0=    1 NMtDS0=    0 NMtDT0=    0
 Symmetry not used in FoFCou.
 Inv3:  Mode=1 IEnd=     5821347.
 Iteration    1 A*A^-1 deviation from unit magnitude is 3.11D-15 for    764.
 Iteration    1 A*A^-1 deviation from orthogonality  is 1.67D-15 for   1075    710.
 Iteration    1 A^-1*A deviation from unit magnitude is 3.33D-15 for   1151.
 Iteration    1 A^-1*A deviation from orthogonality  is 9.55D-15 for   1061    933.
 E= -420.950206990526    
 DIIS: error= 2.60D-02 at cycle   1 NSaved=   1.
 NSaved= 1 IEnMin= 1 EnMin= -420.950206990526     IErMin= 1 ErrMin= 2.60D-02
 ErrMax= 2.60D-02  0.00D+00 EMaxC= 1.00D-01 BMatC= 3.15D-01 BMatP= 3.15D-01
 IDIUse=3 WtCom= 7.40D-01 WtEn= 2.60D-01
 Coeff-Com:  0.100D+01
 Coeff-En:   0.100D+01
 Coeff:      0.100D+01
 Gap=     0.046 Goal=   None    Shift=    0.000
 GapD=    0.046 DampG=0.250 DampE=0.500 DampFc=0.2500 IDamp=-1.
 Damping current iteration by 2.50D-01
 RMSDP=1.85D-02 MaxDP=1.30D+00              OVMax= 3.32D-01

 Cycle   2  Pass 1  IDiag  1:
 RMSU=  4.60D-03    CP:  1.03D+00
 E= -421.035857929074     Delta-E=       -0.085650938548 Rises=F Damp=T
 DIIS: error= 9.67D-03 at cycle   2 NSaved=   2.
 NSaved= 2 IEnMin= 2 EnMin= -421.035857929074     IErMin= 2 ErrMin= 9.67D-03
 ErrMax= 9.67D-03  0.00D+00 EMaxC= 1.00D-01 BMatC= 3.88D-02 BMatP= 3.15D-01
 IDIUse=3 WtCom= 9.03D-01 WtEn= 9.67D-02
 Coeff-Com: -0.263D+00 0.126D+01
 Coeff-En:   0.512D-01 0.949D+00
 Coeff:     -0.233D+00 0.123D+01
 Gap=     0.130 Goal=   None    Shift=    0.000
 RMSDP=2.90D-03 MaxDP=1.75D-01 DE=-8.57D-02 OVMax= 2.75D-01

 Cycle   3  Pass 1  IDiag  1:
 RMSU=  2.23D-03    CP:  1.00D+00  6.03D-01
 E= -421.122107727834     Delta-E=       -0.086249798761 Rises=F Damp=F
 DIIS: error= 2.20D-02 at cycle   3 NSaved=   3.
 NSaved= 3 IEnMin= 3 EnMin= -421.122107727834     IErMin= 2 ErrMin= 9.67D-03
 ErrMax= 2.20D-02  0.00D+00 EMaxC= 1.00D-01 BMatC= 1.01D-01 BMatP= 3.88D-02
 IDIUse=2 WtCom= 0.00D+00 WtEn= 1.00D+00
 EnCoef did     7 forward-backward iterations
 Coeff-En:   0.194D-01 0.115D+00 0.865D+00
 Coeff:      0.194D-01 0.115D+00 0.865D+00
 Gap=     0.104 Goal=   None    Shift=    0.000
 RMSDP=5.51D-03 MaxDP=2.12D-01 DE=-8.62D-02 OVMax= 3.91D-01

 Cycle   4  Pass 1  IDiag  1:
 RMSU=  2.95D-03    CP:  1.05D+00  1.46D+00 -7.18D-02
 E= -420.630478513609     Delta-E=        0.491629214225 Rises=F Damp=F
 DIIS: error= 6.43D-02 at cycle   4 NSaved=   4.
 NSaved= 4 IEnMin= 3 EnMin= -421.122107727834     IErMin= 2 ErrMin= 9.67D-03
 ErrMax= 6.43D-02  0.00D+00 EMaxC= 1.00D-01 BMatC= 7.28D-01 BMatP= 3.88D-02
 IDIUse=2 WtCom= 0.00D+00 WtEn= 1.00D+00
 Coeff-En:   0.000D+00 0.000D+00 0.803D+00 0.197D+00
 Coeff:      0.000D+00 0.000D+00 0.803D+00 0.197D+00
 Gap=     0.135 Goal=   None    Shift=    0.000
 RMSDP=3.87D-03 MaxDP=1.81D-01 DE= 4.92D-01 OVMax= 2.29D-01

 Cycle   5  Pass 1  IDiag  1:
 RMSU=  4.82D-04    CP:  1.02D+00  7.37D-01  3.61D-01  4.49D-01
 E= -421.161185368459     Delta-E=       -0.530706854850 Rises=F Damp=F
 DIIS: error= 1.57D-02 at cycle   5 NSaved=   5.
 NSaved= 5 IEnMin= 5 EnMin= -421.161185368459     IErMin= 2 ErrMin= 9.67D-03
 ErrMax= 1.57D-02  0.00D+00 EMaxC= 1.00D-01 BMatC= 5.73D-02 BMatP= 3.88D-02
 IDIUse=2 WtCom= 0.00D+00 WtEn= 1.00D+00
 Coeff-En:   0.000D+00 0.000D+00 0.392D+00 0.000D+00 0.608D+00
 Coeff:      0.000D+00 0.000D+00 0.392D+00 0.000D+00 0.608D+00
 Gap=     0.138 Goal=   None    Shift=    0.000
 RMSDP=1.04D-03 MaxDP=2.12D-02 DE=-5.31D-01 OVMax= 7.91D-02

 Cycle   6  Pass 1  IDiag  1:
 RMSU=  2.45D-04    CP:  1.01D+00  6.73D-01  6.81D-01  2.37D-01  6.90D-01
 E= -421.205292119796     Delta-E=       -0.044106751337 Rises=F Damp=F
 DIIS: error= 3.59D-03 at cycle   6 NSaved=   6.
 NSaved= 6 IEnMin= 6 EnMin= -421.205292119796     IErMin= 6 ErrMin= 3.59D-03
 ErrMax= 3.59D-03  0.00D+00 EMaxC= 1.00D-01 BMatC= 3.60D-03 BMatP= 3.88D-02
 IDIUse=3 WtCom= 9.64D-01 WtEn= 3.59D-02
 Coeff-Com: -0.491D-01 0.789D-01 0.240D+00-0.363D-01 0.458D+00 0.309D+00
 Coeff-En:   0.000D+00 0.000D+00 0.000D+00 0.000D+00 0.157D-01 0.984D+00
 Coeff:     -0.473D-01 0.760D-01 0.231D+00-0.350D-01 0.442D+00 0.333D+00
 Gap=     0.137 Goal=   None    Shift=    0.000
 RMSDP=2.37D-04 MaxDP=6.67D-03 DE=-4.41D-02 OVMax= 1.33D-02

 Cycle   7  Pass 1  IDiag  1:
 RMSU=  8.43D-05    CP:  1.01D+00  6.80D-01  6.22D-01  2.70D-01  7.48D-01
                    CP:  4.19D-01
 E= -421.207848564152     Delta-E=       -0.002556444356 Rises=F Damp=F
 DIIS: error= 1.06D-03 at cycle   7 NSaved=   7.
 NSaved= 7 IEnMin= 7 EnMin= -421.207848564152     IErMin= 7 ErrMin= 1.06D-03
 ErrMax= 1.06D-03  0.00D+00 EMaxC= 1.00D-01 BMatC= 1.75D-04 BMatP= 3.60D-03
 IDIUse=3 WtCom= 9.89D-01 WtEn= 1.06D-02
 Coeff-Com: -0.268D-01 0.439D-01 0.104D+00-0.263D-01 0.229D+00 0.220D+00
 Coeff-Com:  0.456D+00
 Coeff-En:   0.000D+00 0.000D+00 0.000D+00 0.000D+00 0.000D+00 0.000D+00
 Coeff-En:   0.100D+01
 Coeff:     -0.266D-01 0.434D-01 0.103D+00-0.260D-01 0.227D+00 0.217D+00
 Coeff:      0.462D+00
 Gap=     0.137 Goal=   None    Shift=    0.000
 RMSDP=6.09D-05 MaxDP=2.77D-03 DE=-2.56D-03 OVMax= 4.59D-03

 Cycle   8  Pass 1  IDiag  1:
 RMSU=  3.43D-05    CP:  1.02D+00  6.85D-01  6.26D-01  2.63D-01  7.67D-01
                    CP:  4.26D-01  5.46D-01
 E= -421.207956008176     Delta-E=       -0.000107444024 Rises=F Damp=F
 DIIS: error= 5.00D-04 at cycle   8 NSaved=   8.
 NSaved= 8 IEnMin= 8 EnMin= -421.207956008176     IErMin= 8 ErrMin= 5.00D-04
 ErrMax= 5.00D-04  0.00D+00 EMaxC= 1.00D-01 BMatC= 2.31D-05 BMatP= 1.75D-04
 IDIUse=3 WtCom= 9.95D-01 WtEn= 5.00D-03
 Coeff-Com:  0.253D-02-0.563D-02 0.194D-01-0.542D-02 0.519D-01 0.111D+00
 Coeff-Com:  0.306D+00 0.521D+00
 Coeff-En:   0.000D+00 0.000D+00 0.000D+00 0.000D+00 0.000D+00 0.000D+00
 Coeff-En:   0.612D-01 0.939D+00
 Coeff:      0.251D-02-0.560D-02 0.193D-01-0.539D-02 0.516D-01 0.110D+00
 Coeff:      0.304D+00 0.523D+00
 Gap=     0.137 Goal=   None    Shift=    0.000
 RMSDP=4.01D-05 MaxDP=2.36D-03 DE=-1.07D-04 OVMax= 2.04D-03

 Cycle   9  Pass 1  IDiag  1:
 RMSU=  1.19D-05    CP:  1.01D+00  6.79D-01  6.28D-01  2.64D-01  7.52D-01
                    CP:  4.68D-01  6.33D-01  5.04D-01
 E= -421.207971920869     Delta-E=       -0.000015912693 Rises=F Damp=F
 DIIS: error= 1.29D-04 at cycle   9 NSaved=   9.
 NSaved= 9 IEnMin= 9 EnMin= -421.207971920869     IErMin= 9 ErrMin= 1.29D-04
 ErrMax= 1.29D-04  0.00D+00 EMaxC= 1.00D-01 BMatC= 2.81D-06 BMatP= 2.31D-05
 IDIUse=3 WtCom= 9.99D-01 WtEn= 1.29D-03
 Coeff-Com:  0.334D-02-0.535D-02 0.394D-02-0.117D-02 0.109D-01 0.450D-01
 Coeff-Com:  0.150D+00 0.361D+00 0.432D+00
 Coeff-En:   0.000D+00 0.000D+00 0.000D+00 0.000D+00 0.000D+00 0.000D+00
 Coeff-En:   0.000D+00 0.867D-01 0.913D+00
 Coeff:      0.333D-02-0.534D-02 0.393D-02-0.117D-02 0.109D-01 0.450D-01
 Coeff:      0.150D+00 0.361D+00 0.433D+00
 Gap=     0.137 Goal=   None    Shift=    0.000
 RMSDP=7.99D-06 MaxDP=1.92D-04 DE=-1.59D-05 OVMax= 5.11D-04

 Cycle  10  Pass 1  IDiag  1:
 RMSU=  4.09D-06    CP:  1.01D+00  6.78D-01  6.28D-01  2.63D-01  7.55D-01
                    CP:  4.62D-01  6.28D-01  6.10D-01  6.14D-01
 E= -421.207974112223     Delta-E=       -0.000002191354 Rises=F Damp=F
 DIIS: error= 1.85D-05 at cycle  10 NSaved=  10.
 NSaved=10 IEnMin=10 EnMin= -421.207974112223     IErMin=10 ErrMin= 1.85D-05
 ErrMax= 1.85D-05  0.00D+00 EMaxC= 1.00D-01 BMatC= 4.47D-08 BMatP= 2.81D-06
 IDIUse=1 WtCom= 1.00D+00 WtEn= 0.00D+00
 Coeff-Com:  0.936D-03-0.127D-02 0.739D-03-0.258D-03 0.151D-02 0.926D-02
 Coeff-Com:  0.349D-01 0.101D+00 0.141D+00 0.712D+00
 Coeff:      0.936D-03-0.127D-02 0.739D-03-0.258D-03 0.151D-02 0.926D-02
 Coeff:      0.349D-01 0.101D+00 0.141D+00 0.712D+00
 Gap=     0.137 Goal=   None    Shift=    0.000
 RMSDP=1.44D-06 MaxDP=5.71D-05 DE=-2.19D-06 OVMax= 5.41D-05

 Cycle  11  Pass 1  IDiag  1:
 RMSU=  7.64D-07    CP:  1.01D+00  6.79D-01  6.28D-01  2.62D-01  7.55D-01
                    CP:  4.61D-01  6.30D-01  6.23D-01  6.04D-01  8.28D-01
 E= -421.207974169501     Delta-E=       -0.000000057277 Rises=F Damp=F
 DIIS: error= 3.47D-06 at cycle  11 NSaved=  11.
 NSaved=11 IEnMin=11 EnMin= -421.207974169501     IErMin=11 ErrMin= 3.47D-06
 ErrMax= 3.47D-06  0.00D+00 EMaxC= 1.00D-01 BMatC= 4.59D-09 BMatP= 4.47D-08
 IDIUse=1 WtCom= 1.00D+00 WtEn= 0.00D+00
 Coeff-Com:  0.283D-03-0.323D-03 0.254D-03-0.883D-04 0.339D-03 0.227D-02
 Coeff-Com:  0.974D-02 0.300D-01 0.425D-01 0.358D+00 0.557D+00
 Coeff:      0.283D-03-0.323D-03 0.254D-03-0.883D-04 0.339D-03 0.227D-02
 Coeff:      0.974D-02 0.300D-01 0.425D-01 0.358D+00 0.557D+00
 Gap=     0.137 Goal=   None    Shift=    0.000
 RMSDP=5.34D-07 MaxDP=2.82D-05 DE=-5.73D-08 OVMax= 1.30D-05

 Cycle  12  Pass 1  IDiag  1:
 RMSU=  2.11D-07    CP:  1.01D+00  6.78D-01  6.28D-01  2.62D-01  7.55D-01
                    CP:  4.61D-01  6.29D-01  6.21D-01  6.10D-01  8.44D-01
                    CP:  6.35D-01
 E= -421.207974174535     Delta-E=       -0.000000005035 Rises=F Damp=F
 DIIS: error= 1.61D-06 at cycle  12 NSaved=  12.
 NSaved=12 IEnMin=12 EnMin= -421.207974174535     IErMin=12 ErrMin= 1.61D-06
 ErrMax= 1.61D-06  0.00D+00 EMaxC= 1.00D-01 BMatC= 4.45D-10 BMatP= 4.59D-09
 IDIUse=1 WtCom= 1.00D+00 WtEn= 0.00D+00
 Coeff-Com:  0.678D-04-0.740D-04 0.537D-04-0.942D-05 0.160D-04 0.219D-03
 Coeff-Com:  0.126D-02 0.339D-02 0.522D-02 0.101D+00 0.274D+00 0.614D+00
 Coeff:      0.678D-04-0.740D-04 0.537D-04-0.942D-05 0.160D-04 0.219D-03
 Coeff:      0.126D-02 0.339D-02 0.522D-02 0.101D+00 0.274D+00 0.614D+00
 Gap=     0.137 Goal=   None    Shift=    0.000
 RMSDP=1.27D-07 MaxDP=2.65D-06 DE=-5.03D-09 OVMax= 4.24D-06

 Cycle  13  Pass 1  IDiag  1:
 RMSU=  6.76D-08    CP:  1.01D+00  6.78D-01  6.28D-01  2.62D-01  7.55D-01
                    CP:  4.61D-01  6.29D-01  6.21D-01  6.10D-01  8.54D-01
                    CP:  6.39D-01  6.59D-01
 E= -421.207974174918     Delta-E=       -0.000000000383 Rises=F Damp=F
 DIIS: error= 1.90D-07 at cycle  13 NSaved=  13.
 NSaved=13 IEnMin=13 EnMin= -421.207974174918     IErMin=13 ErrMin= 1.90D-07
 ErrMax= 1.90D-07  0.00D+00 EMaxC= 1.00D-01 BMatC= 1.44D-11 BMatP= 4.45D-10
 IDIUse=1 WtCom= 1.00D+00 WtEn= 0.00D+00
 Coeff-Com:  0.931D-05-0.670D-05 0.155D-04-0.236D-05 0.104D-05-0.276D-04
 Coeff-Com:  0.606D-04-0.166D-03-0.385D-05 0.201D-01 0.726D-01 0.223D+00
 Coeff-Com:  0.684D+00
 Coeff:      0.931D-05-0.670D-05 0.155D-04-0.236D-05 0.104D-05-0.276D-04
 Coeff:      0.606D-04-0.166D-03-0.385D-05 0.201D-01 0.726D-01 0.223D+00
 Coeff:      0.684D+00
 Gap=     0.137 Goal=   None    Shift=    0.000
 RMSDP=2.91D-08 MaxDP=9.50D-07 DE=-3.83D-10 OVMax= 6.98D-07

 Cycle  14  Pass 1  IDiag  1:
 RMSU=  1.54D-08    CP:  1.01D+00  6.78D-01  6.28D-01  2.62D-01  7.55D-01
                    CP:  4.61D-01  6.29D-01  6.21D-01  6.09D-01  8.53D-01
                    CP:  6.51D-01  6.88D-01  7.86D-01
 E= -421.207974174932     Delta-E=       -0.000000000014 Rises=F Damp=F
 DIIS: error= 6.69D-08 at cycle  14 NSaved=  14.
 NSaved=14 IEnMin=14 EnMin= -421.207974174932     IErMin=14 ErrMin= 6.69D-08
 ErrMax= 6.69D-08  0.00D+00 EMaxC= 1.00D-01 BMatC= 1.10D-12 BMatP= 1.44D-11
 IDIUse=1 WtCom= 1.00D+00 WtEn= 0.00D+00
 Coeff-Com:  0.657D-06 0.691D-06 0.494D-05-0.767D-06 0.925D-06-0.226D-04
 Coeff-Com: -0.358D-04-0.246D-03-0.320D-03 0.319D-02 0.171D-01 0.666D-01
 Coeff-Com:  0.310D+00 0.604D+00
 Coeff:      0.657D-06 0.691D-06 0.494D-05-0.767D-06 0.925D-06-0.226D-04
 Coeff:     -0.358D-04-0.246D-03-0.320D-03 0.319D-02 0.171D-01 0.666D-01
 Coeff:      0.310D+00 0.604D+00
 Gap=     0.137 Goal=   None    Shift=    0.000
 RMSDP=1.01D-08 MaxDP=5.40D-07 DE=-1.40D-11 OVMax= 2.21D-07

 Cycle  15  Pass 1  IDiag  1:
 RMSU=  4.78D-09    CP:  1.01D+00  6.78D-01  6.28D-01  2.62D-01  7.55D-01
                    CP:  4.61D-01  6.29D-01  6.21D-01  6.10D-01  8.53D-01
                    CP:  6.48D-01  6.96D-01  8.22D-01  8.33D-01
 E= -421.207974174934     Delta-E=       -0.000000000002 Rises=F Damp=F
 DIIS: error= 1.91D-08 at cycle  15 NSaved=  15.
 NSaved=15 IEnMin=15 EnMin= -421.207974174934     IErMin=15 ErrMin= 1.91D-08
 ErrMax= 1.91D-08  0.00D+00 EMaxC= 1.00D-01 BMatC= 1.21D-13 BMatP= 1.10D-12
 IDIUse=1 WtCom= 1.00D+00 WtEn= 0.00D+00
 Coeff-Com: -0.944D-07 0.285D-06 0.821D-06-0.516D-07-0.326D-06-0.691D-05
 Coeff-Com: -0.185D-04-0.731D-04-0.135D-03-0.189D-03 0.152D-02 0.106D-01
 Coeff-Com:  0.803D-01 0.301D+00 0.606D+00
 Coeff:     -0.944D-07 0.285D-06 0.821D-06-0.516D-07-0.326D-06-0.691D-05
 Coeff:     -0.185D-04-0.731D-04-0.135D-03-0.189D-03 0.152D-02 0.106D-01
 Coeff:      0.803D-01 0.301D+00 0.606D+00
 Gap=     0.137 Goal=   None    Shift=    0.000
 RMSDP=2.70D-09 MaxDP=9.62D-08 DE=-1.99D-12 OVMax= 7.10D-08

 Error on total polarization charges =  0.01013
 SCF Done:  E(RB-P86) =  -421.207974175     A.U. after   15 cycles
            NFock= 15  Conv=0.27D-08     -V/T= 2.0043
 KE= 4.194191605835D+02 PE=-1.732679113252D+03 EE= 5.190709296640D+02
 Leave Link  502 at Mon Feb 22 21:11:48 2021, MaxMem=   104857600 cpu:             317.8 elap:              10.2
 (Enter /sw/arch/RedHatEnterpriseServer7/EB_production/2019/software/Gaussian/g16.c01/l601.exe)
 Copying SCF densities to generalized density rwf, IOpCl= 0 IROHF=0.

 **********************************************************************

            Population analysis using the SCF Density.

 **********************************************************************

 Orbital symmetries:
       Occupied  (A) (A) (A) (A) (A) (A) (A) (A) (A) (A) (A) (A)
                 (A) (A) (A) (A) (A) (A) (A) (A) (A) (A) (A) (A)
                 (A) (A) (A) (A) (A) (A) (A)
       Virtual   (A) (A) (A) (A) (A) (A) (A) (A) (A) (A) (A) (A)
                 (A) (A) (A) (A) (A) (A) (A) (A) (A) (A) (A) (A)
                 (A) (A) (A) (A) (A) (A) (A) (A) (A) (A) (A) (A)
                 (A) (A) (A) (A) (A) (A) (A) (A) (A) (A) (A) (A)
                 (A) (A) (A) (A) (A) (A) (A) (A) (A) (A) (A) (A)
                 (A) (A) (A) (A) (A) (A) (A) (A) (A) (A) (A) (A)
                 (A) (A) (A) (A) (A) (A) (A) (A) (A) (A) (A) (A)
                 (A) (A) (A) (A) (A) (A) (A) (A) (A) (A) (A) (A)
                 (A) (A) (A) (A) (A) (A) (A) (A) (A) (A) (A) (A)
                 (A) (A) (A) (A) (A) (A) (A) (A) (A) (A) (A) (A)
                 (A) (A) (A) (A) (A) (A) (A) (A) (A) (A) (A) (A)
                 (A) (A) (A) (A) (A) (A) (A) (A) (A) (A) (A) (A)
                 (A) (A) (A) (A) (A) (A) (A) (A) (A) (A) (A) (A)
                 (A) (A) (A) (A) (A) (A) (A) (A) (A) (A) (A) (A)
                 (A)
 The electronic state is 1-A.
 Alpha  occ. eigenvalues --  -18.82676 -18.76648 -18.76323 -10.04192  -9.99457
 Alpha  occ. eigenvalues --   -9.93373  -9.92059  -9.90139  -1.02115  -0.95352
 Alpha  occ. eigenvalues --   -0.92761  -0.75211  -0.69244  -0.64415  -0.57953
 Alpha  occ. eigenvalues --   -0.49401  -0.47092  -0.44701  -0.43014  -0.42245
 Alpha  occ. eigenvalues --   -0.40948  -0.39815  -0.37101  -0.36418  -0.35063
 Alpha  occ. eigenvalues --   -0.33991  -0.32892  -0.31692  -0.28774  -0.24119
 Alpha  occ. eigenvalues --   -0.21903
 Alpha virt. eigenvalues --   -0.08195  -0.06350   0.01315   0.02915   0.06269
 Alpha virt. eigenvalues --    0.06599   0.07504   0.08946   0.09981   0.10903
 Alpha virt. eigenvalues --    0.11995   0.13022   0.14064   0.15601   0.16773
 Alpha virt. eigenvalues --    0.17608   0.18741   0.19405   0.22040   0.23856
 Alpha virt. eigenvalues --    0.25523   0.26982   0.27310   0.30154   0.32368
 Alpha virt. eigenvalues --    0.33437   0.33867   0.34883   0.36069   0.37309
 Alpha virt. eigenvalues --    0.38162   0.38341   0.38826   0.39802   0.40085
 Alpha virt. eigenvalues --    0.42009   0.43031   0.43434   0.44418   0.45270
 Alpha virt. eigenvalues --    0.46087   0.46544   0.47532   0.50593   0.50949
 Alpha virt. eigenvalues --    0.52315   0.54165   0.55431   0.56995   0.60328
 Alpha virt. eigenvalues --    0.62294   0.63839   0.69209   0.70725   0.78972
 Alpha virt. eigenvalues --    0.82595   0.90062   1.06573   1.14422   1.15323
 Alpha virt. eigenvalues --    1.18878   1.19701   1.22347   1.23152   1.23844
 Alpha virt. eigenvalues --    1.24268   1.25772   1.27765   1.28765   1.30926
 Alpha virt. eigenvalues --    1.33515   1.34100   1.35779   1.38140   1.40755
 Alpha virt. eigenvalues --    1.43347   1.45295   1.46348   1.46589   1.49172
 Alpha virt. eigenvalues --    1.50908   1.51965   1.52769   1.54296   1.56373
 Alpha virt. eigenvalues --    1.57651   1.59929   1.60585   1.69748   1.70780
 Alpha virt. eigenvalues --    1.71433   1.73108   1.77626   1.79836   1.83310
 Alpha virt. eigenvalues --    1.87314   1.88923   1.90601   1.94243   1.99376
 Alpha virt. eigenvalues --    2.03528   2.04572   2.10308   2.11277   2.16633
 Alpha virt. eigenvalues --    2.17570   2.20901   2.21461   2.23341   2.25673
 Alpha virt. eigenvalues --    2.30419   2.32005   2.34103   2.37894   2.41699
 Alpha virt. eigenvalues --    2.44078   2.45952   2.48073   2.49490   2.50916
 Alpha virt. eigenvalues --    2.52650   2.53404   2.54034   2.56099   2.56502
 Alpha virt. eigenvalues --    2.58521   2.60286   2.61451   2.62337   2.62866
 Alpha virt. eigenvalues --    2.64241   2.66555   2.67567   2.69902   2.71769
 Alpha virt. eigenvalues --    2.76382   2.76750   2.81430   2.88246   2.92629
 Alpha virt. eigenvalues --    2.97654   3.00345   3.03072   3.04751   3.05404
 Alpha virt. eigenvalues --    3.07595   3.12930   3.15278   3.19324   3.24011
 Alpha virt. eigenvalues --    3.24296   3.26125   3.27960   3.31018   3.32935
 Alpha virt. eigenvalues --    3.36381   3.44533   3.83632   3.99803   4.07351
 Alpha virt. eigenvalues --    4.17530  21.61305  21.70284  21.78114  21.83535
 Alpha virt. eigenvalues --   21.85116  43.07076  43.11353  43.18221
          Condensed to atoms (all electrons):
               1          2          3          4          5          6
     1  C    5.590451   0.175700  -0.168396  -0.321875   0.043526  -0.017347
     2  C    0.175700   5.171029   0.686114  -0.034657  -0.001723  -0.003177
     3  O   -0.168396   0.686114   7.921859  -0.166995  -0.016446   0.013512
     4  C   -0.321875  -0.034657  -0.166995   5.942614   0.096135   0.018816
     5  C    0.043526  -0.001723  -0.016446   0.096135   5.756393  -0.079882
     6  C   -0.017347  -0.003177   0.013512   0.018816  -0.079882   5.012466
     7  O   -0.000119  -0.013876   0.000587   0.007384  -0.112572   0.583269
     8  O    0.000654   0.004386  -0.000155  -0.013702  -0.096983   0.348087
     9  H    0.371272  -0.036717   0.015907   0.020641  -0.001069   0.000384
    10  H    0.321948  -0.000175   0.004022   0.029282  -0.009409   0.001416
    11  H    0.368472  -0.022935   0.003030  -0.001602   0.016729  -0.004999
    12  H    0.012800  -0.002381   0.006328   0.361957  -0.056161   0.015013
    13  H    0.016904  -0.032005   0.015505   0.344874  -0.005210  -0.019082
    14  H   -0.000080  -0.008561   0.000879  -0.032782   0.355486  -0.025369
    15  H   -0.000781   0.005308  -0.000440  -0.022589   0.411074  -0.028674
    16  H    0.000008   0.000387   0.000065  -0.000605   0.013589  -0.021314
               7          8          9         10         11         12
     1  C   -0.000119   0.000654   0.371272   0.321948   0.368472   0.012800
     2  C   -0.013876   0.004386  -0.036717  -0.000175  -0.022935  -0.002381
     3  O    0.000587  -0.000155   0.015907   0.004022   0.003030   0.006328
     4  C    0.007384  -0.013702   0.020641   0.029282  -0.001602   0.361957
     5  C   -0.112572  -0.096983  -0.001069  -0.009409   0.016729  -0.056161
     6  C    0.583269   0.348087   0.000384   0.001416  -0.004999   0.015013
     7  O    7.996876  -0.126028   0.000006  -0.000007   0.000006   0.000331
     8  O   -0.126028   7.861185  -0.000016   0.000003   0.000577  -0.000177
     9  H    0.000006  -0.000016   0.502167  -0.015514  -0.015438  -0.000919
    10  H   -0.000007   0.000003  -0.015514   0.525150  -0.017664  -0.001962
    11  H    0.000006   0.000577  -0.015438  -0.017664   0.507721  -0.001519
    12  H    0.000331  -0.000177  -0.000919  -0.001962  -0.001519   0.507249
    13  H    0.013146   0.001752  -0.000563  -0.000918  -0.000426  -0.014483
    14  H    0.007879   0.011745   0.000035   0.001311  -0.004263  -0.000844
    15  H   -0.003707   0.000811   0.000036  -0.000039   0.000387  -0.007662
    16  H    0.002420   0.290800  -0.000005   0.000001  -0.000013   0.000026
              13         14         15         16
     1  C    0.016904  -0.000080  -0.000781   0.000008
     2  C   -0.032005  -0.008561   0.005308   0.000387
     3  O    0.015505   0.000879  -0.000440   0.000065
     4  C    0.344874  -0.032782  -0.022589  -0.000605
     5  C   -0.005210   0.355486   0.411074   0.013589
     6  C   -0.019082  -0.025369  -0.028674  -0.021314
     7  O    0.013146   0.007879  -0.003707   0.002420
     8  O    0.001752   0.011745   0.000811   0.290800
     9  H   -0.000563   0.000035   0.000036  -0.000005
    10  H   -0.000918   0.001311  -0.000039   0.000001
    11  H   -0.000426  -0.004263   0.000387  -0.000013
    12  H   -0.014483  -0.000844  -0.007662   0.000026
    13  H    0.510404   0.006972  -0.003231  -0.000031
    14  H    0.006972   0.524406  -0.015209  -0.000649
    15  H   -0.003231  -0.015209   0.456320  -0.000386
    16  H   -0.000031  -0.000649  -0.000386   0.379361
 Mulliken charges:
               1
     1  C   -0.393137
     2  C    0.113283
     3  O   -0.315376
     4  C   -0.226895
     5  C   -0.313476
     6  C    0.206882
     7  O   -0.355594
     8  O   -0.282940
     9  H    0.159791
    10  H    0.162556
    11  H    0.171936
    12  H    0.182405
    13  H    0.166394
    14  H    0.179044
    15  H    0.208782
    16  H    0.336345
 Sum of Mulliken charges =  -0.00000
 Mulliken charges with hydrogens summed into heavy atoms:
               1
     1  C    0.101146
     2  C    0.113283
     3  O   -0.315376
     4  C    0.121903
     5  C    0.074350
     6  C    0.206882
     7  O   -0.355594
     8  O    0.053405
 Electronic spatial extent (au):  <R**2>=           1080.4882
 Charge=             -0.0000 electrons
 Dipole moment (field-independent basis, Debye):
    X=             -0.7304    Y=              3.2947    Z=              4.8433  Tot=              5.9030
 Quadrupole moment (field-independent basis, Debye-Ang):
   XX=            -45.2517   YY=            -48.7176   ZZ=            -47.9773
   XY=              4.1638   XZ=             -6.3534   YZ=             -6.4876
 Traceless Quadrupole moment (field-independent basis, Debye-Ang):
   XX=              2.0639   YY=             -1.4021   ZZ=             -0.6618
   XY=              4.1638   XZ=             -6.3534   YZ=             -6.4876
 Octapole moment (field-independent basis, Debye-Ang**2):
  XXX=              6.6583  YYY=              4.4305  ZZZ=              6.3082  XYY=             -0.6947
  XXY=             24.9207  XXZ=              3.9000  XZZ=             14.7145  YZZ=              5.8218
  YYZ=             -0.9473  XYZ=             -6.4779
 Hexadecapole moment (field-independent basis, Debye-Ang**3):
 XXXX=           -811.4352 YYYY=           -253.4381 ZZZZ=           -237.9488 XXXY=             50.3572
 XXXZ=            -39.3192 YYYX=             16.1598 YYYZ=             -8.7029 ZZZX=            -19.0884
 ZZZY=            -14.3595 XXYY=           -182.1341 XXZZ=           -177.2550 YYZZ=            -77.1513
 XXYZ=            -34.6929 YYXZ=            -10.4133 ZZXY=              8.3864
 N-N= 3.729810488294D+02 E-N=-1.732679112576D+03  KE= 4.194191605835D+02
 No NMR shielding tensors so no spin-rotation constants.
 Leave Link  601 at Mon Feb 22 21:11:48 2021, MaxMem=   104857600 cpu:               3.4 elap:               0.1
 (Enter /sw/arch/RedHatEnterpriseServer7/EB_production/2019/software/Gaussian/g16.c01/l701.exe)
 ... and contract with generalized density number  0.
 Compute integral first derivatives.
 R6Disp: Adding Grimme-D3 dispersion energy 1st derivatives to the gradient.
 PrsmSu:  requested number of processors reduced to:  29 ShMem   1 Linda.
 D1PCM: PCM CHGder 1st derivatives, ID1Alg=3 FixD1E=F DoIter=F DoCFld=F I1PDM=0.
 GePol: Maximum number of non-zero 1st derivatives   =     215
 CoulSu:  requested number of processors reduced to:  29 ShMem   1 Linda.
 CoulSu:  requested number of processors reduced to:  30 ShMem   1 Linda.
 Leave Link  701 at Mon Feb 22 21:11:49 2021, MaxMem=   104857600 cpu:              21.1 elap:               0.7
 (Enter /sw/arch/RedHatEnterpriseServer7/EB_production/2019/software/Gaussian/g16.c01/l702.exe)
 L702 exits ... SP integral derivatives will be done elsewhere.
 Leave Link  702 at Mon Feb 22 21:11:49 2021, MaxMem=   104857600 cpu:               0.8 elap:               0.1
 (Enter /sw/arch/RedHatEnterpriseServer7/EB_production/2019/software/Gaussian/g16.c01/l703.exe)
 Integral derivatives from FoFJK, PRISM(SPDF).
 Compute integral first derivatives, UseDBF=F ICtDFT=           0.
 Calling FoFJK, ICntrl=      2527 FMM=F ISym2X=0 I1Cent= 0 IOpClX= 0 NMat=1 NMatS=1 NMatT=0.
 FoFJK:  IHMeth= 1 ICntrl=    2527 DoSepK=F KAlg= 0 I1Cent=           0 FoldK=F
 IRaf=         0 NMat=       1 IRICut=       1 DoRegI=T DoRafI=F ISym2E= 0 IDoP0=0 IntGTp=1.
 FoFCou: FMM=F IPFlag=           0 FMFlag=      100000 FMFlg1=         800
         NFxFlg=           0 DoJE=F BraDBF=F KetDBF=F FulRan=T
         wScrn=  0.000000 ICntrl=      2527 IOpCl=  0 I1Cent=           0 NGrid=           0
         NMat0=    1 NMatS0=      1 NMatT0=    0 NMatD0=    1 NMtDS0=    0 NMtDT0=    0
 Symmetry not used in FoFCou.
 Leave Link  703 at Mon Feb 22 21:11:50 2021, MaxMem=   104857600 cpu:              34.1 elap:               1.1
 (Enter /sw/arch/RedHatEnterpriseServer7/EB_production/2019/software/Gaussian/g16.c01/l716.exe)
 Dipole        =-2.87352058D-01 1.29624376D+00 1.90548281D+00
 ***** Axes restored to original set *****
 -------------------------------------------------------------------
 Center     Atomic                   Forces (Hartrees/Bohr)
 Number     Number              X              Y              Z
 -------------------------------------------------------------------
      1        6          -0.006606380   -0.005109619   -0.007305884
      2        6           0.045586094    0.012534517   -0.020622742
      3        8          -0.016911751   -0.003578586    0.009045356
      4        6          -0.004247185    0.004536430    0.017219689
      5        6          -0.019528891   -0.014819386   -0.014890423
      6        6           0.057992445    0.056886608    0.018959265
      7        8          -0.018905445   -0.014344170   -0.009147928
      8        8          -0.031256567   -0.026301361   -0.012679416
      9        1           0.002372219    0.002128126   -0.001227973
     10        1          -0.005993319   -0.004904155    0.003231279
     11        1          -0.008873240    0.001026651    0.000810293
     12        1          -0.006134228   -0.003438706    0.002549148
     13        1           0.004237795    0.002481192   -0.001136398
     14        1          -0.005191021   -0.001511494   -0.000940578
     15        1           0.000704449    0.001424018    0.003606178
     16        1           0.012755025   -0.007010063    0.012530131
 -------------------------------------------------------------------
 Cartesian Forces:  Max     0.057992445 RMS     0.017329826
 Leave Link  716 at Mon Feb 22 21:11:50 2021, MaxMem=   104857600 cpu:               0.9 elap:               0.1
 (Enter /sw/arch/RedHatEnterpriseServer7/EB_production/2019/software/Gaussian/g16.c01/l103.exe)

 GradGradGradGradGradGradGradGradGradGradGradGradGradGradGradGradGradGrad
 Berny optimization.
 FormGI is forming the generalized inverse of G from B-inverse, IUseBI=4.
 Internal  Forces:  Max     0.034624641 RMS     0.009122534
 Search for a local minimum.
 Step number   1 out of a maximum of   79
 All quantities printed in internal units (Hartrees-Bohrs-Radians)
 RMS Force = .91225D-02 SwitMx=.10000D-02 MixMth= 1
 Mixed Optimization -- RFO/linear search
 Second derivative matrix not updated -- first step.
 ITU=  0
     Eigenvalues ---    0.00230   0.00977   0.01034   0.01061   0.01083
     Eigenvalues ---    0.01360   0.02295   0.03981   0.04063   0.05414
     Eigenvalues ---    0.05428   0.07496   0.07593   0.09644   0.09678
     Eigenvalues ---    0.12991   0.13034   0.16000   0.16000   0.16000
     Eigenvalues ---    0.16000   0.21972   0.21985   0.24976   0.24999
     Eigenvalues ---    0.25000   0.25000   0.27355   0.34115   0.34404
     Eigenvalues ---    0.34431   0.34444   0.34458   0.34474   0.34680
     Eigenvalues ---    0.34778   0.34831   0.35025   0.51218   0.54096
     Eigenvalues ---    0.82093   0.82698
 RFO step:  Lambda=-2.07308460D-02 EMin= 2.30000000D-03
 Linear search not attempted -- first point.
 Iteration  1 RMS(Cart)=  0.06110153 RMS(Int)=  0.00215186
 Iteration  2 RMS(Cart)=  0.00297376 RMS(Int)=  0.00019330
 Iteration  3 RMS(Cart)=  0.00000132 RMS(Int)=  0.00019329
 Iteration  4 RMS(Cart)=  0.00000000 RMS(Int)=  0.00019329
 ITry= 1 IFail=0 DXMaxC= 2.95D-01 DCOld= 1.00D+10 DXMaxT= 3.00D-01 DXLimC= 3.00D+00 Rises=F
 Variable       Old X    -DE/DX   Delta X   Delta X   Delta X     New X
                                 (Linear)    (Quad)   (Total)
    R1        2.78935   0.01813   0.00000   0.04886   0.04886   2.83821
    R2        2.06609   0.00190   0.00000   0.00519   0.00519   2.07128
    R3        2.06197   0.00694   0.00000   0.01890   0.01890   2.08087
    R4        2.06036   0.00790   0.00000   0.02144   0.02144   2.08180
    R5        2.36806  -0.01918   0.00000  -0.02279  -0.02279   2.34527
    R6        2.80437   0.01745   0.00000   0.04823   0.04823   2.85260
    R7        2.93571  -0.00232   0.00000  -0.00790  -0.00790   2.92781
    R8        2.06537   0.00593   0.00000   0.01623   0.01623   2.08160
    R9        2.06564   0.00346   0.00000   0.00947   0.00947   2.07511
   R10        2.79250   0.01337   0.00000   0.03624   0.03624   2.82874
   R11        2.06586   0.00514   0.00000   0.01409   0.01409   2.07995
   R12        2.06654   0.00327   0.00000   0.00896   0.00896   2.07550
   R13        2.36492  -0.02471   0.00000  -0.02914  -0.02914   2.33578
   R14        2.55944  -0.01068   0.00000  -0.01901  -0.01901   2.54043
   R15        1.85355  -0.00451   0.00000  -0.00847  -0.00847   1.84509
    A1        1.93928  -0.00352   0.00000  -0.01522  -0.01518   1.92411
    A2        1.91788   0.00219   0.00000   0.01125   0.01128   1.92916
    A3        1.92056   0.00270   0.00000   0.01155   0.01159   1.93215
    A4        1.88698   0.00237   0.00000   0.01967   0.01971   1.90669
    A5        1.89325   0.00085   0.00000   0.00642   0.00647   1.89972
    A6        1.90517  -0.00468   0.00000  -0.03425  -0.03422   1.87095
    A7        2.07826   0.01002   0.00000   0.03770   0.03725   2.11551
    A8        2.12145  -0.01308   0.00000  -0.04766  -0.04810   2.07334
    A9        2.08256   0.00312   0.00000   0.01217   0.01173   2.09428
   A10        1.99184  -0.00287   0.00000  -0.01690  -0.01701   1.97483
   A11        1.89561   0.00354   0.00000   0.02007   0.01981   1.91542
   A12        1.91498  -0.00139   0.00000  -0.01311  -0.01311   1.90187
   A13        1.89806  -0.00311   0.00000  -0.02437  -0.02430   1.87376
   A14        1.89968   0.00253   0.00000   0.01258   0.01251   1.91219
   A15        1.85901   0.00158   0.00000   0.02452   0.02462   1.88363
   A16        1.98397  -0.00777   0.00000  -0.03422  -0.03439   1.94957
   A17        1.90914   0.00281   0.00000   0.02095   0.02114   1.93028
   A18        1.89858   0.00213   0.00000   0.00080   0.00015   1.89873
   A19        1.91446   0.00366   0.00000   0.02559   0.02587   1.94033
   A20        1.88484   0.00051   0.00000  -0.01452  -0.01494   1.86990
   A21        1.86922  -0.00106   0.00000   0.00262   0.00265   1.87187
   A22        2.10453   0.01026   0.00000   0.03798   0.03792   2.14245
   A23        2.11032  -0.03462   0.00000  -0.12782  -0.12789   1.98243
   A24        2.06825   0.02437   0.00000   0.09008   0.09001   2.15827
   A25        2.09786  -0.03460   0.00000  -0.19146  -0.19146   1.90640
    D1        0.06687   0.00014   0.00000   0.01732   0.01752   0.08439
    D2       -3.02836  -0.00153   0.00000  -0.03888  -0.03908  -3.06744
    D3        2.15450   0.00228   0.00000   0.03948   0.03968   2.19417
    D4       -0.94073   0.00061   0.00000  -0.01672  -0.01693  -0.95766
    D5       -2.03034  -0.00042   0.00000   0.01151   0.01172  -2.01862
    D6        1.15762  -0.00209   0.00000  -0.04469  -0.04489   1.11273
    D7       -1.30974   0.00234   0.00000   0.04387   0.04382  -1.26592
    D8        0.81077  -0.00098   0.00000   0.01595   0.01565   0.82642
    D9        2.83640   0.00214   0.00000   0.04939   0.04912   2.88552
   D10        1.87832   0.00049   0.00000  -0.01312  -0.01276   1.86556
   D11       -2.28435  -0.00283   0.00000  -0.04105  -0.04094  -2.32529
   D12       -0.25872   0.00029   0.00000  -0.00761  -0.00747  -0.26618
   D13       -1.14895  -0.00064   0.00000  -0.01464  -0.01441  -1.16336
   D14        0.99737   0.00075   0.00000   0.01025   0.01032   1.00769
   D15        3.03366   0.00226   0.00000   0.02553   0.02562   3.05928
   D16        3.01508  -0.00099   0.00000  -0.01123  -0.01127   3.00381
   D17       -1.12179   0.00040   0.00000   0.01365   0.01346  -1.10833
   D18        0.91450   0.00191   0.00000   0.02893   0.02876   0.94327
   D19        0.99643  -0.00254   0.00000  -0.03393  -0.03383   0.96260
   D20       -3.14043  -0.00115   0.00000  -0.00905  -0.00910   3.13365
   D21       -1.10414   0.00036   0.00000   0.00623   0.00620  -1.09794
   D22       -1.05772   0.00140   0.00000   0.03106   0.03073  -1.02699
   D23        2.09734   0.00060   0.00000   0.00847   0.00829   2.10563
   D24        3.08206   0.00049   0.00000   0.00878   0.00871   3.09078
   D25       -0.04606  -0.00030   0.00000  -0.01381  -0.01372  -0.05978
   D26        1.05058  -0.00051   0.00000  -0.00002   0.00015   1.05073
   D27       -2.07754  -0.00131   0.00000  -0.02262  -0.02229  -2.09983
   D28        3.12419   0.00038   0.00000   0.01182   0.01205   3.13624
   D29       -0.00421  -0.00030   0.00000  -0.00997  -0.01020  -0.01441
         Item               Value     Threshold  Converged?
 Maximum Force            0.034625     0.000450     NO 
 RMS     Force            0.009123     0.000300     NO 
 Maximum Displacement     0.294782     0.001800     NO 
 RMS     Displacement     0.062681     0.001200     NO 
 Predicted change in Energy=-1.140103D-02
 Lowest energy point so far.  Saving SCF results.
 GradGradGradGradGradGradGradGradGradGradGradGradGradGradGradGradGradGrad

 Leave Link  103 at Mon Feb 22 21:11:51 2021, MaxMem=   104857600 cpu:               1.0 elap:               0.1
 (Enter /sw/arch/RedHatEnterpriseServer7/EB_production/2019/software/Gaussian/g16.c01/l202.exe)
                          Input orientation:                          
 ---------------------------------------------------------------------
 Center     Atomic      Atomic             Coordinates (Angstroms)
 Number     Number       Type             X           Y           Z
 ---------------------------------------------------------------------
      1          6           0       -1.053473   -0.746686   -2.874880
      2          6           0       -0.037676   -0.148727   -1.944101
      3          8           0        1.044102    0.287965   -2.367537
      4          6           0       -0.357643   -0.072186   -0.470858
      5          6           0       -1.420365    1.003549   -0.133459
      6          6           0       -0.908887    2.386684   -0.390481
      7          8           0        0.096612    2.841965    0.165837
      8          8           0       -1.639669    3.072559   -1.286462
      9          1           0       -0.649656   -0.801408   -3.892383
     10          1           0       -1.335093   -1.757598   -2.541301
     11          1           0       -1.973161   -0.140399   -2.889145
     12          1           0       -0.749700   -1.041511   -0.124340
     13          1           0        0.566231    0.136776    0.084673
     14          1           0       -2.352075    0.814774   -0.688200
     15          1           0       -1.659967    0.940735    0.936551
     16          1           0       -1.254809    3.962468   -1.401603
 ---------------------------------------------------------------------
                    Distance matrix (angstroms):
                    1          2          3          4          5
     1  C    0.000000
     2  C    1.501915   0.000000
     3  O    2.393266   1.241066   0.000000
     4  C    2.591997   1.509530   2.385789   0.000000
     5  C    3.273121   2.553036   3.402465   1.549330   0.000000
     6  C    4.001394   3.098556   3.482462   2.521184   1.496907
     7  O    4.842217   3.662527   3.720032   3.017284   2.402201
     8  O    4.177718   3.657260   4.015634   3.492595   2.378720
     9  H    1.096073   2.143902   2.526006   3.510537   4.240445
    10  H    1.101148   2.151372   3.142466   2.843019   3.664548
    11  H    1.101641   2.153899   3.091836   2.909066   3.034470
    12  H    2.782925   2.148388   3.164991   1.101533   2.152242
    13  H    3.487536   2.135917   2.502910   1.098100   2.178403
    14  H    2.984308   2.803937   3.825144   2.193558   1.100662
    15  H    4.212152   3.480935   4.319155   2.168607   1.098306
    16  H    4.938341   4.321764   4.440720   4.236700   3.223476
                    6          7          8          9         10
     6  C    0.000000
     7  O    1.236041   0.000000
     8  O    1.344340   2.275306   0.000000
     9  H    4.742832   5.504565   4.772690   0.000000
    10  H    4.688576   5.525790   4.999780   1.791521   0.000000
    11  H    3.709738   4.744615   3.605955   1.787480   1.772980
    12  H    3.442193   3.985201   4.366709   3.777011   2.587889
    13  H    2.732001   2.746848   3.919799   4.263280   3.754920
    14  H    2.154607   3.291649   2.441932   3.972036   3.329464
    15  H    2.101405   2.700786   3.080077   5.232055   4.413841
    16  H    1.903976   2.353451   0.976378   5.409687   5.833054
                   11         12         13         14         15
    11  H    0.000000
    12  H    3.154839   0.000000
    13  H    3.920324   1.778685   0.000000
    14  H    2.429011   2.516215   3.094111   0.000000
    15  H    3.987843   2.425566   2.515552   1.770507   0.000000
    16  H    4.422933   5.189060   4.490114   3.408946   3.842133
                   16
    16  H    0.000000
 Stoichiometry    C5H8O3
 Framework group  C1[X(C5H8O3)]
 Deg. of freedom    42
 Full point group                 C1      NOp   1
 RotChk:  IX=0 Diff= 3.95D-01
 Largest Abelian subgroup         C1      NOp   1
 Largest concise Abelian subgroup C1      NOp   1
                         Standard orientation:                         
 ---------------------------------------------------------------------
 Center     Atomic      Atomic             Coordinates (Angstroms)
 Number     Number       Type             X           Y           Z
 ---------------------------------------------------------------------
      1          6           0       -2.324702    0.989148   -0.029397
      2          6           0       -1.505358   -0.263546   -0.152614
      3          8           0       -1.532370   -0.950620   -1.185786
      4          6           0       -0.627558   -0.674952    1.004491
      5          6           0        0.623138    0.224366    1.170049
      6          6           0        1.570019    0.072744    0.020633
      7          8           0        2.077510   -1.010872   -0.289252
      8          8           0        1.801628    1.220178   -0.640429
      9          1           0       -2.962124    1.113774   -0.912311
     10          1           0       -2.956353    0.950422    0.871738
     11          1           0       -1.673562    1.872518    0.066975
     12          1           0       -1.199683   -0.618441    1.944094
     13          1           0       -0.314297   -1.717698    0.861760
     14          1           0        0.328523    1.276073    1.306330
     15          1           0        1.162324   -0.082871    2.076228
     16          1           0        2.427788    1.050178   -1.370044
 ---------------------------------------------------------------------
 Rotational constants (GHZ):           3.1987459           1.2908605           1.2501225
 Leave Link  202 at Mon Feb 22 21:11:51 2021, MaxMem=   104857600 cpu:               0.6 elap:               0.1
 (Enter /sw/arch/RedHatEnterpriseServer7/EB_production/2019/software/Gaussian/g16.c01/l301.exe)
 Standard basis: TZVP (5D, 7F)
 Ernie: Thresh=  0.10000D-02 Tol=  0.10000D-05 Strict=F.
 There are   208 symmetry adapted cartesian basis functions of A   symmetry.
 There are   200 symmetry adapted basis functions of A   symmetry.
   200 basis functions,   344 primitive gaussians,   208 cartesian basis functions
    31 alpha electrons       31 beta electrons
       nuclear repulsion energy       374.5547979558 Hartrees.
 IExCor=  404 DFT=T Ex=B Corr=P86 ExCW=0 ScaHFX=  0.000000
 ScaDFX=  1.000000  1.000000  1.000000  1.000000 ScalE2=  1.000000  1.000000
 IRadAn=      5 IRanWt=     -1 IRanGd=            0 ICorTp=0 IEmpDi=131
 NAtoms=   16 NActive=   16 NUniq=   16 SFac= 1.00D+00 NAtFMM=   60 NAOKFM=F Big=F
 Integral buffers will be    131072 words long.
 Raffenetti 2 integral format.
 Two-electron integral symmetry is turned on.
 R6Disp:  Grimme-D3 Dispersion energy=       -0.0139908619 Hartrees.
 Nuclear repulsion after empirical dispersion term =      374.5408070938 Hartrees.
 ------------------------------------------------------------------------------
 Polarizable Continuum Model (PCM)
 =================================
 Model                : PCM.
 Atomic radii         : UFF (Universal Force Field).
 Polarization charges : Total charges.
 Charge compensation  : None.
 Solution method      : On-the-fly selection.
 Cavity type          : Scaled VdW (van der Waals Surface) (Alpha=1.100).
 Cavity algorithm     : GePol (No added spheres)
                        Default sphere list used, NSphG=   16.
                        Lebedev-Laikov grids with approx.  5.0 points / Ang**2.
                        Smoothing algorithm: York/Karplus (Gamma=1.0000).
                        Polarization charges: spherical gaussians, with
                                              point-specific exponents (IZeta= 3).
                        Self-potential: point-specific (ISelfS= 7).
                        Self-field    : sphere-specific E.n sum rule (ISelfD= 2).
 1st derivatives      : Analytical E(r).r(x)/FMM algorithm (CHGder, D1EAlg=3).
                        Cavity 1st derivative terms included.
 Solvent              : Water, Eps=  78.355300 Eps(inf)=   1.777849
 ------------------------------------------------------------------------------
 Spheres list:
 ISph  on   Nord     Re0    Alpha      Xe            Ye            Ze
    1   C      1    1.9255  1.100     -2.324702      0.989148     -0.029397
    2   C      2    1.9255  1.100     -1.505358     -0.263546     -0.152614
    3   O      3    1.7500  1.100     -1.532370     -0.950620     -1.185786
    4   C      4    1.9255  1.100     -0.627558     -0.674952      1.004491
    5   C      5    1.9255  1.100      0.623138      0.224366      1.170049
    6   C      6    1.9255  1.100      1.570019      0.072744      0.020633
    7   O      7    1.7500  1.100      2.077510     -1.010872     -0.289252
    8   O      8    1.7500  1.100      1.801628      1.220178     -0.640429
    9   H      9    1.4430  1.100     -2.962124      1.113774     -0.912311
   10   H     10    1.4430  1.100     -2.956353      0.950422      0.871738
   11   H     11    1.4430  1.100     -1.673562      1.872518      0.066975
   12   H     12    1.4430  1.100     -1.199683     -0.618441      1.944094
   13   H     13    1.4430  1.100     -0.314297     -1.717698      0.861760
   14   H     14    1.4430  1.100      0.328523      1.276073      1.306330
   15   H     15    1.4430  1.100      1.162324     -0.082871      2.076228
   16   H     16    1.4430  1.100      2.427788      1.050178     -1.370044
 ------------------------------------------------------------------------------
 GePol: Number of generator spheres                  =      16
 GePol: Total number of spheres                      =      16
 GePol: Number of exposed spheres                    =      16 (100.00%)
 GePol: Number of points                             =    1384
 GePol: Average weight of points                     =       0.13
 GePol: Minimum weight of points                     =   0.20D-09
 GePol: Maximum weight of points                     =    0.20577
 GePol: Number of points with low weight             =      76
 GePol: Fraction of low-weight points (<1% of avg)   =       5.49%
 GePol: Cavity surface area                          =    184.930 Ang**2
 GePol: Cavity volume                                =    176.083 Ang**3
 Leave Link  301 at Mon Feb 22 21:11:51 2021, MaxMem=   104857600 cpu:               2.1 elap:               0.1
 (Enter /sw/arch/RedHatEnterpriseServer7/EB_production/2019/software/Gaussian/g16.c01/l302.exe)
 NPDir=0 NMtPBC=     1 NCelOv=     1 NCel=       1 NClECP=     1 NCelD=      1
         NCelK=      1 NCelE2=     1 NClLst=     1 CellRange=     0.0.
 One-electron integrals computed using PRISM.
 One-electron integral symmetry used in STVInt
 PrsmSu:  requested number of processors reduced to:  29 ShMem   1 Linda.
 NBasis=   200 RedAO= T EigKep=  2.45D-04  NBF=   200
 NBsUse=   200 1.00D-06 EigRej= -1.00D+00 NBFU=   200
 Precomputing XC quadrature grid using
 IXCGrd= 4 IRadAn=           5 IRanWt=          -1 IRanGd=           0 AccXCQ= 0.00D+00.
 Generated NRdTot=       0 NPtTot=           0 NUsed=           0 NTot=          32
 NSgBfM=   206   206   206   206   206 MxSgAt=    16 MxSgA2=    16.
 Leave Link  302 at Mon Feb 22 21:11:51 2021, MaxMem=   104857600 cpu:               7.7 elap:               0.3
 (Enter /sw/arch/RedHatEnterpriseServer7/EB_production/2019/software/Gaussian/g16.c01/l303.exe)
 DipDrv:  MaxL=1.
 Leave Link  303 at Mon Feb 22 21:11:51 2021, MaxMem=   104857600 cpu:               1.5 elap:               0.1
 (Enter /sw/arch/RedHatEnterpriseServer7/EB_production/2019/software/Gaussian/g16.c01/l401.exe)
 Initial guess from the checkpoint file:  "JOOXCMJARBKPKM-UHFFFAOYSA-N.chk"
 B after Tr=    -0.000000   -0.000000    0.000000
         Rot=    0.990658    0.136097   -0.003030   -0.008091 Ang=  15.68 deg.
 Guess basis will be translated and rotated to current coordinates.
 JPrj=2 DoOrth=T DoCkMO=T.
 Generating alternative initial guess.
 ExpMin= 9.52D-02 ExpMax= 2.70D+04 ExpMxC= 9.22D+02 IAcc=3 IRadAn=         5 AccDes= 0.00D+00
 Harris functional with IExCor=  404 and IRadAn=       5 diagonalized for initial guess.
 HarFok:  IExCor=  404 AccDes= 0.00D+00 IRadAn=         5 IDoV= 1 UseB2=F ITyADJ=14
 ICtDFT=  3500011 ScaDFX=  1.000000  1.000000  1.000000  1.000000
 FoFCou: FMM=F IPFlag=           0 FMFlag=      100000 FMFlg1=           0
         NFxFlg=           0 DoJE=T BraDBF=F KetDBF=T FulRan=T
         wScrn=  0.000000 ICntrl=       500 IOpCl=  0 I1Cent=   200000004 NGrid=           0
         NMat0=    1 NMatS0=      1 NMatT0=    0 NMatD0=    1 NMtDS0=    0 NMtDT0=    0
 Petite list used in FoFCou.
 Harris En= -421.356684752545    
 Leave Link  401 at Mon Feb 22 21:11:52 2021, MaxMem=   104857600 cpu:              12.6 elap:               0.5
 (Enter /sw/arch/RedHatEnterpriseServer7/EB_production/2019/software/Gaussian/g16.c01/l502.exe)
 Integral symmetry usage will be decided dynamically.
 Closed shell SCF:
 Using DIIS extrapolation, IDIIS=  1040.
 NGot=   104857600 LenX=   104761834 LenY=   104718129
 Requested convergence on RMS density matrix=1.00D-08 within 128 cycles.
 Requested convergence on MAX density matrix=1.00D-06.
 Requested convergence on             energy=1.00D-06.
 No special actions if energy rises.
 Fock matrices will be formed incrementally for  20 cycles.

 Cycle   1  Pass 1  IDiag  1:
 FoFJK:  IHMeth= 1 ICntrl=     500 DoSepK=F KAlg= 0 I1Cent=           0 FoldK=F
 IRaf= 950000000 NMat=       1 IRICut=       1 DoRegI=T DoRafI=F ISym2E= 0 IDoP0=0 IntGTp=1.
 FoFCou: FMM=F IPFlag=           0 FMFlag=      100000 FMFlg1=           0
         NFxFlg=           0 DoJE=T BraDBF=F KetDBF=F FulRan=T
         wScrn=  0.000000 ICntrl=       500 IOpCl=  0 I1Cent=           0 NGrid=           0
         NMat0=    1 NMatS0=      1 NMatT0=    0 NMatD0=    1 NMtDS0=    0 NMtDT0=    0
 Symmetry not used in FoFCou.
 Inv3:  Mode=1 IEnd=     5746368.
 Iteration    1 A*A^-1 deviation from unit magnitude is 2.78D-15 for    379.
 Iteration    1 A*A^-1 deviation from orthogonality  is 2.11D-15 for   1174    198.
 Iteration    1 A^-1*A deviation from unit magnitude is 2.78D-15 for    379.
 Iteration    1 A^-1*A deviation from orthogonality  is 6.62D-15 for    968    929.
 E= -421.213294811790    
 DIIS: error= 3.40D-03 at cycle   1 NSaved=   1.
 NSaved= 1 IEnMin= 1 EnMin= -421.213294811790     IErMin= 1 ErrMin= 3.40D-03
 ErrMax= 3.40D-03  0.00D+00 EMaxC= 1.00D-01 BMatC= 5.09D-03 BMatP= 5.09D-03
 IDIUse=3 WtCom= 9.66D-01 WtEn= 3.40D-02
 Coeff-Com:  0.100D+01
 Coeff-En:   0.100D+01
 Coeff:      0.100D+01
 Gap=     0.540 Goal=   None    Shift=    0.000
 GapD=    0.540 DampG=2.000 DampE=1.000 DampFc=2.0000 IDamp=-1.
 RMSDP=1.06D-03 MaxDP=5.01D-02              OVMax= 2.50D-02

 Cycle   2  Pass 1  IDiag  1:
 RMSU=  1.03D-03    CP:  9.84D-01
 E= -421.217865478271     Delta-E=       -0.004570666481 Rises=F Damp=F
 DIIS: error= 4.18D-03 at cycle   2 NSaved=   2.
 NSaved= 2 IEnMin= 2 EnMin= -421.217865478271     IErMin= 1 ErrMin= 3.40D-03
 ErrMax= 4.18D-03  0.00D+00 EMaxC= 1.00D-01 BMatC= 2.93D-03 BMatP= 5.09D-03
 IDIUse=3 WtCom= 9.58D-01 WtEn= 4.18D-02
 Coeff-Com:  0.394D+00 0.606D+00
 Coeff-En:   0.000D+00 0.100D+01
 Coeff:      0.378D+00 0.622D+00
 Gap=     0.136 Goal=   None    Shift=    0.000
 RMSDP=6.70D-04 MaxDP=3.21D-02 DE=-4.57D-03 OVMax= 3.72D-02

 Cycle   3  Pass 1  IDiag  1:
 RMSU=  5.15D-04    CP:  9.96D-01  6.25D-01
 E= -421.215280951795     Delta-E=        0.002584526476 Rises=F Damp=F
 DIIS: error= 6.66D-03 at cycle   3 NSaved=   3.
 NSaved= 3 IEnMin= 2 EnMin= -421.217865478271     IErMin= 1 ErrMin= 3.40D-03
 ErrMax= 6.66D-03  0.00D+00 EMaxC= 1.00D-01 BMatC= 6.26D-03 BMatP= 2.93D-03
 IDIUse=3 WtCom= 1.09D-01 WtEn= 8.91D-01
 Coeff-Com:  0.250D-01 0.583D+00 0.392D+00
 Coeff-En:   0.000D+00 0.633D+00 0.367D+00
 Coeff:      0.273D-02 0.627D+00 0.370D+00
 Gap=     0.141 Goal=   None    Shift=    0.000
 RMSDP=3.80D-04 MaxDP=1.81D-02 DE= 2.58D-03 OVMax= 2.03D-02

 Cycle   4  Pass 1  IDiag  1:
 RMSU=  5.98D-05    CP:  9.89D-01  8.28D-01  4.35D-01
 E= -421.219880045107     Delta-E=       -0.004599093312 Rises=F Damp=F
 DIIS: error= 8.16D-04 at cycle   4 NSaved=   4.
 NSaved= 4 IEnMin= 4 EnMin= -421.219880045107     IErMin= 4 ErrMin= 8.16D-04
 ErrMax= 8.16D-04  0.00D+00 EMaxC= 1.00D-01 BMatC= 1.36D-04 BMatP= 2.93D-03
 IDIUse=3 WtCom= 9.92D-01 WtEn= 8.16D-03
 Coeff-Com:  0.172D-02 0.322D+00 0.153D+00 0.524D+00
 Coeff-En:   0.000D+00 0.480D-01 0.000D+00 0.952D+00
 Coeff:      0.171D-02 0.320D+00 0.151D+00 0.527D+00
 Gap=     0.141 Goal=   None    Shift=    0.000
 RMSDP=6.62D-05 MaxDP=2.82D-03 DE=-4.60D-03 OVMax= 2.77D-03

 Cycle   5  Pass 1  IDiag  1:
 RMSU=  1.87D-05    CP:  9.88D-01  8.66D-01  3.53D-01  6.30D-01
 E= -421.219981748820     Delta-E=       -0.000101703714 Rises=F Damp=F
 DIIS: error= 1.44D-04 at cycle   5 NSaved=   5.
 NSaved= 5 IEnMin= 5 EnMin= -421.219981748820     IErMin= 5 ErrMin= 1.44D-04
 ErrMax= 1.44D-04  0.00D+00 EMaxC= 1.00D-01 BMatC= 3.16D-06 BMatP= 1.36D-04
[...]
      7          8           0        1.028365   -1.204352    0.580752
      8          8           0        2.804168   -0.062183   -0.253772
      9          1           0       -2.496904   -0.998693   -1.617061
     10          1           0       -1.619828    0.518590   -2.038246
     11          1           0       -0.708276   -0.941343   -1.621512
     12          1           0       -1.141536    2.063389    0.279615
     13          1           0       -0.562966    1.044948    1.609351
     14          1           0        0.660162    1.216895   -1.241485
     15          1           0        1.331091    1.949379    0.203729
     16          1           0        3.239521   -0.926477   -0.088632
 ---------------------------------------------------------------------
 Rotational constants (GHZ):           3.8750101           1.2025556           1.1634226
 Standard basis: TZVP (5D, 7F)
 There are   208 symmetry adapted cartesian basis functions of A   symmetry.
 There are   200 symmetry adapted basis functions of A   symmetry.
   200 basis functions,   344 primitive gaussians,   208 cartesian basis functions
    31 alpha electrons       31 beta electrons
       nuclear repulsion energy       375.3272728664 Hartrees.
 NAtoms=   16 NActive=   16 NUniq=   16 SFac= 1.00D+00 NAtFMM=   60 NAOKFM=F Big=F
 Integral buffers will be    131072 words long.
 Raffenetti 2 integral format.
 Two-electron integral symmetry is turned on.
 Warning! Using old PCM defaults because the COSMOthermo output has been requested.
 These settings can be overridden by following keywords.
 ------------------------------------------------------------------------------
 Polarizable Continuum Model (PCM)
 =================================
 Model                : C-PCM.
 Atomic radii         : Klamt.
 XCosmo               : -1.000 (infinite dielectric limit)
 Polarization charges : Electronic and nuclear charges.
 Charge compensation  : Type 3 (Electronic density weighted correction).
 Solution method      : On-the-fly selection.
 Cavity type          : VdW (van der Waals Surface) (Alpha=1.000).
 Cavity algorithm     : GePol (No added spheres)
                        Default sphere list used, NSphG=   16.
                        Tesserae with average area of 0.200 Ang**2.
                        Smoothing algorithm: None.
                        Polarization charges: point-like.
                        Self-potential: constant (ISelfS= 1).
                        Self-field    : global E.n sum rule (ISelfD= 3).
 Solvent              : Water, Eps=  78.355300 Eps(inf)=   1.777849
 ------------------------------------------------------------------------------
 Spheres list:
 ISph  on   Nord     Re0    Alpha      Xe            Ye            Ze
    1   C      1    2.0000  1.000     -1.624421     -0.373623     -1.392665
    2   C      2    2.0000  1.000     -1.624982      0.017283      0.068704
    3   O      3    1.7200  1.000     -2.418795     -0.473069      0.868012
    4   C      4    2.0000  1.000     -0.650232      1.102289      0.515309
    5   C      5    2.0000  1.000      0.730310      1.097368     -0.147509
    6   C      6    2.0000  1.000      1.500797     -0.178293      0.115213
    7   O      7    1.7200  1.000      1.028365     -1.204352      0.580752
    8   O      8    1.7200  1.000      2.804168     -0.062183     -0.253772
    9   H      9    1.3000  1.000     -2.496904     -0.998693     -1.617061
   10   H     10    1.3000  1.000     -1.619828      0.518590     -2.038246
   11   H     11    1.3000  1.000     -0.708276     -0.941343     -1.621512
   12   H     12    1.3000  1.000     -1.141536      2.063389      0.279615
   13   H     13    1.3000  1.000     -0.562966      1.044948      1.609351
   14   H     14    1.3000  1.000      0.660162      1.216895     -1.241485
   15   H     15    1.3000  1.000      1.331091      1.949379      0.203729
   16   H     16    1.3000  1.000      3.239521     -0.926477     -0.088632
 ------------------------------------------------------------------------------
 One-electron integrals computed using PRISM.
 PrsmSu:  requested number of processors reduced to:  29 ShMem   1 Linda.
 NBasis=   200 RedAO= T EigKep=  2.18D-04  NBF=   200
 NBsUse=   200 1.00D-06 EigRej= -1.00D+00 NBFU=   200
 Initial guess from the checkpoint file:  "JOOXCMJARBKPKM-UHFFFAOYSA-N.chk"
 B after Tr=    -0.000000    0.000000   -0.000000
         Rot=    1.000000   -0.000000    0.000000    0.000000 Ang=   0.00 deg.
 Requested convergence on RMS density matrix=1.00D-08 within 128 cycles.
 Requested convergence on MAX density matrix=1.00D-06.
 Requested convergence on             energy=1.00D-06.
 No special actions if energy rises.
 Inv3:  Mode=1 IEnd=     3676347.
 Iteration    1 A*A^-1 deviation from unit magnitude is 7.99D-15 for    551.
 Iteration    1 A*A^-1 deviation from orthogonality  is 8.88D-15 for    996    551.
 Iteration    1 A^-1*A deviation from unit magnitude is 1.24D-14 for    996.
 Iteration    1 A^-1*A deviation from orthogonality  is 9.77D-15 for    996    551.
 Error on nuclear    polarization charges =  0.01266
 Error on electronic polarization charges = -0.03868
 SCF Done:  E(RB-P86) =  -421.217488005     A.U. after   11 cycles
            NFock= 11  Conv=0.45D-08     -V/T= 2.0044
 --------------------------------------------------------------------
 Variational C-PCM results
 =========================
 <psi(f)|   H    |psi(f)>                     (a.u.) =    -421.189175
 <psi(f)|H+V(f)/2|psi(f)>                     (a.u.) =    -421.217488
 Total free energy in solution:
 - with all non electrostatic terms           (a.u.) =    -421.206444
 --------------------------------------------------------------------
 (Polarized solute)-Solvent               (kcal/mol) =     -17.77
 --------------------------------------------------------------------
 Cavitation energy                        (kcal/mol) =      20.05
 Dispersion energy                        (kcal/mol) =     -14.35
 Repulsion energy                         (kcal/mol) =       1.23
 Total non electrostatic                  (kcal/mol) =       6.93
 --------------------------------------------------------------------
 Partition over spheres:
 Sphere  on Atom  Surface  Charge   GEl     GCav    GDR
    1      C1      16.64  -0.012   -0.18    1.95   -1.23
    2      C2       6.40  -0.001   -0.27    0.75   -0.23
    3      O3      20.35   0.267   -6.20    2.53   -1.74
    4      C4       9.07  -0.021   -0.27    1.07   -0.45
    5      C5       8.69  -0.036   -0.48    1.02   -0.44
    6      C6       9.57  -0.039   -0.38    1.12   -0.53
    7      O7      17.58   0.204   -3.15    2.19   -1.36
    8      O8      15.90   0.087   -0.36    1.98   -1.47
    9      H9       6.49  -0.034   -0.07    0.92   -0.71
   10      H10      6.55  -0.043   -0.65    0.92   -0.67
   11      H11      5.51  -0.040   -0.36    0.78   -0.44
   12      H12      6.59  -0.048   -0.66    0.93   -0.83
   13      H13      6.52  -0.035   -0.08    0.92   -0.73
   14      H14      6.06  -0.048   -0.85    0.86   -0.58
   15      H15      6.54  -0.048   -0.67    0.92   -0.81
   16      H16      8.48  -0.153   -3.15    1.20   -0.90
 --------------------------------------------------------------------
 - cavitation energy not included in the total energy.
 - dispersion energy not included in the total energy.
 - repulsion  energy not included in the total energy.
 After PCM corrections, the energy is  -421.217488005     a.u.
 --------------------------------------------------------------------
 Writing COSMO formatted file "JOOXCMJARBKPKM-UHFFFAOYSA-N.cosmo"
 Recomputed dielectric energy= -0.028358 old= -0.028313 diff=-4.51D-05

 **********************************************************************

            Population analysis using the SCF Density.

 **********************************************************************

 Orbital symmetries:
       Occupied  (A) (A) (A) (A) (A) (A) (A) (A) (A) (A) (A) (A)
                 (A) (A) (A) (A) (A) (A) (A) (A) (A) (A) (A) (A)
                 (A) (A) (A) (A) (A) (A) (A)
       Virtual   (A) (A) (A) (A) (A) (A) (A) (A) (A) (A) (A) (A)
                 (A) (A) (A) (A) (A) (A) (A) (A) (A) (A) (A) (A)
                 (A) (A) (A) (A) (A) (A) (A) (A) (A) (A) (A) (A)
                 (A) (A) (A) (A) (A) (A) (A) (A) (A) (A) (A) (A)
                 (A) (A) (A) (A) (A) (A) (A) (A) (A) (A) (A) (A)
                 (A) (A) (A) (A) (A) (A) (A) (A) (A) (A) (A) (A)
                 (A) (A) (A) (A) (A) (A) (A) (A) (A) (A) (A) (A)
                 (A) (A) (A) (A) (A) (A) (A) (A) (A) (A) (A) (A)
                 (A) (A) (A) (A) (A) (A) (A) (A) (A) (A) (A) (A)
                 (A) (A) (A) (A) (A) (A) (A) (A) (A) (A) (A) (A)
                 (A) (A) (A) (A) (A) (A) (A) (A) (A) (A) (A) (A)
                 (A) (A) (A) (A) (A) (A) (A) (A) (A) (A) (A) (A)
                 (A) (A) (A) (A) (A) (A) (A) (A) (A) (A) (A) (A)
                 (A) (A) (A) (A) (A) (A) (A) (A) (A) (A) (A) (A)
                 (A)
 The electronic state is 1-A.
 Alpha  occ. eigenvalues --  -18.82352 -18.77464 -18.76603 -10.03713  -9.99366
 Alpha  occ. eigenvalues --   -9.92103  -9.91119  -9.89728  -1.02613  -0.96236
 Alpha  occ. eigenvalues --   -0.94441  -0.73919  -0.67510  -0.63100  -0.55002
 Alpha  occ. eigenvalues --   -0.48460  -0.46046  -0.44520  -0.43841  -0.40799
 Alpha  occ. eigenvalues --   -0.40399  -0.40011  -0.36688  -0.35604  -0.34948
 Alpha  occ. eigenvalues --   -0.34067  -0.32410  -0.31518  -0.29594  -0.25326
 Alpha  occ. eigenvalues --   -0.21904
 Alpha virt. eigenvalues --   -0.06665  -0.05036   0.02072   0.03871   0.06416
 Alpha virt. eigenvalues --    0.07655   0.08265   0.09933   0.10450   0.11793
 Alpha virt. eigenvalues --    0.12304   0.13996   0.14391   0.15717   0.17278
 Alpha virt. eigenvalues --    0.17775   0.18682   0.20448   0.22993   0.24997
 Alpha virt. eigenvalues --    0.26428   0.26962   0.28000   0.30654   0.32293
 Alpha virt. eigenvalues --    0.32783   0.33681   0.34629   0.36139   0.36358
 Alpha virt. eigenvalues --    0.37434   0.39264   0.39700   0.40518   0.41103
 Alpha virt. eigenvalues --    0.42305   0.43450   0.43827   0.44306   0.45954
 Alpha virt. eigenvalues --    0.46257   0.46941   0.49028   0.49756   0.50949
 Alpha virt. eigenvalues --    0.53821   0.55674   0.57557   0.59087   0.60368
 Alpha virt. eigenvalues --    0.64639   0.67162   0.70493   0.75046   0.77987
 Alpha virt. eigenvalues --    0.87188   0.89759   1.08347   1.12796   1.14248
 Alpha virt. eigenvalues --    1.17870   1.21074   1.22575   1.24012   1.24478
 Alpha virt. eigenvalues --    1.25007   1.25671   1.27466   1.29359   1.31318
 Alpha virt. eigenvalues --    1.33904   1.34871   1.36652   1.37417   1.39981
 Alpha virt. eigenvalues --    1.44273   1.45157   1.47122   1.48847   1.49035
 Alpha virt. eigenvalues --    1.51143   1.53159   1.53783   1.55625   1.58450
 Alpha virt. eigenvalues --    1.60196   1.61712   1.66475   1.68611   1.70679
 Alpha virt. eigenvalues --    1.71695   1.74536   1.75914   1.77226   1.81614
 Alpha virt. eigenvalues --    1.84720   1.90524   1.90844   1.92717   2.00280
 Alpha virt. eigenvalues --    2.01974   2.05266   2.09285   2.10420   2.14852
 Alpha virt. eigenvalues --    2.16343   2.16750   2.22185   2.23757   2.26708
 Alpha virt. eigenvalues --    2.28373   2.34882   2.36370   2.37292   2.40826
 Alpha virt. eigenvalues --    2.42054   2.45025   2.48004   2.49913   2.51465
 Alpha virt. eigenvalues --    2.52613   2.53460   2.55325   2.55644   2.58407
 Alpha virt. eigenvalues --    2.59582   2.60627   2.62265   2.63334   2.65595
 Alpha virt. eigenvalues --    2.66301   2.68382   2.70038   2.72044   2.75014
 Alpha virt. eigenvalues --    2.79272   2.80130   2.82234   2.85657   2.96598
 Alpha virt. eigenvalues --    2.97557   3.01169   3.04430   3.06935   3.09417
 Alpha virt. eigenvalues --    3.10004   3.13524   3.15373   3.20415   3.22114
 Alpha virt. eigenvalues --    3.23606   3.24255   3.26607   3.30350   3.33389
 Alpha virt. eigenvalues --    3.38766   3.42277   3.81022   4.08058   4.10899
 Alpha virt. eigenvalues --    4.18385  21.72276  21.74011  21.78983  21.81946
 Alpha virt. eigenvalues --   21.82006  43.05590  43.13976  43.18144
          Condensed to atoms (all electrons):
               1          2          3          4          5          6
     1  C    5.624849   0.132333  -0.142369  -0.263155   0.024655   0.002608
     2  C    0.132333   5.053114   0.659095   0.034344   0.029328   0.010956
     3  O   -0.142369   0.659095   7.939979  -0.157606   0.006875   0.002093
     4  C   -0.263155   0.034344  -0.157606   5.977855  -0.053278  -0.044687
     5  C    0.024655   0.029328   0.006875  -0.053278   5.850534   0.060595
     6  C    0.002608   0.010956   0.002093  -0.044687   0.060595   4.876812
     7  O   -0.013305   0.030615  -0.003328   0.016483  -0.142512   0.588560
     8  O    0.000199   0.000888  -0.000016   0.008771  -0.148740   0.334988
     9  H    0.356176  -0.029057   0.014374   0.019566  -0.001352  -0.000538
    10  H    0.357118  -0.027519   0.004103   0.037457  -0.019210   0.000296
    11  H    0.338806   0.007637   0.002236  -0.017354   0.025632  -0.007502
    12  H    0.004440  -0.005384   0.000986   0.374032  -0.044269   0.013663
    13  H    0.020643  -0.042033   0.018161   0.372156  -0.021939  -0.006714
    14  H    0.006872  -0.015366   0.000075  -0.008185   0.369145  -0.016285
    15  H   -0.001483   0.004731  -0.000424  -0.022180   0.369198  -0.013378
    16  H   -0.000031   0.000130   0.000002  -0.001549   0.014889  -0.015734
               7          8          9         10         11         12
     1  C   -0.013305   0.000199   0.356176   0.357118   0.338806   0.004440
     2  C    0.030615   0.000888  -0.029057  -0.027519   0.007637  -0.005384
     3  O   -0.003328  -0.000016   0.014374   0.004103   0.002236   0.000986
     4  C    0.016483   0.008771   0.019566   0.037457  -0.017354   0.374032
     5  C   -0.142512  -0.148740  -0.001352  -0.019210   0.025632  -0.044269
     6  C    0.588560   0.334988  -0.000538   0.000296  -0.007502   0.013663
     7  O    7.966079  -0.101758   0.000269   0.000459   0.004672   0.000390
     8  O   -0.101758   7.888267  -0.000001  -0.000050  -0.000687  -0.000101
     9  H    0.000269  -0.000001   0.502698  -0.011523  -0.012038  -0.000580
    10  H    0.000459  -0.000050  -0.011523   0.490689  -0.016963  -0.001965
    11  H    0.004672  -0.000687  -0.012038  -0.016963   0.500111   0.000142
    12  H    0.000390  -0.000101  -0.000580  -0.001965   0.000142   0.468861
    13  H    0.000345   0.000102  -0.000690  -0.000464  -0.000933  -0.009296
    14  H   -0.000030   0.002073   0.000103   0.003369  -0.005162   0.000021
    15  H    0.003886   0.007258   0.000055   0.000156   0.000537  -0.004452
    16  H    0.001769   0.284258  -0.000001  -0.000003   0.000054   0.000024
              13         14         15         16
     1  C    0.020643   0.006872  -0.001483  -0.000031
     2  C   -0.042033  -0.015366   0.004731   0.000130
     3  O    0.018161   0.000075  -0.000424   0.000002
     4  C    0.372156  -0.008185  -0.022180  -0.001549
     5  C   -0.021939   0.369145   0.369198   0.014889
     6  C   -0.006714  -0.016285  -0.013378  -0.015734
     7  O    0.000345  -0.000030   0.003886   0.001769
     8  O    0.000102   0.002073   0.007258   0.284258
     9  H   -0.000690   0.000103   0.000055  -0.000001
    10  H   -0.000464   0.003369   0.000156  -0.000003
    11  H   -0.000933  -0.005162   0.000537   0.000054
    12  H   -0.009296   0.000021  -0.004452   0.000024
    13  H    0.509875   0.004000  -0.004492  -0.000013
    14  H    0.004000   0.457317  -0.008678  -0.000368
    15  H   -0.004492  -0.008678   0.464435  -0.000378
    16  H   -0.000013  -0.000368  -0.000378   0.383028
 Mulliken charges:
               1
     1  C   -0.448354
     2  C    0.156189
     3  O   -0.344237
     4  C   -0.272671
     5  C   -0.319551
     6  C    0.214267
     7  O   -0.352593
     8  O   -0.275453
     9  H    0.162538
    10  H    0.184048
    11  H    0.180810
    12  H    0.203487
    13  H    0.161291
    14  H    0.211100
    15  H    0.205206
    16  H    0.333924
 Sum of Mulliken charges =  -0.00000
 Mulliken charges with hydrogens summed into heavy atoms:
               1
     1  C    0.079042
     2  C    0.156189
     3  O   -0.344237
     4  C    0.092106
     5  C    0.096755
     6  C    0.214267
     7  O   -0.352593
     8  O    0.058471
 Electronic spatial extent (au):  <R**2>=           1078.3818
 Charge=              0.0000 electrons
 Dipole moment (field-independent basis, Debye):
    X=              3.8989    Y=              3.5012    Z=             -3.7009  Tot=              6.4153
 Quadrupole moment (field-independent basis, Debye-Ang):
   XX=            -50.6922   YY=            -46.4436   ZZ=            -48.0050
   XY=             -6.6166   XZ=              6.7230   YZ=              3.4779
 Traceless Quadrupole moment (field-independent basis, Debye-Ang):
   XX=             -2.3119   YY=              1.9367   ZZ=              0.3753
   XY=             -6.6166   XZ=              6.7230   YZ=              3.4779
 Octapole moment (field-independent basis, Debye-Ang**2):
  XXX=             57.5526  YYY=              6.1978  ZZZ=             -2.7466  XYY=              6.0400
  XXY=            -10.5737  XXZ=            -12.4647  XZZ=              5.0295  YZZ=              1.9988
  YYZ=             -3.2804  XYZ=             -0.4784
 Hexadecapole moment (field-independent basis, Debye-Ang**3):
 XXXX=           -874.4773 YYYY=           -233.4943 ZZZZ=           -213.7137 XXXY=            -90.4206
 XXXZ=             43.5983 YYYX=             -6.1166 YYYZ=              2.4724 ZZZX=              4.0001
 ZZZY=             -2.5091 XXYY=           -170.1972 XXZZ=           -196.5958 YYZZ=            -75.3408
 XXYZ=             12.4724 YYXZ=             -1.4122 ZZXY=             -2.5350
 N-N= 3.753272728664D+02 E-N=-1.737249470121D+03  KE= 4.193652656735D+02
 Unable to Open any file for archive entry.
 1\1\GINC-TCN1656\SP\RBP86\TZVP\C5H8O3\ELENAA\22-Feb-2021\0\\# BP86/TZV
 P SCRF=COSMORS geom=CHECKPOINT guess=CHECKPOINT\\COSMO-file for #JOOXC
 MJARBKPKM-UHFFFAOYSA-N\\0,1\C,0,-0.8957371882,-0.4921137314,-2.8628571
 22\C,0,0.1543049045,-0.4168102431,-1.7765111142\O,0,1.336102709,-0.665
 4395867,-2.0023754929\C,0,-0.3092259348,-0.0902971788,-0.3604030649\C,
 0,-1.442928852,0.9308909181,-0.2294890279\C,0,-1.0741507226,2.28889877
 58,-0.7860868711\O,0,-0.1006373682,2.5235080632,-1.4860480553\O,0,-1.9
 797669962,3.2390492481,-0.431853066\H,0,-0.4683608967,-0.9319727239,-3
 .7717939923\H,0,-1.7654098862,-1.0794820493,-2.5289287493\H,0,-1.26097
 75872,0.5216754182,-3.0927026634\H,0,-0.6562793895,-1.0466576143,0.070
 3777893\H,0,0.5720259018,0.222152101,0.2171800696\H,0,-2.3550570476,0.
 6000946049,-0.753499037\H,0,-1.735855096,1.0507342192,0.8241045808\H,0
 ,-1.70327655,4.0847297792,-0.8468041834\\Version=ES64L-G16RevC.01\Stat
 e=1-A\HF=-421.217488\RMSD=4.493e-09\Dipole=-2.3741903,0.2722633,0.8121
 261\Quadrupole=-6.6460282,4.5704619,2.0755663,3.0766933,3.6368976,-1.0
 226401\PG=C01 [X(C5H8O3)]\\@
 The archive entry for this job was punched.


 IF YOU BELIEVE CERTAIN WORDS, YOU BELIEVE THEIR HIDDEN ARGUMENTS.
 WHEN YOU BELIEVE SOMETHING IS RIGHT OR WRONG, TRUE OR FALSE, 
 YOU BELIEVE THE ASSUMPTIONS IN THE WORDS WHICH EXPRESS THE ARGUMENTS.
 SUCH ASSUMPTIONS ARE OFTEN FULL OF HOLES, BUT REMAIN MOST PRECIOUS 
 TO THE CONVINCED.

                 -- THE OPEN-ENDED PROOF FROM THE PANOPLIA PROPHETICA
                    CHILDREN OF DUNE BY FRANK HERBERT
 Job cpu time:       0 days  0 hours  4 minutes  4.8 seconds.
 Elapsed time:       0 days  0 hours  0 minutes  8.1 seconds.
 File lengths (MBytes):  RWF=     34 Int=      0 D2E=      0 Chk=      7 Scr=      1
 Normal termination of Gaussian 16 at Mon Feb 22 21:17:13 2021.
