 Entering Gaussian System, Link 0=g16
 Input=JUGOREOARAHOCO-UHFFFAOYSA-M.gjf
 Output=JUGOREOARAHOCO-UHFFFAOYSA-M.log
 Initial command:
 /sw/arch/RedHatEnterpriseServer7/EB_production/2020/software/Gaussian/g16.c01/l1.exe "/scratch-local/elenaa.10684694/Gau-11919.inp" -scrdir="/scratch-local/elenaa.10684694/"
 Entering Link 1 = /sw/arch/RedHatEnterpriseServer7/EB_production/2020/software/Gaussian/g16.c01/l1.exe PID=     11920.
  
 Copyright (c) 1988-2019, Gaussian, Inc.  All Rights Reserved.
  
 This is part of the Gaussian(R) 16 program.  It is based on
 the Gaussian(R) 09 system (copyright 2009, Gaussian, Inc.),
 the Gaussian(R) 03 system (copyright 2003, Gaussian, Inc.),
 the Gaussian(R) 98 system (copyright 1998, Gaussian, Inc.),
 the Gaussian(R) 94 system (copyright 1995, Gaussian, Inc.),
 the Gaussian 92(TM) system (copyright 1992, Gaussian, Inc.),
 the Gaussian 90(TM) system (copyright 1990, Gaussian, Inc.),
 the Gaussian 88(TM) system (copyright 1988, Gaussian, Inc.),
 the Gaussian 86(TM) system (copyright 1986, Carnegie Mellon
 University), and the Gaussian 82(TM) system (copyright 1983,
 Carnegie Mellon University). Gaussian is a federally registered
 trademark of Gaussian, Inc.
  
 This software contains proprietary and confidential information,
 including trade secrets, belonging to Gaussian, Inc.
  
 This software is provided under written license and may be
 used, copied, transmitted, or stored only in accord with that
 written license.
  
 The following legend is applicable only to US Government
 contracts under FAR:
  
                    RESTRICTED RIGHTS LEGEND
  
 Use, reproduction and disclosure by the US Government is
 subject to restrictions as set forth in subparagraphs (a)
 and (c) of the Commercial Computer Software - Restricted
 Rights clause in FAR 52.227-19.
  
 Gaussian, Inc.
 340 Quinnipiac St., Bldg. 40, Wallingford CT 06492
  
  
 ---------------------------------------------------------------
 Warning -- This program may not be used in any manner that
 competes with the business of Gaussian, Inc. or will provide
 assistance to any competitor of Gaussian, Inc.  The licensee
 of this program is prohibited from giving any competitor of
 Gaussian, Inc. access to this program.  By using this program,
 the user acknowledges that Gaussian, Inc. is engaged in the
 business of creating and licensing software in the field of
 computational chemistry and represents and warrants to the
 licensee that it is not a competitor of Gaussian, Inc. and that
 it will not use this program in any manner prohibited above.
 ---------------------------------------------------------------
  

 Cite this work as:
 Gaussian 16, Revision C.01,
 M. J. Frisch, G. W. Trucks, H. B. Schlegel, G. E. Scuseria, 
 M. A. Robb, J. R. Cheeseman, G. Scalmani, V. Barone, 
 G. A. Petersson, H. Nakatsuji, X. Li, M. Caricato, A. V. Marenich, 
 J. Bloino, B. G. Janesko, R. Gomperts, B. Mennucci, H. P. Hratchian, 
 J. V. Ortiz, A. F. Izmaylov, J. L. Sonnenberg, D. Williams-Young, 
 F. Ding, F. Lipparini, F. Egidi, J. Goings, B. Peng, A. Petrone, 
 T. Henderson, D. Ranasinghe, V. G. Zakrzewski, J. Gao, N. Rega, 
 G. Zheng, W. Liang, M. Hada, M. Ehara, K. Toyota, R. Fukuda, 
 J. Hasegawa, M. Ishida, T. Nakajima, Y. Honda, O. Kitao, H. Nakai, 
 T. Vreven, K. Throssell, J. A. Montgomery, Jr., J. E. Peralta, 
 F. Ogliaro, M. J. Bearpark, J. J. Heyd, E. N. Brothers, K. N. Kudin, 
 V. N. Staroverov, T. A. Keith, R. Kobayashi, J. Normand, 
 K. Raghavachari, A. P. Rendell, J. C. Burant, S. S. Iyengar, 
 J. Tomasi, M. Cossi, J. M. Millam, M. Klene, C. Adamo, R. Cammi, 
 J. W. Ochterski, R. L. Martin, K. Morokuma, O. Farkas, 
 J. B. Foresman, and D. J. Fox, Gaussian, Inc., Wallingford CT, 2019.
 
 ******************************************
 Gaussian 16:  ES64L-G16RevC.01  3-Jul-2019
                21-Aug-2021 
 ******************************************
 %chk=JUGOREOARAHOCO-UHFFFAOYSA-M.chk
 %NProcShared=24
 Will use up to   24 processors via shared memory.
 -------------------------------------------------------------
 #P BP86/TZVP EmpiricalDispersion=GD3 SCRF=(Solvent=Water) Opt
 -------------------------------------------------------------
 1/18=20,19=15,26=3,38=1/1,3;
 2/9=110,12=2,17=6,18=5,40=1/2;
 3/5=19,7=101,11=2,25=1,30=1,70=2201,71=1,72=1,74=404,124=31/1,2,3;
 4//1;
 5/5=2,38=5,53=1/2;
 6/7=2,8=2,9=2,10=2,28=1/1;
 7//1,2,3,16;
 1/18=20,19=15,26=3/3(2);
 2/9=110/2;
 99//99;
 2/9=110/2;
 3/5=19,7=101,11=2,25=1,30=1,70=2205,71=1,72=1,74=404,124=31/1,2,3;
 4/5=5,16=3,69=1/1;
 5/5=2,38=5,53=1/2;
 7//1,2,3,16;
 1/18=20,19=15,26=3/3(-5);
 2/9=110/2;
 6/7=2,8=2,9=2,10=2,19=2,28=1/1;
 99/9=1/99;
 Leave Link    1 at Sat Aug 21 09:32:10 2021, MaxMem=           0 cpu:               1.5 elap:               0.1
 (Enter /sw/arch/RedHatEnterpriseServer7/EB_production/2020/software/Gaussian/g16.c01/l101.exe)
 -------------------------------------
 Particle #JUGOREOARAHOCO-UHFFFAOYSA-M
 -------------------------------------
 Symbolic Z-matrix:
 Charge =  0 Multiplicity = 1
 C                    -4.74749  -2.08036   0.29115 
 C                    -3.28992  -1.78662   0.39956 
 O                    -2.56586  -2.48881   1.15662 
 O                    -2.73351  -0.76486  -0.37499 
 C                    -1.34699  -0.44106  -0.33891 
 C                    -1.07459   0.71961  -1.31397 
 N                     0.32882   1.23996  -1.31075 
 C                     0.51155   2.15256  -2.46605 
 C                     0.55934   2.04166  -0.0805 
 C                     1.35116   0.16516  -1.35999 
 Cl                    3.79905   2.52664  -1.30279 
 H                    -5.28963  -1.18154  -0.07035 
 H                    -4.9045   -2.91315  -0.42532 
 H                    -5.15322  -2.36849   1.28386 
 H                    -0.76587  -1.33826  -0.6413 
 H                    -1.0735   -0.15873   0.69791 
 H                    -1.78635   1.54279  -1.07378 
 H                    -1.36682   0.37783  -2.3242 
 H                    -0.24643   2.96821  -2.45492 
 H                     1.51936   2.62613  -2.45472 
 H                     0.41541   1.61997  -3.42942 
 H                     0.49182   1.42041   0.83722 
 H                    -0.1812    2.86806   0.00983 
 H                     1.57507   2.49867  -0.08319 
 H                     2.36747   0.58404  -1.53587 
 H                     1.14175  -0.56597  -2.15826 
 H                     1.39676  -0.3973   -0.40126 
 
 Add virtual bond connecting atoms H20        and Cl11       Dist= 4.83D+00.
 Add virtual bond connecting atoms H24        and Cl11       Dist= 4.79D+00.
 Add virtual bond connecting atoms H25        and Cl11       Dist= 4.58D+00.
 ITRead=  0  0  0  0  0  0  0  0  0  0  0  0  0  0  0  0  0  0  0  0
 ITRead=  0  0  0  0  0  0  0
 MicOpt= -1 -1 -1 -1 -1 -1 -1 -1 -1 -1 -1 -1 -1 -1 -1 -1 -1 -1 -1 -1
 MicOpt= -1 -1 -1 -1 -1 -1 -1
 NAtoms=     27 NQM=       27 NQMF=       0 NMMI=      0 NMMIF=      0
                NMic=       0 NMicF=      0.
                    Isotopes and Nuclear Properties:
 (Nuclear quadrupole moments (NQMom) in fm**2, nuclear magnetic moments (NMagM)
  in nuclear magnetons)

  Atom         1           2           3           4           5           6           7           8           9          10
 IAtWgt=          12          12          16          16          12          12          14          12          12          12
 AtmWgt=  12.0000000  12.0000000  15.9949146  15.9949146  12.0000000  12.0000000  14.0030740  12.0000000  12.0000000  12.0000000
 NucSpn=           0           0           0           0           0           0           2           0           0           0
 AtZEff=  -0.0000000  -0.0000000  -0.0000000  -0.0000000  -0.0000000  -0.0000000  -0.0000000  -0.0000000  -0.0000000  -0.0000000
 NQMom=    0.0000000   0.0000000   0.0000000   0.0000000   0.0000000   0.0000000   2.0440000   0.0000000   0.0000000   0.0000000
 NMagM=    0.0000000   0.0000000   0.0000000   0.0000000   0.0000000   0.0000000   0.4037610   0.0000000   0.0000000   0.0000000
 AtZNuc=   6.0000000   6.0000000   8.0000000   8.0000000   6.0000000   6.0000000   7.0000000   6.0000000   6.0000000   6.0000000

  Atom        11          12          13          14          15          16          17          18          19          20
 IAtWgt=          35           1           1           1           1           1           1           1           1           1
 AtmWgt=  34.9688527   1.0078250   1.0078250   1.0078250   1.0078250   1.0078250   1.0078250   1.0078250   1.0078250   1.0078250
 NucSpn=           3           1           1           1           1           1           1           1           1           1
 AtZEff=  -0.0000000  -0.0000000  -0.0000000  -0.0000000  -0.0000000  -0.0000000  -0.0000000  -0.0000000  -0.0000000  -0.0000000
 NQMom=   -8.1650000   0.0000000   0.0000000   0.0000000   0.0000000   0.0000000   0.0000000   0.0000000   0.0000000   0.0000000
 NMagM=    0.8218740   2.7928460   2.7928460   2.7928460   2.7928460   2.7928460   2.7928460   2.7928460   2.7928460   2.7928460
 AtZNuc=  17.0000000   1.0000000   1.0000000   1.0000000   1.0000000   1.0000000   1.0000000   1.0000000   1.0000000   1.0000000

  Atom        21          22          23          24          25          26          27
 IAtWgt=           1           1           1           1           1           1           1
 AtmWgt=   1.0078250   1.0078250   1.0078250   1.0078250   1.0078250   1.0078250   1.0078250
 NucSpn=           1           1           1           1           1           1           1
 AtZEff=  -0.0000000  -0.0000000  -0.0000000  -0.0000000  -0.0000000  -0.0000000  -0.0000000
 NQMom=    0.0000000   0.0000000   0.0000000   0.0000000   0.0000000   0.0000000   0.0000000
 NMagM=    2.7928460   2.7928460   2.7928460   2.7928460   2.7928460   2.7928460   2.7928460
 AtZNuc=   1.0000000   1.0000000   1.0000000   1.0000000   1.0000000   1.0000000   1.0000000
 Leave Link  101 at Sat Aug 21 09:32:11 2021, MaxMem=   104857600 cpu:               2.6 elap:               0.2
 (Enter /sw/arch/RedHatEnterpriseServer7/EB_production/2020/software/Gaussian/g16.c01/l103.exe)

 GradGradGradGradGradGradGradGradGradGradGradGradGradGradGradGradGradGrad
 Berny optimization.
 Initialization pass.
                           ----------------------------
                           !    Initial Parameters    !
                           ! (Angstroms and Degrees)  !
 --------------------------                            --------------------------
 ! Name  Definition              Value          Derivative Info.                !
 --------------------------------------------------------------------------------
 ! R1    R(1,2)                  1.4908         estimate D2E/DX2                !
 ! R2    R(1,12)                 1.1102         estimate D2E/DX2                !
 ! R3    R(1,13)                 1.1097         estimate D2E/DX2                !
 ! R4    R(1,14)                 1.1105         estimate D2E/DX2                !
 ! R5    R(2,3)                  1.2611         estimate D2E/DX2                !
 ! R6    R(2,4)                  1.3977         estimate D2E/DX2                !
 ! R7    R(4,5)                  1.4243         estimate D2E/DX2                !
 ! R8    R(5,6)                  1.5402         estimate D2E/DX2                !
 ! R9    R(5,15)                 1.1109         estimate D2E/DX2                !
 ! R10   R(5,16)                 1.1088         estimate D2E/DX2                !
 ! R11   R(6,7)                  1.4968         estimate D2E/DX2                !
 ! R12   R(6,17)                 1.1144         estimate D2E/DX2                !
 ! R13   R(6,18)                 1.1058         estimate D2E/DX2                !
 ! R14   R(7,8)                  1.4836         estimate D2E/DX2                !
 ! R15   R(7,9)                  1.4864         estimate D2E/DX2                !
 ! R16   R(7,10)                 1.4842         estimate D2E/DX2                !
 ! R17   R(8,19)                 1.1135         estimate D2E/DX2                !
 ! R18   R(8,20)                 1.1136         estimate D2E/DX2                !
 ! R19   R(8,21)                 1.105          estimate D2E/DX2                !
 ! R20   R(9,22)                 1.1103         estimate D2E/DX2                !
 ! R21   R(9,23)                 1.1133         estimate D2E/DX2                !
 ! R22   R(9,24)                 1.1138         estimate D2E/DX2                !
 ! R23   R(10,25)                1.1132         estimate D2E/DX2                !
 ! R24   R(10,26)                1.1026         estimate D2E/DX2                !
 ! R25   R(10,27)                1.1125         estimate D2E/DX2                !
 ! R26   R(11,20)                2.5561         estimate D2E/DX2                !
 ! R27   R(11,24)                2.5366         estimate D2E/DX2                !
 ! R28   R(11,25)                2.4243         estimate D2E/DX2                !
 ! A1    A(2,1,12)             109.9748         estimate D2E/DX2                !
 ! A2    A(2,1,13)             109.4593         estimate D2E/DX2                !
 ! A3    A(2,1,14)             110.0808         estimate D2E/DX2                !
 ! A4    A(12,1,13)            109.1623         estimate D2E/DX2                !
 ! A5    A(12,1,14)            108.8292         estimate D2E/DX2                !
 ! A6    A(13,1,14)            109.3142         estimate D2E/DX2                !
 ! A7    A(1,2,3)              119.688          estimate D2E/DX2                !
 ! A8    A(1,2,4)              119.535          estimate D2E/DX2                !
 ! A9    A(3,2,4)              120.7398         estimate D2E/DX2                !
 ! A10   A(2,4,5)              122.6627         estimate D2E/DX2                !
 ! A11   A(4,5,6)              109.1147         estimate D2E/DX2                !
 ! A12   A(4,5,15)             108.5867         estimate D2E/DX2                !
 ! A13   A(4,5,16)             108.7646         estimate D2E/DX2                !
 ! A14   A(6,5,15)             110.1075         estimate D2E/DX2                !
 ! A15   A(6,5,16)             110.8833         estimate D2E/DX2                !
 ! A16   A(15,5,16)            109.3381         estimate D2E/DX2                !
 ! A17   A(5,6,7)              115.2432         estimate D2E/DX2                !
 ! A18   A(5,6,17)             107.8937         estimate D2E/DX2                !
 ! A19   A(5,6,18)             107.3805         estimate D2E/DX2                !
 ! A20   A(7,6,17)             109.9738         estimate D2E/DX2                !
 ! A21   A(7,6,18)             110.9285         estimate D2E/DX2                !
 ! A22   A(17,6,18)            104.8574         estimate D2E/DX2                !
 ! A23   A(6,7,8)              109.127          estimate D2E/DX2                !
 ! A24   A(6,7,9)              109.5543         estimate D2E/DX2                !
 ! A25   A(6,7,10)             113.2053         estimate D2E/DX2                !
 ! A26   A(8,7,9)              107.0767         estimate D2E/DX2                !
 ! A27   A(8,7,10)             109.5598         estimate D2E/DX2                !
 ! A28   A(9,7,10)             108.1329         estimate D2E/DX2                !
 ! A29   A(7,8,19)             111.0367         estimate D2E/DX2                !
 ! A30   A(7,8,20)             111.4161         estimate D2E/DX2                !
 ! A31   A(7,8,21)             111.8217         estimate D2E/DX2                !
 ! A32   A(19,8,20)            107.7245         estimate D2E/DX2                !
 ! A33   A(19,8,21)            107.6106         estimate D2E/DX2                !
 ! A34   A(20,8,21)            107.0132         estimate D2E/DX2                !
 ! A35   A(7,9,22)             111.8941         estimate D2E/DX2                !
 ! A36   A(7,9,23)             111.3676         estimate D2E/DX2                !
 ! A37   A(7,9,24)             111.1453         estimate D2E/DX2                !
 ! A38   A(22,9,23)            107.9284         estimate D2E/DX2                !
 ! A39   A(22,9,24)            106.6815         estimate D2E/DX2                !
 ! A40   A(23,9,24)            107.5906         estimate D2E/DX2                !
 ! A41   A(7,10,25)            111.199          estimate D2E/DX2                !
 ! A42   A(7,10,26)            111.9259         estimate D2E/DX2                !
 ! A43   A(7,10,27)            111.4554         estimate D2E/DX2                !
 ! A44   A(25,10,26)           107.9699         estimate D2E/DX2                !
 ! A45   A(25,10,27)           106.7966         estimate D2E/DX2                !
 ! A46   A(26,10,27)           107.2459         estimate D2E/DX2                !
 ! A47   A(20,11,24)            55.6091         estimate D2E/DX2                !
 ! A48   A(20,11,25)            57.3994         estimate D2E/DX2                !
 ! A49   A(24,11,25)            61.2925         estimate D2E/DX2                !
 ! A50   A(8,20,11)            142.6715         estimate D2E/DX2                !
 ! A51   A(9,24,11)            143.6336         estimate D2E/DX2                !
 ! A52   A(10,25,11)           145.6296         estimate D2E/DX2                !
 ! D1    D(12,1,2,3)           158.08           estimate D2E/DX2                !
 ! D2    D(12,1,2,4)           -24.1219         estimate D2E/DX2                !
 ! D3    D(13,1,2,3)           -81.997          estimate D2E/DX2                !
 ! D4    D(13,1,2,4)            95.8012         estimate D2E/DX2                !
 ! D5    D(14,1,2,3)            38.1787         estimate D2E/DX2                !
 ! D6    D(14,1,2,4)          -144.0231         estimate D2E/DX2                !
 ! D7    D(1,2,4,5)           -179.0477         estimate D2E/DX2                !
 ! D8    D(3,2,4,5)             -1.2732         estimate D2E/DX2                !
 ! D9    D(2,4,5,6)            179.6648         estimate D2E/DX2                !
 ! D10   D(2,4,5,15)            59.6378         estimate D2E/DX2                !
 ! D11   D(2,4,5,16)           -59.2583         estimate D2E/DX2                !
 ! D12   D(4,5,6,7)            175.6745         estimate D2E/DX2                !
 ! D13   D(4,5,6,17)            52.3706         estimate D2E/DX2                !
 ! D14   D(4,5,6,18)           -60.1738         estimate D2E/DX2                !
 ! D15   D(15,5,6,7)           -65.2402         estimate D2E/DX2                !
 ! D16   D(15,5,6,17)          171.456          estimate D2E/DX2                !
 ! D17   D(15,5,6,18)           58.9116         estimate D2E/DX2                !
 ! D18   D(16,5,6,7)            55.8981         estimate D2E/DX2                !
 ! D19   D(16,5,6,17)          -67.4058         estimate D2E/DX2                !
 ! D20   D(16,5,6,18)         -179.9501         estimate D2E/DX2                !
 ! D21   D(5,6,7,8)            168.9156         estimate D2E/DX2                !
 ! D22   D(5,6,7,9)            -74.1471         estimate D2E/DX2                !
 ! D23   D(5,6,7,10)            46.6242         estimate D2E/DX2                !
 ! D24   D(17,6,7,8)           -68.89           estimate D2E/DX2                !
 ! D25   D(17,6,7,9)            48.0473         estimate D2E/DX2                !
 ! D26   D(17,6,7,10)          168.8186         estimate D2E/DX2                !
 ! D27   D(18,6,7,8)            46.6469         estimate D2E/DX2                !
 ! D28   D(18,6,7,9)           163.5842         estimate D2E/DX2                !
 ! D29   D(18,6,7,10)          -75.6445         estimate D2E/DX2                !
 ! D30   D(6,7,8,19)            55.3645         estimate D2E/DX2                !
 ! D31   D(6,7,8,20)           175.4453         estimate D2E/DX2                !
 ! D32   D(6,7,8,21)           -64.8453         estimate D2E/DX2                !
 ! D33   D(9,7,8,19)           -63.1338         estimate D2E/DX2                !
 ! D34   D(9,7,8,20)            56.9469         estimate D2E/DX2                !
 ! D35   D(9,7,8,21)           176.6563         estimate D2E/DX2                !
 ! D36   D(10,7,8,19)          179.8231         estimate D2E/DX2                !
 ! D37   D(10,7,8,20)          -60.0961         estimate D2E/DX2                !
 ! D38   D(10,7,8,21)           59.6133         estimate D2E/DX2                !
 ! D39   D(6,7,9,22)            64.6336         estimate D2E/DX2                !
 ! D40   D(6,7,9,23)           -56.2621         estimate D2E/DX2                !
 ! D41   D(6,7,9,24)          -176.2139         estimate D2E/DX2                !
 ! D42   D(8,7,9,22)          -177.1458         estimate D2E/DX2                !
 ! D43   D(8,7,9,23)            61.9585         estimate D2E/DX2                !
 ! D44   D(8,7,9,24)           -57.9933         estimate D2E/DX2                !
 ! D45   D(10,7,9,22)          -59.1676         estimate D2E/DX2                !
 ! D46   D(10,7,9,23)          179.9367         estimate D2E/DX2                !
 ! D47   D(10,7,9,24)           59.9849         estimate D2E/DX2                !
 ! D48   D(6,7,10,25)          170.0363         estimate D2E/DX2                !
 ! D49   D(6,7,10,26)           49.1836         estimate D2E/DX2                !
 ! D50   D(6,7,10,27)          -70.9212         estimate D2E/DX2                !
 ! D51   D(8,7,10,25)           47.9865         estimate D2E/DX2                !
 ! D52   D(8,7,10,26)          -72.8663         estimate D2E/DX2                !
 ! D53   D(8,7,10,27)          167.029          estimate D2E/DX2                !
 ! D54   D(9,7,10,25)          -68.3905         estimate D2E/DX2                !
 ! D55   D(9,7,10,26)          170.7568         estimate D2E/DX2                !
 ! D56   D(9,7,10,27)           50.652          estimate D2E/DX2                !
 ! D57   D(7,8,20,11)           10.3203         estimate D2E/DX2                !
 ! D58   D(19,8,20,11)         132.3368         estimate D2E/DX2                !
 ! D59   D(21,8,20,11)        -112.1985         estimate D2E/DX2                !
 ! D60   D(7,9,24,11)           -8.8075         estimate D2E/DX2                !
 ! D61   D(22,9,24,11)         113.4199         estimate D2E/DX2                !
 ! D62   D(23,9,24,11)        -130.9779         estimate D2E/DX2                !
 ! D63   D(7,10,25,11)          25.4702         estimate D2E/DX2                !
 ! D64   D(26,10,25,11)        148.621          estimate D2E/DX2                !
 ! D65   D(27,10,25,11)        -96.3251         estimate D2E/DX2                !
 ! D66   D(24,11,20,8)         -46.5492         estimate D2E/DX2                !
 ! D67   D(25,11,20,8)          28.7844         estimate D2E/DX2                !
 ! D68   D(20,11,24,9)          45.7507         estimate D2E/DX2                !
 ! D69   D(25,11,24,9)         -22.5617         estimate D2E/DX2                !
 ! D70   D(20,11,25,10)        -53.3869         estimate D2E/DX2                !
 ! D71   D(24,11,25,10)         12.145          estimate D2E/DX2                !
 --------------------------------------------------------------------------------
 Trust Radius=3.00D-01 FncErr=1.00D-07 GrdErr=1.00D-06 EigMax=2.50D+02 EigMin=1.00D-04
 Number of steps in this run=    161 maximum allowed number of steps=    162.
 GradGradGradGradGradGradGradGradGradGradGradGradGradGradGradGradGradGrad

 Leave Link  103 at Sat Aug 21 09:32:11 2021, MaxMem=   104857600 cpu:               0.3 elap:               0.0
 (Enter /sw/arch/RedHatEnterpriseServer7/EB_production/2020/software/Gaussian/g16.c01/l202.exe)
                          Input orientation:                          
 ---------------------------------------------------------------------
 Center     Atomic      Atomic             Coordinates (Angstroms)
 Number     Number       Type             X           Y           Z
 ---------------------------------------------------------------------
      1          6           0       -4.747487   -2.080357    0.291152
      2          6           0       -3.289922   -1.786616    0.399564
      3          8           0       -2.565858   -2.488806    1.156616
      4          8           0       -2.733513   -0.764855   -0.374987
      5          6           0       -1.346994   -0.441064   -0.338907
      6          6           0       -1.074591    0.719609   -1.313966
      7          7           0        0.328820    1.239960   -1.310747
      8          6           0        0.511548    2.152564   -2.466051
      9          6           0        0.559340    2.041662   -0.080500
     10          6           0        1.351156    0.165159   -1.359989
     11         17           0        3.799050    2.526638   -1.302787
     12          1           0       -5.289629   -1.181540   -0.070353
     13          1           0       -4.904496   -2.913152   -0.425322
     14          1           0       -5.153223   -2.368490    1.283860
     15          1           0       -0.765870   -1.338264   -0.641300
     16          1           0       -1.073502   -0.158732    0.697914
     17          1           0       -1.786354    1.542785   -1.073783
     18          1           0       -1.366823    0.377834   -2.324200
     19          1           0       -0.246425    2.968212   -2.454923
     20          1           0        1.519359    2.626127   -2.454717
     21          1           0        0.415405    1.619967   -3.429418
     22          1           0        0.491815    1.420408    0.837215
     23          1           0       -0.181195    2.868062    0.009826
     24          1           0        1.575066    2.498671   -0.083194
     25          1           0        2.367467    0.584036   -1.535871
     26          1           0        1.141747   -0.565974   -2.158263
     27          1           0        1.396758   -0.397299   -0.401258
 ---------------------------------------------------------------------
                    Distance matrix (angstroms):
                    1          2          3          4          5
     1  C    0.000000
     2  C    1.490816   0.000000
     3  O    2.382302   1.261137   0.000000
     4  O    2.496073   1.397682   2.312125   0.000000
     5  C    3.827219   2.476049   2.813444   1.424281   0.000000
     6  C    4.889415   3.758329   4.315273   2.416058   1.540164
     7  N    6.273713   5.018029   5.326419   3.777938   2.564891
     8  C    7.292272   6.179002   6.643528   4.838833   3.834818
     9  C    6.729902   5.450045   5.641140   4.336605   3.140830
    10  C    6.705375   5.333391   5.359089   4.303449   2.947902
    11  Cl   9.839123   8.470872   8.468494   7.373542   6.018146
    12  H    1.110169   2.141440   3.260878   2.607711   4.020547
    13  H    1.109745   2.134565   2.855140   3.054649   4.332956
    14  H    1.110456   2.143000   2.593285   3.343414   4.564616
    15  H    4.156133   2.766813   2.792169   2.066722   1.110907
    16  H    4.166085   2.766141   2.804778   2.067399   1.108831
    17  H    4.874271   3.939084   4.672904   2.590488   2.160726
    18  H    4.930685   3.975178   4.665982   2.640646   2.147644
    19  H    7.299900   6.326086   6.942768   4.944444   4.160762
    20  H    8.304465   7.123791   7.476180   5.823311   4.701095
    21  H    7.361419   6.324188   6.841173   4.993256   4.111588
    22  H    6.324858   4.977758   4.973262   4.080141   2.868721
    23  H    6.739215   5.610892   5.974762   4.456511   3.525765
    24  H    7.815517   6.501142   6.599948   5.412910   4.152814
    25  H    7.814063   6.432103   6.405430   5.402514   4.034944
    26  H    6.555613   5.260431   5.332170   4.270511   3.085367
    27  H    6.408109   4.953432   4.743806   4.146677   2.744809
                    6          7          8          9         10
     6  C    0.000000
     7  N    1.496776   0.000000
     8  C    2.428270   1.483564   0.000000
     9  C    2.437005   1.486396   2.388606   0.000000
    10  C    2.488731   1.484181   2.424478   2.405271   0.000000
    11  Cl   5.197870   3.701094   3.507247   3.496414   3.401770
    12  H    4.788265   6.242532   7.106988   6.678291   6.897593
    13  H    5.353019   6.739430   7.691527   7.383941   7.034400
    14  H    5.737621   7.057315   8.160355   7.344678   7.464333
    15  H    2.186922   2.879886   4.140941   3.673497   2.694178
    16  H    2.195255   2.820916   4.226718   2.848479   3.196692
    17  H    1.114412   2.149841   2.755103   2.595721   3.438566
    18  H    1.105795   2.155355   2.588062   3.393025   2.891772
    19  H    2.654027   2.151023   1.113521   2.673132   3.407088
    20  H    3.415362   2.155808   1.113586   2.626812   2.698719
    21  H    2.739684   2.154221   1.104979   3.378431   2.697153
    22  H    2.751786   2.161682   3.383491   1.110278   2.672419
    23  H    2.677019   2.157486   2.668670   1.113323   3.395611
    24  H    3.420606   2.155080   2.632274   1.113806   2.669386
    25  H    3.451867   2.153369   2.601913   2.740821   1.113230
    26  H    2.697724   2.154189   2.807549   3.384681   1.102565
    27  H    2.861483   2.155987   3.398348   2.598593   1.112476
                   11         12         13         14         15
    11  Cl   0.000000
    12  H    9.893107   0.000000
    13  H   10.301115   1.809091   0.000000
    14  H   10.525978   1.805921   1.811029   0.000000
    15  H    6.017767   4.562339   4.433412   4.900660   0.000000
    16  H    5.912341   4.405916   4.850258   4.676589   1.810919
    17  H    5.676015   4.549918   5.477106   5.673831   3.086887
    18  H    5.687432   4.785382   5.191479   5.907387   2.477557
    19  H    4.229453   6.952735   7.772216   8.156933   4.701573
    20  H    2.556136   8.157563   8.721695   9.134906   4.922108
    21  H    4.098007   7.188823   7.607569   8.314589   4.233219
    22  H    4.091596   6.404601   7.035191   6.813347   3.373136
    23  H    4.204982   6.519341   7.478059   7.332510   4.296392
    24  H    2.536591   7.788977   8.449237   8.415935   4.529187
    25  H    2.424347   7.993505   8.145249   8.557399   3.783292
    26  H    4.166215   6.789763   6.713373   7.397562   2.556680
    27  H    3.890137   6.740349   6.784976   7.044677   2.370653
                   16         17         18         19         20
    16  H    0.000000
    17  H    2.557778   0.000000
    18  H    3.083361   1.759733   0.000000
    19  H    4.516881   2.512125   2.825321   0.000000
    20  H    4.941402   3.742773   3.660861   1.798615   0.000000
    21  H    4.734499   3.225324   2.437363   1.790370   1.783568
    22  H    2.227848   2.976062   3.812616   3.711990   3.653275
    23  H    3.229730   2.346722   3.613119   2.467645   3.004062
    24  H    3.832340   3.632372   4.263188   3.027110   2.375599
    25  H    4.169145   4.288001   3.822160   3.655323   2.394515
    26  H    3.637433   3.767856   2.685374   3.808609   3.228000
    27  H    2.714273   3.787931   3.454840   4.271329   3.656888
                   21         22         23         24         25
    21  H    0.000000
    22  H    4.271981   0.000000
    23  H    3.707030   1.798115   0.000000
    24  H    3.648856   1.784163   1.797096   0.000000
    25  H    2.910192   3.138332   3.755214   2.530612   0.000000
    26  H    2.630921   3.652535   4.271228   3.726356   1.792285
    27  H    3.768576   2.378402   3.649864   2.918836   1.786796
                   26         27
    26  H    0.000000
    27  H    1.783409   0.000000
 Stoichiometry    C7H16ClNO2
 Framework group  C1[X(C7H16ClNO2)]
 Deg. of freedom    75
 Full point group                 C1      NOp   1
 Largest Abelian subgroup         C1      NOp   1
 Largest concise Abelian subgroup C1      NOp   1
                         Standard orientation:                         
 ---------------------------------------------------------------------
 Center     Atomic      Atomic             Coordinates (Angstroms)
 Number     Number       Type             X           Y           Z
 ---------------------------------------------------------------------
      1          6           0       -5.113156    0.368321    0.068917
      2          6           0       -3.793031   -0.323163    0.028266
      3          8           0       -3.748861   -1.582518   -0.022130
      4          8           0       -2.618920    0.434577   -0.000199
      5          6           0       -1.324193   -0.155966   -0.059515
      6          6           0       -0.262007    0.959022   -0.085377
      7          7           0        1.158357    0.488565   -0.045719
      8          6           0        2.057154    1.630349   -0.344810
      9          6           0        1.489200    0.020213    1.325617
     10          6           0        1.433395   -0.621403   -0.991826
     11         17           0        4.670508   -0.674740    0.052343
     12          1           0       -4.995442    1.385463    0.497918
     13          1           0       -5.518567    0.451932   -0.960736
     14          1           0       -5.825157   -0.205983    0.698474
     15          1           0       -1.256712   -0.769224   -0.983351
     16          1           0       -1.189459   -0.809769    0.825864
     17          1           0       -0.461060    1.641527    0.772807
     18          1           0       -0.449684    1.573208   -0.985563
     19          1           0        1.869034    2.479836    0.350108
     20          1           0        3.128075    1.341724   -0.245318
     21          1           0        1.917429    2.004115   -1.375225
     22          1           0        0.893586   -0.871451    1.613535
     23          1           0        1.302815    0.815664    2.081928
     24          1           0        2.561016   -0.272821    1.402455
     25          1           0        2.525244   -0.825144   -1.066889
     26          1           0        1.057975   -0.401419   -2.004898
     27          1           0        0.951852   -1.567742   -0.659916
 ---------------------------------------------------------------------
 Rotational constants (GHZ):           2.5963395           0.2645342           0.2536309
 Leave Link  202 at Sat Aug 21 09:32:12 2021, MaxMem=   104857600 cpu:               1.9 elap:               0.2
 (Enter /sw/arch/RedHatEnterpriseServer7/EB_production/2020/software/Gaussian/g16.c01/l301.exe)
 Standard basis: TZVP (5D, 7F)
 Ernie: Thresh=  0.10000D-02 Tol=  0.10000D-05 Strict=F.
 There are   319 symmetry adapted cartesian basis functions of A   symmetry.
 There are   308 symmetry adapted basis functions of A   symmetry.
   308 basis functions,   525 primitive gaussians,   319 cartesian basis functions
    49 alpha electrons       49 beta electrons
       nuclear repulsion energy       718.5237654945 Hartrees.
 IExCor=  404 DFT=T Ex=B Corr=P86 ExCW=0 ScaHFX=  0.000000
 ScaDFX=  1.000000  1.000000  1.000000  1.000000 ScalE2=  1.000000  1.000000
 IRadAn=      5 IRanWt=     -1 IRanGd=            0 ICorTp=0 IEmpDi=131
 NAtoms=   27 NActive=   27 NUniq=   27 SFac= 1.00D+00 NAtFMM=   60 NAOKFM=F Big=F
 Integral buffers will be    131072 words long.
 Raffenetti 2 integral format.
 Two-electron integral symmetry is turned on.
 R6Disp:  Grimme-D3 Dispersion energy=       -0.0309308223 Hartrees.
 Nuclear repulsion after empirical dispersion term =      718.4928346723 Hartrees.
 ------------------------------------------------------------------------------
 Polarizable Continuum Model (PCM)
 =================================
 Model                : PCM.
 Atomic radii         : UFF (Universal Force Field).
 Polarization charges : Total charges.
 Charge compensation  : None.
 Solution method      : On-the-fly selection.
 Cavity type          : Scaled VdW (van der Waals Surface) (Alpha=1.100).
 Cavity algorithm     : GePol (No added spheres)
                        Default sphere list used, NSphG=   27.
                        Lebedev-Laikov grids with approx.  5.0 points / Ang**2.
                        Smoothing algorithm: York/Karplus (Gamma=1.0000).
                        Polarization charges: spherical gaussians, with
                                              point-specific exponents (IZeta= 3).
                        Self-potential: point-specific (ISelfS= 7).
                        Self-field    : sphere-specific E.n sum rule (ISelfD= 2).
 1st derivatives      : Analytical E(r).r(x)/FMM algorithm (CHGder, D1EAlg=3).
                        Cavity 1st derivative terms included.
 Solvent              : Water, Eps=  78.355300 Eps(inf)=   1.777849
 ------------------------------------------------------------------------------
 GePol: Number of generator spheres                  =      27
 GePol: Total number of spheres                      =      27
 GePol: Number of exposed spheres                    =      26 ( 96.30%)
 GePol: Number of points                             =    1984
 GePol: Average weight of points                     =       0.14
 GePol: Minimum weight of points                     =   0.70D-09
 GePol: Maximum weight of points                     =    0.21616
 GePol: Number of points with low weight             =     121
 GePol: Fraction of low-weight points (<1% of avg)   =       6.10%
 GePol: Cavity surface area                          =    271.891 Ang**2
 GePol: Cavity volume                                =    278.429 Ang**3
 Leave Link  301 at Sat Aug 21 09:32:12 2021, MaxMem=   104857600 cpu:               1.3 elap:               0.1
 (Enter /sw/arch/RedHatEnterpriseServer7/EB_production/2020/software/Gaussian/g16.c01/l302.exe)
 NPDir=0 NMtPBC=     1 NCelOv=     1 NCel=       1 NClECP=     1 NCelD=      1
         NCelK=      1 NCelE2=     1 NClLst=     1 CellRange=     0.0.
 One-electron integrals computed using PRISM.
 One-electron integral symmetry used in STVInt
 NBasis=   308 RedAO= T EigKep=  2.24D-04  NBF=   308
 NBsUse=   308 1.00D-06 EigRej= -1.00D+00 NBFU=   308
 Precomputing XC quadrature grid using
 IXCGrd= 4 IRadAn=           5 IRanWt=          -1 IRanGd=           0 AccXCQ= 0.00D+00.
 Generated NRdTot=       0 NPtTot=           0 NUsed=           0 NTot=          32
 NSgBfM=   310   310   310   310   310 MxSgAt=    27 MxSgA2=    27.
 Leave Link  302 at Sat Aug 21 09:32:13 2021, MaxMem=   104857600 cpu:               7.3 elap:               0.4
 (Enter /sw/arch/RedHatEnterpriseServer7/EB_production/2020/software/Gaussian/g16.c01/l303.exe)
 DipDrv:  MaxL=1.
 Leave Link  303 at Sat Aug 21 09:32:13 2021, MaxMem=   104857600 cpu:               3.2 elap:               0.2
 (Enter /sw/arch/RedHatEnterpriseServer7/EB_production/2020/software/Gaussian/g16.c01/l401.exe)
 ExpMin= 9.52D-02 ExpMax= 6.95D+04 ExpMxC= 2.37D+03 IAcc=3 IRadAn=         5 AccDes= 0.00D+00
 Harris functional with IExCor=  404 and IRadAn=       5 diagonalized for initial guess.
 HarFok:  IExCor=  404 AccDes= 0.00D+00 IRadAn=         5 IDoV= 1 UseB2=F ITyADJ=14
 ICtDFT=  3500011 ScaDFX=  1.000000  1.000000  1.000000  1.000000
 FoFCou: FMM=F IPFlag=           0 FMFlag=      100000 FMFlg1=           0
         NFxFlg=           0 DoJE=T BraDBF=F KetDBF=T FulRan=T
         wScrn=  0.000000 ICntrl=       500 IOpCl=  0 I1Cent=   200000004 NGrid=           0
         NMat0=    1 NMatS0=      1 NMatT0=    0 NMatD0=    1 NMtDS0=    0 NMtDT0=    0
 Petite list used in FoFCou.
 Harris En= -942.126936833932    
 JPrj=0 DoOrth=F DoCkMO=F.
 Leave Link  401 at Sat Aug 21 09:32:14 2021, MaxMem=   104857600 cpu:              16.0 elap:               0.7
 (Enter /sw/arch/RedHatEnterpriseServer7/EB_production/2020/software/Gaussian/g16.c01/l502.exe)
 Integral symmetry usage will be decided dynamically.
 Closed shell SCF:
 Using DIIS extrapolation, IDIIS=  1040.
 NGot=   104857600 LenX=   104642412 LenY=   104540210
 Requested convergence on RMS density matrix=1.00D-08 within 128 cycles.
 Requested convergence on MAX density matrix=1.00D-06.
 Requested convergence on             energy=1.00D-06.
 No special actions if energy rises.
 Fock matrices will be formed incrementally for  20 cycles.

 Cycle   1  Pass 1  IDiag  1:
 FoFJK:  IHMeth= 1 ICntrl=     500 DoSepK=F KAlg= 0 I1Cent=           0 FoldK=F
 IRaf= 850000000 NMat=       1 IRICut=       1 DoRegI=T DoRafI=F ISym2E= 0 IDoP0=0 IntGTp=1.
 FoFCou: FMM=F IPFlag=           0 FMFlag=      100000 FMFlg1=           0
         NFxFlg=           0 DoJE=T BraDBF=F KetDBF=F FulRan=T
         wScrn=  0.000000 ICntrl=       500 IOpCl=  0 I1Cent=           0 NGrid=           0
         NMat0=    1 NMatS0=      1 NMatT0=    0 NMatD0=    1 NMtDS0=    0 NMtDT0=    0
 Symmetry not used in FoFCou.
 Inv3:  Mode=1 IEnd=    11808768.
 Iteration    1 A*A^-1 deviation from unit magnitude is 3.11D-15 for    116.
 Iteration    1 A*A^-1 deviation from orthogonality  is 2.07D-15 for   1752   1460.
 Iteration    1 A^-1*A deviation from unit magnitude is 3.11D-15 for   1272.
 Iteration    1 A^-1*A deviation from orthogonality  is 2.49D-14 for   1605   1581.
 E= -941.762660346460    
 DIIS: error= 2.15D-02 at cycle   1 NSaved=   1.
 NSaved= 1 IEnMin= 1 EnMin= -941.762660346460     IErMin= 1 ErrMin= 2.15D-02
 ErrMax= 2.15D-02  0.00D+00 EMaxC= 1.00D-01 BMatC= 3.23D-01 BMatP= 3.23D-01
 IDIUse=3 WtCom= 7.85D-01 WtEn= 2.15D-01
 Coeff-Com:  0.100D+01
 Coeff-En:   0.100D+01
 Coeff:      0.100D+01
 Gap=     0.105 Goal=   None    Shift=    0.000
 GapD=    0.105 DampG=1.000 DampE=0.500 DampFc=0.5000 IDamp=-1.
 Damping current iteration by 5.00D-01
 RMSDP=5.40D-03 MaxDP=4.01D-01              OVMax= 3.68D-01

 Cycle   2  Pass 1  IDiag  1:
 RMSU=  2.70D-03    CP:  9.98D-01
 E= -941.763944127228     Delta-E=       -0.001283780769 Rises=F Damp=T
 DIIS: error= 1.95D-02 at cycle   2 NSaved=   2.
 NSaved= 2 IEnMin= 2 EnMin= -941.763944127228     IErMin= 2 ErrMin= 1.95D-02
 ErrMax= 1.95D-02  0.00D+00 EMaxC= 1.00D-01 BMatC= 1.16D-01 BMatP= 3.23D-01
 IDIUse=3 WtCom= 8.05D-01 WtEn= 1.95D-01
 Coeff-Com:  0.342D+00 0.658D+00
 Coeff-En:   0.498D+00 0.502D+00
 Coeff:      0.372D+00 0.628D+00
 Gap=     0.155 Goal=   None    Shift=    0.000
 RMSDP=2.02D-03 MaxDP=1.61D-01 DE=-1.28D-03 OVMax= 2.87D-01

 Cycle   3  Pass 1  IDiag  1:
 RMSU=  1.48D-03    CP:  9.94D-01  4.92D-01
 E= -941.945751014697     Delta-E=       -0.181806887469 Rises=F Damp=F
 DIIS: error= 2.37D-02 at cycle   3 NSaved=   3.
 NSaved= 3 IEnMin= 3 EnMin= -941.945751014697     IErMin= 2 ErrMin= 1.95D-02
 ErrMax= 2.37D-02  0.00D+00 EMaxC= 1.00D-01 BMatC= 1.10D-01 BMatP= 1.16D-01
 IDIUse=3 WtCom= 7.63D-01 WtEn= 2.37D-01
 EnCoef did     1 forward-backward iterations
 Coeff-Com:  0.182D+00 0.457D+00 0.360D+00
 Coeff-En:   0.761D-01 0.678D-01 0.856D+00
 Coeff:      0.157D+00 0.365D+00 0.478D+00
 Gap=     0.136 Goal=   None    Shift=    0.000
 RMSDP=1.41D-03 MaxDP=6.36D-02 DE=-1.82D-01 OVMax= 2.15D-01

 Cycle   4  Pass 1  IDiag  1:
 RMSU=  6.74D-04    CP:  1.00D+00  6.79D-01  2.34D-01
 E= -941.990554787840     Delta-E=       -0.044803773143 Rises=F Damp=F
 DIIS: error= 1.96D-02 at cycle   4 NSaved=   4.
 NSaved= 4 IEnMin= 4 EnMin= -941.990554787840     IErMin= 2 ErrMin= 1.95D-02
 ErrMax= 1.96D-02  0.00D+00 EMaxC= 1.00D-01 BMatC= 6.18D-02 BMatP= 1.10D-01
 IDIUse=3 WtCom= 8.04D-01 WtEn= 1.96D-01
 Coeff-Com:  0.689D-01 0.981D-01 0.386D+00 0.447D+00
 Coeff-En:   0.000D+00 0.000D+00 0.382D+00 0.618D+00
 Coeff:      0.554D-01 0.788D-01 0.385D+00 0.481D+00
 Gap=     0.138 Goal=   None    Shift=    0.000
 RMSDP=7.03D-04 MaxDP=3.51D-02 DE=-4.48D-02 OVMax= 9.86D-02

 Cycle   5  Pass 1  IDiag  1:
 RMSU=  1.83D-04    CP:  9.98D-01  5.25D-01  5.21D-01  5.15D-01
 E= -942.034155397312     Delta-E=       -0.043600609472 Rises=F Damp=F
 DIIS: error= 3.79D-03 at cycle   5 NSaved=   5.
 NSaved= 5 IEnMin= 5 EnMin= -942.034155397312     IErMin= 5 ErrMin= 3.79D-03
 ErrMax= 3.79D-03  0.00D+00 EMaxC= 1.00D-01 BMatC= 3.02D-03 BMatP= 6.18D-02
 IDIUse=3 WtCom= 9.62D-01 WtEn= 3.79D-02
 Coeff-Com:  0.233D-01 0.180D-01 0.209D+00 0.315D+00 0.434D+00
 Coeff-En:   0.000D+00 0.000D+00 0.000D+00 0.149D-01 0.985D+00
 Coeff:      0.224D-01 0.173D-01 0.202D+00 0.304D+00 0.455D+00
 Gap=     0.139 Goal=   None    Shift=    0.000
 RMSDP=1.60D-04 MaxDP=6.95D-03 DE=-4.36D-02 OVMax= 1.89D-02

 Cycle   6  Pass 1  IDiag  1:
 RMSU=  7.81D-05    CP:  9.98D-01  5.49D-01  5.00D-01  5.98D-01  4.21D-01
 E= -942.036338814951     Delta-E=       -0.002183417639 Rises=F Damp=F
 DIIS: error= 1.15D-03 at cycle   6 NSaved=   6.
 NSaved= 6 IEnMin= 6 EnMin= -942.036338814951     IErMin= 6 ErrMin= 1.15D-03
 ErrMax= 1.15D-03  0.00D+00 EMaxC= 1.00D-01 BMatC= 2.41D-04 BMatP= 3.02D-03
 IDIUse=3 WtCom= 9.88D-01 WtEn= 1.15D-02
 Coeff-Com:  0.229D-02 0.459D-03 0.449D-01 0.722D-01 0.256D+00 0.625D+00
 Coeff-En:   0.000D+00 0.000D+00 0.000D+00 0.000D+00 0.815D-01 0.918D+00
 Coeff:      0.227D-02 0.454D-03 0.444D-01 0.713D-01 0.254D+00 0.628D+00
 Gap=     0.140 Goal=   None    Shift=    0.000
 RMSDP=4.61D-05 MaxDP=2.02D-03 DE=-2.18D-03 OVMax= 4.08D-03

 Cycle   7  Pass 1  IDiag  1:
 RMSU=  2.28D-05    CP:  9.98D-01  5.53D-01  5.10D-01  5.82D-01  5.27D-01
                    CP:  6.54D-01
 E= -942.036509811651     Delta-E=       -0.000170996700 Rises=F Damp=F
 DIIS: error= 2.43D-04 at cycle   7 NSaved=   7.
 NSaved= 7 IEnMin= 7 EnMin= -942.036509811651     IErMin= 7 ErrMin= 2.43D-04
 ErrMax= 2.43D-04  0.00D+00 EMaxC= 1.00D-01 BMatC= 2.22D-05 BMatP= 2.41D-04
 IDIUse=3 WtCom= 9.98D-01 WtEn= 2.43D-03
 Coeff-Com: -0.109D-03-0.945D-03 0.120D-01 0.188D-01 0.120D+00 0.380D+00
 Coeff-Com:  0.471D+00
 Coeff-En:   0.000D+00 0.000D+00 0.000D+00 0.000D+00 0.000D+00 0.000D+00
 Coeff-En:   0.100D+01
 Coeff:     -0.109D-03-0.942D-03 0.120D-01 0.187D-01 0.119D+00 0.379D+00
 Coeff:      0.472D+00
 Gap=     0.140 Goal=   None    Shift=    0.000
 RMSDP=1.59D-05 MaxDP=6.86D-04 DE=-1.71D-04 OVMax= 6.96D-04

 Cycle   8  Pass 1  IDiag  1:
 RMSU=  6.79D-06    CP:  9.98D-01  5.50D-01  5.08D-01  5.85D-01  5.38D-01
                    CP:  6.54D-01  5.06D-01
 E= -942.036525736316     Delta-E=       -0.000015924665 Rises=F Damp=F
 DIIS: error= 6.43D-05 at cycle   8 NSaved=   8.
 NSaved= 8 IEnMin= 8 EnMin= -942.036525736316     IErMin= 8 ErrMin= 6.43D-05
 ErrMax= 6.43D-05  0.00D+00 EMaxC= 1.00D-01 BMatC= 1.51D-06 BMatP= 2.22D-05
 IDIUse=1 WtCom= 1.00D+00 WtEn= 0.00D+00
 Coeff-Com: -0.674D-04-0.551D-03 0.272D-02 0.289D-02 0.384D-01 0.143D+00
 Coeff-Com:  0.258D+00 0.555D+00
 Coeff:     -0.674D-04-0.551D-03 0.272D-02 0.289D-02 0.384D-01 0.143D+00
 Coeff:      0.258D+00 0.555D+00
 Gap=     0.140 Goal=   None    Shift=    0.000
 RMSDP=4.15D-06 MaxDP=1.93D-04 DE=-1.59D-05 OVMax= 2.53D-04

 Cycle   9  Pass 1  IDiag  1:
 RMSU=  2.26D-06    CP:  9.98D-01  5.49D-01  5.08D-01  5.83D-01  5.38D-01
                    CP:  6.78D-01  5.01D-01  6.52D-01
 E= -942.036526757166     Delta-E=       -0.000001020849 Rises=F Damp=F
 DIIS: error= 2.41D-05 at cycle   9 NSaved=   9.
 NSaved= 9 IEnMin= 9 EnMin= -942.036526757166     IErMin= 9 ErrMin= 2.41D-05
 ErrMax= 2.41D-05  0.00D+00 EMaxC= 1.00D-01 BMatC= 2.19D-07 BMatP= 1.51D-06
 IDIUse=1 WtCom= 1.00D+00 WtEn= 0.00D+00
 Coeff-Com:  0.408D-04-0.223D-03 0.477D-03-0.378D-03 0.106D-01 0.486D-01
 Coeff-Com:  0.107D+00 0.345D+00 0.489D+00
 Coeff:      0.408D-04-0.223D-03 0.477D-03-0.378D-03 0.106D-01 0.486D-01
 Coeff:      0.107D+00 0.345D+00 0.489D+00
 Gap=     0.140 Goal=   None    Shift=    0.000
 RMSDP=1.65D-06 MaxDP=7.90D-05 DE=-1.02D-06 OVMax= 8.94D-05

 Cycle  10  Pass 1  IDiag  1:
 RMSU=  5.11D-07    CP:  9.98D-01  5.50D-01  5.09D-01  5.83D-01  5.36D-01
                    CP:  6.78D-01  5.35D-01  6.56D-01  5.22D-01
 E= -942.036526984227     Delta-E=       -0.000000227061 Rises=F Damp=F
 DIIS: error= 2.66D-06 at cycle  10 NSaved=  10.
 NSaved=10 IEnMin=10 EnMin= -942.036526984227     IErMin=10 ErrMin= 2.66D-06
 ErrMax= 2.66D-06  0.00D+00 EMaxC= 1.00D-01 BMatC= 2.20D-09 BMatP= 2.19D-07
 IDIUse=1 WtCom= 1.00D+00 WtEn= 0.00D+00
 Coeff-Com:  0.280D-04-0.701D-04 0.934D-04-0.134D-03 0.162D-02 0.846D-02
 Coeff-Com:  0.180D-01 0.785D-01 0.149D+00 0.745D+00
 Coeff:      0.280D-04-0.701D-04 0.934D-04-0.134D-03 0.162D-02 0.846D-02
 Coeff:      0.180D-01 0.785D-01 0.149D+00 0.745D+00
 Gap=     0.140 Goal=   None    Shift=    0.000
 RMSDP=2.45D-07 MaxDP=1.27D-05 DE=-2.27D-07 OVMax= 1.38D-05

 Cycle  11  Pass 1  IDiag  1:
 RMSU=  1.30D-07    CP:  9.98D-01  5.50D-01  5.09D-01  5.83D-01  5.36D-01
                    CP:  6.77D-01  5.32D-01  6.67D-01  5.53D-01  7.84D-01
 E= -942.036526985939     Delta-E=       -0.000000001712 Rises=F Damp=F
 DIIS: error= 1.12D-06 at cycle  11 NSaved=  11.
 NSaved=11 IEnMin=11 EnMin= -942.036526985939     IErMin=11 ErrMin= 1.12D-06
 ErrMax= 1.12D-06  0.00D+00 EMaxC= 1.00D-01 BMatC= 4.55D-10 BMatP= 2.20D-09
 IDIUse=1 WtCom= 1.00D+00 WtEn= 0.00D+00
 Coeff-Com:  0.158D-04-0.259D-04 0.200D-04-0.684D-04 0.240D-03 0.184D-02
 Coeff-Com:  0.365D-02 0.247D-01 0.564D-01 0.417D+00 0.496D+00
 Coeff:      0.158D-04-0.259D-04 0.200D-04-0.684D-04 0.240D-03 0.184D-02
 Coeff:      0.365D-02 0.247D-01 0.564D-01 0.417D+00 0.496D+00
 Gap=     0.140 Goal=   None    Shift=    0.000
 RMSDP=7.12D-08 MaxDP=2.10D-06 DE=-1.71D-09 OVMax= 3.21D-06

 Cycle  12  Pass 1  IDiag  1:
 RMSU=  3.50D-08    CP:  9.98D-01  5.50D-01  5.09D-01  5.83D-01  5.36D-01
                    CP:  6.77D-01  5.31D-01  6.68D-01  5.47D-01  8.20D-01
                    CP:  6.26D-01
 E= -942.036526986390     Delta-E=       -0.000000000452 Rises=F Damp=F
 DIIS: error= 1.71D-07 at cycle  12 NSaved=  12.
 NSaved=12 IEnMin=12 EnMin= -942.036526986390     IErMin=12 ErrMin= 1.71D-07
 ErrMax= 1.71D-07  0.00D+00 EMaxC= 1.00D-01 BMatC= 1.07D-11 BMatP= 4.55D-10
 IDIUse=1 WtCom= 1.00D+00 WtEn= 0.00D+00
 Coeff-Com:  0.457D-05-0.655D-05 0.427D-05-0.163D-04-0.154D-05 0.219D-03
 Coeff-Com:  0.300D-03 0.463D-02 0.126D-01 0.114D+00 0.193D+00 0.675D+00
 Coeff:      0.457D-05-0.655D-05 0.427D-05-0.163D-04-0.154D-05 0.219D-03
 Coeff:      0.300D-03 0.463D-02 0.126D-01 0.114D+00 0.193D+00 0.675D+00
 Gap=     0.140 Goal=   None    Shift=    0.000
 RMSDP=1.36D-08 MaxDP=7.77D-07 DE=-4.52D-10 OVMax= 5.64D-07

 Cycle  13  Pass 1  IDiag  1:
 RMSU=  7.30D-09    CP:  9.98D-01  5.50D-01  5.09D-01  5.83D-01  5.36D-01
                    CP:  6.77D-01  5.31D-01  6.68D-01  5.49D-01  8.28D-01
                    CP:  6.22D-01  7.70D-01
 E= -942.036526986393     Delta-E=       -0.000000000003 Rises=F Damp=F
 DIIS: error= 3.91D-08 at cycle  13 NSaved=  13.
 NSaved=13 IEnMin=13 EnMin= -942.036526986393     IErMin=13 ErrMin= 3.91D-08
 ErrMax= 3.91D-08  0.00D+00 EMaxC= 1.00D-01 BMatC= 5.89D-13 BMatP= 1.07D-11
 IDIUse=1 WtCom= 1.00D+00 WtEn= 0.00D+00
 Coeff-Com:  0.894D-06-0.158D-05 0.103D-05-0.304D-05-0.117D-04-0.617D-05
 Coeff-Com: -0.674D-04 0.542D-03 0.213D-02 0.254D-01 0.513D-01 0.260D+00
 Coeff-Com:  0.661D+00
 Coeff:      0.894D-06-0.158D-05 0.103D-05-0.304D-05-0.117D-04-0.617D-05
 Coeff:     -0.674D-04 0.542D-03 0.213D-02 0.254D-01 0.513D-01 0.260D+00
 Coeff:      0.661D+00
 Gap=     0.140 Goal=   None    Shift=    0.000
 RMSDP=3.61D-09 MaxDP=1.85D-07 DE=-2.61D-12 OVMax= 1.60D-07

 Error on total polarization charges =  0.01709
 SCF Done:  E(RB-P86) =  -942.036526986     A.U. after   13 cycles
            NFock= 13  Conv=0.36D-08     -V/T= 2.0043
 KE= 9.380027883089D+02 PE=-3.652344116128D+03 EE= 1.053811966160D+03
 Leave Link  502 at Sat Aug 21 09:32:39 2021, MaxMem=   104857600 cpu:             582.7 elap:              24.7
 (Enter /sw/arch/RedHatEnterpriseServer7/EB_production/2020/software/Gaussian/g16.c01/l601.exe)
 Copying SCF densities to generalized density rwf, IOpCl= 0 IROHF=0.

 **********************************************************************

            Population analysis using the SCF Density.

 **********************************************************************

 Orbital symmetries:
       Occupied  (A) (A) (A) (A) (A) (A) (A) (A) (A) (A) (A) (A)
                 (A) (A) (A) (A) (A) (A) (A) (A) (A) (A) (A) (A)
                 (A) (A) (A) (A) (A) (A) (A) (A) (A) (A) (A) (A)
                 (A) (A) (A) (A) (A) (A) (A) (A) (A) (A) (A) (A)
                 (A)
       Virtual   (A) (A) (A) (A) (A) (A) (A) (A) (A) (A) (A) (A)
                 (A) (A) (A) (A) (A) (A) (A) (A) (A) (A) (A) (A)
                 (A) (A) (A) (A) (A) (A) (A) (A) (A) (A) (A) (A)
                 (A) (A) (A) (A) (A) (A) (A) (A) (A) (A) (A) (A)
                 (A) (A) (A) (A) (A) (A) (A) (A) (A) (A) (A) (A)
                 (A) (A) (A) (A) (A) (A) (A) (A) (A) (A) (A) (A)
                 (A) (A) (A) (A) (A) (A) (A) (A) (A) (A) (A) (A)
                 (A) (A) (A) (A) (A) (A) (A) (A) (A) (A) (A) (A)
                 (A) (A) (A) (A) (A) (A) (A) (A) (A) (A) (A) (A)
                 (A) (A) (A) (A) (A) (A) (A) (A) (A) (A) (A) (A)
                 (A) (A) (A) (A) (A) (A) (A) (A) (A) (A) (A) (A)
                 (A) (A) (A) (A) (A) (A) (A) (A) (A) (A) (A) (A)
                 (A) (A) (A) (A) (A) (A) (A) (A) (A) (A) (A) (A)
                 (A) (A) (A) (A) (A) (A) (A) (A) (A) (A) (A) (A)
                 (A) (A) (A) (A) (A) (A) (A) (A) (A) (A) (A) (A)
                 (A) (A) (A) (A) (A) (A) (A) (A) (A) (A) (A) (A)
                 (A) (A) (A) (A) (A) (A) (A) (A) (A) (A) (A) (A)
                 (A) (A) (A) (A) (A) (A) (A) (A) (A) (A) (A) (A)
                 (A) (A) (A) (A) (A) (A) (A) (A) (A) (A) (A) (A)
                 (A) (A) (A) (A) (A) (A) (A) (A) (A) (A) (A) (A)
                 (A) (A) (A) (A) (A) (A) (A) (A) (A) (A) (A) (A)
                 (A) (A) (A) (A) (A) (A) (A)
 The electronic state is 1-A.
 Alpha  occ. eigenvalues -- -100.64047 -18.83744 -18.77135 -14.15827 -10.04745
 Alpha  occ. eigenvalues --   -9.98587  -9.97721  -9.95262  -9.95241  -9.95092
 Alpha  occ. eigenvalues --   -9.92207  -9.07927  -6.89745  -6.89742  -6.89734
 Alpha  occ. eigenvalues --   -1.02029  -0.96793  -0.93558  -0.74449  -0.69694
 Alpha  occ. eigenvalues --   -0.69409  -0.69000  -0.64146  -0.62889  -0.57351
 Alpha  occ. eigenvalues --   -0.53997  -0.49731  -0.49327  -0.48398  -0.46222
 Alpha  occ. eigenvalues --   -0.45232  -0.43042  -0.41811  -0.40132  -0.38844
 Alpha  occ. eigenvalues --   -0.37644  -0.37109  -0.37027  -0.36521  -0.36020
 Alpha  occ. eigenvalues --   -0.35813  -0.35692  -0.33031  -0.32091  -0.27956
 Alpha  occ. eigenvalues --   -0.24615  -0.20933  -0.20909  -0.20670
 Alpha virt. eigenvalues --   -0.06708  -0.00888   0.00819   0.03210   0.03891
 Alpha virt. eigenvalues --    0.04010   0.04582   0.05046   0.05331   0.06225
 Alpha virt. eigenvalues --    0.07118   0.08509   0.08839   0.09098   0.09991
 Alpha virt. eigenvalues --    0.10433   0.10753   0.11436   0.12019   0.12119
 Alpha virt. eigenvalues --    0.13375   0.13913   0.14420   0.15164   0.16103
 Alpha virt. eigenvalues --    0.17751   0.19403   0.19548   0.20696   0.20838
 Alpha virt. eigenvalues --    0.22256   0.22758   0.23855   0.24606   0.26309
 Alpha virt. eigenvalues --    0.27101   0.27512   0.28132   0.29535   0.31482
 Alpha virt. eigenvalues --    0.31843   0.33551   0.34723   0.35315   0.35825
 Alpha virt. eigenvalues --    0.36584   0.37226   0.37606   0.37971   0.38129
 Alpha virt. eigenvalues --    0.38687   0.39053   0.39340   0.39758   0.39948
 Alpha virt. eigenvalues --    0.40465   0.41599   0.41951   0.42102   0.42829
 Alpha virt. eigenvalues --    0.43409   0.43878   0.44335   0.44798   0.45336
 Alpha virt. eigenvalues --    0.46272   0.46968   0.48519   0.48859   0.50379
 Alpha virt. eigenvalues --    0.51014   0.52892   0.55547   0.55953   0.59940
 Alpha virt. eigenvalues --    0.61989   0.63304   0.64169   0.65387   0.68274
 Alpha virt. eigenvalues --    0.69094   0.71037   0.76094   0.79788   0.80779
 Alpha virt. eigenvalues --    0.81574   0.84101   0.85877   0.86873   0.87807
 Alpha virt. eigenvalues --    0.88480   0.99431   1.01548   1.09302   1.12358
 Alpha virt. eigenvalues --    1.13271   1.16117   1.16737   1.18449   1.19621
 Alpha virt. eigenvalues --    1.20276   1.20404   1.22381   1.22552   1.23387
 Alpha virt. eigenvalues --    1.24389   1.24810   1.26149   1.26360   1.27939
 Alpha virt. eigenvalues --    1.29091   1.29885   1.30796   1.32391   1.33148
 Alpha virt. eigenvalues --    1.35524   1.36056   1.38059   1.39065   1.42163
 Alpha virt. eigenvalues --    1.43611   1.44181   1.45338   1.46712   1.48135
 Alpha virt. eigenvalues --    1.48457   1.49691   1.50044   1.51824   1.52076
 Alpha virt. eigenvalues --    1.52688   1.55501   1.56314   1.59048   1.59824
 Alpha virt. eigenvalues --    1.63262   1.64595   1.66157   1.67326   1.67975
 Alpha virt. eigenvalues --    1.68145   1.69026   1.69311   1.69825   1.70181
 Alpha virt. eigenvalues --    1.70436   1.70760   1.71782   1.72715   1.73151
 Alpha virt. eigenvalues --    1.73233   1.75032   1.79457   1.83115   1.85181
 Alpha virt. eigenvalues --    1.85576   1.88140   1.89617   1.90475   1.93009
 Alpha virt. eigenvalues --    1.97839   1.99058   1.99997   2.01935   2.04940
 Alpha virt. eigenvalues --    2.08721   2.09311   2.11354   2.13271   2.14357
 Alpha virt. eigenvalues --    2.15569   2.16517   2.18172   2.19297   2.25772
 Alpha virt. eigenvalues --    2.26464   2.27370   2.28706   2.28770   2.29608
 Alpha virt. eigenvalues --    2.29980   2.30614   2.33713   2.34475   2.37118
 Alpha virt. eigenvalues --    2.37558   2.38506   2.39143   2.39580   2.40545
 Alpha virt. eigenvalues --    2.42638   2.45912   2.46977   2.48738   2.50811
 Alpha virt. eigenvalues --    2.51533   2.52398   2.53909   2.56558   2.57108
 Alpha virt. eigenvalues --    2.57760   2.58296   2.59708   2.60695   2.61806
 Alpha virt. eigenvalues --    2.63148   2.64815   2.66474   2.67097   2.67847
 Alpha virt. eigenvalues --    2.70147   2.70771   2.79402   2.81921   2.83879
 Alpha virt. eigenvalues --    2.86205   2.88261   2.89508   2.89794   2.90952
 Alpha virt. eigenvalues --    2.92875   2.95419   2.99116   3.04328   3.05853
 Alpha virt. eigenvalues --    3.07085   3.09220   3.12766   3.14061   3.15989
 Alpha virt. eigenvalues --    3.17686   3.18919   3.20148   3.21575   3.22106
 Alpha virt. eigenvalues --    3.24554   3.26871   3.27814   3.29020   3.30020
 Alpha virt. eigenvalues --    3.34188   3.35355   3.57377   3.58624   3.59418
 Alpha virt. eigenvalues --    3.79546   3.95403   4.04429  21.58926  21.67873
 Alpha virt. eigenvalues --   21.72387  21.76978  21.78392  21.82293  21.84623
 Alpha virt. eigenvalues --   24.18879  31.62971  43.09815  43.18633
          Condensed to atoms (all electrons):
               1          2          3          4          5          6
     1  C    5.155149   0.261740  -0.088880  -0.079153   0.004594   0.001399
     2  C    0.261740   4.824600   0.539917   0.243536  -0.056919   0.020878
     3  O   -0.088880   0.539917   7.999713  -0.108472  -0.010073   0.007950
     4  O   -0.079153   0.243536  -0.108472   8.001686   0.240895  -0.069023
     5  C    0.004594  -0.056919  -0.010073   0.240895   5.226691  -0.001477
     6  C    0.001399   0.020878   0.007950  -0.069023  -0.001477   5.670876
     7  N    0.000026  -0.000016   0.000055   0.005306  -0.009482   0.164823
     8  C    0.000002   0.000065   0.000006   0.000073   0.017206  -0.110632
     9  C   -0.000003   0.000021  -0.000019   0.000131   0.005736  -0.117999
    10  C   -0.000038  -0.000286  -0.000145  -0.000710   0.005844  -0.062612
    11  Cl   0.000000   0.000000  -0.000000   0.000000  -0.000106   0.000542
    12  H    0.382462  -0.050363   0.006280   0.013386   0.001379  -0.001033
    13  H    0.389874  -0.019568  -0.002913  -0.001624  -0.000198   0.000019
    14  H    0.400992  -0.032714   0.001251   0.002348  -0.000314   0.000004
    15  H   -0.000314  -0.003640   0.010383  -0.043488   0.390601  -0.021478
    16  H    0.001157  -0.001284   0.009577  -0.039299   0.419613  -0.063698
    17  H   -0.000345   0.000062   0.000049   0.010026  -0.043188   0.409205
    18  H    0.000082  -0.000338   0.000019   0.008946  -0.016125   0.361687
    19  H    0.000000  -0.000005  -0.000000  -0.000029   0.001115  -0.005382
    20  H    0.000000   0.000001   0.000000   0.000006  -0.000430   0.007378
    21  H   -0.000000  -0.000006  -0.000000  -0.000025  -0.000041  -0.012648
    22  H   -0.000001  -0.000000  -0.000037  -0.000192   0.002298  -0.008474
    23  H   -0.000001  -0.000004   0.000000   0.000019  -0.003825  -0.004336
    24  H   -0.000000  -0.000002  -0.000000  -0.000001  -0.000012   0.009439
    25  H   -0.000000  -0.000005  -0.000001  -0.000015   0.000367   0.008198
    26  H    0.000002   0.000031  -0.000002   0.000240  -0.008113   0.003737
    27  H    0.000006   0.000088   0.000033   0.000138   0.010956  -0.024784
               7          8          9         10         11         12
     1  C    0.000026   0.000002  -0.000003  -0.000038   0.000000   0.382462
     2  C   -0.000016   0.000065   0.000021  -0.000286   0.000000  -0.050363
     3  O    0.000055   0.000006  -0.000019  -0.000145  -0.000000   0.006280
     4  O    0.005306   0.000073   0.000131  -0.000710   0.000000   0.013386
     5  C   -0.009482   0.017206   0.005736   0.005844  -0.000106   0.001379
     6  C    0.164823  -0.110632  -0.117999  -0.062612   0.000542  -0.001033
     7  N    6.432385   0.273932   0.269797   0.195644   0.005836  -0.000000
     8  C    0.273932   5.248903  -0.101711  -0.114040  -0.044193  -0.000001
     9  C    0.269797  -0.101711   5.325427  -0.148772  -0.052151   0.000002
    10  C    0.195644  -0.114040  -0.148772   5.403735  -0.056860   0.000003
    11  Cl   0.005836  -0.044193  -0.052151  -0.056860  17.808514   0.000000
    12  H   -0.000000  -0.000001   0.000002   0.000003   0.000000   0.528100
    13  H   -0.000001  -0.000000  -0.000000   0.000003  -0.000000  -0.017452
    14  H    0.000000   0.000000  -0.000000  -0.000001   0.000000  -0.023275
    15  H   -0.010722  -0.001102  -0.003111   0.026466   0.000014   0.000008
    16  H    0.010391   0.000434   0.012894  -0.016805   0.000020  -0.000208
    17  H   -0.020723  -0.008426  -0.016232   0.014345   0.000015   0.000075
    18  H   -0.009608   0.001462   0.012778  -0.016946   0.000021   0.000022
    19  H   -0.014657   0.375770  -0.006274   0.010596   0.001260  -0.000000
    20  H   -0.015959   0.343645  -0.002740  -0.006832   0.054872   0.000000
    21  H   -0.016371   0.383883   0.010131  -0.002363   0.000638   0.000000
    22  H   -0.016931   0.010539   0.380561  -0.010788   0.001267   0.000001
    23  H   -0.015887  -0.005373   0.374610   0.012440   0.001108  -0.000000
    24  H   -0.019189  -0.004873   0.330395   0.009037   0.058681   0.000000
    25  H   -0.018041  -0.000358   0.003247   0.333646   0.062468   0.000000
    26  H   -0.017161  -0.003166   0.010400   0.367136   0.001808  -0.000000
    27  H   -0.011994   0.010095   0.001385   0.376223   0.000542  -0.000000
              13         14         15         16         17         18
     1  C    0.389874   0.400992  -0.000314   0.001157  -0.000345   0.000082
     2  C   -0.019568  -0.032714  -0.003640  -0.001284   0.000062  -0.000338
     3  O   -0.002913   0.001251   0.010383   0.009577   0.000049   0.000019
     4  O   -0.001624   0.002348  -0.043488  -0.039299   0.010026   0.008946
     5  C   -0.000198  -0.000314   0.390601   0.419613  -0.043188  -0.016125
     6  C    0.000019   0.000004  -0.021478  -0.063698   0.409205   0.361687
     7  N   -0.000001   0.000000  -0.010722   0.010391  -0.020723  -0.009608
     8  C   -0.000000   0.000000  -0.001102   0.000434  -0.008426   0.001462
     9  C   -0.000000  -0.000000  -0.003111   0.012894  -0.016232   0.012778
    10  C    0.000003  -0.000001   0.026466  -0.016805   0.014345  -0.016946
    11  Cl  -0.000000   0.000000   0.000014   0.000020   0.000015   0.000021
    12  H   -0.017452  -0.023275   0.000008  -0.000208   0.000075   0.000022
    13  H    0.478594  -0.016695   0.000115  -0.000056   0.000017  -0.000028
    14  H   -0.016695   0.489330  -0.000060   0.000129  -0.000008   0.000008
    15  H    0.000115  -0.000060   0.518018  -0.035300   0.004992  -0.007195
    16  H   -0.000056   0.000129  -0.035300   0.527926  -0.005513   0.005582
    17  H    0.000017  -0.000008   0.004992  -0.005513   0.463057  -0.017044
    18  H   -0.000028   0.000008  -0.007195   0.005582  -0.017044   0.466007
    19  H    0.000000   0.000000  -0.000004  -0.000002   0.003204  -0.002131
    20  H   -0.000000  -0.000000   0.000017   0.000012  -0.000119   0.000270
    21  H    0.000000  -0.000000   0.000099  -0.000036   0.000089   0.003451
    22  H   -0.000000   0.000000   0.000586   0.000932   0.000118  -0.000057
    23  H    0.000000   0.000000   0.000015  -0.000220   0.002970   0.000292
    24  H    0.000000   0.000000   0.000023  -0.000131   0.000118  -0.000230
    25  H    0.000000  -0.000000   0.000460  -0.000131  -0.000106  -0.000254
    26  H   -0.000000   0.000000  -0.003022   0.001282  -0.000352   0.002383
    27  H   -0.000000   0.000000  -0.006724   0.000974  -0.000134   0.000833
              19         20         21         22         23         24
     1  C    0.000000   0.000000  -0.000000  -0.000001  -0.000001  -0.000000
     2  C   -0.000005   0.000001  -0.000006  -0.000000  -0.000004  -0.000002
     3  O   -0.000000   0.000000  -0.000000  -0.000037   0.000000  -0.000000
     4  O   -0.000029   0.000006  -0.000025  -0.000192   0.000019  -0.000001
     5  C    0.001115  -0.000430  -0.000041   0.002298  -0.003825  -0.000012
     6  C   -0.005382   0.007378  -0.012648  -0.008474  -0.004336   0.009439
     7  N   -0.014657  -0.015959  -0.016371  -0.016931  -0.015887  -0.019189
     8  C    0.375770   0.343645   0.383883   0.010539  -0.005373  -0.004873
     9  C   -0.006274  -0.002740   0.010131   0.380561   0.374610   0.330395
    10  C    0.010596  -0.006832  -0.002363  -0.010788   0.012440   0.009037
    11  Cl   0.001260   0.054872   0.000638   0.001267   0.001108   0.058681
    12  H   -0.000000   0.000000   0.000000   0.000001  -0.000000   0.000000
    13  H    0.000000  -0.000000   0.000000  -0.000000   0.000000   0.000000
    14  H    0.000000  -0.000000  -0.000000   0.000000   0.000000   0.000000
    15  H   -0.000004   0.000017   0.000099   0.000586   0.000015   0.000023
    16  H   -0.000002   0.000012  -0.000036   0.000932  -0.000220  -0.000131
    17  H    0.003204  -0.000119   0.000089   0.000118   0.002970   0.000118
    18  H   -0.002131   0.000270   0.003451  -0.000057   0.000292  -0.000230
    19  H    0.493277  -0.018237  -0.021664   0.000121   0.002307  -0.001044
    20  H   -0.018237   0.496187  -0.017309   0.000531  -0.000923  -0.002360
    21  H   -0.021664  -0.017309   0.482215  -0.000388   0.000056   0.000610
    22  H    0.000121   0.000531  -0.000388   0.486444  -0.020122  -0.015718
    23  H    0.002307  -0.000923   0.000056  -0.020122   0.487640  -0.015634
    24  H   -0.001044  -0.002360   0.000610  -0.015718  -0.015634   0.495929
    25  H    0.000615  -0.003605  -0.001240  -0.001082   0.000191  -0.007667
    26  H   -0.000078  -0.000672   0.002128   0.000251  -0.000354   0.000301
    27  H   -0.000370   0.000393  -0.000036   0.002125   0.000101  -0.001538
              25         26         27
     1  C   -0.000000   0.000002   0.000006
     2  C   -0.000005   0.000031   0.000088
     3  O   -0.000001  -0.000002   0.000033
     4  O   -0.000015   0.000240   0.000138
     5  C    0.000367  -0.008113   0.010956
     6  C    0.008198   0.003737  -0.024784
     7  N   -0.018041  -0.017161  -0.011994
     8  C   -0.000358  -0.003166   0.010095
     9  C    0.003247   0.010400   0.001385
    10  C    0.333646   0.367136   0.376223
    11  Cl   0.062468   0.001808   0.000542
    12  H    0.000000  -0.000000  -0.000000
    13  H    0.000000  -0.000000  -0.000000
    14  H   -0.000000   0.000000   0.000000
    15  H    0.000460  -0.003022  -0.006724
    16  H   -0.000131   0.001282   0.000974
    17  H   -0.000106  -0.000352  -0.000134
    18  H   -0.000254   0.002383   0.000833
    19  H    0.000615  -0.000078  -0.000370
    20  H   -0.003605  -0.000672   0.000393
    21  H   -0.001240   0.002128  -0.000036
    22  H   -0.001082   0.000251   0.002125
    23  H    0.000191  -0.000354   0.000101
    24  H   -0.007667   0.000301  -0.001538
    25  H    0.487532  -0.013868  -0.015832
    26  H   -0.013868   0.481355  -0.022744
    27  H   -0.015832  -0.022744   0.485188
 Mulliken charges:
               1
     1  C   -0.428749
     2  C    0.274211
     3  O   -0.364688
     4  O   -0.184705
     5  C   -0.176992
     6  C   -0.162559
     7  N   -0.161451
     8  C   -0.272138
     9  C   -0.288502
    10  C   -0.317919
    11  Cl  -0.844295
    12  H    0.160617
    13  H    0.189915
    14  H    0.179006
    15  H    0.184365
    16  H    0.171758
    17  H    0.203850
    18  H    0.206113
    19  H    0.181612
    20  H    0.165873
    21  H    0.188826
    22  H    0.188016
    23  H    0.184930
    24  H    0.163867
    25  H    0.165481
    26  H    0.198481
    27  H    0.195077
 Sum of Mulliken charges =  -0.00000
 Mulliken charges with hydrogens summed into heavy atoms:
               1
     1  C    0.100789
     2  C    0.274211
     3  O   -0.364688
     4  O   -0.184705
     5  C    0.179132
     6  C    0.247405
     7  N   -0.161451
     8  C    0.264173
     9  C    0.248311
    10  C    0.241118
    11  Cl  -0.844295
 Electronic spatial extent (au):  <R**2>=           4152.0235
 Charge=              0.0000 electrons
 Dipole moment (field-independent basis, Debye):
    X=            -14.8925    Y=              7.4422    Z=             -0.3398  Tot=             16.6520
 Quadrupole moment (field-independent basis, Debye-Ang):
   XX=           -150.2781   YY=            -78.9918   ZZ=            -70.4583
   XY=              5.2673   XZ=             -1.5071   YZ=              0.0342
 Traceless Quadrupole moment (field-independent basis, Debye-Ang):
   XX=            -50.3687   YY=             20.9176   ZZ=             29.4511
   XY=              5.2673   XZ=             -1.5071   YZ=              0.0342
 Octapole moment (field-independent basis, Debye-Ang**2):
  XXX=           -530.2329  YYY=             26.2932  ZZZ=             -1.1245  XYY=             10.3739
  XXY=            117.4419  XXZ=             -4.8772  XZZ=            -11.5862  YZZ=              2.9091
  YYZ=             -0.4329  XYZ=              1.5928
 Hexadecapole moment (field-independent basis, Debye-Ang**3):
 XXXX=          -6391.2224 YYYY=           -452.4549 ZZZZ=           -236.7843 XXXY=            151.6741
 XXXZ=            -34.9183 YYYX=              6.5359 YYYZ=              1.5419 ZZZX=              5.4554
 ZZZY=             -0.0985 XXYY=          -1013.4160 XXZZ=           -831.1852 YYZZ=           -109.5456
 XXYZ=             -4.8667 YYXZ=             -7.9222 ZZXY=             11.2537
 N-N= 7.184928346723D+02 E-N=-3.652344118746D+03  KE= 9.380027883089D+02
 No NMR shielding tensors so no spin-rotation constants.
 Leave Link  601 at Sat Aug 21 09:32:40 2021, MaxMem=   104857600 cpu:               6.1 elap:               0.3
 (Enter /sw/arch/RedHatEnterpriseServer7/EB_production/2020/software/Gaussian/g16.c01/l701.exe)
 ... and contract with generalized density number  0.
 Compute integral first derivatives.
 R6Disp: Adding Grimme-D3 dispersion energy 1st derivatives to the gradient.
 D1PCM: PCM CHGder 1st derivatives, ID1Alg=3 FixD1E=F DoIter=F DoCFld=F I1PDM=0.
 GePol: Maximum number of non-zero 1st derivatives   =     257
 Leave Link  701 at Sat Aug 21 09:32:41 2021, MaxMem=   104857600 cpu:              25.3 elap:               1.1
 (Enter /sw/arch/RedHatEnterpriseServer7/EB_production/2020/software/Gaussian/g16.c01/l702.exe)
 L702 exits ... SP integral derivatives will be done elsewhere.
 Leave Link  702 at Sat Aug 21 09:32:41 2021, MaxMem=   104857600 cpu:               0.6 elap:               0.0
 (Enter /sw/arch/RedHatEnterpriseServer7/EB_production/2020/software/Gaussian/g16.c01/l703.exe)
 Integral derivatives from FoFJK, PRISM(SPDF).
 Compute integral first derivatives, UseDBF=F ICtDFT=           0.
 Calling FoFJK, ICntrl=      2527 FMM=F ISym2X=0 I1Cent= 0 IOpClX= 0 NMat=1 NMatS=1 NMatT=0.
 FoFJK:  IHMeth= 1 ICntrl=    2527 DoSepK=F KAlg= 0 I1Cent=           0 FoldK=F
 IRaf=         0 NMat=       1 IRICut=       1 DoRegI=T DoRafI=F ISym2E= 0 IDoP0=0 IntGTp=1.
 FoFCou: FMM=F IPFlag=           0 FMFlag=      100000 FMFlg1=         800
         NFxFlg=           0 DoJE=F BraDBF=F KetDBF=F FulRan=T
         wScrn=  0.000000 ICntrl=      2527 IOpCl=  0 I1Cent=           0 NGrid=           0
         NMat0=    1 NMatS0=      1 NMatT0=    0 NMatD0=    1 NMtDS0=    0 NMtDT0=    0
 Symmetry not used in FoFCou.
 Leave Link  703 at Sat Aug 21 09:32:45 2021, MaxMem=   104857600 cpu:              85.4 elap:               3.6
 (Enter /sw/arch/RedHatEnterpriseServer7/EB_production/2020/software/Gaussian/g16.c01/l716.exe)
 Dipole        =-5.85914746D+00 2.92800054D+00-1.33688343D-01
 ***** Axes restored to original set *****
 -------------------------------------------------------------------
 Center     Atomic                   Forces (Hartrees/Bohr)
 Number     Number              X              Y              Z
 -------------------------------------------------------------------
      1        6          -0.012524287    0.019319882   -0.010432549
      2        6           0.060926140   -0.028379948    0.033231106
      3        8          -0.020087712    0.030256663   -0.028715731
      4        8          -0.041574332   -0.002693172   -0.004826396
      5        6           0.021412749   -0.013401362    0.014742923
      6        6          -0.038905927   -0.009167783   -0.003486907
      7        7           0.001116702    0.005870004    0.005943149
      8        6           0.000516923    0.024153706   -0.030361891
      9        6           0.004243981    0.021616115    0.034166914
     10        6           0.021559962   -0.030199653    0.000664358
     11       17           0.005064792    0.002770641   -0.000101388
     12        1           0.000179502   -0.007627968   -0.000065969
     13        1           0.001267571    0.004768723    0.003785044
     14        1           0.006607087    0.001033026   -0.007699260
     15        1          -0.001970975    0.004633060    0.004611541
     16        1           0.000596799   -0.003306663   -0.003940116
     17        1           0.011535480   -0.002315118   -0.000825403
     18        1           0.009176648    0.001937628    0.001055984
     19        1           0.003861875   -0.009728938    0.004242079
     20        1          -0.006043398   -0.008141063    0.007600348
     21        1          -0.001752303   -0.003540438    0.007418028
     22        1          -0.001835600    0.000583743   -0.010148918
     23        1           0.003554704   -0.009547867   -0.005495538
     24        1          -0.006098888   -0.007690930   -0.007371499
     25        1          -0.010932338    0.005166585    0.002352580
     26        1          -0.005066567    0.005850918    0.000050800
     27        1          -0.004828588    0.007780210   -0.006393290
 -------------------------------------------------------------------
 Cartesian Forces:  Max     0.060926140 RMS     0.015258033
 Leave Link  716 at Sat Aug 21 09:32:45 2021, MaxMem=   104857600 cpu:               0.6 elap:               0.1
 (Enter /sw/arch/RedHatEnterpriseServer7/EB_production/2020/software/Gaussian/g16.c01/l103.exe)

 GradGradGradGradGradGradGradGradGradGradGradGradGradGradGradGradGradGrad
 Berny optimization.
 FormGI is forming the generalized inverse of G from B-inverse, IUseBI=4.
 Internal  Forces:  Max     0.045617316 RMS     0.007540787
 Search for a local minimum.
 Step number   1 out of a maximum of  161
 All quantities printed in internal units (Hartrees-Bohrs-Radians)
 RMS Force = .75408D-02 SwitMx=.10000D-02 MixMth= 1
 Mixed Optimization -- RFO/linear search
 Second derivative matrix not updated -- first step.
 ITU=  0
     Eigenvalues ---    0.00235   0.00339   0.00391   0.00412   0.00423
     Eigenvalues ---    0.00887   0.01104   0.01371   0.01659   0.01722
     Eigenvalues ---    0.02060   0.02868   0.03213   0.03351   0.03949
     Eigenvalues ---    0.04093   0.04453   0.04699   0.05024   0.05150
     Eigenvalues ---    0.05394   0.05655   0.05836   0.05899   0.07444
     Eigenvalues ---    0.07508   0.07558   0.08810   0.08931   0.09478
     Eigenvalues ---    0.11360   0.11427   0.11433   0.11459   0.11594
     Eigenvalues ---    0.12203   0.12252   0.12539   0.13702   0.16000
     Eigenvalues ---    0.16000   0.16000   0.17210   0.17828   0.19752
     Eigenvalues ---    0.21896   0.22044   0.24991   0.25000   0.25000
     Eigenvalues ---    0.27729   0.28504   0.28685   0.32137   0.32172
     Eigenvalues ---    0.32230   0.32251   0.32324   0.32339   0.32504
     Eigenvalues ---    0.32504   0.32552   0.32571   0.32582   0.32627
     Eigenvalues ---    0.32715   0.32718   0.32724   0.33049   0.33137
     Eigenvalues ---    0.33360   0.33400   0.41822   0.46007   0.79254
 RFO step:  Lambda=-2.72576551D-02 EMin= 2.34654316D-03
 Linear search not attempted -- first point.
 Maximum step size (   0.300) exceeded in Quadratic search.
    -- Step size scaled by   0.978
 Iteration  1 RMS(Cart)=  0.06573814 RMS(Int)=  0.00109463
 Iteration  2 RMS(Cart)=  0.00171557 RMS(Int)=  0.00038057
 Iteration  3 RMS(Cart)=  0.00000156 RMS(Int)=  0.00038057
 Iteration  4 RMS(Cart)=  0.00000000 RMS(Int)=  0.00038057
 ITry= 1 IFail=0 DXMaxC= 2.13D-01 DCOld= 1.00D+10 DXMaxT= 3.00D-01 DXLimC= 3.00D+00 Rises=F
 Variable       Old X    -DE/DX   Delta X   Delta X   Delta X     New X
                                 (Linear)    (Quad)   (Total)
    R1        2.81723   0.00197   0.00000   0.00534   0.00534   2.82257
    R2        2.09792  -0.00624   0.00000  -0.01729  -0.01729   2.08063
    R3        2.09711  -0.00620   0.00000  -0.01714  -0.01714   2.07998
    R4        2.09846  -0.00957   0.00000  -0.02651  -0.02651   2.07195
    R5        2.38320  -0.04562   0.00000  -0.05439  -0.05439   2.32881
    R6        2.64124  -0.03412   0.00000  -0.06845  -0.06845   2.57279
    R7        2.69150   0.00165   0.00000   0.00362   0.00362   2.69512
    R8        2.91049  -0.00566   0.00000  -0.01770  -0.01770   2.89279
    R9        2.09931  -0.00603   0.00000  -0.01672  -0.01672   2.08259
   R10        2.09539  -0.00438   0.00000  -0.01208  -0.01208   2.08331
   R11        2.82850   0.00488   0.00000   0.01345   0.01345   2.84195
   R12        2.10593  -0.00925   0.00000  -0.02594  -0.02594   2.07999
   R13        2.08965  -0.00399   0.00000  -0.01091  -0.01091   2.07874
   R14        2.80353   0.01035   0.00000   0.02869   0.02870   2.83223
   R15        2.80888   0.01247   0.00000   0.03399   0.03398   2.84286
   R16        2.80470   0.00962   0.00000   0.02651   0.02654   2.83123
   R17        2.10425  -0.00971   0.00000  -0.02714  -0.02714   2.07711
   R18        2.10437  -0.00740   0.00000  -0.01968  -0.01963   2.08474
   R19        2.08811  -0.00462   0.00000  -0.01259  -0.01259   2.07552
   R20        2.09812  -0.00860   0.00000  -0.02381  -0.02381   2.07431
   R21        2.10388  -0.00990   0.00000  -0.02768  -0.02768   2.07620
   R22        2.10479  -0.00720   0.00000  -0.02032  -0.02040   2.08439
   R23        2.10370  -0.00560   0.00000  -0.01646  -0.01642   2.08728
   R24        2.08355  -0.00295   0.00000  -0.00798  -0.00798   2.07556
   R25        2.10228  -0.00965   0.00000  -0.02689  -0.02689   2.07538
   R26        4.83040   0.00120   0.00000   0.02392   0.02397   4.85436
   R27        4.79346   0.00117   0.00000   0.01788   0.01780   4.81126
   R28        4.58135   0.00251   0.00000   0.03498   0.03500   4.61635
    A1        1.91942   0.00709   0.00000   0.04124   0.04132   1.96075
    A2        1.91043  -0.00160   0.00000  -0.01212  -0.01231   1.89812
    A3        1.92127  -0.00520   0.00000  -0.02756  -0.02770   1.89357
    A4        1.90524  -0.00247   0.00000  -0.01198  -0.01194   1.89330
    A5        1.89943   0.00117   0.00000   0.01349   0.01362   1.91305
    A6        1.90789   0.00101   0.00000  -0.00305  -0.00349   1.90440
[...]
                 (A) (A) (A) (A) (A) (A) (A) (A) (A) (A) (A) (A)
                 (A) (A) (A) (A) (A) (A) (A) (A) (A) (A) (A) (A)
                 (A) (A) (A) (A) (A) (A) (A)
 The electronic state is 1-A.
 Alpha  occ. eigenvalues -- -100.64615 -18.83001 -18.77315 -14.13715 -10.03523
 Alpha  occ. eigenvalues --   -9.96977  -9.95986  -9.94080  -9.94044  -9.94010
 Alpha  occ. eigenvalues --   -9.90661  -9.08490  -6.90308  -6.90302  -6.90300
 Alpha  occ. eigenvalues --   -1.02789  -0.94843  -0.93701  -0.73573  -0.68486
 Alpha  occ. eigenvalues --   -0.67853  -0.67815  -0.63664  -0.62197  -0.55731
 Alpha  occ. eigenvalues --   -0.53332  -0.47870  -0.47706  -0.46505  -0.45430
 Alpha  occ. eigenvalues --   -0.44692  -0.42925  -0.41311  -0.39431  -0.37966
 Alpha  occ. eigenvalues --   -0.37015  -0.36284  -0.35748  -0.35691  -0.35552
 Alpha  occ. eigenvalues --   -0.35392  -0.35303  -0.33041  -0.32767  -0.28075
 Alpha  occ. eigenvalues --   -0.25231  -0.21552  -0.21546  -0.21341
 Alpha virt. eigenvalues --   -0.04912  -0.00197   0.02046   0.04046   0.05026
 Alpha virt. eigenvalues --    0.05158   0.05905   0.06039   0.06297   0.07364
 Alpha virt. eigenvalues --    0.08401   0.09630   0.09797   0.10329   0.11001
 Alpha virt. eigenvalues --    0.11316   0.11474   0.12355   0.12930   0.13516
 Alpha virt. eigenvalues --    0.14172   0.14867   0.15600   0.16002   0.16504
 Alpha virt. eigenvalues --    0.18449   0.19821   0.20636   0.21262   0.21985
 Alpha virt. eigenvalues --    0.23362   0.23928   0.25470   0.25972   0.26314
 Alpha virt. eigenvalues --    0.26988   0.27571   0.28089   0.29886   0.30854
 Alpha virt. eigenvalues --    0.32347   0.33811   0.34575   0.36216   0.36306
 Alpha virt. eigenvalues --    0.37486   0.38061   0.38233   0.38471   0.38732
 Alpha virt. eigenvalues --    0.39517   0.39624   0.39910   0.40283   0.41441
 Alpha virt. eigenvalues --    0.41947   0.42715   0.42988   0.44354   0.44540
 Alpha virt. eigenvalues --    0.45223   0.45455   0.45741   0.46068   0.46721
 Alpha virt. eigenvalues --    0.47075   0.47709   0.50503   0.50684   0.51171
 Alpha virt. eigenvalues --    0.52240   0.53140   0.55744   0.56959   0.60833
 Alpha virt. eigenvalues --    0.62158   0.63754   0.65254   0.68581   0.69680
 Alpha virt. eigenvalues --    0.70444   0.72966   0.76836   0.79256   0.80060
 Alpha virt. eigenvalues --    0.80225   0.84215   0.86394   0.87732   0.87799
 Alpha virt. eigenvalues --    0.89569   1.01143   1.03037   1.11378   1.14220
 Alpha virt. eigenvalues --    1.14483   1.17481   1.18197   1.19077   1.19982
 Alpha virt. eigenvalues --    1.20249   1.20854   1.22169   1.23464   1.24040
 Alpha virt. eigenvalues --    1.24439   1.25312   1.26336   1.26963   1.28551
 Alpha virt. eigenvalues --    1.30118   1.30244   1.30500   1.31166   1.32612
 Alpha virt. eigenvalues --    1.36359   1.37382   1.38014   1.39506   1.43126
 Alpha virt. eigenvalues --    1.43900   1.44753   1.45242   1.46302   1.47810
 Alpha virt. eigenvalues --    1.48229   1.50403   1.51152   1.52323   1.52998
 Alpha virt. eigenvalues --    1.54712   1.57303   1.58559   1.58739   1.61689
 Alpha virt. eigenvalues --    1.63654   1.66946   1.67421   1.69655   1.69988
 Alpha virt. eigenvalues --    1.70621   1.71336   1.71620   1.71796   1.72325
 Alpha virt. eigenvalues --    1.72723   1.73262   1.74017   1.75132   1.75613
 Alpha virt. eigenvalues --    1.76406   1.76642   1.80804   1.82708   1.86373
 Alpha virt. eigenvalues --    1.87239   1.89316   1.90798   1.92075   1.95474
 Alpha virt. eigenvalues --    1.97623   2.00445   2.00633   2.00836   2.05951
 Alpha virt. eigenvalues --    2.09448   2.11783   2.12016   2.13151   2.15354
 Alpha virt. eigenvalues --    2.16982   2.19515   2.20672   2.22441   2.25978
 Alpha virt. eigenvalues --    2.26580   2.27481   2.28772   2.29983   2.30314
 Alpha virt. eigenvalues --    2.30653   2.31217   2.34332   2.37311   2.38299
 Alpha virt. eigenvalues --    2.38944   2.39957   2.41937   2.42213   2.42424
 Alpha virt. eigenvalues --    2.42975   2.47114   2.47793   2.52848   2.53317
 Alpha virt. eigenvalues --    2.54215   2.55009   2.56698   2.58187   2.58467
 Alpha virt. eigenvalues --    2.59810   2.61264   2.61835   2.63897   2.64249
 Alpha virt. eigenvalues --    2.64592   2.65663   2.67447   2.68610   2.68945
 Alpha virt. eigenvalues --    2.70149   2.70942   2.83679   2.84128   2.85182
 Alpha virt. eigenvalues --    2.89075   2.89991   2.91392   2.92514   2.93531
 Alpha virt. eigenvalues --    2.96722   2.98899   3.02170   3.08419   3.08954
 Alpha virt. eigenvalues --    3.10628   3.11031   3.14460   3.18088   3.19907
 Alpha virt. eigenvalues --    3.20448   3.21492   3.21890   3.22655   3.24337
 Alpha virt. eigenvalues --    3.24887   3.25931   3.27254   3.30608   3.34216
 Alpha virt. eigenvalues --    3.36116   3.43303   3.57544   3.58537   3.59332
 Alpha virt. eigenvalues --    3.80234   3.99829   4.11065  21.67065  21.71288
 Alpha virt. eigenvalues --   21.78002  21.81837  21.82055  21.83884  21.86524
 Alpha virt. eigenvalues --   24.13306  31.66922  43.10898  43.20331
          Condensed to atoms (all electrons):
               1          2          3          4          5          6
     1  C    5.201758   0.276418  -0.089235  -0.116630  -0.000141   0.002797
     2  C    0.276418   4.769510   0.576159   0.240218  -0.056077   0.022865
     3  O   -0.089235   0.576159   7.974091  -0.112176  -0.018814   0.010916
     4  O   -0.116630   0.240218  -0.112176   8.051562   0.225080  -0.075365
     5  C   -0.000141  -0.056077  -0.018814   0.225080   5.227593   0.045238
     6  C    0.002797   0.022865   0.010916  -0.075365   0.045238   5.573226
     7  N    0.000046  -0.000194   0.000075   0.006550  -0.023568   0.163554
     8  C    0.000001   0.000076   0.000008   0.000138   0.016171  -0.110759
     9  C   -0.000013  -0.000127  -0.000056  -0.000368   0.004888  -0.084556
    10  C   -0.000026  -0.000126  -0.000098  -0.000420   0.007774  -0.077390
    11  Cl  -0.000000   0.000000  -0.000000   0.000000  -0.000033   0.000157
    12  H    0.381310  -0.030957   0.002381   0.008015   0.001136  -0.000713
    13  H    0.384421  -0.021724   0.000056   0.001589   0.000115  -0.000332
    14  H    0.396101  -0.040498   0.007291   0.006337  -0.000197  -0.000029
    15  H    0.001047  -0.006394   0.009630  -0.037641   0.404287  -0.030691
    16  H    0.001461  -0.008687   0.010554  -0.035789   0.410599  -0.041702
    17  H   -0.000223  -0.000176   0.000044   0.009824  -0.029554   0.395297
    18  H   -0.000054  -0.000864   0.000028   0.009643  -0.022964   0.384809
    19  H   -0.000000  -0.000009  -0.000000  -0.000052   0.000943  -0.008457
    20  H    0.000000   0.000000   0.000000   0.000009  -0.000989   0.009510
    21  H   -0.000000  -0.000008  -0.000000  -0.000049   0.000798  -0.010269
    22  H   -0.000004   0.000013  -0.000034  -0.000095   0.002889  -0.012136
    23  H   -0.000001   0.000021   0.000000   0.000112  -0.004352  -0.001224
    24  H   -0.000000  -0.000004  -0.000001  -0.000007   0.000412   0.009053
    25  H   -0.000000  -0.000004  -0.000001  -0.000009   0.000286   0.008975
    26  H   -0.000000   0.000011   0.000000   0.000134  -0.005213   0.000190
    27  H    0.000002   0.000058  -0.000000  -0.000001   0.005219  -0.015347
               7          8          9         10         11         12
     1  C    0.000046   0.000001  -0.000013  -0.000026  -0.000000   0.381310
     2  C   -0.000194   0.000076  -0.000127  -0.000126   0.000000  -0.030957
     3  O    0.000075   0.000008  -0.000056  -0.000098  -0.000000   0.002381
     4  O    0.006550   0.000138  -0.000368  -0.000420   0.000000   0.008015
     5  C   -0.023568   0.016171   0.004888   0.007774  -0.000033   0.001136
     6  C    0.163554  -0.110759  -0.084556  -0.077390   0.000157  -0.000713
     7  N    6.535831   0.258206   0.234144   0.220241   0.003657  -0.000000
     8  C    0.258206   5.193114  -0.092791  -0.095959  -0.035352  -0.000001
     9  C    0.234144  -0.092791   5.249527  -0.124192  -0.036375   0.000002
    10  C    0.220241  -0.095959  -0.124192   5.265950  -0.035431   0.000001
    11  Cl   0.003657  -0.035352  -0.036375  -0.035431  17.835194   0.000000
    12  H   -0.000000  -0.000001   0.000002   0.000001   0.000000   0.501470
    13  H   -0.000001  -0.000000  -0.000000   0.000003  -0.000000  -0.019120
    14  H   -0.000000   0.000000   0.000000   0.000000   0.000000  -0.018982
    15  H   -0.002417  -0.000409  -0.004864   0.016668   0.000008  -0.000012
    16  H    0.002182  -0.000052   0.015120  -0.007670   0.000010  -0.000152
    17  H   -0.018662  -0.004757  -0.015650   0.012731   0.000005  -0.000006
    18  H   -0.014609  -0.002989   0.012112  -0.016591   0.000008   0.000041
    19  H   -0.017619   0.385715  -0.004655   0.009477   0.000697  -0.000000
    20  H   -0.020371   0.352620  -0.005330  -0.006097   0.046438   0.000000
    21  H   -0.017305   0.386320   0.009426  -0.004104   0.000667   0.000000
    22  H   -0.019170   0.008835   0.391063  -0.005575   0.000589   0.000000
    23  H   -0.017837  -0.004744   0.379471   0.010806   0.000691  -0.000000
    24  H   -0.020068  -0.003706   0.344278  -0.000150   0.047691   0.000000
    25  H   -0.019881  -0.003290  -0.001107   0.344882   0.047033   0.000000
    26  H   -0.017314  -0.004122   0.010614   0.376588   0.000705   0.000000
    27  H   -0.018890   0.008639  -0.003813   0.391719   0.000508  -0.000000
              13         14         15         16         17         18
     1  C    0.384421   0.396101   0.001047   0.001461  -0.000223  -0.000054
     2  C   -0.021724  -0.040498  -0.006394  -0.008687  -0.000176  -0.000864
     3  O    0.000056   0.007291   0.009630   0.010554   0.000044   0.000028
     4  O    0.001589   0.006337  -0.037641  -0.035789   0.009824   0.009643
     5  C    0.000115  -0.000197   0.404287   0.410599  -0.029554  -0.022964
     6  C   -0.000332  -0.000029  -0.030691  -0.041702   0.395297   0.384809
     7  N   -0.000001  -0.000000  -0.002417   0.002182  -0.018662  -0.014609
     8  C   -0.000000   0.000000  -0.000409  -0.000052  -0.004757  -0.002989
     9  C   -0.000000   0.000000  -0.004864   0.015120  -0.015650   0.012112
    10  C    0.000003   0.000000   0.016668  -0.007670   0.012731  -0.016591
    11  Cl  -0.000000   0.000000   0.000008   0.000010   0.000005   0.000008
    12  H   -0.019120  -0.018982  -0.000012  -0.000152  -0.000006   0.000041
    13  H    0.485315  -0.016829   0.000020  -0.000061   0.000038  -0.000040
    14  H   -0.016829   0.497954  -0.000048   0.000049  -0.000002   0.000006
    15  H    0.000020  -0.000048   0.501784  -0.036748   0.004359  -0.006113
    16  H   -0.000061   0.000049  -0.036748   0.506734  -0.005567   0.004461
    17  H    0.000038  -0.000002   0.004359  -0.005567   0.454681  -0.015881
    18  H   -0.000040   0.000006  -0.006113   0.004461  -0.015881   0.454888
    19  H    0.000000   0.000000  -0.000027   0.000029   0.004524  -0.001092
    20  H   -0.000000  -0.000000   0.000016   0.000011   0.000023   0.000089
    21  H    0.000000  -0.000000   0.000057  -0.000033  -0.000708   0.004638
    22  H    0.000000   0.000000   0.000494  -0.000819   0.000469  -0.000003
    23  H    0.000000  -0.000000   0.000247  -0.001140   0.002642  -0.000095
    24  H    0.000000   0.000000  -0.000001   0.000003  -0.000007  -0.000326
    25  H    0.000000   0.000000   0.000114  -0.000003  -0.000323  -0.000053
    26  H   -0.000000   0.000000  -0.001524   0.000467  -0.000195   0.002628
    27  H   -0.000000  -0.000000  -0.002819   0.000518  -0.000037   0.000686
              19         20         21         22         23         24
     1  C   -0.000000   0.000000  -0.000000  -0.000004  -0.000001  -0.000000
     2  C   -0.000009   0.000000  -0.000008   0.000013   0.000021  -0.000004
     3  O   -0.000000   0.000000  -0.000000  -0.000034   0.000000  -0.000001
     4  O   -0.000052   0.000009  -0.000049  -0.000095   0.000112  -0.000007
     5  C    0.000943  -0.000989   0.000798   0.002889  -0.004352   0.000412
     6  C   -0.008457   0.009510  -0.010269  -0.012136  -0.001224   0.009053
     7  N   -0.017619  -0.020371  -0.017305  -0.019170  -0.017837  -0.020068
     8  C    0.385715   0.352620   0.386320   0.008835  -0.004744  -0.003706
     9  C   -0.004655  -0.005330   0.009426   0.391063   0.379471   0.344278
    10  C    0.009477  -0.006097  -0.004104  -0.005575   0.010806  -0.000150
    11  Cl   0.000697   0.046438   0.000667   0.000589   0.000691   0.047691
    12  H   -0.000000   0.000000   0.000000   0.000000  -0.000000   0.000000
    13  H    0.000000  -0.000000   0.000000   0.000000   0.000000   0.000000
    14  H    0.000000  -0.000000  -0.000000   0.000000  -0.000000   0.000000
    15  H   -0.000027   0.000016   0.000057   0.000494   0.000247  -0.000001
    16  H    0.000029   0.000011  -0.000033  -0.000819  -0.001140   0.000003
    17  H    0.004524   0.000023  -0.000708   0.000469   0.002642  -0.000007
    18  H   -0.001092   0.000089   0.004638  -0.000003  -0.000095  -0.000326
    19  H    0.477314  -0.018548  -0.020949   0.000073   0.002252  -0.000615
    20  H   -0.018548   0.515529  -0.018358   0.000453  -0.000366  -0.001904
    21  H   -0.020949  -0.018358   0.476768  -0.000386   0.000029   0.000478
    22  H    0.000073   0.000453  -0.000386   0.471240  -0.020538  -0.017632
    23  H    0.002252  -0.000366   0.000029  -0.020538   0.476735  -0.016948
    24  H   -0.000615  -0.001904   0.000478  -0.017632  -0.016948   0.515370
    25  H    0.000492  -0.001599  -0.000682  -0.000846   0.000315  -0.002890
    26  H    0.000020  -0.000383   0.002264   0.000112  -0.000416   0.000289
    27  H   -0.000379   0.000439   0.000053   0.001650   0.000062  -0.000907
              25         26         27
     1  C   -0.000000  -0.000000   0.000002
     2  C   -0.000004   0.000011   0.000058
     3  O   -0.000001   0.000000  -0.000000
     4  O   -0.000009   0.000134  -0.000001
     5  C    0.000286  -0.005213   0.005219
     6  C    0.008975   0.000190  -0.015347
     7  N   -0.019881  -0.017314  -0.018890
     8  C   -0.003290  -0.004122   0.008639
     9  C   -0.001107   0.010614  -0.003813
    10  C    0.344882   0.376588   0.391719
    11  Cl   0.047033   0.000705   0.000508
    12  H    0.000000   0.000000  -0.000000
    13  H    0.000000  -0.000000  -0.000000
    14  H    0.000000   0.000000  -0.000000
    15  H    0.000114  -0.001524  -0.002819
    16  H   -0.000003   0.000467   0.000518
    17  H   -0.000323  -0.000195  -0.000037
    18  H   -0.000053   0.002628   0.000686
    19  H    0.000492   0.000020  -0.000379
    20  H   -0.001599  -0.000383   0.000439
    21  H   -0.000682   0.002264   0.000053
    22  H   -0.000846   0.000112   0.001650
    23  H    0.000315  -0.000416   0.000062
    24  H   -0.002890   0.000289  -0.000907
    25  H    0.513981  -0.016634  -0.017729
    26  H   -0.016634   0.475931  -0.020474
    27  H   -0.017729  -0.020474   0.468099
 Mulliken charges:
               1
     1  C   -0.439033
     2  C    0.280501
     3  O   -0.370819
     4  O   -0.180611
     5  C   -0.191528
     6  C   -0.157615
     7  N   -0.196580
     8  C   -0.250912
     9  C   -0.276749
    10  C   -0.283012
    11  Cl  -0.876868
    12  H    0.175588
    13  H    0.186550
    14  H    0.168846
    15  H    0.190976
    16  H    0.186225
    17  H    0.207110
    18  H    0.207638
    19  H    0.190865
    20  H    0.148808
    21  H    0.191354
    22  H    0.199358
    23  H    0.194276
    24  H    0.147593
    25  H    0.148973
    26  H    0.196322
    27  H    0.202743
 Sum of Mulliken charges =  -0.00000
 Mulliken charges with hydrogens summed into heavy atoms:
               1
     1  C    0.091950
     2  C    0.280501
     3  O   -0.370819
     4  O   -0.180611
     5  C    0.185673
     6  C    0.257133
     7  N   -0.196580
     8  C    0.280114
     9  C    0.264479
    10  C    0.265026
    11  Cl  -0.876868
 Electronic spatial extent (au):  <R**2>=           4180.4176
 Charge=              0.0000 electrons
 Dipole moment (field-independent basis, Debye):
    X=            -16.4320    Y=              6.8346    Z=             -0.2336  Tot=             17.7982
 Quadrupole moment (field-independent basis, Debye-Ang):
   XX=           -164.1533   YY=            -77.9413   ZZ=            -70.0633
   XY=              3.1399   XZ=             -0.5924   YZ=             -0.0659
 Traceless Quadrupole moment (field-independent basis, Debye-Ang):
   XX=            -60.1007   YY=             26.1114   ZZ=             33.9893
   XY=              3.1399   XZ=             -0.5924   YZ=             -0.0659
 Octapole moment (field-independent basis, Debye-Ang**2):
  XXX=           -576.7191  YYY=             23.9069  ZZZ=             -1.1438  XYY=              8.2529
  XXY=            111.0417  XXZ=             -2.9883  XZZ=            -12.7882  YZZ=              4.0017
  YYZ=              0.1767  XYZ=              0.8841
 Hexadecapole moment (field-independent basis, Debye-Ang**3):
 XXXX=          -6959.7108 YYYY=           -437.1011 ZZZZ=           -239.1984 XXXY=            116.4709
 XXXZ=            -16.2480 YYYX=              0.6361 YYYZ=              0.6098 ZZZX=              1.9891
 ZZZY=             -0.1964 XXYY=          -1005.7467 XXZZ=           -856.0227 YYZZ=           -104.9135
 XXYZ=             -2.3568 YYXZ=             -2.6275 ZZXY=              5.9453
 N-N= 7.178244638897D+02 E-N=-3.650955301376D+03  KE= 9.383169500583D+02
 Unable to Open any file for archive entry.
 1\1\GINC-TCN980\SP\RBP86\TZVP\C7H16Cl1N1O2\ELENAA\21-Aug-2021\0\\# BP8
 6/TZVP SCRF=COSMORS geom=CHECKPOINT guess=CHECKPOINT\\COSMO-file for #
 JUGOREOARAHOCO-UHFFFAOYSA-M\\0,1\C,0,-4.6883153752,-1.9973056401,0.184
 7810558\C,0,-3.2481921415,-1.6895553628,0.4945656979\O,0,-2.5782863125
 ,-2.1806343674,1.387264022\O,0,-2.7474833903,-0.7694559203,-0.38657656
 97\C,0,-1.350818844,-0.4239359368,-0.1978086419\C,0,-1.0838211039,0.59
 94474865,-1.2971566924\N,0,0.3163441016,1.1882217341,-1.2887521407\C,0
 ,0.4294736234,2.1390260863,-2.4627442704\C,0,0.5817712043,1.9671305673
 ,-0.0192204845\C,0,1.3699109821,0.1133654684,-1.4407708401\Cl,0,3.8359
 978612,2.7935010233,-1.4106105662\H,0,-5.2587037373,-1.071438333,0.031
 3362425\H,0,-4.7404711543,-2.5792354738,-0.7477684528\H,0,-5.122767023
 5,-2.5824019415,1.0019920168\H,0,-0.7331559687,-1.3267829147,-0.302163
 3396\H,0,-1.2083723075,-0.0110492409,0.8106925574\H,0,-1.7816289142,1.
 4411702826,-1.1993379454\H,0,-1.2270771916,0.1355679507,-2.2817158618\
 H,0,-0.3272920648,2.9235177355,-2.3495496819\H,0,1.4431730722,2.563986
 7748,-2.4442236092\H,0,0.2576565268,1.5745325086,-3.3860274326\H,0,0.5
 734819626,1.2818195695,0.8340190282\H,0,-0.2000818658,2.7266580964,0.0
 933354292\H,0,1.5733841865,2.429991218,-0.1245376686\H,0,2.3403712964,
 0.6215215043,-1.5318181823\H,0,1.1433169728,-0.4733319123,-2.338242424
 6\H,0,1.3632345463,-0.5277862755,-0.553350588\\Version=ES64L-G16RevC.0
 1\State=1-A\HF=-942.0407706\RMSD=4.261e-09\Dipole=-6.5626553,-2.378173
 8,-0.5557559\Quadrupole=-24.1155301,5.2475306,18.8679996,-28.9509584,1
 0.0117274,9.5255158\PG=C01 [X(C7H16Cl1N1O2)]\\@
 The archive entry for this job was punched.


 SATCHEL PAIGE'S GUIDE TO LONGEVITY

    1.  AVOID FRIED MEATS, WHICH ANGRY UP THE BLOOD.

    2.  IF YOUR STOMACH DISPUTES YOU, LIE DOWN AND PACIFY IT WITH COOL
        THOUGHTS.

    3.  KEEP THE JUICES FLOWING BY JANGLING AROUND GENTLY AS YOU MOVE.

    4.  GO VERY LIGHT ON THE VICES, SUCH AS CARRYING ON IN SOCIETY.
        THE SOCIAL RUMBLE AIN'T RESTFUL.

    5.  AVOID RUNNING AT ALL TIMES.

    6.  DON'T LOOK BACK.  SOMETHING MAY BE GAINING ON YOU.
 Job cpu time:       0 days  0 hours  9 minutes 24.6 seconds.
 Elapsed time:       0 days  0 hours  0 minutes 24.3 seconds.
 File lengths (MBytes):  RWF=     80 Int=      0 D2E=      0 Chk=     11 Scr=      1
 Normal termination of Gaussian 16 at Sat Aug 21 09:45:26 2021.
