 Entering Gaussian System, Link 0=g16
 Input=KDYFGRWQOYBRFD-UHFFFAOYSA-N.gjf
 Output=KDYFGRWQOYBRFD-UHFFFAOYSA-N.log
 Initial command:
 /sw/arch/RedHatEnterpriseServer7/EB_production/2019/software/Gaussian/g16.c01/l1.exe "/scratch-local/elenaa.9715227/Gau-11146.inp" -scrdir="/scratch-local/elenaa.9715227/"
 Entering Link 1 = /sw/arch/RedHatEnterpriseServer7/EB_production/2019/software/Gaussian/g16.c01/l1.exe PID=     11149.
  
 Copyright (c) 1988-2019, Gaussian, Inc.  All Rights Reserved.
  
 This is part of the Gaussian(R) 16 program.  It is based on
 the Gaussian(R) 09 system (copyright 2009, Gaussian, Inc.),
 the Gaussian(R) 03 system (copyright 2003, Gaussian, Inc.),
 the Gaussian(R) 98 system (copyright 1998, Gaussian, Inc.),
 the Gaussian(R) 94 system (copyright 1995, Gaussian, Inc.),
 the Gaussian 92(TM) system (copyright 1992, Gaussian, Inc.),
 the Gaussian 90(TM) system (copyright 1990, Gaussian, Inc.),
 the Gaussian 88(TM) system (copyright 1988, Gaussian, Inc.),
 the Gaussian 86(TM) system (copyright 1986, Carnegie Mellon
 University), and the Gaussian 82(TM) system (copyright 1983,
 Carnegie Mellon University). Gaussian is a federally registered
 trademark of Gaussian, Inc.
  
 This software contains proprietary and confidential information,
 including trade secrets, belonging to Gaussian, Inc.
  
 This software is provided under written license and may be
 used, copied, transmitted, or stored only in accord with that
 written license.
  
 The following legend is applicable only to US Government
 contracts under FAR:
  
                    RESTRICTED RIGHTS LEGEND
  
 Use, reproduction and disclosure by the US Government is
 subject to restrictions as set forth in subparagraphs (a)
 and (c) of the Commercial Computer Software - Restricted
 Rights clause in FAR 52.227-19.
  
 Gaussian, Inc.
 340 Quinnipiac St., Bldg. 40, Wallingford CT 06492
  
  
 ---------------------------------------------------------------
 Warning -- This program may not be used in any manner that
 competes with the business of Gaussian, Inc. or will provide
 assistance to any competitor of Gaussian, Inc.  The licensee
 of this program is prohibited from giving any competitor of
 Gaussian, Inc. access to this program.  By using this program,
 the user acknowledges that Gaussian, Inc. is engaged in the
 business of creating and licensing software in the field of
 computational chemistry and represents and warrants to the
 licensee that it is not a competitor of Gaussian, Inc. and that
 it will not use this program in any manner prohibited above.
 ---------------------------------------------------------------
  

 Cite this work as:
 Gaussian 16, Revision C.01,
 M. J. Frisch, G. W. Trucks, H. B. Schlegel, G. E. Scuseria, 
 M. A. Robb, J. R. Cheeseman, G. Scalmani, V. Barone, 
 G. A. Petersson, H. Nakatsuji, X. Li, M. Caricato, A. V. Marenich, 
 J. Bloino, B. G. Janesko, R. Gomperts, B. Mennucci, H. P. Hratchian, 
 J. V. Ortiz, A. F. Izmaylov, J. L. Sonnenberg, D. Williams-Young, 
 F. Ding, F. Lipparini, F. Egidi, J. Goings, B. Peng, A. Petrone, 
 T. Henderson, D. Ranasinghe, V. G. Zakrzewski, J. Gao, N. Rega, 
 G. Zheng, W. Liang, M. Hada, M. Ehara, K. Toyota, R. Fukuda, 
 J. Hasegawa, M. Ishida, T. Nakajima, Y. Honda, O. Kitao, H. Nakai, 
 T. Vreven, K. Throssell, J. A. Montgomery, Jr., J. E. Peralta, 
 F. Ogliaro, M. J. Bearpark, J. J. Heyd, E. N. Brothers, K. N. Kudin, 
 V. N. Staroverov, T. A. Keith, R. Kobayashi, J. Normand, 
 K. Raghavachari, A. P. Rendell, J. C. Burant, S. S. Iyengar, 
 J. Tomasi, M. Cossi, J. M. Millam, M. Klene, C. Adamo, R. Cammi, 
 J. W. Ochterski, R. L. Martin, K. Morokuma, O. Farkas, 
 J. B. Foresman, and D. J. Fox, Gaussian, Inc., Wallingford CT, 2019.
 
 ******************************************
 Gaussian 16:  ES64L-G16RevC.01  3-Jul-2019
                22-Feb-2021 
 ******************************************
 %chk=KDYFGRWQOYBRFD-UHFFFAOYSA-N.chk
 %NProcShared=32
 Will use up to   32 processors via shared memory.
 -------------------------------------------------------------
 #P BP86/TZVP EmpiricalDispersion=GD3 SCRF=(Solvent=Water) Opt
 -------------------------------------------------------------
 1/18=20,19=15,26=3,38=1/1,3;
 2/9=110,12=2,17=6,18=5,40=1/2;
 3/5=19,7=101,11=2,25=1,30=1,70=2201,71=1,72=1,74=404,124=31/1,2,3;
 4//1;
 5/5=2,38=5,53=1/2;
 6/7=2,8=2,9=2,10=2,28=1/1;
 7//1,2,3,16;
 1/18=20,19=15,26=3/3(2);
 2/9=110/2;
 99//99;
 2/9=110/2;
 3/5=19,7=101,11=2,25=1,30=1,70=2205,71=1,72=1,74=404,124=31/1,2,3;
 4/5=5,16=3,69=1/1;
 5/5=2,38=5,53=1/2;
 7//1,2,3,16;
 1/18=20,19=15,26=3/3(-5);
 2/9=110/2;
 6/7=2,8=2,9=2,10=2,19=2,28=1/1;
 99/9=1/99;
 Leave Link    1 at Mon Feb 22 21:11:36 2021, MaxMem=           0 cpu:               2.0 elap:               0.1
 (Enter /sw/arch/RedHatEnterpriseServer7/EB_production/2019/software/Gaussian/g16.c01/l101.exe)
 -------------------------------------
 Particle #KDYFGRWQOYBRFD-UHFFFAOYSA-N
 -------------------------------------
 Symbolic Z-matrix:
 Charge =  0 Multiplicity = 1
 O                    -0.0222    0.24362   2.45262 
 C                    -0.43823  -0.75224   1.81982 
 O                    -0.68889  -1.89105   2.50584 
 C                    -0.66326  -0.68586   0.36171 
 C                     0.6501   -0.45451  -0.43305 
 C                     0.43435  -0.44592  -1.89375 
 O                    -0.25852   0.44694  -2.4338 
 O                     0.99222  -1.3924   -2.68479 
 H                    -0.54315  -1.91886   3.47459 
 H                    -1.11851  -1.62294   0.02883 
 H                    -1.37125   0.12269   0.16032 
 H                     1.36081  -1.24607  -0.18039 
 H                     1.09841   0.50086  -0.14687 
 H                     0.85417  -1.36627  -3.65536 
 
 ITRead=  0  0  0  0  0  0  0  0  0  0  0  0  0  0
 MicOpt= -1 -1 -1 -1 -1 -1 -1 -1 -1 -1 -1 -1 -1 -1
 NAtoms=     14 NQM=       14 NQMF=       0 NMMI=      0 NMMIF=      0
                NMic=       0 NMicF=      0.
                    Isotopes and Nuclear Properties:
 (Nuclear quadrupole moments (NQMom) in fm**2, nuclear magnetic moments (NMagM)
  in nuclear magnetons)

  Atom         1           2           3           4           5           6           7           8           9          10
 IAtWgt=          16          12          16          12          12          12          16          16           1           1
 AtmWgt=  15.9949146  12.0000000  15.9949146  12.0000000  12.0000000  12.0000000  15.9949146  15.9949146   1.0078250   1.0078250
 NucSpn=           0           0           0           0           0           0           0           0           1           1
 AtZEff=  -0.0000000  -0.0000000  -0.0000000  -0.0000000  -0.0000000  -0.0000000  -0.0000000  -0.0000000  -0.0000000  -0.0000000
 NQMom=    0.0000000   0.0000000   0.0000000   0.0000000   0.0000000   0.0000000   0.0000000   0.0000000   0.0000000   0.0000000
 NMagM=    0.0000000   0.0000000   0.0000000   0.0000000   0.0000000   0.0000000   0.0000000   0.0000000   2.7928460   2.7928460
 AtZNuc=   8.0000000   6.0000000   8.0000000   6.0000000   6.0000000   6.0000000   8.0000000   8.0000000   1.0000000   1.0000000

  Atom        11          12          13          14
 IAtWgt=           1           1           1           1
 AtmWgt=   1.0078250   1.0078250   1.0078250   1.0078250
 NucSpn=           1           1           1           1
 AtZEff=  -0.0000000  -0.0000000  -0.0000000  -0.0000000
 NQMom=    0.0000000   0.0000000   0.0000000   0.0000000
 NMagM=    2.7928460   2.7928460   2.7928460   2.7928460
 AtZNuc=   1.0000000   1.0000000   1.0000000   1.0000000
 Leave Link  101 at Mon Feb 22 21:11:36 2021, MaxMem=   104857600 cpu:               2.5 elap:               0.1
 (Enter /sw/arch/RedHatEnterpriseServer7/EB_production/2019/software/Gaussian/g16.c01/l103.exe)

 GradGradGradGradGradGradGradGradGradGradGradGradGradGradGradGradGradGrad
 Berny optimization.
 Initialization pass.
                           ----------------------------
                           !    Initial Parameters    !
                           ! (Angstroms and Degrees)  !
 --------------------------                            --------------------------
 ! Name  Definition              Value          Derivative Info.                !
 --------------------------------------------------------------------------------
 ! R1    R(1,2)                  1.2511         estimate D2E/DX2                !
 ! R2    R(2,3)                  1.3529         estimate D2E/DX2                !
 ! R3    R(2,4)                  1.4769         estimate D2E/DX2                !
 ! R4    R(3,9)                  0.98           estimate D2E/DX2                !
 ! R5    R(4,5)                  1.5524         estimate D2E/DX2                !
 ! R6    R(4,10)                 1.0937         estimate D2E/DX2                !
 ! R7    R(4,11)                 1.0934         estimate D2E/DX2                !
 ! R8    R(5,6)                  1.4766         estimate D2E/DX2                !
 ! R9    R(5,12)                 1.0934         estimate D2E/DX2                !
 ! R10   R(5,13)                 1.0934         estimate D2E/DX2                !
 ! R11   R(6,7)                  1.2526         estimate D2E/DX2                !
 ! R12   R(6,8)                  1.3538         estimate D2E/DX2                !
 ! R13   R(8,14)                 0.9807         estimate D2E/DX2                !
 ! A1    A(1,2,3)              118.3698         estimate D2E/DX2                !
 ! A2    A(1,2,4)              120.9482         estimate D2E/DX2                !
 ! A3    A(3,2,4)              120.6796         estimate D2E/DX2                !
 ! A4    A(2,3,9)              119.8389         estimate D2E/DX2                !
 ! A5    A(2,4,5)              112.5341         estimate D2E/DX2                !
 ! A6    A(2,4,10)             108.9904         estimate D2E/DX2                !
 ! A7    A(2,4,11)             108.2849         estimate D2E/DX2                !
 ! A8    A(5,4,10)             108.9057         estimate D2E/DX2                !
 ! A9    A(5,4,11)             110.0777         estimate D2E/DX2                !
 ! A10   A(10,4,11)            107.9386         estimate D2E/DX2                !
 ! A11   A(4,5,6)              112.5626         estimate D2E/DX2                !
 ! A12   A(4,5,12)             108.8878         estimate D2E/DX2                !
 ! A13   A(4,5,13)             110.0644         estimate D2E/DX2                !
 ! A14   A(6,5,12)             109.1342         estimate D2E/DX2                !
 ! A15   A(6,5,13)             108.2845         estimate D2E/DX2                !
 ! A16   A(12,5,13)            107.7914         estimate D2E/DX2                !
 ! A17   A(5,6,7)              120.7633         estimate D2E/DX2                !
 ! A18   A(5,6,8)              120.9139         estimate D2E/DX2                !
 ! A19   A(7,6,8)              118.3184         estimate D2E/DX2                !
 ! A20   A(6,8,14)             120.1089         estimate D2E/DX2                !
 ! D1    D(1,2,3,9)              0.0096         estimate D2E/DX2                !
 ! D2    D(4,2,3,9)           -179.4292         estimate D2E/DX2                !
 ! D3    D(1,2,4,5)             64.7358         estimate D2E/DX2                !
 ! D4    D(1,2,4,10)          -174.3487         estimate D2E/DX2                !
 ! D5    D(1,2,4,11)           -57.1706         estimate D2E/DX2                !
 ! D6    D(3,2,4,5)           -115.84           estimate D2E/DX2                !
 ! D7    D(3,2,4,10)             5.0754         estimate D2E/DX2                !
 ! D8    D(3,2,4,11)           122.2536         estimate D2E/DX2                !
 ! D9    D(2,4,5,6)            177.5387         estimate D2E/DX2                !
 ! D10   D(2,4,5,12)            56.387          estimate D2E/DX2                !
 ! D11   D(2,4,5,13)           -61.5676         estimate D2E/DX2                !
 ! D12   D(10,4,5,6)            56.5747         estimate D2E/DX2                !
 ! D13   D(10,4,5,12)          -64.577          estimate D2E/DX2                !
 ! D14   D(10,4,5,13)          177.4684         estimate D2E/DX2                !
 ! D15   D(11,4,5,6)           -61.5769         estimate D2E/DX2                !
 ! D16   D(11,4,5,12)          177.2714         estimate D2E/DX2                !
 ! D17   D(11,4,5,13)           59.3167         estimate D2E/DX2                !
 ! D18   D(4,5,6,7)             64.8471         estimate D2E/DX2                !
 ! D19   D(4,5,6,8)           -115.9299         estimate D2E/DX2                !
 ! D20   D(12,5,6,7)          -174.142          estimate D2E/DX2                !
 ! D21   D(12,5,6,8)             5.081          estimate D2E/DX2                !
 ! D22   D(13,5,6,7)           -57.0606         estimate D2E/DX2                !
 ! D23   D(13,5,6,8)           122.1625         estimate D2E/DX2                !
 ! D24   D(5,6,8,14)          -178.917          estimate D2E/DX2                !
 ! D25   D(7,6,8,14)             0.3246         estimate D2E/DX2                !
 --------------------------------------------------------------------------------
 Trust Radius=3.00D-01 FncErr=1.00D-07 GrdErr=1.00D-06 EigMax=2.50D+02 EigMin=1.00D-04
 Number of steps in this run=     68 maximum allowed number of steps=    100.
 GradGradGradGradGradGradGradGradGradGradGradGradGradGradGradGradGradGrad

 Leave Link  103 at Mon Feb 22 21:11:36 2021, MaxMem=   104857600 cpu:               0.4 elap:               0.0
 (Enter /sw/arch/RedHatEnterpriseServer7/EB_production/2019/software/Gaussian/g16.c01/l202.exe)
                          Input orientation:                          
 ---------------------------------------------------------------------
 Center     Atomic      Atomic             Coordinates (Angstroms)
 Number     Number       Type             X           Y           Z
 ---------------------------------------------------------------------
      1          8           0       -0.022200    0.243620    2.452620
      2          6           0       -0.438230   -0.752240    1.819820
      3          8           0       -0.688890   -1.891050    2.505840
      4          6           0       -0.663260   -0.685860    0.361710
      5          6           0        0.650100   -0.454510   -0.433050
      6          6           0        0.434350   -0.445920   -1.893750
      7          8           0       -0.258520    0.446940   -2.433800
      8          8           0        0.992220   -1.392400   -2.684790
      9          1           0       -0.543150   -1.918860    3.474590
     10          1           0       -1.118510   -1.622940    0.028830
     11          1           0       -1.371250    0.122690    0.160320
     12          1           0        1.360810   -1.246070   -0.180390
     13          1           0        1.098410    0.500860   -0.146870
     14          1           0        0.854170   -1.366270   -3.655360
 ---------------------------------------------------------------------
                    Distance matrix (angstroms):
                    1          2          3          4          5
     1  O    0.000000
     2  C    1.251101   0.000000
     3  O    2.236990   1.352901   0.000000
     4  C    2.376299   1.476865   2.459763   0.000000
     5  C    3.044087   2.519629   3.534631   1.552443   0.000000
     6  C    4.424346   3.826987   4.765130   2.519805   1.476572
     7  O    4.896354   4.423077   5.481921   3.043341   2.375122
     8  O    5.486218   4.769434   5.478816   3.538499   2.463131
     9  H    2.447883   2.027381   0.980046   3.350334   4.340255
    10  H    3.249723   2.104411   2.528247   1.093700   2.169457
    11  H    2.662555   2.095225   3.165790   1.093417   2.184286
    12  H    3.326355   2.735188   3.439927   2.169001   1.093395
    13  H    2.842409   2.792739   3.994064   2.184134   1.093441
    14  H    6.377083   5.659057   6.373132   4.347689   3.355031
                    6          7          8          9         10
     6  C    0.000000
     7  O    1.252566   0.000000
     8  O    1.353805   2.238419   0.000000
     9  H    5.651914   6.370800   6.369653   0.000000
    10  H    2.737346   3.329945   3.445586   3.505976   0.000000
    11  H    2.793334   2.841261   3.997016   3.979706   1.768726
    12  H    2.105747   3.250595   2.535605   4.175714   2.516512
    13  H    2.094984   2.659740   3.168083   4.654539   3.075082
    14  H    2.031394   2.453165   0.980687   7.286566   4.186956
                   11         12         13         14
    11  H    0.000000
    12  H    3.074693   0.000000
    13  H    2.517260   1.766845   0.000000
    14  H    4.661428   3.513766   3.981875   0.000000
 Stoichiometry    C4H6O4
 Framework group  C1[X(C4H6O4)]
 Deg. of freedom    36
 Full point group                 C1      NOp   1
 Largest Abelian subgroup         C1      NOp   1
 Largest concise Abelian subgroup C1      NOp   1
                         Standard orientation:                         
 ---------------------------------------------------------------------
 Center     Atomic      Atomic             Coordinates (Angstroms)
 Number     Number       Type             X           Y           Z
 ---------------------------------------------------------------------
      1          8           0       -2.379343   -1.006126   -0.581714
      2          6           0       -1.912310   -0.052337    0.079664
      3          8           0       -2.716534    1.003865    0.340437
      4          6           0       -0.521575   -0.081118    0.575806
      5          6           0        0.520684   -0.080786   -0.574749
      6          6           0        1.911370   -0.050984   -0.079398
      7          8           0        2.377071   -1.008348    0.580525
      8          8           0        2.719919    1.003221   -0.339564
      9          1           0       -3.640008    1.006339    0.012291
     10          1           0       -0.351231    0.794573    1.208522
     11          1           0       -0.396696   -0.973518    1.195151
     12          1           0        0.347378    0.792775   -1.209075
     13          1           0        0.396143   -0.973333   -1.193992
     14          1           0        3.646493    1.003613   -0.018306
 ---------------------------------------------------------------------
 Rotational constants (GHZ):           5.1309532           0.8908951           0.8299243
 Leave Link  202 at Mon Feb 22 21:11:36 2021, MaxMem=   104857600 cpu:               0.7 elap:               0.1
 (Enter /sw/arch/RedHatEnterpriseServer7/EB_production/2019/software/Gaussian/g16.c01/l301.exe)
 Standard basis: TZVP (5D, 7F)
 Ernie: Thresh=  0.10000D-02 Tol=  0.10000D-05 Strict=F.
 There are   196 symmetry adapted cartesian basis functions of A   symmetry.
 There are   188 symmetry adapted basis functions of A   symmetry.
   188 basis functions,   328 primitive gaussians,   196 cartesian basis functions
    31 alpha electrons       31 beta electrons
       nuclear repulsion energy       362.0631491760 Hartrees.
 IExCor=  404 DFT=T Ex=B Corr=P86 ExCW=0 ScaHFX=  0.000000
 ScaDFX=  1.000000  1.000000  1.000000  1.000000 ScalE2=  1.000000  1.000000
 IRadAn=      5 IRanWt=     -1 IRanGd=            0 ICorTp=0 IEmpDi=131
 NAtoms=   14 NActive=   14 NUniq=   14 SFac= 1.00D+00 NAtFMM=   60 NAOKFM=F Big=F
 Integral buffers will be    131072 words long.
 Raffenetti 2 integral format.
 Two-electron integral symmetry is turned on.
 R6Disp:  Grimme-D3 Dispersion energy=       -0.0111809610 Hartrees.
 Nuclear repulsion after empirical dispersion term =      362.0519682150 Hartrees.
 ------------------------------------------------------------------------------
 Polarizable Continuum Model (PCM)
 =================================
 Model                : PCM.
 Atomic radii         : UFF (Universal Force Field).
 Polarization charges : Total charges.
 Charge compensation  : None.
 Solution method      : On-the-fly selection.
 Cavity type          : Scaled VdW (van der Waals Surface) (Alpha=1.100).
 Cavity algorithm     : GePol (No added spheres)
                        Default sphere list used, NSphG=   14.
                        Lebedev-Laikov grids with approx.  5.0 points / Ang**2.
                        Smoothing algorithm: York/Karplus (Gamma=1.0000).
                        Polarization charges: spherical gaussians, with
                                              point-specific exponents (IZeta= 3).
                        Self-potential: point-specific (ISelfS= 7).
                        Self-field    : sphere-specific E.n sum rule (ISelfD= 2).
 1st derivatives      : Analytical E(r).r(x)/FMM algorithm (CHGder, D1EAlg=3).
                        Cavity 1st derivative terms included.
 Solvent              : Water, Eps=  78.355300 Eps(inf)=   1.777849
 ------------------------------------------------------------------------------
 Spheres list:
 ISph  on   Nord     Re0    Alpha      Xe            Ye            Ze
    1   O      1    1.7500  1.100     -2.379343     -1.006126     -0.581714
    2   C      2    1.9255  1.100     -1.912310     -0.052337      0.079664
    3   O      3    1.7500  1.100     -2.716534      1.003865      0.340437
    4   C      4    1.9255  1.100     -0.521575     -0.081118      0.575806
    5   C      5    1.9255  1.100      0.520684     -0.080786     -0.574749
    6   C      6    1.9255  1.100      1.911370     -0.050984     -0.079398
    7   O      7    1.7500  1.100      2.377071     -1.008348      0.580525
    8   O      8    1.7500  1.100      2.719919      1.003221     -0.339564
    9   H      9    1.4430  1.100     -3.640008      1.006339      0.012291
   10   H     10    1.4430  1.100     -0.351231      0.794573      1.208522
   11   H     11    1.4430  1.100     -0.396696     -0.973518      1.195151
   12   H     12    1.4430  1.100      0.347378      0.792775     -1.209075
   13   H     13    1.4430  1.100      0.396143     -0.973333     -1.193992
   14   H     14    1.4430  1.100      3.646493      1.003613     -0.018306
 ------------------------------------------------------------------------------
 GePol: Number of generator spheres                  =      14
 GePol: Total number of spheres                      =      14
 GePol: Number of exposed spheres                    =      14 (100.00%)
 GePol: Number of points                             =    1340
 GePol: Average weight of points                     =       0.13
 GePol: Minimum weight of points                     =   0.13D-08
 GePol: Maximum weight of points                     =    0.20577
 GePol: Number of points with low weight             =      80
 GePol: Fraction of low-weight points (<1% of avg)   =       5.97%
 GePol: Cavity surface area                          =    177.187 Ang**2
 GePol: Cavity volume                                =    163.939 Ang**3
 Leave Link  301 at Mon Feb 22 21:11:37 2021, MaxMem=   104857600 cpu:               2.0 elap:               0.1
 (Enter /sw/arch/RedHatEnterpriseServer7/EB_production/2019/software/Gaussian/g16.c01/l302.exe)
 NPDir=0 NMtPBC=     1 NCelOv=     1 NCel=       1 NClECP=     1 NCelD=      1
         NCelK=      1 NCelE2=     1 NClLst=     1 CellRange=     0.0.
 One-electron integrals computed using PRISM.
 One-electron integral symmetry used in STVInt
 PrsmSu:  requested number of processors reduced to:  29 ShMem   1 Linda.
 NBasis=   188 RedAO= T EigKep=  1.91D-04  NBF=   188
 NBsUse=   188 1.00D-06 EigRej= -1.00D+00 NBFU=   188
 Precomputing XC quadrature grid using
 IXCGrd= 4 IRadAn=           5 IRanWt=          -1 IRanGd=           0 AccXCQ= 0.00D+00.
 Generated NRdTot=       0 NPtTot=           0 NUsed=           0 NTot=          32
 NSgBfM=   195   195   195   195   195 MxSgAt=    14 MxSgA2=    14.
 Leave Link  302 at Mon Feb 22 21:11:37 2021, MaxMem=   104857600 cpu:               5.4 elap:               0.2
 (Enter /sw/arch/RedHatEnterpriseServer7/EB_production/2019/software/Gaussian/g16.c01/l303.exe)
 DipDrv:  MaxL=1.
 Leave Link  303 at Mon Feb 22 21:11:37 2021, MaxMem=   104857600 cpu:               0.9 elap:               0.1
 (Enter /sw/arch/RedHatEnterpriseServer7/EB_production/2019/software/Gaussian/g16.c01/l401.exe)
 ExpMin= 9.52D-02 ExpMax= 2.70D+04 ExpMxC= 9.22D+02 IAcc=3 IRadAn=         5 AccDes= 0.00D+00
 Harris functional with IExCor=  404 and IRadAn=       5 diagonalized for initial guess.
 HarFok:  IExCor=  404 AccDes= 0.00D+00 IRadAn=         5 IDoV= 1 UseB2=F ITyADJ=14
 ICtDFT=  3500011 ScaDFX=  1.000000  1.000000  1.000000  1.000000
 FoFCou: FMM=F IPFlag=           0 FMFlag=      100000 FMFlg1=           0
         NFxFlg=           0 DoJE=T BraDBF=F KetDBF=T FulRan=T
         wScrn=  0.000000 ICntrl=       500 IOpCl=  0 I1Cent=   200000004 NGrid=           0
         NMat0=    1 NMatS0=      1 NMatT0=    0 NMatD0=    1 NMtDS0=    0 NMtDT0=    0
 Petite list used in FoFCou.
 Harris En= -457.267687582339    
 JPrj=0 DoOrth=F DoCkMO=F.
 Leave Link  401 at Mon Feb 22 21:11:38 2021, MaxMem=   104857600 cpu:               8.2 elap:               0.3
 (Enter /sw/arch/RedHatEnterpriseServer7/EB_production/2019/software/Gaussian/g16.c01/l502.exe)
 Integral symmetry usage will be decided dynamically.
 Closed shell SCF:
 Using DIIS extrapolation, IDIIS=  1040.
 NGot=   104857600 LenX=   104772114 LenY=   104733257
 Requested convergence on RMS density matrix=1.00D-08 within 128 cycles.
 Requested convergence on MAX density matrix=1.00D-06.
 Requested convergence on             energy=1.00D-06.
 No special actions if energy rises.
 Fock matrices will be formed incrementally for  20 cycles.

 Cycle   1  Pass 1  IDiag  1:
 FoFJK:  IHMeth= 1 ICntrl=     500 DoSepK=F KAlg= 0 I1Cent=           0 FoldK=F
 IRaf= 920000000 NMat=       1 IRICut=       1 DoRegI=T DoRafI=F ISym2E= 0 IDoP0=0 IntGTp=1.
 FoFCou: FMM=F IPFlag=           0 FMFlag=      100000 FMFlg1=           0
         NFxFlg=           0 DoJE=T BraDBF=F KetDBF=F FulRan=T
         wScrn=  0.000000 ICntrl=       500 IOpCl=  0 I1Cent=           0 NGrid=           0
         NMat0=    1 NMatS0=      1 NMatT0=    0 NMatD0=    1 NMtDS0=    0 NMtDT0=    0
 Symmetry not used in FoFCou.
 Inv3:  Mode=1 IEnd=     5386800.
 Iteration    1 A*A^-1 deviation from unit magnitude is 2.66D-15 for    190.
 Iteration    1 A*A^-1 deviation from orthogonality  is 1.78D-15 for   1101    585.
 Iteration    1 A^-1*A deviation from unit magnitude is 2.89D-15 for    190.
 Iteration    1 A^-1*A deviation from orthogonality  is 2.53D-13 for   1294   1275.
 E= -456.905620273952    
 DIIS: error= 3.52D-02 at cycle   1 NSaved=   1.
 NSaved= 1 IEnMin= 1 EnMin= -456.905620273952     IErMin= 1 ErrMin= 3.52D-02
 ErrMax= 3.52D-02  0.00D+00 EMaxC= 1.00D-01 BMatC= 3.29D-01 BMatP= 3.29D-01
 IDIUse=3 WtCom= 6.48D-01 WtEn= 3.52D-01
 Coeff-Com:  0.100D+01
 Coeff-En:   0.100D+01
 Coeff:      0.100D+01
 Gap=     0.043 Goal=   None    Shift=    0.000
 GapD=    0.043 DampG=0.250 DampE=0.500 DampFc=0.2500 IDamp=-1.
 Damping current iteration by 2.50D-01
 RMSDP=1.01D-02 MaxDP=4.31D-01              OVMax= 3.44D-01

 Cycle   2  Pass 1  IDiag  1:
 RMSU=  2.52D-03    CP:  1.00D+00
 E= -456.984564722858     Delta-E=       -0.078944448906 Rises=F Damp=T
 DIIS: error= 1.11D-02 at cycle   2 NSaved=   2.
 NSaved= 2 IEnMin= 2 EnMin= -456.984564722858     IErMin= 2 ErrMin= 1.11D-02
 ErrMax= 1.11D-02  0.00D+00 EMaxC= 1.00D-01 BMatC= 3.42D-02 BMatP= 3.29D-01
 IDIUse=3 WtCom= 8.89D-01 WtEn= 1.11D-01
 Coeff-Com: -0.211D+00 0.121D+01
 Coeff-En:   0.138D+00 0.862D+00
 Coeff:     -0.172D+00 0.117D+01
 Gap=     0.145 Goal=   None    Shift=    0.000
 RMSDP=2.14D-03 MaxDP=4.60D-02 DE=-7.89D-02 OVMax= 3.03D-01

 Cycle   3  Pass 1  IDiag  1:
 RMSU=  2.14D-03    CP:  9.96D-01  9.84D-01
 E= -457.071624003852     Delta-E=       -0.087059280994 Rises=F Damp=F
 DIIS: error= 2.39D-02 at cycle   3 NSaved=   3.
 NSaved= 3 IEnMin= 3 EnMin= -457.071624003852     IErMin= 2 ErrMin= 1.11D-02
 ErrMax= 2.39D-02  0.00D+00 EMaxC= 1.00D-01 BMatC= 1.05D-01 BMatP= 3.42D-02
 IDIUse=2 WtCom= 0.00D+00 WtEn= 1.00D+00
 EnCoef did     6 forward-backward iterations
 Coeff-En:   0.709D-01 0.576D-01 0.872D+00
 Coeff:      0.709D-01 0.576D-01 0.872D+00
 Gap=     0.110 Goal=   None    Shift=    0.000
 RMSDP=4.63D-03 MaxDP=7.89D-02 DE=-8.71D-02 OVMax= 3.64D-01

 Cycle   4  Pass 1  IDiag  1:
 RMSU=  1.99D-03    CP:  1.00D+00  1.91D+00 -6.21D-01
 E= -456.522127086478     Delta-E=        0.549496917374 Rises=F Damp=F
 DIIS: error= 7.19D-02 at cycle   4 NSaved=   4.
 NSaved= 4 IEnMin= 3 EnMin= -457.071624003852     IErMin= 2 ErrMin= 1.11D-02
 ErrMax= 7.19D-02  0.00D+00 EMaxC= 1.00D-01 BMatC= 8.19D-01 BMatP= 3.42D-02
 IDIUse=2 WtCom= 0.00D+00 WtEn= 1.00D+00
 EnCoef did     1 forward-backward iterations
 Coeff-En:   0.998D-02 0.000D+00 0.809D+00 0.181D+00
 Coeff:      0.998D-02 0.000D+00 0.809D+00 0.181D+00
 Gap=     0.143 Goal=   None    Shift=    0.000
 RMSDP=2.92D-03 MaxDP=7.55D-02 DE= 5.49D-01 OVMax= 2.06D-01

 Cycle   5  Pass 1  IDiag  1:
 RMSU=  4.02D-04    CP:  1.00D+00  9.87D-01  6.78D-02  5.59D-01
 E= -457.098184326345     Delta-E=       -0.576057239867 Rises=F Damp=F
 DIIS: error= 2.04D-02 at cycle   5 NSaved=   5.
 NSaved= 5 IEnMin= 5 EnMin= -457.098184326345     IErMin= 2 ErrMin= 1.11D-02
 ErrMax= 2.04D-02  0.00D+00 EMaxC= 1.00D-01 BMatC= 7.77D-02 BMatP= 3.42D-02
 IDIUse=2 WtCom= 0.00D+00 WtEn= 1.00D+00
 Coeff-En:   0.000D+00 0.000D+00 0.433D+00 0.000D+00 0.567D+00
 Coeff:      0.000D+00 0.000D+00 0.433D+00 0.000D+00 0.567D+00
 Gap=     0.160 Goal=   None    Shift=    0.000
 RMSDP=1.07D-03 MaxDP=2.47D-02 DE=-5.76D-01 OVMax= 7.73D-02

 Cycle   6  Pass 1  IDiag  1:
 RMSU=  2.69D-04    CP:  9.98D-01  1.01D+00  4.79D-01  2.92D-01  9.04D-01
 E= -457.153358461633     Delta-E=       -0.055174135288 Rises=F Damp=F
 DIIS: error= 4.17D-03 at cycle   6 NSaved=   6.
 NSaved= 6 IEnMin= 6 EnMin= -457.153358461633     IErMin= 6 ErrMin= 4.17D-03
 ErrMax= 4.17D-03  0.00D+00 EMaxC= 1.00D-01 BMatC= 4.52D-03 BMatP= 3.42D-02
 IDIUse=3 WtCom= 9.58D-01 WtEn= 4.17D-02
 Coeff-Com: -0.517D-01 0.925D-01 0.259D+00-0.446D-01 0.437D+00 0.308D+00
 Coeff-En:   0.000D+00 0.000D+00 0.000D+00 0.000D+00 0.000D+00 0.100D+01
 Coeff:     -0.496D-01 0.887D-01 0.248D+00-0.428D-01 0.418D+00 0.337D+00
 Gap=     0.163 Goal=   None    Shift=    0.000
 RMSDP=2.33D-04 MaxDP=5.71D-03 DE=-5.52D-02 OVMax= 1.60D-02

 Cycle   7  Pass 1  IDiag  1:
 RMSU=  8.49D-05    CP:  9.98D-01  9.72D-01  4.46D-01  3.30D-01  8.61D-01
                    CP:  3.95D-01
 E= -457.156377055995     Delta-E=       -0.003018594362 Rises=F Damp=F
 DIIS: error= 7.23D-04 at cycle   7 NSaved=   7.
 NSaved= 7 IEnMin= 7 EnMin= -457.156377055995     IErMin= 7 ErrMin= 7.23D-04
 ErrMax= 7.23D-04  0.00D+00 EMaxC= 1.00D-01 BMatC= 1.53D-04 BMatP= 4.52D-03
 IDIUse=3 WtCom= 9.93D-01 WtEn= 7.23D-03
 Coeff-Com: -0.848D-02 0.130D-01 0.722D-01-0.189D-01 0.146D+00 0.228D+00
 Coeff-Com:  0.568D+00
 Coeff-En:   0.000D+00 0.000D+00 0.000D+00 0.000D+00 0.000D+00 0.000D+00
 Coeff-En:   0.100D+01
 Coeff:     -0.842D-02 0.129D-01 0.717D-01-0.188D-01 0.145D+00 0.226D+00
 Coeff:      0.571D+00
 Gap=     0.163 Goal=   None    Shift=    0.000
 RMSDP=4.85D-05 MaxDP=9.88D-04 DE=-3.02D-03 OVMax= 2.35D-03

 Cycle   8  Pass 1  IDiag  1:
 RMSU=  2.51D-05    CP:  9.98D-01  9.75D-01  4.51D-01  3.22D-01  8.71D-01
                    CP:  4.61D-01  6.36D-01
 E= -457.156483380734     Delta-E=       -0.000106324738 Rises=F Damp=F
 DIIS: error= 1.57D-04 at cycle   8 NSaved=   8.
 NSaved= 8 IEnMin= 8 EnMin= -457.156483380734     IErMin= 8 ErrMin= 1.57D-04
 ErrMax= 1.57D-04  0.00D+00 EMaxC= 1.00D-01 BMatC= 9.12D-06 BMatP= 1.53D-04
 IDIUse=3 WtCom= 9.98D-01 WtEn= 1.57D-03
 Coeff-Com:  0.592D-02-0.959D-02 0.887D-02-0.220D-02 0.188D-01 0.889D-01
 Coeff-Com:  0.307D+00 0.583D+00
 Coeff-En:   0.000D+00 0.000D+00 0.000D+00 0.000D+00 0.000D+00 0.000D+00
 Coeff-En:   0.000D+00 0.100D+01
 Coeff:      0.591D-02-0.958D-02 0.885D-02-0.219D-02 0.188D-01 0.887D-01
 Coeff:      0.306D+00 0.583D+00
 Gap=     0.163 Goal=   None    Shift=    0.000
 RMSDP=1.69D-05 MaxDP=5.15D-04 DE=-1.06D-04 OVMax= 5.70D-04

 Cycle   9  Pass 1  IDiag  1:
 RMSU=  6.99D-06    CP:  9.98D-01  9.70D-01  4.52D-01  3.21D-01  8.67D-01
                    CP:  4.79D-01  6.92D-01  7.02D-01
 E= -457.156491026471     Delta-E=       -0.000007645737 Rises=F Damp=F
 DIIS: error= 4.04D-05 at cycle   9 NSaved=   9.
 NSaved= 9 IEnMin= 9 EnMin= -457.156491026471     IErMin= 9 ErrMin= 4.04D-05
 ErrMax= 4.04D-05  0.00D+00 EMaxC= 1.00D-01 BMatC= 3.46D-07 BMatP= 9.12D-06
 IDIUse=1 WtCom= 1.00D+00 WtEn= 0.00D+00
 Coeff-Com:  0.283D-02-0.417D-02 0.357D-02-0.942D-03 0.699D-02 0.380D-01
 Coeff-Com:  0.138D+00 0.282D+00 0.534D+00
 Coeff:      0.283D-02-0.417D-02 0.357D-02-0.942D-03 0.699D-02 0.380D-01
 Coeff:      0.138D+00 0.282D+00 0.534D+00
 Gap=     0.163 Goal=   None    Shift=    0.000
 RMSDP=3.85D-06 MaxDP=8.99D-05 DE=-7.65D-06 OVMax= 2.85D-04

 Cycle  10  Pass 1  IDiag  1:
 RMSU=  3.36D-06    CP:  9.98D-01  9.70D-01  4.52D-01  3.21D-01  8.67D-01
                    CP:  4.79D-01  6.95D-01  7.12D-01  7.56D-01
 E= -457.156491068001     Delta-E=       -0.000000041530 Rises=F Damp=F
 DIIS: error= 4.08D-05 at cycle  10 NSaved=  10.
 NSaved=10 IEnMin=10 EnMin= -457.156491068001     IErMin= 9 ErrMin= 4.04D-05
 ErrMax= 4.08D-05  0.00D+00 EMaxC= 1.00D-01 BMatC= 2.81D-07 BMatP= 3.46D-07
 IDIUse=1 WtCom= 1.00D+00 WtEn= 0.00D+00
 Coeff-Com:  0.967D-03-0.115D-02 0.123D-02-0.356D-03 0.192D-02 0.113D-01
 Coeff-Com:  0.443D-01 0.958D-01 0.475D+00 0.371D+00
 Coeff:      0.967D-03-0.115D-02 0.123D-02-0.356D-03 0.192D-02 0.113D-01
 Coeff:      0.443D-01 0.958D-01 0.475D+00 0.371D+00
 Gap=     0.163 Goal=   None    Shift=    0.000
 RMSDP=2.11D-06 MaxDP=4.79D-05 DE=-4.15D-08 OVMax= 1.71D-04

 Cycle  11  Pass 1  IDiag  1:
 RMSU=  7.04D-07    CP:  9.98D-01  9.70D-01  4.52D-01  3.21D-01  8.67D-01
                    CP:  4.79D-01  6.96D-01  7.11D-01  8.22D-01  4.28D-01
 E= -457.156491289836     Delta-E=       -0.000000221836 Rises=F Damp=F
 DIIS: error= 3.91D-06 at cycle  11 NSaved=  11.
 NSaved=11 IEnMin=11 EnMin= -457.156491289836     IErMin=11 ErrMin= 3.91D-06
 ErrMax= 3.91D-06  0.00D+00 EMaxC= 1.00D-01 BMatC= 3.20D-09 BMatP= 2.81D-07
 IDIUse=1 WtCom= 1.00D+00 WtEn= 0.00D+00
 Coeff-Com:  0.176D-03-0.172D-03 0.230D-03-0.528D-04 0.239D-03 0.105D-02
 Coeff-Com:  0.520D-02 0.946D-02 0.125D+00 0.132D+00 0.727D+00
 Coeff:      0.176D-03-0.172D-03 0.230D-03-0.528D-04 0.239D-03 0.105D-02
 Coeff:      0.520D-02 0.946D-02 0.125D+00 0.132D+00 0.727D+00
 Gap=     0.163 Goal=   None    Shift=    0.000
 RMSDP=3.11D-07 MaxDP=5.55D-06 DE=-2.22D-07 OVMax= 1.06D-05

 Cycle  12  Pass 1  IDiag  1:
 RMSU=  1.84D-07    CP:  9.98D-01  9.70D-01  4.52D-01  3.21D-01  8.67D-01
                    CP:  4.79D-01  6.96D-01  7.10D-01  8.23D-01  4.44D-01
                    CP:  7.63D-01
 E= -457.156491315753     Delta-E=       -0.000000025917 Rises=F Damp=F
 DIIS: error= 1.72D-06 at cycle  12 NSaved=  12.
 NSaved=12 IEnMin=12 EnMin= -457.156491315753     IErMin=12 ErrMin= 1.72D-06
 ErrMax= 1.72D-06  0.00D+00 EMaxC= 1.00D-01 BMatC= 6.52D-10 BMatP= 3.20D-09
 IDIUse=1 WtCom= 1.00D+00 WtEn= 0.00D+00
 Coeff-Com:  0.636D-04-0.523D-04 0.915D-04-0.168D-04 0.626D-04 0.707D-04
 Coeff-Com:  0.105D-02 0.899D-03 0.543D-01 0.647D-01 0.468D+00 0.411D+00
 Coeff:      0.636D-04-0.523D-04 0.915D-04-0.168D-04 0.626D-04 0.707D-04
 Coeff:      0.105D-02 0.899D-03 0.543D-01 0.647D-01 0.468D+00 0.411D+00
 Gap=     0.163 Goal=   None    Shift=    0.000
 RMSDP=9.33D-08 MaxDP=2.32D-06 DE=-2.59D-08 OVMax= 5.36D-06

 Cycle  13  Pass 1  IDiag  1:
 RMSU=  7.08D-08    CP:  9.98D-01  9.70D-01  4.52D-01  3.21D-01  8.67D-01
                    CP:  4.79D-01  6.96D-01  7.09D-01  8.24D-01  4.45D-01
                    CP:  7.83D-01  6.99D-01
 E= -457.156491304462     Delta-E=        0.000000011291 Rises=F Damp=F
 DIIS: error= 2.94D-07 at cycle  13 NSaved=  13.
 NSaved=13 IEnMin=12 EnMin= -457.156491315753     IErMin=13 ErrMin= 2.94D-07
 ErrMax= 2.94D-07  0.00D+00 EMaxC= 1.00D-01 BMatC= 3.89D-11 BMatP= 6.52D-10
 IDIUse=1 WtCom= 1.00D+00 WtEn= 0.00D+00
 Coeff-Com:  0.501D-05-0.935D-07 0.171D-04-0.256D-05 0.497D-05-0.109D-03
 Coeff-Com: -0.172D-03-0.866D-03 0.689D-02 0.107D-01 0.114D+00 0.213D+00
 Coeff-Com:  0.657D+00
 Coeff:      0.501D-05-0.935D-07 0.171D-04-0.256D-05 0.497D-05-0.109D-03
 Coeff:     -0.172D-03-0.866D-03 0.689D-02 0.107D-01 0.114D+00 0.213D+00
 Coeff:      0.657D+00
 Gap=     0.163 Goal=   None    Shift=    0.000
 RMSDP=3.15D-08 MaxDP=5.16D-07 DE= 1.13D-08 OVMax= 1.20D-06

 Cycle  14  Pass 1  IDiag  1:
 RMSU=  1.94D-08    CP:  9.98D-01  9.70D-01  4.52D-01  3.21D-01  8.67D-01
                    CP:  4.79D-01  6.96D-01  7.09D-01  8.23D-01  4.46D-01
                    CP:  8.01D-01  7.08D-01  7.68D-01
 E= -457.156491304490     Delta-E=       -0.000000000028 Rises=F Damp=F
 DIIS: error= 4.93D-08 at cycle  14 NSaved=  14.
 NSaved=14 IEnMin=12 EnMin= -457.156491315753     IErMin=14 ErrMin= 4.93D-08
 ErrMax= 4.93D-08  0.00D+00 EMaxC= 1.00D-01 BMatC= 4.90D-13 BMatP= 3.89D-11
 IDIUse=1 WtCom= 1.00D+00 WtEn= 0.00D+00
 Coeff-Com: -0.172D-06 0.632D-06 0.168D-05-0.113D-06-0.713D-06-0.204D-04
 Coeff-Com: -0.593D-04-0.166D-03-0.277D-03 0.191D-03 0.907D-02 0.319D-01
 Coeff-Com:  0.143D+00 0.817D+00
 Coeff:     -0.172D-06 0.632D-06 0.168D-05-0.113D-06-0.713D-06-0.204D-04
 Coeff:     -0.593D-04-0.166D-03-0.277D-03 0.191D-03 0.907D-02 0.319D-01
 Coeff:      0.143D+00 0.817D+00
 Gap=     0.163 Goal=   None    Shift=    0.000
 RMSDP=5.67D-09 MaxDP=1.29D-07 DE=-2.84D-11 OVMax= 1.89D-07

 Error on total polarization charges =  0.00897
 SCF Done:  E(RB-P86) =  -457.156491304     A.U. after   14 cycles
            NFock= 14  Conv=0.57D-08     -V/T= 2.0043
 KE= 4.551865049426D+02 PE=-1.797585211458D+03 EE= 5.231902469961D+02
 Leave Link  502 at Mon Feb 22 21:11:46 2021, MaxMem=   104857600 cpu:             254.7 elap:               8.2
 (Enter /sw/arch/RedHatEnterpriseServer7/EB_production/2019/software/Gaussian/g16.c01/l601.exe)
 Copying SCF densities to generalized density rwf, IOpCl= 0 IROHF=0.

 **********************************************************************

            Population analysis using the SCF Density.

 **********************************************************************

 Orbital symmetries:
       Occupied  (A) (A) (A) (A) (A) (A) (A) (A) (A) (A) (A) (A)
                 (A) (A) (A) (A) (A) (A) (A) (A) (A) (A) (A) (A)
                 (A) (A) (A) (A) (A) (A) (A)
       Virtual   (A) (A) (A) (A) (A) (A) (A) (A) (A) (A) (A) (A)
                 (A) (A) (A) (A) (A) (A) (A) (A) (A) (A) (A) (A)
                 (A) (A) (A) (A) (A) (A) (A) (A) (A) (A) (A) (A)
                 (A) (A) (A) (A) (A) (A) (A) (A) (A) (A) (A) (A)
                 (A) (A) (A) (A) (A) (A) (A) (A) (A) (A) (A) (A)
                 (A) (A) (A) (A) (A) (A) (A) (A) (A) (A) (A) (A)
                 (A) (A) (A) (A) (A) (A) (A) (A) (A) (A) (A) (A)
                 (A) (A) (A) (A) (A) (A) (A) (A) (A) (A) (A) (A)
                 (A) (A) (A) (A) (A) (A) (A) (A) (A) (A) (A) (A)
                 (A) (A) (A) (A) (A) (A) (A) (A) (A) (A) (A) (A)
                 (A) (A) (A) (A) (A) (A) (A) (A) (A) (A) (A) (A)
                 (A) (A) (A) (A) (A) (A) (A) (A) (A) (A) (A) (A)
                 (A) (A) (A) (A) (A) (A) (A) (A) (A) (A) (A) (A)
                 (A)
 The electronic state is 1-A.
 Alpha  occ. eigenvalues --  -18.82768 -18.82764 -18.76478 -18.76472 -10.04426
 Alpha  occ. eigenvalues --  -10.04394  -9.93573  -9.93559  -1.02329  -1.02239
 Alpha  occ. eigenvalues --   -0.92934  -0.92833  -0.75565  -0.67277  -0.59842
 Alpha  occ. eigenvalues --   -0.56684  -0.48550  -0.46164  -0.43414  -0.43288
 Alpha  occ. eigenvalues --   -0.42300  -0.40500  -0.40016  -0.35084  -0.35034
 Alpha  occ. eigenvalues --   -0.33898  -0.33777  -0.28932  -0.28819  -0.24399
 Alpha  occ. eigenvalues --   -0.24051
 Alpha virt. eigenvalues --   -0.07731  -0.05046   0.01379   0.01445   0.05402
 Alpha virt. eigenvalues --    0.06678   0.07260   0.08730   0.11140   0.11174
 Alpha virt. eigenvalues --    0.15254   0.16901   0.17054   0.18922   0.19517
 Alpha virt. eigenvalues --    0.20901   0.24826   0.25227   0.25876   0.27748
 Alpha virt. eigenvalues --    0.28403   0.29751   0.30077   0.32963   0.35794
 Alpha virt. eigenvalues --    0.35933   0.37548   0.37585   0.38748   0.39540
 Alpha virt. eigenvalues --    0.40264   0.41060   0.42943   0.43197   0.45232
 Alpha virt. eigenvalues --    0.45513   0.48147   0.48344   0.48553   0.49623
 Alpha virt. eigenvalues --    0.52685   0.53324   0.55921   0.57785   0.60199
 Alpha virt. eigenvalues --    0.61155   0.62221   0.64344   0.69661   0.75291
 Alpha virt. eigenvalues --    0.77648   0.86565   0.87960   1.05913   1.11043
 Alpha virt. eigenvalues --    1.16703   1.20187   1.22258   1.23901   1.25422
 Alpha virt. eigenvalues --    1.26939   1.29032   1.30715   1.32168   1.32266
 Alpha virt. eigenvalues --    1.32606   1.39069   1.39377   1.40401   1.43923
 Alpha virt. eigenvalues --    1.45529   1.48751   1.51525   1.52602   1.53240
 Alpha virt. eigenvalues --    1.54294   1.55649   1.56081   1.58886   1.68325
 Alpha virt. eigenvalues --    1.73236   1.75332   1.76992   1.79101   1.88194
 Alpha virt. eigenvalues --    1.89668   1.90665   1.91977   2.01983   2.04135
 Alpha virt. eigenvalues --    2.07927   2.11972   2.14559   2.16062   2.16090
 Alpha virt. eigenvalues --    2.18485   2.24646   2.27060   2.30656   2.36914
 Alpha virt. eigenvalues --    2.38958   2.42507   2.45655   2.47217   2.49819
 Alpha virt. eigenvalues --    2.50102   2.50522   2.51721   2.53761   2.54853
 Alpha virt. eigenvalues --    2.55727   2.56767   2.58008   2.58176   2.60389
 Alpha virt. eigenvalues --    2.61473   2.61833   2.62190   2.67291   2.67534
 Alpha virt. eigenvalues --    2.74751   2.76093   2.76435   2.77706   2.82119
 Alpha virt. eigenvalues --    2.87741   2.88369   2.90429   2.93331   2.97318
 Alpha virt. eigenvalues --    3.00991   3.02812   3.05282   3.06345   3.10341
 Alpha virt. eigenvalues --    3.11953   3.16194   3.24738   3.28792   3.28988
 Alpha virt. eigenvalues --    3.33320   3.44160   3.44636   3.82112   3.84130
 Alpha virt. eigenvalues --    3.99002   4.00339   4.17408   4.17625  21.62650
 Alpha virt. eigenvalues --   21.65973  21.77182  21.80103  43.02235  43.02594
 Alpha virt. eigenvalues --   43.11668  43.12433
          Condensed to atoms (all electrons):
               1          2          3          4          5          6
     1  O    8.005312   0.590292  -0.125997  -0.123524  -0.001811  -0.000598
     2  C    0.590292   4.839804   0.361878   0.099219  -0.011903  -0.018117
     3  O   -0.125997   0.361878   7.859239  -0.113204  -0.007583  -0.001398
     4  C   -0.123524   0.099219  -0.113204   5.504463   0.226236  -0.011384
     5  C   -0.001811  -0.011903  -0.007583   0.226236   5.503214   0.099560
     6  C   -0.000598  -0.018117  -0.001398  -0.011384   0.099560   4.839856
     7  O    0.000036  -0.000598  -0.000008  -0.002075  -0.123584   0.589528
     8  O   -0.000007  -0.001362  -0.000001  -0.007491  -0.112229   0.361454
     9  H    0.001905  -0.023200   0.292494   0.016766  -0.000484   0.000056
    10  H    0.008105  -0.025376   0.013388   0.352613  -0.030814   0.001875
    11  H   -0.004165  -0.017454  -0.000383   0.385558  -0.026874  -0.008515
    12  H   -0.001176   0.002032   0.001142  -0.030817   0.351860  -0.025103
    13  H    0.013004  -0.008452   0.001602  -0.026898   0.386506  -0.017974
    14  H   -0.000001   0.000055  -0.000000  -0.000473   0.016654  -0.023086
               7          8          9         10         11         12
     1  O    0.000036  -0.000007   0.001905   0.008105  -0.004165  -0.001176
     2  C   -0.000598  -0.001362  -0.023200  -0.025376  -0.017454   0.002032
     3  O   -0.000008  -0.000001   0.292494   0.013388  -0.000383   0.001142
     4  C   -0.002075  -0.007491   0.016766   0.352613   0.385558  -0.030817
     5  C   -0.123584  -0.112229  -0.000484  -0.030814  -0.026874   0.351860
     6  C    0.589528   0.361454   0.000056   0.001875  -0.008515  -0.025103
     7  O    8.006853  -0.125894  -0.000001  -0.001152   0.013087   0.008173
     8  O   -0.125894   7.859461  -0.000000   0.001111   0.001593   0.013335
     9  H   -0.000001  -0.000000   0.375250  -0.000732  -0.000394  -0.000167
    10  H   -0.001152   0.001111  -0.000732   0.527997  -0.013832  -0.002403
    11  H    0.013087   0.001593  -0.000394  -0.013832   0.470659   0.006278
    12  H    0.008173   0.013335  -0.000167  -0.002403   0.006278   0.528590
    13  H   -0.004308  -0.000397  -0.000033   0.006241  -0.002102  -0.014099
    14  H    0.001901   0.292383   0.000000  -0.000162  -0.000034  -0.000737
              13         14
     1  O    0.013004  -0.000001
     2  C   -0.008452   0.000055
     3  O    0.001602  -0.000000
     4  C   -0.026898  -0.000473
     5  C    0.386506   0.016654
     6  C   -0.017974  -0.023086
     7  O   -0.004308   0.001901
     8  O   -0.000397   0.292383
     9  H   -0.000033   0.000000
    10  H    0.006241  -0.000162
    11  H   -0.002102  -0.000034
    12  H   -0.014099  -0.000737
    13  H    0.470590  -0.000389
    14  H   -0.000389   0.374783
 Mulliken charges:
               1
     1  O   -0.361376
     2  C    0.213182
     3  O   -0.281167
     4  C   -0.268988
     5  C   -0.268747
     6  C    0.213846
     7  O   -0.361958
     8  O   -0.281957
     9  H    0.338540
    10  H    0.163142
    11  H    0.196577
    12  H    0.163093
    13  H    0.196707
    14  H    0.339106
 Sum of Mulliken charges =  -0.00000
 Mulliken charges with hydrogens summed into heavy atoms:
               1
     1  O   -0.361376
     2  C    0.213182
     3  O    0.057373
     4  C    0.090731
     5  C    0.091053
     6  C    0.213846
     7  O   -0.361958
     8  O    0.057149
 Electronic spatial extent (au):  <R**2>=           1307.1941
 Charge=             -0.0000 electrons
 Dipole moment (field-independent basis, Debye):
    X=              0.0037    Y=              4.0096    Z=             -0.0134  Tot=              4.0096
 Quadrupole moment (field-independent basis, Debye-Ang):
   XX=            -37.0956   YY=            -52.2843   ZZ=            -47.0484
   XY=              0.0042   XZ=             -3.9884   YZ=             -0.0130
 Traceless Quadrupole moment (field-independent basis, Debye-Ang):
   XX=              8.3805   YY=             -6.8081   ZZ=             -1.5723
   XY=              0.0042   XZ=             -3.9884   YZ=             -0.0130
 Octapole moment (field-independent basis, Debye-Ang**2):
  XXX=              0.4684  YYY=              6.7689  ZZZ=             -0.0175  XYY=             -0.0732
  XXY=             51.4246  XXZ=             -0.1496  XZZ=             -0.0050  YZZ=              1.4426
  YYZ=             -0.0194  XYZ=             14.1407
 Hexadecapole moment (field-independent basis, Debye-Ang**3):
 XXXX=           -831.3207 YYYY=           -213.4555 ZZZZ=           -119.9428 XXXY=              0.2276
 XXXZ=            -15.0792 YYYX=             -0.0412 YYYZ=             -0.0079 ZZZX=             -1.7794
 ZZZY=             -0.0044 XXYY=           -251.8690 XXZZ=           -243.8190 YYZZ=            -53.8458
 XXYZ=             -0.2022 YYXZ=             -2.5316 ZZXY=             -0.0091
 N-N= 3.620519682150D+02 E-N=-1.797585209636D+03  KE= 4.551865049426D+02
 No NMR shielding tensors so no spin-rotation constants.
 Leave Link  601 at Mon Feb 22 21:11:46 2021, MaxMem=   104857600 cpu:               6.3 elap:               0.3
 (Enter /sw/arch/RedHatEnterpriseServer7/EB_production/2019/software/Gaussian/g16.c01/l701.exe)
 ... and contract with generalized density number  0.
 Compute integral first derivatives.
 R6Disp: Adding Grimme-D3 dispersion energy 1st derivatives to the gradient.
 PrsmSu:  requested number of processors reduced to:  29 ShMem   1 Linda.
 D1PCM: PCM CHGder 1st derivatives, ID1Alg=3 FixD1E=F DoIter=F DoCFld=F I1PDM=0.
 GePol: Maximum number of non-zero 1st derivatives   =     210
 CoulSu:  requested number of processors reduced to:  29 ShMem   1 Linda.
 CoulSu:  requested number of processors reduced to:  30 ShMem   1 Linda.
 Leave Link  701 at Mon Feb 22 21:11:47 2021, MaxMem=   104857600 cpu:              21.4 elap:               0.8
 (Enter /sw/arch/RedHatEnterpriseServer7/EB_production/2019/software/Gaussian/g16.c01/l702.exe)
 L702 exits ... SP integral derivatives will be done elsewhere.
 Leave Link  702 at Mon Feb 22 21:11:47 2021, MaxMem=   104857600 cpu:               0.5 elap:               0.0
 (Enter /sw/arch/RedHatEnterpriseServer7/EB_production/2019/software/Gaussian/g16.c01/l703.exe)
 Integral derivatives from FoFJK, PRISM(SPDF).
 Compute integral first derivatives, UseDBF=F ICtDFT=           0.
 Calling FoFJK, ICntrl=      2527 FMM=F ISym2X=0 I1Cent= 0 IOpClX= 0 NMat=1 NMatS=1 NMatT=0.
 FoFJK:  IHMeth= 1 ICntrl=    2527 DoSepK=F KAlg= 0 I1Cent=           0 FoldK=F
 IRaf=         0 NMat=       1 IRICut=       1 DoRegI=T DoRafI=F ISym2E= 0 IDoP0=0 IntGTp=1.
 FoFCou: FMM=F IPFlag=           0 FMFlag=      100000 FMFlg1=         800
         NFxFlg=           0 DoJE=F BraDBF=F KetDBF=F FulRan=T
         wScrn=  0.000000 ICntrl=      2527 IOpCl=  0 I1Cent=           0 NGrid=           0
         NMat0=    1 NMatS0=      1 NMatT0=    0 NMatD0=    1 NMtDS0=    0 NMtDT0=    0
 Symmetry not used in FoFCou.
 Leave Link  703 at Mon Feb 22 21:11:48 2021, MaxMem=   104857600 cpu:              25.3 elap:               0.8
 (Enter /sw/arch/RedHatEnterpriseServer7/EB_production/2019/software/Gaussian/g16.c01/l716.exe)
 Dipole        = 1.44247194D-03 1.57750589D+00-5.25305269D-03
 ***** Axes restored to original set *****
 -------------------------------------------------------------------
 Center     Atomic                   Forces (Hartrees/Bohr)
 Number     Number              X              Y              Z
 -------------------------------------------------------------------
      1        8          -0.006659715   -0.015623701   -0.018672691
      2        6           0.024704185    0.042637374    0.067424959
      3        8          -0.013137917   -0.025945920   -0.032078386
      4        6          -0.005577526   -0.018855265   -0.018565641
      5        6           0.011072463   -0.018292583    0.017030852
      6        6          -0.037294065    0.041352996   -0.065023433
      7        8           0.011907061   -0.016091505    0.017701090
      8        8           0.020323067   -0.023857854    0.030107535
      9        1           0.004890802    0.017631914   -0.004024727
     10        1          -0.002892172   -0.002812029   -0.003207796
     11        1          -0.001590454    0.003336562    0.000283956
     12        1           0.003687443   -0.002457789    0.002831460
     13        1           0.000468026    0.003750178   -0.000087367
     14        1          -0.009901198    0.015227624    0.006280189
 -------------------------------------------------------------------
 Cartesian Forces:  Max     0.067424959 RMS     0.022729880
 Leave Link  716 at Mon Feb 22 21:11:48 2021, MaxMem=   104857600 cpu:               1.0 elap:               0.1
 (Enter /sw/arch/RedHatEnterpriseServer7/EB_production/2019/software/Gaussian/g16.c01/l103.exe)

 GradGradGradGradGradGradGradGradGradGradGradGradGradGradGradGradGradGrad
 Berny optimization.
 FormGI is forming the generalized inverse of G from B-inverse, IUseBI=4.
 Internal  Forces:  Max     0.034735850 RMS     0.012013944
 Search for a local minimum.
 Step number   1 out of a maximum of   68
 All quantities printed in internal units (Hartrees-Bohrs-Radians)
 RMS Force = .12014D-01 SwitMx=.10000D-02 MixMth= 1
 Mixed Optimization -- RFO/linear search
 Second derivative matrix not updated -- first step.
 ITU=  0
     Eigenvalues ---    0.00230   0.01072   0.01076   0.01371   0.01372
     Eigenvalues ---    0.02303   0.02315   0.04204   0.04212   0.05426
     Eigenvalues ---    0.05427   0.09486   0.09492   0.12857   0.12864
     Eigenvalues ---    0.16000   0.16000   0.21986   0.21991   0.24999
     Eigenvalues ---    0.24999   0.25000   0.25000   0.27444   0.34388
     Eigenvalues ---    0.34418   0.34421   0.34423   0.34931   0.34965
     Eigenvalues ---    0.51252   0.51376   0.54220   0.54409   0.82296
     Eigenvalues ---    0.82831
 RFO step:  Lambda=-3.06872160D-02 EMin= 2.30000000D-03
 Linear search not attempted -- first point.
 Maximum step size (   0.300) exceeded in Quadratic search.
    -- Step size scaled by   0.850
 Iteration  1 RMS(Cart)=  0.05447049 RMS(Int)=  0.00187762
 Iteration  2 RMS(Cart)=  0.00258633 RMS(Int)=  0.00014825
 Iteration  3 RMS(Cart)=  0.00000192 RMS(Int)=  0.00014824
 Iteration  4 RMS(Cart)=  0.00000000 RMS(Int)=  0.00014824
 ITry= 1 IFail=0 DXMaxC= 2.01D-01 DCOld= 1.00D+10 DXMaxT= 3.00D-01 DXLimC= 3.00D+00 Rises=F
 Variable       Old X    -DE/DX   Delta X   Delta X   Delta X     New X
                                 (Linear)    (Quad)   (Total)
    R1        2.36424  -0.02410   0.00000  -0.02385  -0.02385   2.34039
    R2        2.55661  -0.00978   0.00000  -0.01446  -0.01446   2.54215
    R3        2.79087   0.01313   0.00000   0.02938   0.02938   2.82025
    R4        1.85202  -0.00375   0.00000  -0.00586  -0.00586   1.84616
    R5        2.93369  -0.00434   0.00000  -0.01209  -0.01209   2.92160
    R6        2.06679   0.00459   0.00000   0.01042   0.01042   2.07721
    R7        2.06626   0.00345   0.00000   0.00781   0.00781   2.07407
    R8        2.79032   0.01309   0.00000   0.02926   0.02926   2.81958
    R9        2.06622   0.00483   0.00000   0.01096   0.01096   2.07717
   R10        2.06630   0.00345   0.00000   0.00782   0.00782   2.07412
   R11        2.36701  -0.02569   0.00000  -0.02559  -0.02559   2.34142
   R12        2.55832  -0.01093   0.00000  -0.01622  -0.01622   2.54210
   R13        1.85323  -0.00442   0.00000  -0.00692  -0.00692   1.84631
    A1        2.06594   0.02577   0.00000   0.07810   0.07808   2.14402
    A2        2.11094   0.00825   0.00000   0.02501   0.02499   2.13593
    A3        2.10626  -0.03402   0.00000  -0.10300  -0.10303   2.00323
    A4        2.09158  -0.03399   0.00000  -0.15153  -0.15153   1.94005
    A5        1.96409  -0.00824   0.00000  -0.02926  -0.02941   1.93469
    A6        1.90224   0.00471   0.00000   0.02803   0.02820   1.93044
    A7        1.88993   0.00101   0.00000  -0.00860  -0.00899   1.88094
    A8        1.90076   0.00240   0.00000   0.01431   0.01452   1.91528
    A9        1.92122   0.00159   0.00000  -0.00358  -0.00400   1.91722
   A10        1.88388  -0.00120   0.00000   0.00039   0.00042   1.88431
   A11        1.96459  -0.00815   0.00000  -0.02914  -0.02929   1.93529
   A12        1.90045   0.00242   0.00000   0.01449   0.01468   1.91513
   A13        1.92099   0.00160   0.00000  -0.00329  -0.00372   1.91727
   A14        1.90475   0.00456   0.00000   0.02695   0.02712   1.93187
   A15        1.88992   0.00092   0.00000  -0.00911  -0.00950   1.88042
   A16        1.88132  -0.00108   0.00000   0.00146   0.00150   1.88282
   A17        2.10772   0.00882   0.00000   0.02678   0.02674   2.13446
   A18        2.11035  -0.03474   0.00000  -0.10516  -0.10519   2.00515
   A19        2.06505   0.02592   0.00000   0.07856   0.07853   2.14357
   A20        2.09630  -0.03466   0.00000  -0.15451  -0.15451   1.94179
    D1        0.00017   0.00035   0.00000   0.00717   0.00731   0.00748
    D2       -3.13163  -0.00028   0.00000  -0.00596  -0.00610  -3.13773
    D3        1.12985  -0.00185   0.00000  -0.02889  -0.02866   1.10119
    D4       -3.04296  -0.00093   0.00000  -0.01049  -0.01050  -3.05346
    D5       -0.99781   0.00079   0.00000   0.00055   0.00047  -0.99735
    D6       -2.02179  -0.00111   0.00000  -0.01515  -0.01502  -2.03681
    D7        0.08858  -0.00019   0.00000   0.00325   0.00315   0.09173
    D8        2.13373   0.00152   0.00000   0.01429   0.01411   2.14784
    D9        3.09864   0.00389   0.00000   0.04720   0.04702  -3.13753
   D10        0.98414   0.00175   0.00000   0.02209   0.02202   1.00616
   D11       -1.07456   0.00069   0.00000   0.01361   0.01359  -1.06097
   D12        0.98742   0.00163   0.00000   0.02094   0.02086   1.00828
   D13       -1.12708  -0.00051   0.00000  -0.00417  -0.00413  -1.13122
   D14        3.09741  -0.00157   0.00000  -0.01265  -0.01257   3.08484
   D15       -1.07472   0.00073   0.00000   0.01400   0.01399  -1.06073
   D16        3.09397  -0.00141   0.00000  -0.01111  -0.01101   3.08296
   D17        1.03527  -0.00247   0.00000  -0.01959  -0.01944   1.01583
   D18        1.13180  -0.00193   0.00000  -0.03041  -0.03017   1.10162
   D19       -2.02336  -0.00102   0.00000  -0.01351  -0.01339  -2.03674
   D20       -3.03935  -0.00103   0.00000  -0.01247  -0.01246  -3.05181
   D21        0.08868  -0.00013   0.00000   0.00442   0.00432   0.09300
   D22       -0.99589   0.00070   0.00000  -0.00104  -0.00111  -0.99701
   D23        2.13214   0.00160   0.00000   0.01586   0.01567   2.14781
   D24       -3.12269  -0.00046   0.00000  -0.00931  -0.00948  -3.13217
   D25        0.00566   0.00031   0.00000   0.00684   0.00700   0.01267
         Item               Value     Threshold  Converged?
 Maximum Force            0.034736     0.000450     NO 
 RMS     Force            0.012014     0.000300     NO 
 Maximum Displacement     0.201066     0.001800     NO 
 RMS     Displacement     0.056169     0.001200     NO 
 Predicted change in Energy=-1.648546D-02
 Lowest energy point so far.  Saving SCF results.
 GradGradGradGradGradGradGradGradGradGradGradGradGradGradGradGradGradGrad

 Leave Link  103 at Mon Feb 22 21:11:48 2021, MaxMem=   104857600 cpu:               0.9 elap:               0.1
 (Enter /sw/arch/RedHatEnterpriseServer7/EB_production/2019/software/Gaussian/g16.c01/l202.exe)
                          Input orientation:                          
 ---------------------------------------------------------------------
 Center     Atomic      Atomic             Coordinates (Angstroms)
 Number     Number       Type             X           Y           Z
 ---------------------------------------------------------------------
      1          8           0        0.016253    0.245943    2.442965
      2          6           0       -0.417867   -0.733439    1.821528
      3          8           0       -0.700547   -1.907214    2.414856
      4          6           0       -0.663389   -0.701437    0.349799
      5          6           0        0.655394   -0.469933   -0.423162
      6          6           0        0.409992   -0.432204   -1.894417
      7          8           0       -0.295950    0.436430   -2.425743
      8          8           0        1.009369   -1.412737   -2.593645
      9          1           0       -0.524490   -1.868374    3.375019
     10          1           0       -1.130289   -1.638559    0.015017
     11          1           0       -1.364227    0.117984    0.144864
     12          1           0        1.377324   -1.259207   -0.170003
     13          1           0        1.093649    0.493428   -0.132398
     14          1           0        0.820828   -1.332691   -3.548960
 ---------------------------------------------------------------------
                    Distance matrix (angstroms):
                    1          2          3          4          5
     1  O    0.000000
     2  C    1.238480   0.000000
     3  O    2.269510   1.345248   0.000000
     4  C    2.395994   1.492412   2.391598   0.000000
     5  C    3.022526   2.501991   3.458135   1.546044   0.000000
     6  C    4.407697   3.818945   4.688153   2.502226   1.492058
     7  O    4.882425   4.407127   5.393307   3.022149   2.395179
     8  O    5.394900   4.689585   5.315393   3.459470   2.392734
     9  H    2.373071   1.926858   0.976943   3.245458   4.215916
    10  H    3.280371   2.142491   2.452769   1.099214   2.178612
    11  H    2.683909   2.105165   3.113641   1.097552   2.178800
    12  H    3.308413   2.732278   3.379195   2.178489   1.099193
    13  H    2.802593   2.758208   3.933284   2.178852   1.097577
    14  H    6.248408   5.543971   6.181566   4.219207   3.246896
                    6          7          8          9         10
     6  C    0.000000
     7  O    1.239026   0.000000
     8  O    1.345221   2.269684   0.000000
     9  H    5.541011   6.246055   6.179424   0.000000
    10  H    2.733806   3.310440   3.381457   3.421903   0.000000
    11  H    2.758482   2.801900   3.934017   3.883900   1.776803
    12  H    2.143191   3.280761   2.456218   4.068804   2.542885
    13  H    2.104493   2.682101   3.114211   4.527522   3.084315
    14  H    1.927998   2.374573   0.977027   7.073778   4.074598
                   11         12         13         14
    11  H    0.000000
    12  H    3.084136   0.000000
    13  H    2.501796   1.775842   0.000000
    14  H    4.530260   3.425265   3.883560   0.000000
 Stoichiometry    C4H6O4
 Framework group  C1[X(C4H6O4)]
 Deg. of freedom    36
 Full point group                 C1      NOp   1
 RotChk:  IX=0 Diff= 5.58D-03
 Largest Abelian subgroup         C1      NOp   1
 Largest concise Abelian subgroup C1      NOp   1
                         Standard orientation:                         
 ---------------------------------------------------------------------
 Center     Atomic      Atomic             Coordinates (Angstroms)
 Number     Number       Type             X           Y           Z
 ---------------------------------------------------------------------
      1          8           0       -2.364769   -1.007812   -0.607957
      2          6           0       -1.908524   -0.073333    0.064665
      3          8           0       -2.629529    1.017106    0.382136
      4          6           0       -0.508823   -0.070190    0.582468
      5          6           0        0.508540   -0.070226   -0.581673
      6          6           0        1.908225   -0.072748   -0.064843
      7          8           0        2.363916   -1.008340    0.607614
      8          8           0        2.630682    1.016849   -0.381785
      9          1           0       -3.535330    0.958349    0.020901
     10          1           0       -0.336411    0.804038    1.226108
     11          1           0       -0.375763   -0.972033    1.193692
     12          1           0        0.334341    0.802584   -1.226718
     13          1           0        0.375958   -0.972441   -1.192498
     14          1           0        3.538297    0.956073   -0.025241
 ---------------------------------------------------------------------
 Rotational constants (GHZ):           4.9799119           0.9187468           0.8560878
 Leave Link  202 at Mon Feb 22 21:11:48 2021, MaxMem=   104857600 cpu:               0.5 elap:               0.0
 (Enter /sw/arch/RedHatEnterpriseServer7/EB_production/2019/software/Gaussian/g16.c01/l301.exe)
 Standard basis: TZVP (5D, 7F)
 Ernie: Thresh=  0.10000D-02 Tol=  0.10000D-05 Strict=F.
 There are   196 symmetry adapted cartesian basis functions of A   symmetry.
 There are   188 symmetry adapted basis functions of A   symmetry.
   188 basis functions,   328 primitive gaussians,   196 cartesian basis functions
    31 alpha electrons       31 beta electrons
       nuclear repulsion energy       364.3620401439 Hartrees.
 IExCor=  404 DFT=T Ex=B Corr=P86 ExCW=0 ScaHFX=  0.000000
 ScaDFX=  1.000000  1.000000  1.000000  1.000000 ScalE2=  1.000000  1.000000
 IRadAn=      5 IRanWt=     -1 IRanGd=            0 ICorTp=0 IEmpDi=131
 NAtoms=   14 NActive=   14 NUniq=   14 SFac= 1.00D+00 NAtFMM=   60 NAOKFM=F Big=F
 Integral buffers will be    131072 words long.
 Raffenetti 2 integral format.
 Two-electron integral symmetry is turned on.
 R6Disp:  Grimme-D3 Dispersion energy=       -0.0113663578 Hartrees.
 Nuclear repulsion after empirical dispersion term =      364.3506737862 Hartrees.
 ------------------------------------------------------------------------------
 Polarizable Continuum Model (PCM)
 =================================
 Model                : PCM.
 Atomic radii         : UFF (Universal Force Field).
 Polarization charges : Total charges.
 Charge compensation  : None.
 Solution method      : On-the-fly selection.
 Cavity type          : Scaled VdW (van der Waals Surface) (Alpha=1.100).
 Cavity algorithm     : GePol (No added spheres)
                        Default sphere list used, NSphG=   14.
                        Lebedev-Laikov grids with approx.  5.0 points / Ang**2.
                        Smoothing algorithm: York/Karplus (Gamma=1.0000).
                        Polarization charges: spherical gaussians, with
                                              point-specific exponents (IZeta= 3).
                        Self-potential: point-specific (ISelfS= 7).
                        Self-field    : sphere-specific E.n sum rule (ISelfD= 2).
 1st derivatives      : Analytical E(r).r(x)/FMM algorithm (CHGder, D1EAlg=3).
                        Cavity 1st derivative terms included.
 Solvent              : Water, Eps=  78.355300 Eps(inf)=   1.777849
 ------------------------------------------------------------------------------
 Spheres list:
 ISph  on   Nord     Re0    Alpha      Xe            Ye            Ze
    1   O      1    1.7500  1.100     -2.364769     -1.007812     -0.607957
    2   C      2    1.9255  1.100     -1.908524     -0.073333      0.064665
    3   O      3    1.7500  1.100     -2.629529      1.017106      0.382136
    4   C      4    1.9255  1.100     -0.508823     -0.070190      0.582468
    5   C      5    1.9255  1.100      0.508540     -0.070226     -0.581673
    6   C      6    1.9255  1.100      1.908225     -0.072748     -0.064843
    7   O      7    1.7500  1.100      2.363916     -1.008340      0.607614
    8   O      8    1.7500  1.100      2.630682      1.016849     -0.381785
    9   H      9    1.4430  1.100     -3.535330      0.958349      0.020901
   10   H     10    1.4430  1.100     -0.336411      0.804038      1.226108
   11   H     11    1.4430  1.100     -0.375763     -0.972033      1.193692
   12   H     12    1.4430  1.100      0.334341      0.802584     -1.226718
   13   H     13    1.4430  1.100      0.375958     -0.972441     -1.192498
   14   H     14    1.4430  1.100      3.538297      0.956073     -0.025241
 ------------------------------------------------------------------------------
 GePol: Number of generator spheres                  =      14
 GePol: Total number of spheres                      =      14
 GePol: Number of exposed spheres                    =      14 (100.00%)
 GePol: Number of points                             =    1329
 GePol: Average weight of points                     =       0.13
 GePol: Minimum weight of points                     =   0.50D-08
 GePol: Maximum weight of points                     =    0.20577
 GePol: Number of points with low weight             =      84
 GePol: Fraction of low-weight points (<1% of avg)   =       6.32%
 GePol: Cavity surface area                          =    175.580 Ang**2
 GePol: Cavity volume                                =    163.227 Ang**3
 Leave Link  301 at Mon Feb 22 21:11:49 2021, MaxMem=   104857600 cpu:               1.8 elap:               0.1
 (Enter /sw/arch/RedHatEnterpriseServer7/EB_production/2019/software/Gaussian/g16.c01/l302.exe)
 NPDir=0 NMtPBC=     1 NCelOv=     1 NCel=       1 NClECP=     1 NCelD=      1
         NCelK=      1 NCelE2=     1 NClLst=     1 CellRange=     0.0.
 One-electron integrals computed using PRISM.
 One-electron integral symmetry used in STVInt
 PrsmSu:  requested number of processors reduced to:  29 ShMem   1 Linda.
 NBasis=   188 RedAO= T EigKep=  1.97D-04  NBF=   188
 NBsUse=   188 1.00D-06 EigRej= -1.00D+00 NBFU=   188
 Precomputing XC quadrature grid using
 IXCGrd= 4 IRadAn=           5 IRanWt=          -1 IRanGd=           0 AccXCQ= 0.00D+00.
 Generated NRdTot=       0 NPtTot=           0 NUsed=           0 NTot=          32
 NSgBfM=   195   195   195   195   195 MxSgAt=    14 MxSgA2=    14.
 Leave Link  302 at Mon Feb 22 21:11:49 2021, MaxMem=   104857600 cpu:               5.1 elap:               0.2
 (Enter /sw/arch/RedHatEnterpriseServer7/EB_production/2019/software/Gaussian/g16.c01/l303.exe)
 DipDrv:  MaxL=1.
 Leave Link  303 at Mon Feb 22 21:11:49 2021, MaxMem=   104857600 cpu:               2.4 elap:               0.1
 (Enter /sw/arch/RedHatEnterpriseServer7/EB_production/2019/software/Gaussian/g16.c01/l401.exe)
 Initial guess from the checkpoint file:  "KDYFGRWQOYBRFD-UHFFFAOYSA-N.chk"
 B after Tr=     0.000000    0.000000    0.000000
         Rot=    0.999998    0.000166   -0.001875   -0.000102 Ang=   0.22 deg.
 Guess basis will be translated and rotated to current coordinates.
 JPrj=2 DoOrth=T DoCkMO=T.
 Generating alternative initial guess.
 ExpMin= 9.52D-02 ExpMax= 2.70D+04 ExpMxC= 9.22D+02 IAcc=3 IRadAn=         5 AccDes= 0.00D+00
 Harris functional with IExCor=  404 and IRadAn=       5 diagonalized for initial guess.
 HarFok:  IExCor=  404 AccDes= 0.00D+00 IRadAn=         5 IDoV= 1 UseB2=F ITyADJ=14
 ICtDFT=  3500011 ScaDFX=  1.000000  1.000000  1.000000  1.000000
 FoFCou: FMM=F IPFlag=           0 FMFlag=      100000 FMFlg1=           0
         NFxFlg=           0 DoJE=T BraDBF=F KetDBF=T FulRan=T
         wScrn=  0.000000 ICntrl=       500 IOpCl=  0 I1Cent=   200000004 NGrid=           0
         NMat0=    1 NMatS0=      1 NMatT0=    0 NMatD0=    1 NMtDS0=    0 NMtDT0=    0
 Petite list used in FoFCou.
 Harris En= -457.279533876947    
 Leave Link  401 at Mon Feb 22 21:11:49 2021, MaxMem=   104857600 cpu:              10.3 elap:               0.4
 (Enter /sw/arch/RedHatEnterpriseServer7/EB_production/2019/software/Gaussian/g16.c01/l502.exe)
 Integral symmetry usage will be decided dynamically.
 Closed shell SCF:
 Using DIIS extrapolation, IDIIS=  1040.
 NGot=   104857600 LenX=   104772114 LenY=   104733257
 Requested convergence on RMS density matrix=1.00D-08 within 128 cycles.
 Requested convergence on MAX density matrix=1.00D-06.
 Requested convergence on             energy=1.00D-06.
 No special actions if energy rises.
 Fock matrices will be formed incrementally for  20 cycles.

 Cycle   1  Pass 1  IDiag  1:
 FoFJK:  IHMeth= 1 ICntrl=     500 DoSepK=F KAlg= 0 I1Cent=           0 FoldK=F
 IRaf= 920000000 NMat=       1 IRICut=       1 DoRegI=T DoRafI=F ISym2E= 0 IDoP0=0 IntGTp=1.
 FoFCou: FMM=F IPFlag=           0 FMFlag=      100000 FMFlg1=           0
         NFxFlg=           0 DoJE=T BraDBF=F KetDBF=F FulRan=T
         wScrn=  0.000000 ICntrl=       500 IOpCl=  0 I1Cent=           0 NGrid=           0
         NMat0=    1 NMatS0=      1 NMatT0=    0 NMatD0=    1 NMtDS0=    0 NMtDT0=    0
 Symmetry not used in FoFCou.
 Inv3:  Mode=1 IEnd=     5298723.
 Iteration    1 A*A^-1 deviation from unit magnitude is 3.44D-15 for    983.
 Iteration    1 A*A^-1 deviation from orthogonality  is 2.00D-15 for   1240    177.
 Iteration    1 A^-1*A deviation from unit magnitude is 3.11D-15 for    189.
 Iteration    1 A^-1*A deviation from orthogonality  is 1.39D-15 for    727     31.
 E= -457.167298533609    
 DIIS: error= 3.93D-03 at cycle   1 NSaved=   1.
 NSaved= 1 IEnMin= 1 EnMin= -457.167298533609     IErMin= 1 ErrMin= 3.93D-03
 ErrMax= 3.93D-03  0.00D+00 EMaxC= 1.00D-01 BMatC= 4.72D-03 BMatP= 4.72D-03
 IDIUse=3 WtCom= 9.61D-01 WtEn= 3.93D-02
 Coeff-Com:  0.100D+01
 Coeff-En:   0.100D+01
 Coeff:      0.100D+01
 Gap=     0.608 Goal=   None    Shift=    0.000
 GapD=    0.608 DampG=2.000 DampE=1.000 DampFc=2.0000 IDamp=-1.
 RMSDP=9.17D-04 MaxDP=1.51D-02              OVMax= 2.22D-02

 Cycle   2  Pass 1  IDiag  1:
 RMSU=  9.15D-04    CP:  9.97D-01
 E= -457.171675600491     Delta-E=       -0.004377066882 Rises=F Damp=F
 DIIS: error= 3.97D-03 at cycle   2 NSaved=   2.
 NSaved= 2 IEnMin= 2 EnMin= -457.171675600491     IErMin= 1 ErrMin= 3.93D-03
 ErrMax= 3.97D-03  0.00D+00 EMaxC= 1.00D-01 BMatC= 2.25D-03 BMatP= 4.72D-03
 IDIUse=3 WtCom= 9.60D-01 WtEn= 3.97D-02
 Coeff-Com:  0.356D+00 0.644D+00
 Coeff-En:   0.000D+00 0.100D+01
 Coeff:      0.342D+00 0.658D+00
 Gap=     0.171 Goal=   None    Shift=    0.000
 RMSDP=4.78D-04 MaxDP=9.72D-03 DE=-4.38D-03 OVMax= 3.52D-02

 Cycle   3  Pass 1  IDiag  1:
 RMSU=  4.59D-04    CP:  1.00D+00  8.66D-01
 E= -457.169058881449     Delta-E=        0.002616719042 Rises=F Damp=F
 DIIS: error= 6.25D-03 at cycle   3 NSaved=   3.
 NSaved= 3 IEnMin= 2 EnMin= -457.171675600491     IErMin= 1 ErrMin= 3.93D-03
 ErrMax= 6.25D-03  0.00D+00 EMaxC= 1.00D-01 BMatC= 5.71D-03 BMatP= 2.25D-03
 IDIUse=3 WtCom= 1.12D-01 WtEn= 8.88D-01
 Coeff-Com:  0.267D-01 0.603D+00 0.371D+00
 Coeff-En:   0.000D+00 0.660D+00 0.340D+00
 Coeff:      0.300D-02 0.654D+00 0.343D+00
 Gap=     0.176 Goal=   None    Shift=    0.000
 RMSDP=2.45D-04 MaxDP=4.90D-03 DE= 2.62D-03 OVMax= 1.95D-02

 Cycle   4  Pass 1  IDiag  1:
 RMSU=  5.87D-05    CP:  9.98D-01  9.29D-01  5.02D-01
 E= -457.173164008266     Delta-E=       -0.004105126816 Rises=F Damp=F
 DIIS: error= 9.86D-04 at cycle   4 NSaved=   4.
 NSaved= 4 IEnMin= 4 EnMin= -457.173164008266     IErMin= 4 ErrMin= 9.86D-04
 ErrMax= 9.86D-04  0.00D+00 EMaxC= 1.00D-01 BMatC= 1.61D-04 BMatP= 2.25D-03
 IDIUse=3 WtCom= 9.90D-01 WtEn= 9.86D-03
 Coeff-Com:  0.136D-02 0.339D+00 0.133D+00 0.527D+00
 Coeff-En:   0.000D+00 0.931D-01 0.000D+00 0.907D+00
 Coeff:      0.134D-02 0.336D+00 0.132D+00 0.531D+00
 Gap=     0.177 Goal=   None    Shift=    0.000
 RMSDP=6.39D-05 MaxDP=1.19D-03 DE=-4.11D-03 OVMax= 3.03D-03

 Cycle   5  Pass 1  IDiag  1:
 RMSU=  1.88D-05    CP:  9.98D-01  9.51D-01  3.87D-01  6.14D-01
 E= -457.173281003957     Delta-E=       -0.000116995692 Rises=F Damp=F
 DIIS: error= 1.02D-04 at cycle   5 NSaved=   5.
 NSaved= 5 IEnMin= 5 EnMin= -457.173281003957     IErMin= 5 ErrMin= 1.02D-04
 ErrMax= 1.02D-04  0.00D+00 EMaxC= 1.00D-01 BMatC= 2.37D-06 BMatP= 1.61D-04
 IDIUse=3 WtCom= 9.99D-01 WtEn= 1.02D-03
 Coeff-Com: -0.816D-04 0.125D+00 0.431D-01 0.266D+00 0.566D+00
 Coeff-En:   0.000D+00 0.000D+00 0.000D+00 0.000D+00 0.100D+01
 Coeff:     -0.815D-04 0.125D+00 0.431D-01 0.266D+00 0.566D+00
 Gap=     0.177 Goal=   None    Shift=    0.000
 RMSDP=9.00D-06 MaxDP=2.33D-04 DE=-1.17D-04 OVMax= 4.15D-04

 Cycle   6  Pass 1  IDiag  1:
 RMSU=  5.42D-06    CP:  9.98D-01  9.50D-01  3.92D-01  5.93D-01  6.62D-01
 E= -457.173282624704     Delta-E=       -0.000001620747 Rises=F Damp=F
 DIIS: error= 3.13D-05 at cycle   6 NSaved=   6.
 NSaved= 6 IEnMin= 6 EnMin= -457.173282624704     IErMin= 6 ErrMin= 3.13D-05
 ErrMax= 3.13D-05  0.00D+00 EMaxC= 1.00D-01 BMatC= 4.12D-07 BMatP= 2.37D-06
 IDIUse=1 WtCom= 1.00D+00 WtEn= 0.00D+00
 Coeff-Com: -0.120D-03 0.502D-01 0.158D-01 0.125D+00 0.367D+00 0.442D+00
 Coeff:     -0.120D-03 0.502D-01 0.158D-01 0.125D+00 0.367D+00 0.442D+00
 Gap=     0.177 Goal=   None    Shift=    0.000
 RMSDP=2.87D-06 MaxDP=5.46D-05 DE=-1.62D-06 OVMax= 1.68D-04

 Cycle   7  Pass 1  IDiag  1:
 RMSU=  1.84D-06    CP:  9.98D-01  9.50D-01  3.94D-01  6.07D-01  6.78D-01
                    CP:  6.94D-01
 E= -457.173282971738     Delta-E=       -0.000000347034 Rises=F Damp=F
 DIIS: error= 7.66D-06 at cycle   7 NSaved=   7.
 NSaved= 7 IEnMin= 7 EnMin= -457.173282971738     IErMin= 7 ErrMin= 7.66D-06
 ErrMax= 7.66D-06  0.00D+00 EMaxC= 1.00D-01 BMatC= 1.95D-08 BMatP= 4.12D-07
 IDIUse=1 WtCom= 1.00D+00 WtEn= 0.00D+00
 Coeff-Com: -0.528D-04 0.132D-01 0.343D-02 0.384D-01 0.131D+00 0.234D+00
 Coeff-Com:  0.581D+00
 Coeff:     -0.528D-04 0.132D-01 0.343D-02 0.384D-01 0.131D+00 0.234D+00
 Coeff:      0.581D+00
 Gap=     0.177 Goal=   None    Shift=    0.000
 RMSDP=6.83D-07 MaxDP=1.24D-05 DE=-3.47D-07 OVMax= 2.86D-05

 Cycle   8  Pass 1  IDiag  1:
 RMSU=  5.25D-07    CP:  9.98D-01  9.50D-01  3.94D-01  6.11D-01  6.87D-01
                    CP:  6.96D-01  8.21D-01
 E= -457.173282983725     Delta-E=       -0.000000011987 Rises=F Damp=F
 DIIS: error= 3.63D-06 at cycle   8 NSaved=   8.
 NSaved= 8 IEnMin= 8 EnMin= -457.173282983725     IErMin= 8 ErrMin= 3.63D-06
 ErrMax= 3.63D-06  0.00D+00 EMaxC= 1.00D-01 BMatC= 3.22D-09 BMatP= 1.95D-08
 IDIUse=1 WtCom= 1.00D+00 WtEn= 0.00D+00
 Coeff-Com: -0.263D-04 0.403D-02 0.749D-03 0.133D-01 0.495D-01 0.110D+00
 Coeff-Com:  0.359D+00 0.463D+00
 Coeff:     -0.263D-04 0.403D-02 0.749D-03 0.133D-01 0.495D-01 0.110D+00
 Coeff:      0.359D+00 0.463D+00
 Gap=     0.177 Goal=   None    Shift=    0.000
 RMSDP=3.29D-07 MaxDP=1.15D-05 DE=-1.20D-08 OVMax= 1.58D-05

 Cycle   9  Pass 1  IDiag  1:
 RMSU=  2.15D-07    CP:  9.98D-01  9.50D-01  3.94D-01  6.11D-01  6.91D-01
                    CP:  7.10D-01  7.95D-01  6.38D-01
 E= -457.173282986041     Delta-E=       -0.000000002316 Rises=F Damp=F
 DIIS: error= 1.82D-06 at cycle   9 NSaved=   9.
 NSaved= 9 IEnMin= 9 EnMin= -457.173282986041     IErMin= 9 ErrMin= 1.82D-06
 ErrMax= 1.82D-06  0.00D+00 EMaxC= 1.00D-01 BMatC= 5.44D-10 BMatP= 3.22D-09
 IDIUse=1 WtCom= 1.00D+00 WtEn= 0.00D+00
 Coeff-Com: -0.154D-04 0.200D-02 0.279D-03 0.694D-02 0.267D-01 0.633D-01
 Coeff-Com:  0.219D+00 0.330D+00 0.351D+00
 Coeff:     -0.154D-04 0.200D-02 0.279D-03 0.694D-02 0.267D-01 0.633D-01
 Coeff:      0.219D+00 0.330D+00 0.351D+00
 Gap=     0.177 Goal=   None    Shift=    0.000
 RMSDP=1.10D-07 MaxDP=2.51D-06 DE=-2.32D-09 OVMax= 8.25D-06

 Cycle  10  Pass 1  IDiag  1:
 RMSU=  8.45D-08    CP:  9.98D-01  9.50D-01  3.94D-01  6.11D-01  6.91D-01
                    CP:  7.12D-01  7.92D-01  6.72D-01  7.14D-01
 E= -457.173282986408     Delta-E=       -0.000000000367 Rises=F Damp=F
 DIIS: error= 4.92D-07 at cycle  10 NSaved=  10.
 NSaved=10 IEnMin=10 EnMin= -457.173282986408     IErMin=10 ErrMin= 4.92D-07
 ErrMax= 4.92D-07  0.00D+00 EMaxC= 1.00D-01 BMatC= 5.46D-11 BMatP= 5.44D-10
 IDIUse=1 WtCom= 1.00D+00 WtEn= 0.00D+00
 Coeff-Com: -0.265D-05 0.172D-03-0.583D-04 0.815D-03 0.378D-02 0.109D-01
 Coeff-Com:  0.456D-01 0.846D-01 0.241D+00 0.613D+00
 Coeff:     -0.265D-05 0.172D-03-0.583D-04 0.815D-03 0.378D-02 0.109D-01
 Coeff:      0.456D-01 0.846D-01 0.241D+00 0.613D+00
 Gap=     0.177 Goal=   None    Shift=    0.000
 RMSDP=3.81D-08 MaxDP=8.16D-07 DE=-3.67D-10 OVMax= 2.24D-06

 Cycle  11  Pass 1  IDiag  1:
 RMSU=  1.56D-08    CP:  9.98D-01  9.50D-01  3.94D-01  6.11D-01  6.91D-01
                    CP:  7.13D-01  8.00D-01  6.65D-01  7.33D-01  7.18D-01
 E= -457.173282986445     Delta-E=       -0.000000000038 Rises=F Damp=F
 DIIS: error= 3.71D-08 at cycle  11 NSaved=  11.
 NSaved=11 IEnMin=11 EnMin= -457.173282986445     IErMin=11 ErrMin= 3.71D-08
 ErrMax= 3.71D-08  0.00D+00 EMaxC= 1.00D-01 BMatC= 4.07D-13 BMatP= 5.46D-11
 IDIUse=1 WtCom= 1.00D+00 WtEn= 0.00D+00
 Coeff-Com: -0.327D-07-0.281D-04-0.227D-04-0.312D-04 0.814D-04 0.609D-03
 Coeff-Com:  0.477D-02 0.979D-02 0.497D-01 0.162D+00 0.773D+00
 Coeff:     -0.327D-07-0.281D-04-0.227D-04-0.312D-04 0.814D-04 0.609D-03
 Coeff:      0.477D-02 0.979D-02 0.497D-01 0.162D+00 0.773D+00
 Gap=     0.177 Goal=   None    Shift=    0.000
 RMSDP=4.90D-09 MaxDP=7.57D-08 DE=-3.79D-11 OVMax= 1.01D-07

 Error on total polarization charges =  0.00892
 SCF Done:  E(RB-P86) =  -457.173282986     A.U. after   11 cycles
            NFock= 11  Conv=0.49D-08     -V/T= 2.0041
 KE= 4.553008633438D+02 PE=-1.802163383287D+03 EE= 5.253385631709D+02
 Leave Link  502 at Mon Feb 22 21:11:56 2021, MaxMem=   104857600 cpu:             211.4 elap:               6.8
 (Enter /sw/arch/RedHatEnterpriseServer7/EB_production/2019/software/Gaussian/g16.c01/l701.exe)
 ... and contract with generalized density number  0.
 Compute integral first derivatives.
 R6Disp: Adding Grimme-D3 dispersion energy 1st derivatives to the gradient.
 PrsmSu:  requested number of processors reduced to:  29 ShMem   1 Linda.
 D1PCM: PCM CHGder 1st derivatives, ID1Alg=3 FixD1E=F DoIter=F DoCFld=F I1PDM=0.
 GePol: Maximum number of non-zero 1st derivatives   =     212
 CoulSu:  requested number of processors reduced to:  29 ShMem   1 Linda.
 CoulSu:  requested number of processors reduced to:  30 ShMem   1 Linda.
[...]
    13  H    2.802666   2.786269   4.045687   2.179311   1.101123
    14  H    6.018514   5.712143   6.790607   4.423333   3.217935
                    6          7          8          9         10
     6  C    0.000000
     7  O    1.220857   0.000000
     8  O    1.361871   2.270276   0.000000
     9  H    5.712143   6.018512   6.790606   0.000000
    10  H    2.786317   2.802703   4.045749   3.495745   0.000000
    11  H    2.786273   2.802692   4.045663   3.495755   1.754016
    12  H    2.128868   3.132232   2.597880   4.619343   2.553959
    13  H    2.128883   3.132289   2.597823   4.619293   3.098273
    14  H    1.904221   2.324384   0.981489   7.584026   4.619359
                   11         12         13         14
    11  H    0.000000
    12  H    3.098270   0.000000
    13  H    2.553960   1.754019   0.000000
    14  H    4.619276   3.495766   3.495736   0.000000
 Stoichiometry    C4H6O4
 Framework group  C1[X(C4H6O4)]
 Deg. of freedom    36
 Full point group                 C1      NOp   1
 Largest Abelian subgroup         C1      NOp   1
 Largest concise Abelian subgroup C1      NOp   1
                         Standard orientation:                         
 ---------------------------------------------------------------------
 Center     Atomic      Atomic             Coordinates (Angstroms)
 Number     Number       Type             X           Y           Z
 ---------------------------------------------------------------------
      1          8           0       -2.174963   -1.304916   -0.000028
      2          6           0       -1.932932   -0.108291    0.000007
      3          8           0       -2.906105    0.844405    0.000046
      4          6           0       -0.557544    0.519876   -0.000008
      5          6           0        0.557544   -0.519879   -0.000047
      6          6           0        1.932933    0.108291   -0.000012
      7          8           0        2.174961    1.304917   -0.000035
      8          8           0        2.906105   -0.844404    0.000064
      9          1           0       -3.772582    0.383387    0.000047
     10          1           0       -0.484153    1.181674   -0.876998
     11          1           0       -0.484110    1.181623    0.877017
     12          1           0        0.484148   -1.181607   -0.877091
     13          1           0        0.484116   -1.181690    0.876928
     14          1           0        3.772583   -0.383387    0.000078
 ---------------------------------------------------------------------
 Rotational constants (GHZ):           5.4331246           0.9165122           0.7918418
 Standard basis: TZVP (5D, 7F)
 There are   196 symmetry adapted cartesian basis functions of A   symmetry.
 There are   188 symmetry adapted basis functions of A   symmetry.
   188 basis functions,   328 primitive gaussians,   196 cartesian basis functions
    31 alpha electrons       31 beta electrons
       nuclear repulsion energy       363.1610005762 Hartrees.
 NAtoms=   14 NActive=   14 NUniq=   14 SFac= 1.00D+00 NAtFMM=   60 NAOKFM=F Big=F
 Integral buffers will be    131072 words long.
 Raffenetti 2 integral format.
 Two-electron integral symmetry is turned on.
 Warning! Using old PCM defaults because the COSMOthermo output has been requested.
 These settings can be overridden by following keywords.
 ------------------------------------------------------------------------------
 Polarizable Continuum Model (PCM)
 =================================
 Model                : C-PCM.
 Atomic radii         : Klamt.
 XCosmo               : -1.000 (infinite dielectric limit)
 Polarization charges : Electronic and nuclear charges.
 Charge compensation  : Type 3 (Electronic density weighted correction).
 Solution method      : On-the-fly selection.
 Cavity type          : VdW (van der Waals Surface) (Alpha=1.000).
 Cavity algorithm     : GePol (No added spheres)
                        Default sphere list used, NSphG=   14.
                        Tesserae with average area of 0.200 Ang**2.
                        Smoothing algorithm: None.
                        Polarization charges: point-like.
                        Self-potential: constant (ISelfS= 1).
                        Self-field    : global E.n sum rule (ISelfD= 3).
 Solvent              : Water, Eps=  78.355300 Eps(inf)=   1.777849
 ------------------------------------------------------------------------------
 Spheres list:
 ISph  on   Nord     Re0    Alpha      Xe            Ye            Ze
    1   O      1    1.7200  1.000     -2.174963     -1.304916     -0.000028
    2   C      2    2.0000  1.000     -1.932932     -0.108291      0.000007
    3   O      3    1.7200  1.000     -2.906105      0.844405      0.000046
    4   C      4    2.0000  1.000     -0.557544      0.519876     -0.000008
    5   C      5    2.0000  1.000      0.557544     -0.519879     -0.000047
    6   C      6    2.0000  1.000      1.932933      0.108291     -0.000012
    7   O      7    1.7200  1.000      2.174961      1.304917     -0.000035
    8   O      8    1.7200  1.000      2.906105     -0.844404      0.000064
    9   H      9    1.3000  1.000     -3.772582      0.383387      0.000047
   10   H     10    1.3000  1.000     -0.484153      1.181674     -0.876998
   11   H     11    1.3000  1.000     -0.484110      1.181623      0.877017
   12   H     12    1.3000  1.000      0.484148     -1.181607     -0.877091
   13   H     13    1.3000  1.000      0.484116     -1.181690      0.876928
   14   H     14    1.3000  1.000      3.772583     -0.383387      0.000078
 ------------------------------------------------------------------------------
 One-electron integrals computed using PRISM.
 PrsmSu:  requested number of processors reduced to:  29 ShMem   1 Linda.
 NBasis=   188 RedAO= T EigKep=  1.27D-04  NBF=   188
 NBsUse=   188 1.00D-06 EigRej= -1.00D+00 NBFU=   188
 Initial guess from the checkpoint file:  "KDYFGRWQOYBRFD-UHFFFAOYSA-N.chk"
 B after Tr=    -0.000000   -0.000000    0.000000
         Rot=    1.000000    0.000000    0.000000    0.000000 Ang=   0.00 deg.
 Requested convergence on RMS density matrix=1.00D-08 within 128 cycles.
 Requested convergence on MAX density matrix=1.00D-06.
 Requested convergence on             energy=1.00D-06.
 No special actions if energy rises.
 Inv3:  Mode=1 IEnd=     3358092.
 Iteration    1 A*A^-1 deviation from unit magnitude is 2.89D-15 for    380.
 Iteration    1 A*A^-1 deviation from orthogonality  is 2.22D-15 for    899    130.
 Iteration    1 A^-1*A deviation from unit magnitude is 2.89D-15 for    380.
 Iteration    1 A^-1*A deviation from orthogonality  is 2.89D-15 for    952    840.
 Error on nuclear    polarization charges =  0.01341
 Error on electronic polarization charges = -0.03674
 SCF Done:  E(RB-P86) =  -457.176974820     A.U. after   10 cycles
            NFock= 10  Conv=0.36D-08     -V/T= 2.0042
 --------------------------------------------------------------------
 Variational C-PCM results
 =========================
 <psi(f)|   H    |psi(f)>                     (a.u.) =    -457.152130
 <psi(f)|H+V(f)/2|psi(f)>                     (a.u.) =    -457.176975
 Total free energy in solution:
 - with all non electrostatic terms           (a.u.) =    -457.166632
 --------------------------------------------------------------------
 (Polarized solute)-Solvent               (kcal/mol) =     -15.59
 --------------------------------------------------------------------
 Cavitation energy                        (kcal/mol) =      19.26
 Dispersion energy                        (kcal/mol) =     -13.98
 Repulsion energy                         (kcal/mol) =       1.21
 Total non electrostatic                  (kcal/mol) =       6.49
 --------------------------------------------------------------------
 Partition over spheres:
 Sphere  on Atom  Surface  Charge   GEl     GCav    GDR
    1      O1      19.33   0.230   -2.96    2.40   -1.59
    2      C2      10.71  -0.039   -0.27    1.26   -0.74
    3      O3      15.89   0.088   -0.71    1.97   -1.44
    4      C4       8.10  -0.032   -0.26    0.95   -0.26
    5      C5       8.10  -0.032   -0.26    0.95   -0.26
    6      C6      10.71  -0.039   -0.27    1.26   -0.74
    7      O7      19.33   0.231   -2.96    2.40   -1.59
    8      O8      15.89   0.088   -0.71    1.97   -1.44
    9      H9       8.47  -0.152   -2.91    1.20   -0.88
   10      H10      6.55  -0.048   -0.34    0.92   -0.73
   11      H11      6.55  -0.048   -0.34    0.92   -0.74
   12      H12      6.55  -0.048   -0.34    0.92   -0.74
   13      H13      6.55  -0.048   -0.35    0.92   -0.73
   14      H14      8.47  -0.153   -2.91    1.20   -0.88
 --------------------------------------------------------------------
 - cavitation energy not included in the total energy.
 - dispersion energy not included in the total energy.
 - repulsion  energy not included in the total energy.
 After PCM corrections, the energy is  -457.176974820     a.u.
 --------------------------------------------------------------------
 Writing COSMO formatted file "KDYFGRWQOYBRFD-UHFFFAOYSA-N.cosmo"
 Recomputed dielectric energy= -0.024893 old= -0.024845 diff=-4.82D-05

 **********************************************************************

            Population analysis using the SCF Density.

 **********************************************************************

 Orbital symmetries:
       Occupied  (A) (A) (A) (A) (A) (A) (A) (A) (A) (A) (A) (A)
                 (A) (A) (A) (A) (A) (A) (A) (A) (A) (A) (A) (A)
                 (A) (A) (A) (A) (A) (A) (A)
       Virtual   (A) (A) (A) (A) (A) (A) (A) (A) (A) (A) (A) (A)
                 (A) (A) (A) (A) (A) (A) (A) (A) (A) (A) (A) (A)
                 (A) (A) (A) (A) (A) (A) (A) (A) (A) (A) (A) (A)
                 (A) (A) (A) (A) (A) (A) (A) (A) (A) (A) (A) (A)
                 (A) (A) (A) (A) (A) (A) (A) (A) (A) (A) (A) (A)
                 (A) (A) (A) (A) (A) (A) (A) (A) (A) (A) (A) (A)
                 (A) (A) (A) (A) (A) (A) (A) (A) (A) (A) (A) (A)
                 (A) (A) (A) (A) (A) (A) (A) (A) (A) (A) (A) (A)
                 (A) (A) (A) (A) (A) (A) (A) (A) (A) (A) (A) (A)
                 (A) (A) (A) (A) (A) (A) (A) (A) (A) (A) (A) (A)
                 (A) (A) (A) (A) (A) (A) (A) (A) (A) (A) (A) (A)
                 (A) (A) (A) (A) (A) (A) (A) (A) (A) (A) (A) (A)
                 (A) (A) (A) (A) (A) (A) (A) (A) (A) (A) (A) (A)
                 (A)
 The electronic state is 1-A.
 Alpha  occ. eigenvalues --  -18.82188 -18.82188 -18.77318 -18.77317 -10.03705
 Alpha  occ. eigenvalues --  -10.03704  -9.92031  -9.92020  -1.02496  -1.02436
 Alpha  occ. eigenvalues --   -0.94321  -0.94294  -0.74031  -0.65727  -0.57359
 Alpha  occ. eigenvalues --   -0.52448  -0.47422  -0.45151  -0.44842  -0.44035
 Alpha  occ. eigenvalues --   -0.41604  -0.41584  -0.36950  -0.36499  -0.35286
 Alpha  occ. eigenvalues --   -0.34533  -0.32039  -0.29488  -0.29486  -0.25671
 Alpha  occ. eigenvalues --   -0.24805
 Alpha virt. eigenvalues --   -0.05250  -0.04496   0.02064   0.02964   0.05101
 Alpha virt. eigenvalues --    0.07477   0.08400   0.11957   0.13117   0.13964
 Alpha virt. eigenvalues --    0.14674   0.14818   0.17144   0.18741   0.20730
 Alpha virt. eigenvalues --    0.21909   0.22390   0.23283   0.28270   0.28301
 Alpha virt. eigenvalues --    0.28568   0.29664   0.33151   0.33320   0.35905
 Alpha virt. eigenvalues --    0.35952   0.37457   0.37620   0.39087   0.39593
 Alpha virt. eigenvalues --    0.42332   0.42340   0.43396   0.43929   0.44121
 Alpha virt. eigenvalues --    0.46202   0.46884   0.47770   0.48042   0.50942
 Alpha virt. eigenvalues --    0.52180   0.54153   0.55334   0.56001   0.58722
 Alpha virt. eigenvalues --    0.66654   0.67459   0.74040   0.75229   0.78891
 Alpha virt. eigenvalues --    0.80989   0.86500   0.94550   1.07480   1.09485
 Alpha virt. eigenvalues --    1.17144   1.21242   1.22114   1.22823   1.25498
 Alpha virt. eigenvalues --    1.27779   1.28831   1.29341   1.31188   1.33391
 Alpha virt. eigenvalues --    1.33933   1.34794   1.37732   1.40433   1.45005
 Alpha virt. eigenvalues --    1.46105   1.49013   1.49059   1.51413   1.53220
 Alpha virt. eigenvalues --    1.55111   1.58335   1.64381   1.66410   1.68857
 Alpha virt. eigenvalues --    1.72000   1.73681   1.75462   1.76778   1.84814
 Alpha virt. eigenvalues --    1.90220   1.91547   1.92039   2.00678   2.01468
 Alpha virt. eigenvalues --    2.06619   2.07630   2.12588   2.15822   2.21871
 Alpha virt. eigenvalues --    2.23468   2.26434   2.29788   2.34343   2.39147
 Alpha virt. eigenvalues --    2.40476   2.41768   2.42895   2.46306   2.46731
 Alpha virt. eigenvalues --    2.49674   2.52583   2.52625   2.53669   2.54534
 Alpha virt. eigenvalues --    2.55524   2.56619   2.57745   2.59090   2.60197
 Alpha virt. eigenvalues --    2.60751   2.61443   2.64904   2.69062   2.70447
 Alpha virt. eigenvalues --    2.78174   2.79623   2.79655   2.81589   2.84848
 Alpha virt. eigenvalues --    2.85366   2.85646   2.96213   3.00481   3.01546
 Alpha virt. eigenvalues --    3.02039   3.02844   3.09363   3.09499   3.10472
 Alpha virt. eigenvalues --    3.16793   3.23246   3.23271   3.25818   3.28252
 Alpha virt. eigenvalues --    3.32282   3.39908   3.43877   3.79667   3.80370
 Alpha virt. eigenvalues --    4.07230   4.09002   4.18096   4.18287  21.68298
 Alpha virt. eigenvalues --   21.69158  21.75384  21.83277  43.02851  43.06679
 Alpha virt. eigenvalues --   43.13282  43.18803
          Condensed to atoms (all electrons):
               1          2          3          4          5          6
     1  O    7.969251   0.609839  -0.103064  -0.157861   0.030546   0.000111
     2  C    0.609839   4.818883   0.363530  -0.007413   0.061952  -0.009156
     3  O   -0.103064   0.363530   7.891758  -0.179145   0.014074  -0.000460
     4  C   -0.157861  -0.007413  -0.179145   5.864007  -0.068194   0.061955
     5  C    0.030546   0.061952   0.014074  -0.068194   5.864024  -0.007451
     6  C    0.000111  -0.009156  -0.000460   0.061955  -0.007451   4.818909
     7  O   -0.000022   0.000111   0.000012   0.030559  -0.157860   0.609805
     8  O    0.000012  -0.000460   0.000001   0.014076  -0.179145   0.363550
     9  H    0.002004  -0.017453   0.285292   0.018389  -0.001423   0.000053
    10  H    0.001607  -0.005441   0.005627   0.372616  -0.021718  -0.008131
    11  H    0.001609  -0.005424   0.005627   0.372563  -0.021657  -0.008140
    12  H    0.003523  -0.008133   0.000158  -0.021713   0.372610  -0.005431
    13  H    0.003519  -0.008137   0.000158  -0.021653   0.372553  -0.005442
    14  H    0.000000   0.000053  -0.000000  -0.001423   0.018390  -0.017456
               7          8          9         10         11         12
     1  O   -0.000022   0.000012   0.002004   0.001607   0.001609   0.003523
     2  C    0.000111  -0.000460  -0.017453  -0.005441  -0.005424  -0.008133
     3  O    0.000012   0.000001   0.285292   0.005627   0.005627   0.000158
     4  C    0.030559   0.014076   0.018389   0.372616   0.372563  -0.021713
     5  C   -0.157860  -0.179145  -0.001423  -0.021718  -0.021657   0.372610
     6  C    0.609805   0.363550   0.000053  -0.008131  -0.008140  -0.005431
     7  O    7.969313  -0.103064   0.000000   0.003523   0.003515   0.001607
     8  O   -0.103064   7.891731  -0.000000   0.000158   0.000158   0.005622
     9  H    0.000000  -0.000000   0.380473  -0.000344  -0.000345  -0.000009
    10  H    0.003523   0.000158  -0.000344   0.470900  -0.011843  -0.001298
    11  H    0.003515   0.000158  -0.000345  -0.011843   0.470914   0.003959
    12  H    0.001607   0.005622  -0.000009  -0.001298   0.003959   0.470906
    13  H    0.001611   0.005632  -0.000009   0.003959  -0.001295  -0.011837
    14  H    0.002006   0.285295   0.000000  -0.000009  -0.000009  -0.000344
              13         14
     1  O    0.003519   0.000000
     2  C   -0.008137   0.000053
     3  O    0.000158  -0.000000
     4  C   -0.021653  -0.001423
     5  C    0.372553   0.018390
     6  C   -0.005442  -0.017456
     7  O    0.001611   0.002006
     8  O    0.005632   0.285295
     9  H   -0.000009   0.000000
    10  H    0.003959  -0.000009
    11  H   -0.001295  -0.000009
    12  H   -0.011837  -0.000344
    13  H    0.470923  -0.000345
    14  H   -0.000345   0.380466
 Mulliken charges:
               1
     1  O   -0.361075
     2  C    0.207250
     3  O   -0.283567
     4  C   -0.276764
     5  C   -0.276698
     6  C    0.207282
     7  O   -0.361117
     8  O   -0.283564
     9  H    0.333370
    10  H    0.190395
    11  H    0.190368
    12  H    0.190380
    13  H    0.190363
    14  H    0.333376
 Sum of Mulliken charges =  -0.00000
 Mulliken charges with hydrogens summed into heavy atoms:
               1
     1  O   -0.361075
     2  C    0.207250
     3  O    0.049804
     4  C    0.103999
     5  C    0.104045
     6  C    0.207282
     7  O   -0.361117
     8  O    0.049812
 Electronic spatial extent (au):  <R**2>=           1314.6011
 Charge=             -0.0000 electrons
 Dipole moment (field-independent basis, Debye):
    X=             -0.0000    Y=             -0.0003    Z=              0.0005  Tot=              0.0006
 Quadrupole moment (field-independent basis, Debye-Ang):
   XX=            -34.1161   YY=            -57.6369   ZZ=            -44.4231
   XY=             -7.6393   XZ=              0.0010   YZ=             -0.0000
 Traceless Quadrupole moment (field-independent basis, Debye-Ang):
   XX=             11.2760   YY=            -12.2449   ZZ=              0.9689
   XY=             -7.6393   XZ=              0.0010   YZ=             -0.0000
 Octapole moment (field-independent basis, Debye-Ang**2):
  XXX=              0.0008  YYY=             -0.0007  ZZZ=              0.0008  XYY=             -0.0003
  XXY=             -0.0014  XXZ=              0.0064  XZZ=              0.0000  YZZ=             -0.0001
  YYZ=              0.0002  XYZ=              0.0013
 Hexadecapole moment (field-independent basis, Debye-Ang**3):
 XXXX=           -782.8442 YYYY=           -276.1664 ZZZZ=            -52.7849 XXXY=            -55.1911
 XXXZ=              0.0146 YYYX=            -20.9957 YYYZ=             -0.0005 ZZZX=              0.0014
 ZZZY=              0.0002 XXYY=           -325.1359 XXZZ=           -218.6505 YYZZ=            -48.8762
 XXYZ=             -0.0012 YYXZ=              0.0013 ZZXY=             -0.8011
 N-N= 3.631610005762D+02 E-N=-1.799877453593D+03  KE= 4.552863414968D+02
 Unable to Open any file for archive entry.
 1\1\GINC-TCN1636\SP\RBP86\TZVP\C4H6O4\ELENAA\22-Feb-2021\0\\# BP86/TZV
 P SCRF=COSMORS geom=CHECKPOINT guess=CHECKPOINT\\COSMO-file for #KDYFG
 RWQOYBRFD-UHFFFAOYSA-N\\0,1\O,0,0.8915245955,-0.7344343706,2.337488002
 \C,0,-0.2276692035,-0.8769459054,1.8710251883\O,0,-1.3318681987,-1.077
 3724623,2.6425617368\C,0,-0.5869572389,-0.8586597731,0.4023986017\C,0,
 0.6278315599,-0.6359624682,-0.4915836224\C,0,0.2685334143,-0.617627256
 2,-1.9602086706\O,0,-0.8506531374,-0.7601957981,-2.4266722434\O,0,1.37
 27146593,-0.4170877892,-2.7317394451\H,0,-1.0420489486,-1.0801388551,3
 .5802816648\H,0,-1.0890663243,-1.8085961132,0.161601691\H,0,-1.3448476
 659,-0.0753723867,0.2457558513\H,0,1.3857135576,-1.4192678227,-0.33498
 22908\H,0,1.1299487123,0.3139576792,-0.2507475867\H,0,1.0828942183,-0.
 4143066784,-3.6694588769\\Version=ES64L-G16RevC.01\State=1-A\HF=-457.1
 769748\RMSD=3.644e-09\Dipole=0.000072,0.0002262,0.0000456\Quadrupole=-
 6.291163,0.699903,5.59126,-0.6259567,-8.4172716,-1.4797881\PG=C01 [X(C
 4H6O4)]\\@
 The archive entry for this job was punched.


 MEMORIES ARE LIKE AN ENGLISH GRAMMER LESSON -
 PRESENT TENSE, AND PAST PERFECT.
 Job cpu time:       0 days  0 hours  3 minutes 19.5 seconds.
 Elapsed time:       0 days  0 hours  0 minutes  6.7 seconds.
 File lengths (MBytes):  RWF=     32 Int=      0 D2E=      0 Chk=      6 Scr=      1
 Normal termination of Gaussian 16 at Mon Feb 22 21:15:58 2021.
