 Entering Gaussian System, Link 0=g16
 Input=KQTIIICEAUMSDG-UHFFFAOYSA-N.gjf
 Output=KQTIIICEAUMSDG-UHFFFAOYSA-N.log
 Initial command:
 /sw/arch/RedHatEnterpriseServer7/EB_production/2019/software/Gaussian/g16.c01/l1.exe "/scratch-local/elenaa.9715228/Gau-22558.inp" -scrdir="/scratch-local/elenaa.9715228/"
 Entering Link 1 = /sw/arch/RedHatEnterpriseServer7/EB_production/2019/software/Gaussian/g16.c01/l1.exe PID=     22559.
  
 Copyright (c) 1988-2019, Gaussian, Inc.  All Rights Reserved.
  
 This is part of the Gaussian(R) 16 program.  It is based on
 the Gaussian(R) 09 system (copyright 2009, Gaussian, Inc.),
 the Gaussian(R) 03 system (copyright 2003, Gaussian, Inc.),
 the Gaussian(R) 98 system (copyright 1998, Gaussian, Inc.),
 the Gaussian(R) 94 system (copyright 1995, Gaussian, Inc.),
 the Gaussian 92(TM) system (copyright 1992, Gaussian, Inc.),
 the Gaussian 90(TM) system (copyright 1990, Gaussian, Inc.),
 the Gaussian 88(TM) system (copyright 1988, Gaussian, Inc.),
 the Gaussian 86(TM) system (copyright 1986, Carnegie Mellon
 University), and the Gaussian 82(TM) system (copyright 1983,
 Carnegie Mellon University). Gaussian is a federally registered
 trademark of Gaussian, Inc.
  
 This software contains proprietary and confidential information,
 including trade secrets, belonging to Gaussian, Inc.
  
 This software is provided under written license and may be
 used, copied, transmitted, or stored only in accord with that
 written license.
  
 The following legend is applicable only to US Government
 contracts under FAR:
  
                    RESTRICTED RIGHTS LEGEND
  
 Use, reproduction and disclosure by the US Government is
 subject to restrictions as set forth in subparagraphs (a)
 and (c) of the Commercial Computer Software - Restricted
 Rights clause in FAR 52.227-19.
  
 Gaussian, Inc.
 340 Quinnipiac St., Bldg. 40, Wallingford CT 06492
  
  
 ---------------------------------------------------------------
 Warning -- This program may not be used in any manner that
 competes with the business of Gaussian, Inc. or will provide
 assistance to any competitor of Gaussian, Inc.  The licensee
 of this program is prohibited from giving any competitor of
 Gaussian, Inc. access to this program.  By using this program,
 the user acknowledges that Gaussian, Inc. is engaged in the
 business of creating and licensing software in the field of
 computational chemistry and represents and warrants to the
 licensee that it is not a competitor of Gaussian, Inc. and that
 it will not use this program in any manner prohibited above.
 ---------------------------------------------------------------
  

 Cite this work as:
 Gaussian 16, Revision C.01,
 M. J. Frisch, G. W. Trucks, H. B. Schlegel, G. E. Scuseria, 
 M. A. Robb, J. R. Cheeseman, G. Scalmani, V. Barone, 
 G. A. Petersson, H. Nakatsuji, X. Li, M. Caricato, A. V. Marenich, 
 J. Bloino, B. G. Janesko, R. Gomperts, B. Mennucci, H. P. Hratchian, 
 J. V. Ortiz, A. F. Izmaylov, J. L. Sonnenberg, D. Williams-Young, 
 F. Ding, F. Lipparini, F. Egidi, J. Goings, B. Peng, A. Petrone, 
 T. Henderson, D. Ranasinghe, V. G. Zakrzewski, J. Gao, N. Rega, 
 G. Zheng, W. Liang, M. Hada, M. Ehara, K. Toyota, R. Fukuda, 
 J. Hasegawa, M. Ishida, T. Nakajima, Y. Honda, O. Kitao, H. Nakai, 
 T. Vreven, K. Throssell, J. A. Montgomery, Jr., J. E. Peralta, 
 F. Ogliaro, M. J. Bearpark, J. J. Heyd, E. N. Brothers, K. N. Kudin, 
 V. N. Staroverov, T. A. Keith, R. Kobayashi, J. Normand, 
 K. Raghavachari, A. P. Rendell, J. C. Burant, S. S. Iyengar, 
 J. Tomasi, M. Cossi, J. M. Millam, M. Klene, C. Adamo, R. Cammi, 
 J. W. Ochterski, R. L. Martin, K. Morokuma, O. Farkas, 
 J. B. Foresman, and D. J. Fox, Gaussian, Inc., Wallingford CT, 2019.
 
 ******************************************
 Gaussian 16:  ES64L-G16RevC.01  3-Jul-2019
                22-Feb-2021 
 ******************************************
 %chk=KQTIIICEAUMSDG-UHFFFAOYSA-N.chk
 %NProcShared=32
 Will use up to   32 processors via shared memory.
 -------------------------------------------------------------
 #P BP86/TZVP EmpiricalDispersion=GD3 SCRF=(Solvent=Water) Opt
 -------------------------------------------------------------
 1/18=20,19=15,26=3,38=1/1,3;
 2/9=110,12=2,17=6,18=5,40=1/2;
 3/5=19,7=101,11=2,25=1,30=1,70=2201,71=1,72=1,74=404,124=31/1,2,3;
 4//1;
 5/5=2,38=5,53=1/2;
 6/7=2,8=2,9=2,10=2,28=1/1;
 7//1,2,3,16;
 1/18=20,19=15,26=3/3(2);
 2/9=110/2;
 99//99;
 2/9=110/2;
 3/5=19,7=101,11=2,25=1,30=1,70=2205,71=1,72=1,74=404,124=31/1,2,3;
 4/5=5,16=3,69=1/1;
 5/5=2,38=5,53=1/2;
 7//1,2,3,16;
 1/18=20,19=15,26=3/3(-5);
 2/9=110/2;
 6/7=2,8=2,9=2,10=2,19=2,28=1/1;
 99/9=1/99;
 Leave Link    1 at Mon Feb 22 21:11:36 2021, MaxMem=           0 cpu:               2.4 elap:               0.3
 (Enter /sw/arch/RedHatEnterpriseServer7/EB_production/2019/software/Gaussian/g16.c01/l101.exe)
 -------------------------------------
 Particle #KQTIIICEAUMSDG-UHFFFAOYSA-N
 -------------------------------------
 Symbolic Z-matrix:
 Charge =  0 Multiplicity = 1
 O                    -1.65221   1.16955  -0.92267 
 C                    -1.06526   1.03259  -2.01949 
 O                    -1.2851   -0.09637  -2.73387 
 C                    -0.15471   2.0814   -2.52275 
 C                     1.10962   2.29527  -1.63068 
 C                     2.0458    1.04134  -1.62493 
 C                     3.20089   1.1611   -0.71046 
 O                     3.26295   0.49806   0.35 
 O                     4.22125   1.99628  -1.01249 
 C                     1.81499   3.53335  -2.05436 
 O                     2.3894    3.60946  -3.1649 
 O                     1.84746   4.61836  -1.2418 
 H                    -1.88202  -0.79     -2.38429 
 H                    -0.7322    3.00942  -2.57636 
 H                     0.15745   1.83021  -3.54059 
 H                     0.76257   2.45893  -0.6049 
 H                     2.42626   0.84873  -2.63278 
 H                     1.46132   0.16811  -1.32084 
 H                     4.99173   2.07942  -0.41435 
 H                     2.29589   5.44145  -1.52862 
 
 ITRead=  0  0  0  0  0  0  0  0  0  0  0  0  0  0  0  0  0  0  0  0
 MicOpt= -1 -1 -1 -1 -1 -1 -1 -1 -1 -1 -1 -1 -1 -1 -1 -1 -1 -1 -1 -1
 NAtoms=     20 NQM=       20 NQMF=       0 NMMI=      0 NMMIF=      0
                NMic=       0 NMicF=      0.
                    Isotopes and Nuclear Properties:
 (Nuclear quadrupole moments (NQMom) in fm**2, nuclear magnetic moments (NMagM)
  in nuclear magnetons)

  Atom         1           2           3           4           5           6           7           8           9          10
 IAtWgt=          16          12          16          12          12          12          12          16          16          12
 AtmWgt=  15.9949146  12.0000000  15.9949146  12.0000000  12.0000000  12.0000000  12.0000000  15.9949146  15.9949146  12.0000000
 NucSpn=           0           0           0           0           0           0           0           0           0           0
 AtZEff=  -0.0000000  -0.0000000  -0.0000000  -0.0000000  -0.0000000  -0.0000000  -0.0000000  -0.0000000  -0.0000000  -0.0000000
 NQMom=    0.0000000   0.0000000   0.0000000   0.0000000   0.0000000   0.0000000   0.0000000   0.0000000   0.0000000   0.0000000
 NMagM=    0.0000000   0.0000000   0.0000000   0.0000000   0.0000000   0.0000000   0.0000000   0.0000000   0.0000000   0.0000000
 AtZNuc=   8.0000000   6.0000000   8.0000000   6.0000000   6.0000000   6.0000000   6.0000000   8.0000000   8.0000000   6.0000000

  Atom        11          12          13          14          15          16          17          18          19          20
 IAtWgt=          16          16           1           1           1           1           1           1           1           1
 AtmWgt=  15.9949146  15.9949146   1.0078250   1.0078250   1.0078250   1.0078250   1.0078250   1.0078250   1.0078250   1.0078250
 NucSpn=           0           0           1           1           1           1           1           1           1           1
 AtZEff=  -0.0000000  -0.0000000  -0.0000000  -0.0000000  -0.0000000  -0.0000000  -0.0000000  -0.0000000  -0.0000000  -0.0000000
 NQMom=    0.0000000   0.0000000   0.0000000   0.0000000   0.0000000   0.0000000   0.0000000   0.0000000   0.0000000   0.0000000
 NMagM=    0.0000000   0.0000000   2.7928460   2.7928460   2.7928460   2.7928460   2.7928460   2.7928460   2.7928460   2.7928460
 AtZNuc=   8.0000000   8.0000000   1.0000000   1.0000000   1.0000000   1.0000000   1.0000000   1.0000000   1.0000000   1.0000000
 Leave Link  101 at Mon Feb 22 21:11:37 2021, MaxMem=   104857600 cpu:               2.9 elap:               0.1
 (Enter /sw/arch/RedHatEnterpriseServer7/EB_production/2019/software/Gaussian/g16.c01/l103.exe)

 GradGradGradGradGradGradGradGradGradGradGradGradGradGradGradGradGradGrad
 Berny optimization.
 Initialization pass.
                           ----------------------------
                           !    Initial Parameters    !
                           ! (Angstroms and Degrees)  !
 --------------------------                            --------------------------
 ! Name  Definition              Value          Derivative Info.                !
 --------------------------------------------------------------------------------
 ! R1    R(1,2)                  1.2515         estimate D2E/DX2                !
 ! R2    R(2,3)                  1.354          estimate D2E/DX2                !
 ! R3    R(2,4)                  1.4773         estimate D2E/DX2                !
 ! R4    R(3,13)                 0.9796         estimate D2E/DX2                !
 ! R5    R(4,5)                  1.5621         estimate D2E/DX2                !
 ! R6    R(4,14)                 1.0943         estimate D2E/DX2                !
 ! R7    R(4,15)                 1.0939         estimate D2E/DX2                !
 ! R8    R(5,6)                  1.5649         estimate D2E/DX2                !
 ! R9    R(5,10)                 1.4866         estimate D2E/DX2                !
 ! R10   R(5,16)                 1.0952         estimate D2E/DX2                !
 ! R11   R(6,7)                  1.4781         estimate D2E/DX2                !
 ! R12   R(6,17)                 1.0944         estimate D2E/DX2                !
 ! R13   R(6,18)                 1.0939         estimate D2E/DX2                !
 ! R14   R(7,8)                  1.2522         estimate D2E/DX2                !
 ! R15   R(7,9)                  1.3527         estimate D2E/DX2                !
 ! R16   R(9,19)                 0.9789         estimate D2E/DX2                !
 ! R17   R(10,11)                1.2526         estimate D2E/DX2                !
 ! R18   R(10,12)                1.3559         estimate D2E/DX2                !
 ! R19   R(12,20)                0.9802         estimate D2E/DX2                !
 ! A1    A(1,2,3)              118.5226         estimate D2E/DX2                !
 ! A2    A(1,2,4)              120.6595         estimate D2E/DX2                !
 ! A3    A(3,2,4)              120.8179         estimate D2E/DX2                !
 ! A4    A(2,3,13)             120.0695         estimate D2E/DX2                !
 ! A5    A(2,4,5)              113.6744         estimate D2E/DX2                !
 ! A6    A(2,4,14)             107.0666         estimate D2E/DX2                !
 ! A7    A(2,4,15)             109.2598         estimate D2E/DX2                !
 ! A8    A(5,4,14)             109.8154         estimate D2E/DX2                !
 ! A9    A(5,4,15)             109.3812         estimate D2E/DX2                !
 ! A10   A(14,4,15)            107.4422         estimate D2E/DX2                !
 ! A11   A(4,5,6)              112.1237         estimate D2E/DX2                !
 ! A12   A(4,5,10)             109.592          estimate D2E/DX2                !
 ! A13   A(4,5,16)             107.3892         estimate D2E/DX2                !
 ! A14   A(6,5,10)             112.6152         estimate D2E/DX2                !
 ! A15   A(6,5,16)             107.8109         estimate D2E/DX2                !
 ! A16   A(10,5,16)            107.0284         estimate D2E/DX2                !
 ! A17   A(5,6,7)              113.8822         estimate D2E/DX2                !
 ! A18   A(5,6,17)             110.2205         estimate D2E/DX2                !
 ! A19   A(5,6,18)             108.7251         estimate D2E/DX2                !
 ! A20   A(7,6,17)             108.2008         estimate D2E/DX2                !
 ! A21   A(7,6,18)             108.0734         estimate D2E/DX2                !
 ! A22   A(17,6,18)            107.5339         estimate D2E/DX2                !
 ! A23   A(6,7,8)              121.3162         estimate D2E/DX2                !
 ! A24   A(6,7,9)              120.0888         estimate D2E/DX2                !
 ! A25   A(8,7,9)              118.5947         estimate D2E/DX2                !
 ! A26   A(7,9,19)             120.6429         estimate D2E/DX2                !
 ! A27   A(5,10,11)            121.3908         estimate D2E/DX2                !
 ! A28   A(5,10,12)            120.4646         estimate D2E/DX2                !
 ! A29   A(11,10,12)           118.1442         estimate D2E/DX2                !
 ! A30   A(10,12,20)           120.4993         estimate D2E/DX2                !
 ! D1    D(1,2,3,13)            -0.8863         estimate D2E/DX2                !
 ! D2    D(4,2,3,13)           179.2013         estimate D2E/DX2                !
 ! D3    D(1,2,4,5)             64.3814         estimate D2E/DX2                !
 ! D4    D(1,2,4,14)           -57.0713         estimate D2E/DX2                !
 ! D5    D(1,2,4,15)          -173.1374         estimate D2E/DX2                !
 ! D6    D(3,2,4,5)           -115.7081         estimate D2E/DX2                !
 ! D7    D(3,2,4,14)           122.8393         estimate D2E/DX2                !
 ! D8    D(3,2,4,15)             6.7731         estimate D2E/DX2                !
 ! D9    D(2,4,5,6)             65.4411         estimate D2E/DX2                !
 ! D10   D(2,4,5,10)          -168.734          estimate D2E/DX2                !
 ! D11   D(2,4,5,16)           -52.8089         estimate D2E/DX2                !
 ! D12   D(14,4,5,6)          -174.6514         estimate D2E/DX2                !
 ! D13   D(14,4,5,10)          -48.8265         estimate D2E/DX2                !
 ! D14   D(14,4,5,16)           67.0986         estimate D2E/DX2                !
 ! D15   D(15,4,5,6)           -56.9731         estimate D2E/DX2                !
 ! D16   D(15,4,5,10)           68.8518         estimate D2E/DX2                !
 ! D17   D(15,4,5,16)         -175.2231         estimate D2E/DX2                !
 ! D18   D(4,5,6,7)           -175.4979         estimate D2E/DX2                !
 ! D19   D(4,5,6,17)            62.6911         estimate D2E/DX2                !
 ! D20   D(4,5,6,18)           -54.9451         estimate D2E/DX2                !
 ! D21   D(10,5,6,7)            60.3442         estimate D2E/DX2                !
 ! D22   D(10,5,6,17)          -61.4668         estimate D2E/DX2                !
 ! D23   D(10,5,6,18)         -179.1029         estimate D2E/DX2                !
 ! D24   D(16,5,6,7)           -57.4982         estimate D2E/DX2                !
 ! D25   D(16,5,6,17)         -179.3092         estimate D2E/DX2                !
 ! D26   D(16,5,6,18)           63.0546         estimate D2E/DX2                !
 ! D27   D(4,5,10,11)          -67.9829         estimate D2E/DX2                !
 ! D28   D(4,5,10,12)          111.7691         estimate D2E/DX2                !
 ! D29   D(6,5,10,11)           57.5604         estimate D2E/DX2                !
 ! D30   D(6,5,10,12)         -122.6875         estimate D2E/DX2                !
 ! D31   D(16,5,10,11)         175.8632         estimate D2E/DX2                !
 ! D32   D(16,5,10,12)          -4.3847         estimate D2E/DX2                !
 ! D33   D(5,6,7,8)            108.4032         estimate D2E/DX2                !
 ! D34   D(5,6,7,9)            -71.7883         estimate D2E/DX2                !
 ! D35   D(17,6,7,8)          -128.6754         estimate D2E/DX2                !
 ! D36   D(17,6,7,9)            51.1331         estimate D2E/DX2                !
 ! D37   D(18,6,7,8)           -12.5143         estimate D2E/DX2                !
 ! D38   D(18,6,7,9)           167.2942         estimate D2E/DX2                !
 ! D39   D(6,7,9,19)          -179.7719         estimate D2E/DX2                !
 ! D40   D(8,7,9,19)             0.0417         estimate D2E/DX2                !
 ! D41   D(5,10,12,20)        -178.6803         estimate D2E/DX2                !
 ! D42   D(11,10,12,20)          1.0796         estimate D2E/DX2                !
 --------------------------------------------------------------------------------
 Trust Radius=3.00D-01 FncErr=1.00D-07 GrdErr=1.00D-06 EigMax=2.50D+02 EigMin=1.00D-04
 Number of steps in this run=    101 maximum allowed number of steps=    120.
 GradGradGradGradGradGradGradGradGradGradGradGradGradGradGradGradGradGrad

 Leave Link  103 at Mon Feb 22 21:11:37 2021, MaxMem=   104857600 cpu:               0.9 elap:               0.1
 (Enter /sw/arch/RedHatEnterpriseServer7/EB_production/2019/software/Gaussian/g16.c01/l202.exe)
                          Input orientation:                          
 ---------------------------------------------------------------------
 Center     Atomic      Atomic             Coordinates (Angstroms)
 Number     Number       Type             X           Y           Z
 ---------------------------------------------------------------------
      1          8           0       -1.652210    1.169550   -0.922670
      2          6           0       -1.065260    1.032590   -2.019490
      3          8           0       -1.285100   -0.096370   -2.733870
      4          6           0       -0.154710    2.081400   -2.522750
      5          6           0        1.109620    2.295270   -1.630680
      6          6           0        2.045800    1.041340   -1.624930
      7          6           0        3.200890    1.161100   -0.710460
      8          8           0        3.262950    0.498060    0.350000
      9          8           0        4.221250    1.996280   -1.012490
     10          6           0        1.814990    3.533350   -2.054360
     11          8           0        2.389400    3.609460   -3.164900
     12          8           0        1.847460    4.618360   -1.241800
     13          1           0       -1.882020   -0.790000   -2.384290
     14          1           0       -0.732200    3.009420   -2.576360
     15          1           0        0.157450    1.830210   -3.540590
     16          1           0        0.762570    2.458930   -0.604900
     17          1           0        2.426260    0.848730   -2.632780
     18          1           0        1.461320    0.168110   -1.320840
     19          1           0        4.991730    2.079420   -0.414350
     20          1           0        2.295890    5.441450   -1.528620
 ---------------------------------------------------------------------
                    Distance matrix (angstroms):
                    1          2          3          4          5
     1  O    0.000000
     2  C    1.251512   0.000000
     3  O    2.240038   1.353964   0.000000
     4  C    2.373654   1.477286   2.462729   0.000000
     5  C    3.065327   2.544727   3.559727   1.562069   0.000000
     6  C    3.766283   3.135992   3.690397   2.594234   1.564866
     7  C    4.857745   4.464315   5.079323   3.923187   2.550795
     8  O    5.121463   4.963225   5.527057   4.737094   3.433641
     9  O    5.932039   5.467169   6.136956   4.630028   3.186502
    10  C    4.346234   3.814559   4.821531   2.491439   1.486571
    11  O    5.226411   4.459473   5.236498   3.036416   2.391394
    12  O    4.923802   4.684708   5.853878   3.476447   2.468275
    13  H    2.455399   2.030273   0.979613   3.353760   4.363110
    14  H    2.639362   2.080598   3.158550   1.094344   2.190119
    15  H    3.250361   2.108308   2.538397   1.093864   2.184185
    16  H    2.755838   2.715966   3.905768   2.159185   1.095195
    17  H    4.434109   3.549738   3.831139   2.862340   2.197777
    18  H    3.294767   2.760262   3.099907   2.777916   2.178188
    19  H    6.725191   6.352909   7.036535   5.561582   4.073920
    20  H    5.848401   5.565638   6.703996   4.275941   3.363941
                    6          7          8          9         10
     6  C    0.000000
     7  C    1.478117   0.000000
     8  O    2.382636   1.252218   0.000000
     9  O    2.453482   1.352731   2.240398   0.000000
    10  C    2.539251   3.058489   4.134068   3.039435   0.000000
    11  O    3.014102   3.560514   4.774769   3.254365   1.252613
    12  O    3.602943   3.750566   4.638352   3.544399   1.355933
    13  H    4.399796   5.696005   5.967089   6.847999   5.698078
    14  H    3.534946   4.729383   5.552633   5.292335   2.652388
    15  H    2.803201   4.209498   5.153197   4.788877   2.803035
    16  H    2.167188   2.764220   3.317943   3.513210   2.088756
    17  H    1.094354   2.095934   3.117691   2.676602   2.813433
    18  H    1.093900   2.093967   2.479202   3.324831   3.462365
    19  H    3.349868   2.034232   2.464470   0.978940   3.859433
    20  H    4.408264   4.450821   5.376014   3.980276   2.036790
                   11         12         13         14         15
    11  O    0.000000
    12  O    2.238279   0.000000
    13  H    6.181394   6.668183   0.000000
    14  H    3.232772   3.320299   3.974238   0.000000
    15  H    2.878971   3.989279   3.515959   1.764016   0.000000
    16  H    3.244055   2.499153   4.551443   2.534567   3.062635
    17  H    2.811786   4.059550   4.616109   3.827223   2.633424
    18  H    4.013076   4.467670   3.636870   3.802749   3.064301
    19  H    4.083953   4.125206   7.704718   6.188906   5.762443
    20  H    2.458118   0.980221   7.551031   4.022668   4.654246
                   16         17         18         19         20
    16  H    0.000000
    17  H    3.077809   0.000000
    18  H    2.499736   1.765089   0.000000
    19  H    4.250427   3.608000   4.115656   0.000000
    20  H    3.478470   4.725383   5.343014   4.451112   0.000000
 Stoichiometry    C6H8O6
 Framework group  C1[X(C6H8O6)]
 Deg. of freedom    54
 Full point group                 C1      NOp   1
 Largest Abelian subgroup         C1      NOp   1
 Largest concise Abelian subgroup C1      NOp   1
                         Standard orientation:                         
 ---------------------------------------------------------------------
 Center     Atomic      Atomic             Coordinates (Angstroms)
 Number     Number       Type             X           Y           Z
 ---------------------------------------------------------------------
      1          8           0       -2.853145   -0.246242    1.290303
      2          6           0       -2.574660   -0.038783    0.087935
      3          8           0       -3.302106   -0.671537   -0.862678
      4          6           0       -1.477536    0.877973   -0.283887
      5          6           0       -0.067911    0.389596    0.179261
      6          6           0        0.365321   -0.929512   -0.542592
      7          6           0        1.646741   -1.484027   -0.057509
      8          8           0        1.684392   -2.528249    0.632587
      9          8           0        2.811121   -0.865257   -0.359542
     10          6           0        0.920821    1.486350    0.007707
     11          8           0        1.257909    1.888924   -1.129546
     12          8           0        1.480186    2.083055    1.089191
     13          1           0       -4.019570   -1.286175   -0.603628
     14          1           0       -1.701755    1.848052    0.170274
     15          1           0       -1.475262    1.016602   -1.368929
     16          1           0       -0.130618    0.179245    1.252235
     17          1           0        0.452350   -0.759935   -1.620219
     18          1           0       -0.410968   -1.684858   -0.389472
     19          1           0        3.664667   -1.227267   -0.045326
     20          1           0        2.117647    2.819195    0.977060
 ---------------------------------------------------------------------
 Rotational constants (GHZ):           1.1450058           0.6121090           0.4726518
 Leave Link  202 at Mon Feb 22 21:11:37 2021, MaxMem=   104857600 cpu:               0.7 elap:               0.1
 (Enter /sw/arch/RedHatEnterpriseServer7/EB_production/2019/software/Gaussian/g16.c01/l301.exe)
 Standard basis: TZVP (5D, 7F)
 Ernie: Thresh=  0.10000D-02 Tol=  0.10000D-05 Strict=F.
 There are   288 symmetry adapted cartesian basis functions of A   symmetry.
 There are   276 symmetry adapted basis functions of A   symmetry.
   276 basis functions,   484 primitive gaussians,   288 cartesian basis functions
    46 alpha electrons       46 beta electrons
       nuclear repulsion energy       723.0125843079 Hartrees.
 IExCor=  404 DFT=T Ex=B Corr=P86 ExCW=0 ScaHFX=  0.000000
 ScaDFX=  1.000000  1.000000  1.000000  1.000000 ScalE2=  1.000000  1.000000
 IRadAn=      5 IRanWt=     -1 IRanGd=            0 ICorTp=0 IEmpDi=131
 NAtoms=   20 NActive=   20 NUniq=   20 SFac= 1.00D+00 NAtFMM=   60 NAOKFM=F Big=F
 Integral buffers will be    131072 words long.
 Raffenetti 2 integral format.
 Two-electron integral symmetry is turned on.
 R6Disp:  Grimme-D3 Dispersion energy=       -0.0219629837 Hartrees.
 Nuclear repulsion after empirical dispersion term =      722.9906213242 Hartrees.
 ------------------------------------------------------------------------------
 Polarizable Continuum Model (PCM)
 =================================
 Model                : PCM.
 Atomic radii         : UFF (Universal Force Field).
 Polarization charges : Total charges.
 Charge compensation  : None.
 Solution method      : On-the-fly selection.
 Cavity type          : Scaled VdW (van der Waals Surface) (Alpha=1.100).
 Cavity algorithm     : GePol (No added spheres)
                        Default sphere list used, NSphG=   20.
                        Lebedev-Laikov grids with approx.  5.0 points / Ang**2.
                        Smoothing algorithm: York/Karplus (Gamma=1.0000).
                        Polarization charges: spherical gaussians, with
                                              point-specific exponents (IZeta= 3).
                        Self-potential: point-specific (ISelfS= 7).
                        Self-field    : sphere-specific E.n sum rule (ISelfD= 2).
 1st derivatives      : Analytical E(r).r(x)/FMM algorithm (CHGder, D1EAlg=3).
                        Cavity 1st derivative terms included.
 Solvent              : Water, Eps=  78.355300 Eps(inf)=   1.777849
 ------------------------------------------------------------------------------
 Spheres list:
 ISph  on   Nord     Re0    Alpha      Xe            Ye            Ze
    1   O      1    1.7500  1.100     -2.853145     -0.246242      1.290303
    2   C      2    1.9255  1.100     -2.574660     -0.038783      0.087935
    3   O      3    1.7500  1.100     -3.302106     -0.671537     -0.862678
    4   C      4    1.9255  1.100     -1.477536      0.877973     -0.283887
    5   C      5    1.9255  1.100     -0.067911      0.389596      0.179261
    6   C      6    1.9255  1.100      0.365321     -0.929512     -0.542592
    7   C      7    1.9255  1.100      1.646741     -1.484027     -0.057509
    8   O      8    1.7500  1.100      1.684392     -2.528249      0.632587
    9   O      9    1.7500  1.100      2.811121     -0.865257     -0.359542
   10   C     10    1.9255  1.100      0.920821      1.486350      0.007707
   11   O     11    1.7500  1.100      1.257909      1.888924     -1.129546
   12   O     12    1.7500  1.100      1.480186      2.083055      1.089191
   13   H     13    1.4430  1.100     -4.019570     -1.286175     -0.603628
   14   H     14    1.4430  1.100     -1.701755      1.848052      0.170274
   15   H     15    1.4430  1.100     -1.475262      1.016602     -1.368929
   16   H     16    1.4430  1.100     -0.130618      0.179245      1.252235
   17   H     17    1.4430  1.100      0.452350     -0.759935     -1.620219
   18   H     18    1.4430  1.100     -0.410968     -1.684858     -0.389472
   19   H     19    1.4430  1.100      3.664667     -1.227267     -0.045326
   20   H     20    1.4430  1.100      2.117647      2.819195      0.977060
 ------------------------------------------------------------------------------
 GePol: Number of generator spheres                  =      20
 GePol: Total number of spheres                      =      20
 GePol: Number of exposed spheres                    =      20 (100.00%)
 GePol: Number of points                             =    1750
 GePol: Average weight of points                     =       0.13
 GePol: Minimum weight of points                     =   0.18D-09
 GePol: Maximum weight of points                     =    0.20577
 GePol: Number of points with low weight             =      92
 GePol: Fraction of low-weight points (<1% of avg)   =       5.26%
 GePol: Cavity surface area                          =    234.323 Ang**2
 GePol: Cavity volume                                =    230.920 Ang**3
 Leave Link  301 at Mon Feb 22 21:11:37 2021, MaxMem=   104857600 cpu:               1.5 elap:               0.1
 (Enter /sw/arch/RedHatEnterpriseServer7/EB_production/2019/software/Gaussian/g16.c01/l302.exe)
 NPDir=0 NMtPBC=     1 NCelOv=     1 NCel=       1 NClECP=     1 NCelD=      1
         NCelK=      1 NCelE2=     1 NClLst=     1 CellRange=     0.0.
 One-electron integrals computed using PRISM.
 One-electron integral symmetry used in STVInt
 PrsmSu:  requested number of processors reduced to:  28 ShMem   1 Linda.
 NBasis=   276 RedAO= T EigKep=  1.50D-04  NBF=   276
 NBsUse=   276 1.00D-06 EigRej= -1.00D+00 NBFU=   276
 Precomputing XC quadrature grid using
 IXCGrd= 4 IRadAn=           5 IRanWt=          -1 IRanGd=           0 AccXCQ= 0.00D+00.
 Generated NRdTot=       0 NPtTot=           0 NUsed=           0 NTot=          32
 NSgBfM=   285   284   285   285   285 MxSgAt=    20 MxSgA2=    20.
 Leave Link  302 at Mon Feb 22 21:11:38 2021, MaxMem=   104857600 cpu:               7.7 elap:               0.3
 (Enter /sw/arch/RedHatEnterpriseServer7/EB_production/2019/software/Gaussian/g16.c01/l303.exe)
 DipDrv:  MaxL=1.
 Leave Link  303 at Mon Feb 22 21:11:38 2021, MaxMem=   104857600 cpu:               2.6 elap:               0.1
 (Enter /sw/arch/RedHatEnterpriseServer7/EB_production/2019/software/Gaussian/g16.c01/l401.exe)
 ExpMin= 9.52D-02 ExpMax= 2.70D+04 ExpMxC= 9.22D+02 IAcc=3 IRadAn=         5 AccDes= 0.00D+00
 Harris functional with IExCor=  404 and IRadAn=       5 diagonalized for initial guess.
 HarFok:  IExCor=  404 AccDes= 0.00D+00 IRadAn=         5 IDoV= 1 UseB2=F ITyADJ=14
 ICtDFT=  3500011 ScaDFX=  1.000000  1.000000  1.000000  1.000000
 FoFCou: FMM=F IPFlag=           0 FMFlag=      100000 FMFlg1=           0
         NFxFlg=           0 DoJE=T BraDBF=F KetDBF=T FulRan=T
         wScrn=  0.000000 ICntrl=       500 IOpCl=  0 I1Cent=   200000004 NGrid=           0
         NMat0=    1 NMatS0=      1 NMatT0=    0 NMatD0=    1 NMtDS0=    0 NMtDT0=    0
 Petite list used in FoFCou.
 Harris En= -685.281328031294    
 JPrj=0 DoOrth=F DoCkMO=F.
 Leave Link  401 at Mon Feb 22 21:11:39 2021, MaxMem=   104857600 cpu:              13.9 elap:               0.5
 (Enter /sw/arch/RedHatEnterpriseServer7/EB_production/2019/software/Gaussian/g16.c01/l502.exe)
 Integral symmetry usage will be decided dynamically.
 Closed shell SCF:
 Using DIIS extrapolation, IDIIS=  1040.
 NGot=   104857600 LenX=   104679106 LenY=   104595721
 Requested convergence on RMS density matrix=1.00D-08 within 128 cycles.
 Requested convergence on MAX density matrix=1.00D-06.
 Requested convergence on             energy=1.00D-06.
 No special actions if energy rises.
 Fock matrices will be formed incrementally for  20 cycles.

 Cycle   1  Pass 1  IDiag  1:
 FoFJK:  IHMeth= 1 ICntrl=     500 DoSepK=F KAlg= 0 I1Cent=           0 FoldK=F
 IRaf= 880000000 NMat=       1 IRICut=       1 DoRegI=T DoRafI=F ISym2E= 0 IDoP0=0 IntGTp=1.
 FoFCou: FMM=F IPFlag=           0 FMFlag=      100000 FMFlg1=           0
         NFxFlg=           0 DoJE=T BraDBF=F KetDBF=F FulRan=T
         wScrn=  0.000000 ICntrl=       500 IOpCl=  0 I1Cent=           0 NGrid=           0
         NMat0=    1 NMatS0=      1 NMatT0=    0 NMatD0=    1 NMtDS0=    0 NMtDT0=    0
 Symmetry not used in FoFCou.
 Inv3:  Mode=1 IEnd=     9187500.
 Iteration    1 A*A^-1 deviation from unit magnitude is 3.77D-15 for    207.
 Iteration    1 A*A^-1 deviation from orthogonality  is 1.29D-15 for   1622   1126.
 Iteration    1 A^-1*A deviation from unit magnitude is 3.33D-15 for    207.
 Iteration    1 A^-1*A deviation from orthogonality  is 9.58D-15 for    616    580.
 E= -684.775805221934    
 DIIS: error= 2.98D-02 at cycle   1 NSaved=   1.
 NSaved= 1 IEnMin= 1 EnMin= -684.775805221934     IErMin= 1 ErrMin= 2.98D-02
 ErrMax= 2.98D-02  0.00D+00 EMaxC= 1.00D-01 BMatC= 4.76D-01 BMatP= 4.76D-01
 IDIUse=3 WtCom= 7.02D-01 WtEn= 2.98D-01
 Coeff-Com:  0.100D+01
 Coeff-En:   0.100D+01
 Coeff:      0.100D+01
 Gap=     0.039 Goal=   None    Shift=    0.000
 GapD=    0.039 DampG=0.250 DampE=0.500 DampFc=0.2500 IDamp=-1.
 Damping current iteration by 2.50D-01
 RMSDP=1.04D-02 MaxDP=7.74D-01              OVMax= 3.39D-01

 Cycle   2  Pass 1  IDiag  1:
 RMSU=  2.61D-03    CP:  1.01D+00
 E= -684.885362172937     Delta-E=       -0.109556951003 Rises=F Damp=T
 DIIS: error= 9.08D-03 at cycle   2 NSaved=   2.
 NSaved= 2 IEnMin= 2 EnMin= -684.885362172937     IErMin= 2 ErrMin= 9.08D-03
 ErrMax= 9.08D-03  0.00D+00 EMaxC= 1.00D-01 BMatC= 4.83D-02 BMatP= 4.76D-01
 IDIUse=3 WtCom= 9.09D-01 WtEn= 9.08D-02
 Coeff-Com: -0.189D+00 0.119D+01
 Coeff-En:   0.165D+00 0.835D+00
 Coeff:     -0.157D+00 0.116D+01
 Gap=     0.145 Goal=   None    Shift=    0.000
 RMSDP=1.95D-03 MaxDP=6.36D-02 DE=-1.10D-01 OVMax= 2.83D-01

 Cycle   3  Pass 1  IDiag  1:
 RMSU=  1.94D-03    CP:  1.01D+00  9.24D-01
 E= -685.006477020918     Delta-E=       -0.121114847981 Rises=F Damp=F
 DIIS: error= 1.81D-02 at cycle   3 NSaved=   3.
 NSaved= 3 IEnMin= 3 EnMin= -685.006477020918     IErMin= 2 ErrMin= 9.08D-03
 ErrMax= 1.81D-02  0.00D+00 EMaxC= 1.00D-01 BMatC= 1.57D-01 BMatP= 4.83D-02
 IDIUse=2 WtCom= 0.00D+00 WtEn= 1.00D+00
 EnCoef did     6 forward-backward iterations
 Coeff-En:   0.572D-01 0.939D-01 0.849D+00
 Coeff:      0.572D-01 0.939D-01 0.849D+00
 Gap=     0.110 Goal=   None    Shift=    0.000
 RMSDP=4.34D-03 MaxDP=1.49D-01 DE=-1.21D-01 OVMax= 3.55D-01

 Cycle   4  Pass 1  IDiag  1:
 RMSU=  1.90D-03    CP:  1.02D+00  1.85D+00 -5.79D-01
 E= -684.240082538899     Delta-E=        0.766394482019 Rises=F Damp=F
 DIIS: error= 5.21D-02 at cycle   4 NSaved=   4.
 NSaved= 4 IEnMin= 3 EnMin= -685.006477020918     IErMin= 2 ErrMin= 9.08D-03
 ErrMax= 5.21D-02  0.00D+00 EMaxC= 1.00D-01 BMatC= 1.15D+00 BMatP= 4.83D-02
 IDIUse=2 WtCom= 0.00D+00 WtEn= 1.00D+00
 EnCoef did     2 forward-backward iterations
 Coeff-En:   0.118D-01 0.000D+00 0.798D+00 0.190D+00
 Coeff:      0.118D-01 0.000D+00 0.798D+00 0.190D+00
 Gap=     0.142 Goal=   None    Shift=    0.000
 RMSDP=2.87D-03 MaxDP=1.46D-01 DE= 7.66D-01 OVMax= 2.02D-01

 Cycle   5  Pass 1  IDiag  1:
 RMSU=  4.27D-04    CP:  1.01D+00  9.39D-01  7.73D-02  5.26D-01
 E= -685.054132444317     Delta-E=       -0.814049905419 Rises=F Damp=F
 DIIS: error= 1.63D-02 at cycle   5 NSaved=   5.
 NSaved= 5 IEnMin= 5 EnMin= -685.054132444317     IErMin= 2 ErrMin= 9.08D-03
 ErrMax= 1.63D-02  0.00D+00 EMaxC= 1.00D-01 BMatC= 1.05D-01 BMatP= 4.83D-02
 IDIUse=2 WtCom= 0.00D+00 WtEn= 1.00D+00
 Coeff-En:   0.000D+00 0.000D+00 0.416D+00 0.000D+00 0.584D+00
 Coeff:      0.000D+00 0.000D+00 0.416D+00 0.000D+00 0.584D+00
 Gap=     0.159 Goal=   None    Shift=    0.000
 RMSDP=9.55D-04 MaxDP=2.42D-02 DE=-8.14D-01 OVMax= 7.67D-02

 Cycle   6  Pass 1  IDiag  1:
 RMSU=  2.57D-04    CP:  1.01D+00  9.52D-01  4.76D-01  2.64D-01  9.26D-01
 E= -685.127314113797     Delta-E=       -0.073181669480 Rises=F Damp=F
 DIIS: error= 3.94D-03 at cycle   6 NSaved=   6.
 NSaved= 6 IEnMin= 6 EnMin= -685.127314113797     IErMin= 6 ErrMin= 3.94D-03
 ErrMax= 3.94D-03  0.00D+00 EMaxC= 1.00D-01 BMatC= 7.81D-03 BMatP= 4.83D-02
 IDIUse=3 WtCom= 9.61D-01 WtEn= 3.94D-02
 Coeff-Com: -0.552D-01 0.968D-01 0.255D+00-0.464D-01 0.459D+00 0.291D+00
 Coeff-En:   0.000D+00 0.000D+00 0.000D+00 0.000D+00 0.520D-02 0.995D+00
 Coeff:     -0.531D-01 0.930D-01 0.245D+00-0.445D-01 0.441D+00 0.318D+00
 Gap=     0.161 Goal=   None    Shift=    0.000
 RMSDP=2.37D-04 MaxDP=9.44D-03 DE=-7.32D-02 OVMax= 1.62D-02

 Cycle   7  Pass 1  IDiag  1:
 RMSU=  9.19D-05    CP:  1.01D+00  9.17D-01  4.44D-01  3.07D-01  8.62D-01
                    CP:  3.53D-01
 E= -685.132564376891     Delta-E=       -0.005250263093 Rises=F Damp=F
 DIIS: error= 7.47D-04 at cycle   7 NSaved=   7.
 NSaved= 7 IEnMin= 7 EnMin= -685.132564376891     IErMin= 7 ErrMin= 7.47D-04
 ErrMax= 7.47D-04  0.00D+00 EMaxC= 1.00D-01 BMatC= 2.28D-04 BMatP= 7.81D-03
 IDIUse=3 WtCom= 9.93D-01 WtEn= 7.47D-03
 Coeff-Com: -0.129D-01 0.204D-01 0.770D-01-0.212D-01 0.167D+00 0.217D+00
 Coeff-Com:  0.553D+00
 Coeff-En:   0.000D+00 0.000D+00 0.000D+00 0.000D+00 0.000D+00 0.000D+00
 Coeff-En:   0.100D+01
 Coeff:     -0.128D-01 0.202D-01 0.764D-01-0.211D-01 0.165D+00 0.215D+00
 Coeff:      0.557D+00
 Gap=     0.161 Goal=   None    Shift=    0.000
 RMSDP=5.09D-05 MaxDP=1.54D-03 DE=-5.25D-03 OVMax= 2.31D-03

 Cycle   8  Pass 1  IDiag  1:
 RMSU=  2.79D-05    CP:  1.01D+00  9.20D-01  4.46D-01  3.01D-01  8.73D-01
                    CP:  4.14D-01  6.09D-01
 E= -685.132719772527     Delta-E=       -0.000155395636 Rises=F Damp=F
 DIIS: error= 2.39D-04 at cycle   8 NSaved=   8.
 NSaved= 8 IEnMin= 8 EnMin= -685.132719772527     IErMin= 8 ErrMin= 2.39D-04
 ErrMax= 2.39D-04  0.00D+00 EMaxC= 1.00D-01 BMatC= 2.06D-05 BMatP= 2.28D-04
 IDIUse=3 WtCom= 9.98D-01 WtEn= 2.39D-03
 Coeff-Com:  0.516D-02-0.891D-02 0.132D-01-0.362D-02 0.332D-01 0.103D+00
 Coeff-Com:  0.343D+00 0.515D+00
 Coeff-En:   0.000D+00 0.000D+00 0.000D+00 0.000D+00 0.000D+00 0.000D+00
 Coeff-En:   0.000D+00 0.100D+01
 Coeff:      0.514D-02-0.889D-02 0.132D-01-0.361D-02 0.331D-01 0.103D+00
 Coeff:      0.342D+00 0.516D+00
 Gap=     0.161 Goal=   None    Shift=    0.000
 RMSDP=2.25D-05 MaxDP=1.37D-03 DE=-1.55D-04 OVMax= 1.28D-03

 Cycle   9  Pass 1  IDiag  1:
 RMSU=  1.10D-05    CP:  1.01D+00  9.16D-01  4.47D-01  3.00D-01  8.69D-01
                    CP:  4.37D-01  6.77D-01  5.44D-01
 E= -685.132733650585     Delta-E=       -0.000013878058 Rises=F Damp=F
 DIIS: error= 9.66D-05 at cycle   9 NSaved=   9.
 NSaved= 9 IEnMin= 9 EnMin= -685.132733650585     IErMin= 9 ErrMin= 9.66D-05
 ErrMax= 9.66D-05  0.00D+00 EMaxC= 1.00D-01 BMatC= 4.87D-06 BMatP= 2.06D-05
 IDIUse=1 WtCom= 1.00D+00 WtEn= 0.00D+00
 Coeff-Com:  0.411D-02-0.644D-02 0.486D-02-0.148D-02 0.128D-01 0.583D-01
 Coeff-Com:  0.213D+00 0.388D+00 0.326D+00
 Coeff:      0.411D-02-0.644D-02 0.486D-02-0.148D-02 0.128D-01 0.583D-01
 Coeff:      0.213D+00 0.388D+00 0.326D+00
 Gap=     0.161 Goal=   None    Shift=    0.000
 RMSDP=7.50D-06 MaxDP=2.12D-04 DE=-1.39D-05 OVMax= 6.80D-04

 Cycle  10  Pass 1  IDiag  1:
 RMSU=  4.51D-06    CP:  1.01D+00  9.15D-01  4.48D-01  3.00D-01  8.70D-01
                    CP:  4.36D-01  6.73D-01  6.24D-01  5.21D-01
 E= -685.132737164018     Delta-E=       -0.000003513433 Rises=F Damp=F
 DIIS: error= 3.40D-05 at cycle  10 NSaved=  10.
 NSaved=10 IEnMin=10 EnMin= -685.132737164018     IErMin=10 ErrMin= 3.40D-05
 ErrMax= 3.40D-05  0.00D+00 EMaxC= 1.00D-01 BMatC= 2.01D-07 BMatP= 4.87D-06
 IDIUse=1 WtCom= 1.00D+00 WtEn= 0.00D+00
 Coeff-Com:  0.127D-02-0.168D-02 0.128D-02-0.411D-03 0.271D-02 0.147D-01
 Coeff-Com:  0.578D-01 0.115D+00 0.173D+00 0.636D+00
 Coeff:      0.127D-02-0.168D-02 0.128D-02-0.411D-03 0.271D-02 0.147D-01
 Coeff:      0.578D-01 0.115D+00 0.173D+00 0.636D+00
 Gap=     0.161 Goal=   None    Shift=    0.000
 RMSDP=1.59D-06 MaxDP=3.90D-05 DE=-3.51D-06 OVMax= 1.08D-04

 Cycle  11  Pass 1  IDiag  1:
 RMSU=  9.20D-07    CP:  1.01D+00  9.15D-01  4.48D-01  3.00D-01  8.70D-01
                    CP:  4.37D-01  6.77D-01  6.22D-01  5.57D-01  7.67D-01
 E= -685.132737318294     Delta-E=       -0.000000154276 Rises=F Damp=F
 DIIS: error= 7.47D-06 at cycle  11 NSaved=  11.
 NSaved=11 IEnMin=11 EnMin= -685.132737318294     IErMin=11 ErrMin= 7.47D-06
 ErrMax= 7.47D-06  0.00D+00 EMaxC= 1.00D-01 BMatC= 2.22D-08 BMatP= 2.01D-07
 IDIUse=1 WtCom= 1.00D+00 WtEn= 0.00D+00
 Coeff-Com:  0.494D-03-0.577D-03 0.577D-03-0.179D-03 0.101D-02 0.509D-02
 Coeff-Com:  0.211D-01 0.416D-01 0.781D-01 0.374D+00 0.479D+00
 Coeff:      0.494D-03-0.577D-03 0.577D-03-0.179D-03 0.101D-02 0.509D-02
 Coeff:      0.211D-01 0.416D-01 0.781D-01 0.374D+00 0.479D+00
 Gap=     0.161 Goal=   None    Shift=    0.000
 RMSDP=5.19D-07 MaxDP=1.30D-05 DE=-1.54D-07 OVMax= 4.48D-05

 Cycle  12  Pass 1  IDiag  1:
 RMSU=  3.96D-07    CP:  1.01D+00  9.15D-01  4.48D-01  3.00D-01  8.70D-01
                    CP:  4.36D-01  6.77D-01  6.21D-01  5.53D-01  7.80D-01
                    CP:  6.76D-01
 E= -685.132737304683     Delta-E=        0.000000013611 Rises=F Damp=F
 DIIS: error= 4.18D-06 at cycle  12 NSaved=  12.
 NSaved=12 IEnMin=11 EnMin= -685.132737318294     IErMin=12 ErrMin= 4.18D-06
 ErrMax= 4.18D-06  0.00D+00 EMaxC= 1.00D-01 BMatC= 6.28D-09 BMatP= 2.22D-08
 IDIUse=1 WtCom= 1.00D+00 WtEn= 0.00D+00
 Coeff-Com:  0.174D-03-0.166D-03 0.258D-03-0.782D-04 0.372D-03 0.149D-02
 Coeff-Com:  0.700D-02 0.133D-01 0.315D-01 0.185D+00 0.361D+00 0.401D+00
 Coeff:      0.174D-03-0.166D-03 0.258D-03-0.782D-04 0.372D-03 0.149D-02
 Coeff:      0.700D-02 0.133D-01 0.315D-01 0.185D+00 0.361D+00 0.401D+00
 Gap=     0.161 Goal=   None    Shift=    0.000
 RMSDP=3.26D-07 MaxDP=1.45D-05 DE= 1.36D-08 OVMax= 2.60D-05

 Cycle  13  Pass 1  IDiag  1:
 RMSU=  1.91D-07    CP:  1.01D+00  9.15D-01  4.48D-01  3.00D-01  8.70D-01
                    CP:  4.36D-01  6.77D-01  6.20D-01  5.56D-01  7.86D-01
                    CP:  6.69D-01  3.85D-01
 E= -685.132737308614     Delta-E=       -0.000000003932 Rises=F Damp=F
 DIIS: error= 1.38D-06 at cycle  13 NSaved=  13.
 NSaved=13 IEnMin=11 EnMin= -685.132737318294     IErMin=13 ErrMin= 1.38D-06
 ErrMax= 1.38D-06  0.00D+00 EMaxC= 1.00D-01 BMatC= 9.43D-10 BMatP= 6.28D-09
 IDIUse=1 WtCom= 1.00D+00 WtEn= 0.00D+00
 Coeff-Com:  0.358D-04-0.292D-04 0.580D-04-0.102D-04 0.368D-04-0.293D-04
 Coeff-Com:  0.464D-03 0.138D-03 0.498D-02 0.504D-01 0.159D+00 0.301D+00
 Coeff-Com:  0.484D+00
 Coeff:      0.358D-04-0.292D-04 0.580D-04-0.102D-04 0.368D-04-0.293D-04
 Coeff:      0.464D-03 0.138D-03 0.498D-02 0.504D-01 0.159D+00 0.301D+00
 Coeff:      0.484D+00
 Gap=     0.161 Goal=   None    Shift=    0.000
 RMSDP=1.13D-07 MaxDP=4.22D-06 DE=-3.93D-09 OVMax= 7.25D-06

 Cycle  14  Pass 1  IDiag  1:
 RMSU=  5.63D-08    CP:  1.01D+00  9.15D-01  4.48D-01  3.00D-01  8.70D-01
                    CP:  4.36D-01  6.77D-01  6.20D-01  5.55D-01  7.88D-01
                    CP:  6.79D-01  4.93D-01  5.70D-01
 E= -685.132737309338     Delta-E=       -0.000000000724 Rises=F Damp=F
 DIIS: error= 2.23D-07 at cycle  14 NSaved=  14.
 NSaved=14 IEnMin=11 EnMin= -685.132737318294     IErMin=14 ErrMin= 2.23D-07
 ErrMax= 2.23D-07  0.00D+00 EMaxC= 1.00D-01 BMatC= 2.22D-11 BMatP= 9.43D-10
 IDIUse=1 WtCom= 1.00D+00 WtEn= 0.00D+00
 Coeff-Com:  0.559D-05-0.813D-06 0.191D-04-0.296D-05 0.697D-05-0.869D-04
 Coeff-Com: -0.101D-03-0.547D-03 0.692D-03 0.131D-01 0.535D-01 0.116D+00
 Coeff-Com:  0.225D+00 0.593D+00
 Coeff:      0.559D-05-0.813D-06 0.191D-04-0.296D-05 0.697D-05-0.869D-04
 Coeff:     -0.101D-03-0.547D-03 0.692D-03 0.131D-01 0.535D-01 0.116D+00
 Coeff:      0.225D+00 0.593D+00
 Gap=     0.161 Goal=   None    Shift=    0.000
 RMSDP=2.45D-08 MaxDP=8.95D-07 DE=-7.24D-10 OVMax= 1.01D-06

 Cycle  15  Pass 1  IDiag  1:
 RMSU=  1.53D-08    CP:  1.01D+00  9.15D-01  4.48D-01  3.00D-01  8.70D-01
                    CP:  4.36D-01  6.77D-01  6.20D-01  5.55D-01  7.87D-01
                    CP:  6.87D-01  5.07D-01  5.72D-01  7.94D-01
 E= -685.132737309352     Delta-E=       -0.000000000014 Rises=F Damp=F
 DIIS: error= 1.12D-07 at cycle  15 NSaved=  15.
 NSaved=15 IEnMin=11 EnMin= -685.132737318294     IErMin=15 ErrMin= 1.12D-07
 ErrMax= 1.12D-07  0.00D+00 EMaxC= 1.00D-01 BMatC= 5.07D-12 BMatP= 2.22D-11
 IDIUse=1 WtCom= 1.00D+00 WtEn= 0.00D+00
 Coeff-Com:  0.494D-06 0.141D-05 0.649D-05-0.947D-06 0.140D-05-0.444D-04
 Coeff-Com: -0.869D-04-0.301D-03-0.453D-04 0.286D-02 0.163D-01 0.405D-01
 Coeff-Com:  0.897D-01 0.379D+00 0.472D+00
 Coeff:      0.494D-06 0.141D-05 0.649D-05-0.947D-06 0.140D-05-0.444D-04
 Coeff:     -0.869D-04-0.301D-03-0.453D-04 0.286D-02 0.163D-01 0.405D-01
 Coeff:      0.897D-01 0.379D+00 0.472D+00
 Gap=     0.161 Goal=   None    Shift=    0.000
 RMSDP=7.36D-09 MaxDP=1.87D-07 DE=-1.40D-11 OVMax= 4.51D-07

 Error on total polarization charges =  0.00958
 SCF Done:  E(RB-P86) =  -685.132737309     A.U. after   15 cycles
            NFock= 15  Conv=0.74D-08     -V/T= 2.0044
 KE= 6.821332384090D+02 PE=-3.054765912467D+03 EE= 9.645093154239D+02
 Leave Link  502 at Mon Feb 22 21:11:57 2021, MaxMem=   104857600 cpu:             569.7 elap:              18.2
 (Enter /sw/arch/RedHatEnterpriseServer7/EB_production/2019/software/Gaussian/g16.c01/l601.exe)
 Copying SCF densities to generalized density rwf, IOpCl= 0 IROHF=0.

 **********************************************************************

            Population analysis using the SCF Density.

 **********************************************************************

 Orbital symmetries:
       Occupied  (A) (A) (A) (A) (A) (A) (A) (A) (A) (A) (A) (A)
                 (A) (A) (A) (A) (A) (A) (A) (A) (A) (A) (A) (A)
                 (A) (A) (A) (A) (A) (A) (A) (A) (A) (A) (A) (A)
                 (A) (A) (A) (A) (A) (A) (A) (A) (A) (A)
       Virtual   (A) (A) (A) (A) (A) (A) (A) (A) (A) (A) (A) (A)
                 (A) (A) (A) (A) (A) (A) (A) (A) (A) (A) (A) (A)
                 (A) (A) (A) (A) (A) (A) (A) (A) (A) (A) (A) (A)
                 (A) (A) (A) (A) (A) (A) (A) (A) (A) (A) (A) (A)
                 (A) (A) (A) (A) (A) (A) (A) (A) (A) (A) (A) (A)
                 (A) (A) (A) (A) (A) (A) (A) (A) (A) (A) (A) (A)
                 (A) (A) (A) (A) (A) (A) (A) (A) (A) (A) (A) (A)
                 (A) (A) (A) (A) (A) (A) (A) (A) (A) (A) (A) (A)
                 (A) (A) (A) (A) (A) (A) (A) (A) (A) (A) (A) (A)
                 (A) (A) (A) (A) (A) (A) (A) (A) (A) (A) (A) (A)
                 (A) (A) (A) (A) (A) (A) (A) (A) (A) (A) (A) (A)
                 (A) (A) (A) (A) (A) (A) (A) (A) (A) (A) (A) (A)
                 (A) (A) (A) (A) (A) (A) (A) (A) (A) (A) (A) (A)
                 (A) (A) (A) (A) (A) (A) (A) (A) (A) (A) (A) (A)
                 (A) (A) (A) (A) (A) (A) (A) (A) (A) (A) (A) (A)
                 (A) (A) (A) (A) (A) (A) (A) (A) (A) (A) (A) (A)
                 (A) (A) (A) (A) (A) (A) (A) (A) (A) (A) (A) (A)
                 (A) (A) (A) (A) (A) (A) (A) (A) (A) (A) (A) (A)
                 (A) (A) (A) (A) (A) (A) (A) (A) (A) (A) (A) (A)
                 (A) (A)
 The electronic state is 1-A.
 Alpha  occ. eigenvalues --  -18.83045 -18.83040 -18.82847 -18.76954 -18.76805
 Alpha  occ. eigenvalues --  -18.76768 -10.04849 -10.04753 -10.04656  -9.96172
 Alpha  occ. eigenvalues --   -9.94165  -9.94050  -1.02635  -1.02536  -1.02338
 Alpha  occ. eigenvalues --   -0.93242  -0.93181  -0.93062  -0.78318  -0.71170
 Alpha  occ. eigenvalues --   -0.66627  -0.60568  -0.59176  -0.56026  -0.49747
 Alpha  occ. eigenvalues --   -0.47879  -0.45936  -0.44572  -0.43904  -0.42780
 Alpha  occ. eigenvalues --   -0.42620  -0.41790  -0.39924  -0.38559  -0.37933
 Alpha  occ. eigenvalues --   -0.36381  -0.35031  -0.34371  -0.33929  -0.33278
 Alpha  occ. eigenvalues --   -0.29303  -0.29244  -0.29002  -0.24753  -0.24407
 Alpha  occ. eigenvalues --   -0.24235
 Alpha virt. eigenvalues --   -0.08102  -0.07266  -0.05490   0.00441   0.01395
 Alpha virt. eigenvalues --    0.02350   0.04927   0.05592   0.06281   0.07861
 Alpha virt. eigenvalues --    0.08867   0.10848   0.11632   0.12661   0.13434
 Alpha virt. eigenvalues --    0.14105   0.15973   0.16347   0.17897   0.18588
 Alpha virt. eigenvalues --    0.20230   0.21170   0.22986   0.24155   0.24563
 Alpha virt. eigenvalues --    0.25767   0.26381   0.27697   0.28158   0.28600
 Alpha virt. eigenvalues --    0.30329   0.31603   0.32767   0.33154   0.34802
 Alpha virt. eigenvalues --    0.35505   0.36617   0.36694   0.37355   0.38323
 Alpha virt. eigenvalues --    0.38521   0.38901   0.40301   0.41286   0.41764
 Alpha virt. eigenvalues --    0.42780   0.43310   0.43578   0.44653   0.45058
 Alpha virt. eigenvalues --    0.45269   0.46030   0.46888   0.48767   0.49423
 Alpha virt. eigenvalues --    0.50568   0.51242   0.51559   0.54689   0.55042
 Alpha virt. eigenvalues --    0.56451   0.59036   0.59193   0.60274   0.61144
 Alpha virt. eigenvalues --    0.62755   0.63940   0.64623   0.68421   0.71797
 Alpha virt. eigenvalues --    0.74801   0.75136   0.77343   0.79264   0.83727
 Alpha virt. eigenvalues --    0.88020   0.90998   0.96209   1.07186   1.09785
 Alpha virt. eigenvalues --    1.15839   1.18617   1.20173   1.23388   1.23851
 Alpha virt. eigenvalues --    1.25999   1.26365   1.28540   1.29199   1.30221
 Alpha virt. eigenvalues --    1.31290   1.31834   1.32682   1.34935   1.35216
 Alpha virt. eigenvalues --    1.37178   1.38384   1.39232   1.40852   1.42536
 Alpha virt. eigenvalues --    1.43398   1.46024   1.47234   1.49909   1.51313
 Alpha virt. eigenvalues --    1.52416   1.53038   1.54858   1.55501   1.56310
 Alpha virt. eigenvalues --    1.57716   1.58757   1.59121   1.60276   1.60563
 Alpha virt. eigenvalues --    1.65216   1.71294   1.73197   1.75465   1.80103
 Alpha virt. eigenvalues --    1.80864   1.84070   1.87675   1.89432   1.89747
 Alpha virt. eigenvalues --    1.90502   1.90852   1.91459   1.93231   2.01402
 Alpha virt. eigenvalues --    2.05333   2.06033   2.07461   2.10124   2.13702
 Alpha virt. eigenvalues --    2.14666   2.16142   2.18521   2.20110   2.21638
 Alpha virt. eigenvalues --    2.25951   2.26866   2.30372   2.34986   2.36127
 Alpha virt. eigenvalues --    2.36780   2.40807   2.42574   2.45347   2.47990
 Alpha virt. eigenvalues --    2.48932   2.49309   2.50366   2.51404   2.51604
 Alpha virt. eigenvalues --    2.52361   2.53022   2.53755   2.55022   2.55827
 Alpha virt. eigenvalues --    2.56000   2.57064   2.57781   2.57974   2.59535
 Alpha virt. eigenvalues --    2.60115   2.61145   2.61568   2.63150   2.63678
 Alpha virt. eigenvalues --    2.65355   2.66660   2.69003   2.71112   2.71426
 Alpha virt. eigenvalues --    2.75930   2.76331   2.76935   2.80332   2.81481
 Alpha virt. eigenvalues --    2.82271   2.84796   2.87034   2.88056   2.88553
 Alpha virt. eigenvalues --    2.91576   2.92958   2.93571   2.95650   3.01059
 Alpha virt. eigenvalues --    3.02998   3.04579   3.06061   3.07378   3.07867
 Alpha virt. eigenvalues --    3.09117   3.12576   3.15126   3.17060   3.20266
 Alpha virt. eigenvalues --    3.22722   3.27714   3.30004   3.32127   3.33652
 Alpha virt. eigenvalues --    3.34882   3.44074   3.44823   3.45660   3.81648
 Alpha virt. eigenvalues --    3.83977   3.84952   3.99621   4.00130   4.00225
 Alpha virt. eigenvalues --    4.17157   4.17576   4.18727  21.66254  21.68983
 Alpha virt. eigenvalues --   21.73283  21.82320  21.82932  21.85347  43.05483
 Alpha virt. eigenvalues --   43.07351  43.10600  43.12830  43.16564  43.23283
          Condensed to atoms (all electrons):
               1          2          3          4          5          6
     1  O    7.988151   0.589437  -0.123385  -0.123204   0.002945  -0.007119
     2  C    0.589437   4.925646   0.354197   0.064708  -0.026367   0.014522
     3  O   -0.123385   0.354197   7.850779  -0.109702  -0.015592   0.008217
     4  C   -0.123204   0.064708  -0.109702   5.586106   0.221660   0.009470
     5  C    0.002945  -0.026367  -0.015592   0.221660   5.910677   0.107892
     6  C   -0.007119   0.014522   0.008217   0.009470   0.107892   5.808234
     7  C    0.000071  -0.006511   0.000387  -0.007820  -0.043580  -0.020131
     8  O    0.000014  -0.000647   0.000005  -0.001456  -0.012243  -0.132708
     9  O    0.000000  -0.000011  -0.000000  -0.001707  -0.015522  -0.123997
    10  C   -0.003619  -0.015823  -0.001409  -0.049520  -0.069694  -0.043106
    11  O    0.000001  -0.000330   0.000020  -0.015660  -0.090294  -0.004243
    12  O    0.000035  -0.001044   0.000001  -0.007578  -0.112810  -0.012619
    13  H    0.001546  -0.023130   0.293580   0.015799  -0.000146  -0.000181
    14  H   -0.004131  -0.026889   0.000933   0.405329  -0.032706   0.009960
    15  H    0.007836  -0.019048   0.012515   0.332634  -0.002195  -0.015999
    16  H    0.016309  -0.014729   0.002511  -0.044785   0.365738  -0.063625
    17  H    0.000183  -0.004656   0.000581  -0.016156   0.000489   0.299567
    18  H    0.000597   0.012259  -0.001981  -0.012443  -0.028471   0.412378
    19  H    0.000000   0.000002  -0.000000   0.000099   0.001442   0.014120
    20  H   -0.000002   0.000029  -0.000000  -0.000471   0.015399  -0.000520
               7          8          9         10         11         12
     1  O    0.000071   0.000014   0.000000  -0.003619   0.000001   0.000035
     2  C   -0.006511  -0.000647  -0.000011  -0.015823  -0.000330  -0.001044
     3  O    0.000387   0.000005  -0.000000  -0.001409   0.000020   0.000001
     4  C   -0.007820  -0.001456  -0.001707  -0.049520  -0.015660  -0.007578
     5  C   -0.043580  -0.012243  -0.015522  -0.069694  -0.090294  -0.112810
     6  C   -0.020131  -0.132708  -0.123997  -0.043106  -0.004243  -0.012619
     7  C    4.920775   0.637827   0.352557  -0.000865  -0.007400   0.009592
     8  O    0.637827   7.963135  -0.127726  -0.001807  -0.000023   0.000041
     9  O    0.352557  -0.127726   7.865500   0.024226  -0.002477  -0.001208
    10  C   -0.000865  -0.001807   0.024226   5.157027   0.573269   0.364365
    11  O   -0.007400  -0.000023  -0.002477   0.573269   7.972079  -0.123237
    12  O    0.009592   0.000041  -0.001208   0.364365  -0.123237   7.841001
    13  H    0.000020   0.000002   0.000000   0.000052   0.000000  -0.000000
    14  H   -0.000192   0.000007   0.000008   0.003416  -0.001733   0.001082
    15  H    0.000661   0.000013   0.000059  -0.021485   0.011125   0.001371
    16  H    0.021476   0.005721   0.001067  -0.045462   0.007811   0.016368
    17  H    0.026031   0.003962   0.004974  -0.024898   0.011336   0.001339
    18  H   -0.043203   0.009387   0.004589   0.010500   0.000673  -0.000056
    19  H   -0.019193   0.001710   0.290984  -0.001057   0.000122   0.000085
    20  H    0.000052   0.000004   0.000283  -0.023257   0.001381   0.294942
              13         14         15         16         17         18
     1  O    0.001546  -0.004131   0.007836   0.016309   0.000183   0.000597
     2  C   -0.023130  -0.026889  -0.019048  -0.014729  -0.004656   0.012259
     3  O    0.293580   0.000933   0.012515   0.002511   0.000581  -0.001981
     4  C    0.015799   0.405329   0.332634  -0.044785  -0.016156  -0.012443
     5  C   -0.000146  -0.032706  -0.002195   0.365738   0.000489  -0.028471
     6  C   -0.000181   0.009960  -0.015999  -0.063625   0.299567   0.412378
     7  C    0.000020  -0.000192   0.000661   0.021476   0.026031  -0.043203
     8  O    0.000002   0.000007   0.000013   0.005721   0.003962   0.009387
     9  O    0.000000   0.000008   0.000059   0.001067   0.004974   0.004589
    10  C    0.000052   0.003416  -0.021485  -0.045462  -0.024898   0.010500
    11  O    0.000000  -0.001733   0.011125   0.007811   0.011336   0.000673
    12  O   -0.000000   0.001082   0.001371   0.016368   0.001339  -0.000056
    13  H    0.373366  -0.000372  -0.000563  -0.000037   0.000015   0.000098
    14  H   -0.000372   0.449538  -0.013085  -0.000220   0.000100  -0.000031
    15  H   -0.000563  -0.013085   0.513157   0.008096   0.005377   0.000592
    16  H   -0.000037  -0.000220   0.008096   0.511796   0.008590   0.000078
    17  H    0.000015   0.000100   0.005377   0.008590   0.506608  -0.011631
    18  H    0.000098  -0.000031   0.000592   0.000078  -0.011631   0.455417
    19  H   -0.000000  -0.000001  -0.000001  -0.000177  -0.000391  -0.000329
    20  H    0.000000  -0.000116  -0.000027  -0.000649  -0.000004   0.000012
              19         20
     1  O    0.000000  -0.000002
     2  C    0.000002   0.000029
     3  O   -0.000000  -0.000000
     4  C    0.000099  -0.000471
     5  C    0.001442   0.015399
     6  C    0.014120  -0.000520
     7  C   -0.019193   0.000052
     8  O    0.001710   0.000004
     9  O    0.290984   0.000283
    10  C   -0.001057  -0.023257
    11  O    0.000122   0.001381
    12  O    0.000085   0.294942
    13  H   -0.000000   0.000000
    14  H   -0.000001  -0.000116
    15  H   -0.000001  -0.000027
    16  H   -0.000177  -0.000649
    17  H   -0.000391  -0.000004
    18  H   -0.000329   0.000012
    19  H    0.373136  -0.000020
    20  H   -0.000020   0.371436
 Mulliken charges:
               1
     1  O   -0.345665
     2  C    0.178384
     3  O   -0.271656
     4  C   -0.245301
     5  C   -0.176621
     6  C   -0.260113
     7  C    0.179446
     8  O   -0.345220
     9  O   -0.271599
    10  C    0.169148
    11  O   -0.332420
    12  O   -0.271670
    13  H    0.339950
    14  H    0.209103
    15  H    0.178968
    16  H    0.204122
    17  H    0.188584
    18  H    0.191562
    19  H    0.339470
    20  H    0.341527
 Sum of Mulliken charges =  -0.00000
 Mulliken charges with hydrogens summed into heavy atoms:
               1
     1  O   -0.345665
     2  C    0.178384
     3  O    0.068294
     4  C    0.142769
     5  C    0.027501
     6  C    0.120033
     7  C    0.179446
     8  O   -0.345220
     9  O    0.067871
    10  C    0.169148
    11  O   -0.332420
    12  O    0.069858
 Electronic spatial extent (au):  <R**2>=           2353.4559
 Charge=              0.0000 electrons
 Dipole moment (field-independent basis, Debye):
    X=              0.1218    Y=              1.8036    Z=             -1.4391  Tot=              2.3106
 Quadrupole moment (field-independent basis, Debye-Ang):
   XX=            -52.3749   YY=            -70.3662   ZZ=            -79.0950
   XY=              6.3562   XZ=             10.4888   YZ=             11.2643
 Traceless Quadrupole moment (field-independent basis, Debye-Ang):
   XX=             14.9038   YY=             -3.0875   ZZ=            -11.8163
   XY=              6.3562   XZ=             10.4888   YZ=             11.2643
 Octapole moment (field-independent basis, Debye-Ang**2):
  XXX=             27.6295  YYY=             48.6839  ZZZ=             -3.6097  XYY=            -10.9721
  XXY=            -18.7612  XXZ=            -13.3470  XZZ=             10.6676  YZZ=             -3.3335
  YYZ=              2.9331  XYZ=             13.5721
 Hexadecapole moment (field-independent basis, Debye-Ang**3):
 XXXX=          -1189.6792 YYYY=           -849.3935 ZZZZ=           -309.6556 XXXY=             84.4726
 XXXZ=            114.6272 YYYX=            131.2667 YYYZ=             84.3796 ZZZX=             20.7205
 ZZZY=             11.5654 XXYY=           -325.3898 XXZZ=           -389.0861 YYZZ=           -206.3805
 XXYZ=             56.6688 YYXZ=             23.7454 ZZXY=             -1.1434
 N-N= 7.229906213242D+02 E-N=-3.054765905903D+03  KE= 6.821332384090D+02
 No NMR shielding tensors so no spin-rotation constants.
 Leave Link  601 at Mon Feb 22 21:11:58 2021, MaxMem=   104857600 cpu:               7.3 elap:               0.3
 (Enter /sw/arch/RedHatEnterpriseServer7/EB_production/2019/software/Gaussian/g16.c01/l701.exe)
 ... and contract with generalized density number  0.
 Compute integral first derivatives.
 R6Disp: Adding Grimme-D3 dispersion energy 1st derivatives to the gradient.
 PrsmSu:  requested number of processors reduced to:  29 ShMem   1 Linda.
 D1PCM: PCM CHGder 1st derivatives, ID1Alg=3 FixD1E=F DoIter=F DoCFld=F I1PDM=0.
 GePol: Maximum number of non-zero 1st derivatives   =     219
 CoulSu:  requested number of processors reduced to:  29 ShMem   1 Linda.
 CoulSu:  requested number of processors reduced to:  30 ShMem   1 Linda.
 Leave Link  701 at Mon Feb 22 21:11:59 2021, MaxMem=   104857600 cpu:              24.2 elap:               0.8
 (Enter /sw/arch/RedHatEnterpriseServer7/EB_production/2019/software/Gaussian/g16.c01/l702.exe)
 L702 exits ... SP integral derivatives will be done elsewhere.
 Leave Link  702 at Mon Feb 22 21:11:59 2021, MaxMem=   104857600 cpu:               0.7 elap:               0.1
 (Enter /sw/arch/RedHatEnterpriseServer7/EB_production/2019/software/Gaussian/g16.c01/l703.exe)
 Integral derivatives from FoFJK, PRISM(SPDF).
 Compute integral first derivatives, UseDBF=F ICtDFT=           0.
 Calling FoFJK, ICntrl=      2527 FMM=F ISym2X=0 I1Cent= 0 IOpClX= 0 NMat=1 NMatS=1 NMatT=0.
 FoFJK:  IHMeth= 1 ICntrl=    2527 DoSepK=F KAlg= 0 I1Cent=           0 FoldK=F
 IRaf=         0 NMat=       1 IRICut=       1 DoRegI=T DoRafI=F ISym2E= 0 IDoP0=0 IntGTp=1.
 FoFCou: FMM=F IPFlag=           0 FMFlag=      100000 FMFlg1=         800
         NFxFlg=           0 DoJE=F BraDBF=F KetDBF=F FulRan=T
         wScrn=  0.000000 ICntrl=      2527 IOpCl=  0 I1Cent=           0 NGrid=           0
         NMat0=    1 NMatS0=      1 NMatT0=    0 NMatD0=    1 NMtDS0=    0 NMtDT0=    0
 Symmetry not used in FoFCou.
 Leave Link  703 at Mon Feb 22 21:12:01 2021, MaxMem=   104857600 cpu:              67.8 elap:               2.2
 (Enter /sw/arch/RedHatEnterpriseServer7/EB_production/2019/software/Gaussian/g16.c01/l716.exe)
 Dipole        = 4.79313191D-02 7.09578422D-01-5.66202729D-01
 ***** Axes restored to original set *****
 -------------------------------------------------------------------
 Center     Atomic                   Forces (Hartrees/Bohr)
 Number     Number              X              Y              Z
 -------------------------------------------------------------------
      1        8           0.015837853    0.002950803   -0.021094632
      2        6          -0.050117402   -0.025087621    0.064996012
      3        8           0.026407450    0.009045200   -0.033977212
      4        6           0.018237163   -0.001165054   -0.021979922
      5        6          -0.012754696   -0.007856270    0.021304537
      6        6          -0.007146590    0.014263555   -0.019840213
      7        6           0.034124305   -0.025084973    0.072787295
      8        8          -0.007095542    0.011589103   -0.024181977
      9        8          -0.014365893    0.016091192   -0.037768554
     10        6           0.048647309    0.041538694   -0.063956685
     11        8          -0.017031328   -0.010594997    0.023051195
     12        8          -0.024158017   -0.018931805    0.033668599
     13        1          -0.001502402    0.012799842    0.013723511
     14        1          -0.001693608    0.002542628    0.001642038
     15        1           0.003677830    0.001754694   -0.004112452
     16        1          -0.002936269   -0.001929076    0.004377441
     17        1          -0.000809874    0.002493000   -0.006446463
     18        1           0.000246428   -0.000199946    0.003102038
     19        1          -0.010548409   -0.012424199    0.010075304
     20        1           0.002981691   -0.011794770   -0.015369859
 -------------------------------------------------------------------
 Cartesian Forces:  Max     0.072787295 RMS     0.023921036
 Leave Link  716 at Mon Feb 22 21:12:02 2021, MaxMem=   104857600 cpu:               0.8 elap:               0.1
 (Enter /sw/arch/RedHatEnterpriseServer7/EB_production/2019/software/Gaussian/g16.c01/l103.exe)

 GradGradGradGradGradGradGradGradGradGradGradGradGradGradGradGradGradGrad
 Berny optimization.
 FormGI is forming the generalized inverse of G from B-inverse, IUseBI=4.
 Internal  Forces:  Max     0.035512529 RMS     0.012070703
 Search for a local minimum.
 Step number   1 out of a maximum of  101
 All quantities printed in internal units (Hartrees-Bohrs-Radians)
 RMS Force = .12071D-01 SwitMx=.10000D-02 MixMth= 1
 Mixed Optimization -- RFO/linear search
 Second derivative matrix not updated -- first step.
 ITU=  0
     Eigenvalues ---    0.00230   0.00230   0.00944   0.01055   0.01066
     Eigenvalues ---    0.01260   0.01358   0.01365   0.02275   0.02301
     Eigenvalues ---    0.02317   0.03715   0.04057   0.04076   0.04684
     Eigenvalues ---    0.05376   0.05382   0.06000   0.09685   0.09704
     Eigenvalues ---    0.12985   0.13002   0.16000   0.16000   0.16000
     Eigenvalues ---    0.17038   0.18348   0.21994   0.22004   0.25000
     Eigenvalues ---    0.25000   0.25000   0.25000   0.25000   0.25000
     Eigenvalues ---    0.26425   0.26650   0.33828   0.34219   0.34314
     Eigenvalues ---    0.34315   0.34366   0.34370   0.34786   0.34882
     Eigenvalues ---    0.51342   0.51460   0.51591   0.53778   0.54187
     Eigenvalues ---    0.54444   0.82279   0.82423   0.82681
 RFO step:  Lambda=-4.51407290D-02 EMin= 2.30000000D-03
 Linear search not attempted -- first point.
 Maximum step size (   0.300) exceeded in Quadratic search.
    -- Step size scaled by   0.727
 Iteration  1 RMS(Cart)=  0.04817516 RMS(Int)=  0.00121543
 Iteration  2 RMS(Cart)=  0.00171027 RMS(Int)=  0.00006627
 Iteration  3 RMS(Cart)=  0.00000090 RMS(Int)=  0.00006627
 ITry= 1 IFail=0 DXMaxC= 1.90D-01 DCOld= 1.00D+10 DXMaxT= 3.00D-01 DXLimC= 3.00D+00 Rises=F
 Variable       Old X    -DE/DX   Delta X   Delta X   Delta X     New X
                                 (Linear)    (Quad)   (Total)
    R1        2.36502  -0.02559   0.00000  -0.02134  -0.02134   2.34368
    R2        2.55862  -0.01157   0.00000  -0.01434  -0.01434   2.54429
    R3        2.79167   0.01405   0.00000   0.02593   0.02593   2.81759
    R4        1.85120  -0.00325   0.00000  -0.00422  -0.00422   1.84698
    R5        2.95188  -0.00872   0.00000  -0.02034  -0.02034   2.93154
    R6        2.06801   0.00297   0.00000   0.00556   0.00556   2.07358
    R7        2.06710   0.00447   0.00000   0.00835   0.00835   2.07546
    R8        2.95717  -0.00873   0.00000  -0.02052  -0.02052   2.93665
    R9        2.80921   0.01157   0.00000   0.02194   0.02194   2.83115
   R10        2.06962   0.00474   0.00000   0.00890   0.00890   2.07852
   R11        2.79324   0.01378   0.00000   0.02550   0.02550   2.81873
   R12        2.06803   0.00522   0.00000   0.00978   0.00978   2.07781
   R13        2.06717   0.00089   0.00000   0.00166   0.00166   2.06883
   R14        2.36635  -0.02697   0.00000  -0.02256  -0.02256   2.34379
   R15        2.55629  -0.01034   0.00000  -0.01275  -0.01275   2.54354
   R16        1.84993  -0.00320   0.00000  -0.00415  -0.00415   1.84577
   R17        2.36710  -0.02889   0.00000  -0.02420  -0.02420   2.34289
   R18        2.56234  -0.01412   0.00000  -0.01761  -0.01761   2.54473
   R19        1.85235  -0.00405   0.00000  -0.00527  -0.00527   1.84708
    A1        2.06861   0.02566   0.00000   0.06321   0.06321   2.13182
    A2        2.10590   0.00919   0.00000   0.02264   0.02263   2.12854
    A3        2.10867  -0.03485   0.00000  -0.08584  -0.08585   2.02282
    A4        2.09561  -0.03431   0.00000  -0.12162  -0.12162   1.97399
    A5        1.98399  -0.01001   0.00000  -0.02874  -0.02877   1.95523
    A6        1.86867   0.00233   0.00000   0.00171   0.00146   1.87013
    A7        1.90694   0.00620   0.00000   0.02516   0.02516   1.93210
    A8        1.91664   0.00177   0.00000  -0.00102  -0.00115   1.91549
    A9        1.90906   0.00103   0.00000   0.00175   0.00194   1.91100
   A10        1.87522  -0.00085   0.00000   0.00280   0.00271   1.87793
   A11        1.95693  -0.00026   0.00000  -0.00815  -0.00834   1.94859
   A12        1.91274  -0.00176   0.00000  -0.01168  -0.01186   1.90089
   A13        1.87430   0.00027   0.00000   0.00395   0.00402   1.87832
   A14        1.96551  -0.00126   0.00000  -0.00955  -0.00976   1.95575
   A15        1.88165   0.00016   0.00000   0.00438   0.00442   1.88608
   A16        1.86800   0.00316   0.00000   0.02371   0.02377   1.89177
   A17        1.98762  -0.00104   0.00000  -0.00434  -0.00436   1.98326
   A18        1.92371  -0.00383   0.00000  -0.01524  -0.01522   1.90849
   A19        1.89761   0.00161   0.00000   0.00305   0.00299   1.90060
   A20        1.88846   0.00442   0.00000   0.02060   0.02061   1.90907
   A21        1.88624  -0.00240   0.00000  -0.01287  -0.01288   1.87336
   A22        1.87682   0.00139   0.00000   0.00966   0.00970   1.88652
   A23        2.11737   0.00877   0.00000   0.02162   0.02161   2.13898
   A24        2.09595  -0.03291   0.00000  -0.08107  -0.08108   2.01487
   A25        2.06987   0.02414   0.00000   0.05947   0.05947   2.12933
   A26        2.10562  -0.03492   0.00000  -0.12375  -0.12375   1.98187
   A27        2.11867   0.00599   0.00000   0.01474   0.01473   2.13340
   A28        2.10250  -0.03533   0.00000  -0.08705  -0.08706   2.01544
   A29        2.06200   0.02934   0.00000   0.07227   0.07226   2.13427
   A30        2.10311  -0.03551   0.00000  -0.12586  -0.12586   1.97725
    D1       -0.01547   0.00063   0.00000   0.00712   0.00717  -0.00830
    D2        3.12765   0.00024   0.00000   0.00215   0.00211   3.12976
    D3        1.12367  -0.00095   0.00000  -0.01245  -0.01233   1.11134
    D4       -0.99608   0.00147   0.00000   0.00567   0.00571  -0.99037
    D5       -3.02182  -0.00196   0.00000  -0.01144  -0.01156  -3.03338
    D6       -2.01949  -0.00053   0.00000  -0.00734  -0.00725  -2.02673
    D7        2.14395   0.00189   0.00000   0.01078   0.01079   2.15474
    D8        0.11821  -0.00154   0.00000  -0.00633  -0.00648   0.11174
    D9        1.14216   0.00236   0.00000   0.01780   0.01774   1.15990
   D10       -2.94496  -0.00081   0.00000  -0.00948  -0.00947  -2.95443
   D11       -0.92169   0.00215   0.00000   0.01464   0.01461  -0.90707
   D12       -3.04824  -0.00008   0.00000   0.00008   0.00009  -3.04815
   D13       -0.85218  -0.00325   0.00000  -0.02721  -0.02712  -0.87930
   D14        1.17109  -0.00029   0.00000  -0.00309  -0.00304   1.16806
   D15       -0.99437   0.00053   0.00000   0.00392   0.00385  -0.99051
   D16        1.20169  -0.00264   0.00000  -0.02337  -0.02336   1.17833
   D17       -3.05822   0.00032   0.00000   0.00075   0.00073  -3.05749
   D18       -3.06302   0.00086   0.00000   0.00740   0.00743  -3.05559
   D19        1.09417  -0.00130   0.00000  -0.00494  -0.00492   1.08925
   D20       -0.95897  -0.00174   0.00000  -0.00967  -0.00965  -0.96862
   D21        1.05321   0.00439   0.00000   0.03668   0.03666   1.08987
   D22       -1.07280   0.00223   0.00000   0.02435   0.02432  -1.04848
   D23       -3.12594   0.00179   0.00000   0.01962   0.01959  -3.10635
   D24       -1.00353   0.00113   0.00000   0.01028   0.01029  -0.99325
   D25       -3.12954  -0.00102   0.00000  -0.00206  -0.00206  -3.13160
   D26        1.10051  -0.00146   0.00000  -0.00679  -0.00679   1.09372
   D27       -1.18653   0.00196   0.00000   0.02199   0.02189  -1.16463
   D28        1.95074   0.00127   0.00000   0.01320   0.01318   1.96392
   D29        1.00462  -0.00066   0.00000  -0.00465  -0.00464   0.99998
   D30       -2.14130  -0.00135   0.00000  -0.01343  -0.01335  -2.15465
   D31        3.06939   0.00082   0.00000   0.01038   0.01036   3.07975
   D32       -0.07653   0.00014   0.00000   0.00160   0.00165  -0.07488
   D33        1.89199   0.00062   0.00000  -0.00069  -0.00063   1.89136
   D34       -1.25294   0.00122   0.00000   0.00667   0.00669  -1.24626
   D35       -2.24581  -0.00174   0.00000  -0.00800  -0.00798  -2.25379
   D36        0.89244  -0.00114   0.00000  -0.00065  -0.00066   0.89178
   D37       -0.21842   0.00096   0.00000   0.00740   0.00738  -0.21103
   D38        2.91983   0.00156   0.00000   0.01476   0.01470   2.93453
   D39       -3.13761  -0.00075   0.00000  -0.00860  -0.00866   3.13692
   D40        0.00073  -0.00020   0.00000  -0.00151  -0.00145  -0.00073
   D41       -3.11856   0.00017   0.00000   0.00235   0.00246  -3.11610
   D42        0.01884  -0.00054   0.00000  -0.00628  -0.00640   0.01245
         Item               Value     Threshold  Converged?
 Maximum Force            0.035513     0.000450     NO 
 RMS     Force            0.012071     0.000300     NO 
 Maximum Displacement     0.190087     0.001800     NO 
 RMS     Displacement     0.049226     0.001200     NO 
 Predicted change in Energy=-2.306643D-02
 Lowest energy point so far.  Saving SCF results.
 GradGradGradGradGradGradGradGradGradGradGradGradGradGradGradGradGradGrad

 Leave Link  103 at Mon Feb 22 21:12:02 2021, MaxMem=   104857600 cpu:               1.0 elap:               0.1
 (Enter /sw/arch/RedHatEnterpriseServer7/EB_production/2019/software/Gaussian/g16.c01/l202.exe)
                          Input orientation:                          
 ---------------------------------------------------------------------
 Center     Atomic      Atomic             Coordinates (Angstroms)
 Number     Number       Type             X           Y           Z
 ---------------------------------------------------------------------
      1          8           0       -1.620689    1.164933   -0.890154
      2          6           0       -1.047168    1.037740   -1.982420
      3          8           0       -1.202111   -0.057792   -2.749581
      4          6           0       -0.139023    2.088943   -2.524030
      5          6           0        1.109930    2.296963   -1.627711
      6          6           0        2.031742    1.045884   -1.629727
      7          6           0        3.186485    1.152482   -0.691587
      8          8           0        3.256602    0.495276    0.357918
      9          8           0        4.151072    2.016900   -1.057690
     10          6           0        1.832540    3.528933   -2.080074
     11          8           0        2.392436    3.599374   -3.184008
     12          8           0        1.819251    4.559400   -1.213281
     13          1           0       -1.796428   -0.723806   -2.351481
     14          1           0       -0.717015    3.020187   -2.576497
     15          1           0        0.179977    1.838187   -3.544613
     16          1           0        0.757754    2.459464   -0.598458
     17          1           0        2.404716    0.869843   -2.648972
     18          1           0        1.444968    0.172648   -1.326915
     19          1           0        4.891140    2.067910   -0.422299
     20          1           0        2.279901    5.353189   -1.549552
 ---------------------------------------------------------------------
                    Distance matrix (angstroms):
                    1          2          3          4          5
     1  O    0.000000
     2  C    1.240222   0.000000
     3  O    2.264450   1.346378   0.000000
     4  C    2.391376   1.491006   2.406138   0.000000
     5  C    3.046598   2.522803   3.485541   1.551304   0.000000
     6  C    3.728458   3.099056   3.595829   2.569041   1.554008
     7  C    4.811289   4.427554   4.995987   3.910730   2.549165
     8  O    5.078788   4.928882   5.462834   4.730292   3.434675
     9  O    5.836706   5.369877   5.985267   4.534342   3.106751
    10  C    4.350770   3.808977   4.745730   2.481478   1.498182
    11  O    5.224312   4.453836   5.146295   3.020803   2.400658
    12  O    4.843553   4.605434   5.727767   3.414097   2.406971
    13  H    2.394514   1.949523   0.977380   3.269300   4.253916
    14  H    2.665023   2.095716   3.120774   1.097289   2.181967
    15  H    3.277472   2.141740   2.477293   1.098284   2.179404
    16  H    2.723579   2.682236   3.847724   2.156229   1.099907
    17  H    4.402773   3.519657   3.725565   2.823548   2.180852
    18  H    3.251714   2.718237   3.013986   2.759402   2.171507
    19  H    6.590764   6.225651   6.860216   5.451629   3.975303
    20  H    5.761154   5.466248   6.545471   4.178050   3.273448
                    6          7          8          9         10
     6  C    0.000000
     7  C    1.491610   0.000000
     8  O    2.398788   1.240281   0.000000
     9  O    2.400345   1.345986   2.262601   0.000000
    10  C    2.531408   3.067341   4.144253   2.950780   0.000000
    11  O    3.011013   3.581892   4.788261   3.180920   1.239804
    12  O    3.544485   3.707908   4.588218   3.453389   1.346614
    13  H    4.278740   5.577197   5.861750   6.675187   5.597219
    14  H    3.514245   4.720013   5.547576   5.197272   2.646789
    15  H    2.779130   4.201076   5.147696   4.688957   2.781090
    16  H    2.164433   2.759639   3.319176   3.452733   2.119934
    17  H    1.099528   2.126595   3.147602   2.626343   2.778811
    18  H    1.094779   2.096807   2.494948   3.285840   3.461519
    19  H    3.267809   1.953554   2.398673   0.976742   3.773306
    20  H    4.315192   4.382229   5.309585   3.856686   1.951792
                   11         12         13         14         15
    11  O    0.000000
    12  O    2.265823   0.000000
    13  H    6.076970   6.502376   0.000000
    14  H    3.220747   3.264994   3.902979   0.000000
    15  H    2.850752   3.940473   3.448703   1.771713   0.000000
    16  H    3.264452   2.431978   4.441862   2.530216   3.065883
    17  H    2.781501   4.002100   4.503091   3.791364   2.586373
    18  H    4.011102   4.404157   3.515681   3.787362   3.048345
    19  H    4.026902   4.033569   7.499266   6.082665   5.656560
    20  H    2.399996   0.977434   7.361346   3.934339   4.554688
                   16         17         18         19         20
    16  H    0.000000
    17  H    3.073107   0.000000
    18  H    2.496486   1.776242   0.000000
    19  H    4.155626   3.546229   4.035648   0.000000
    20  H    3.405166   4.617866   5.252113   4.345380   0.000000
 Stoichiometry    C6H8O6
 Framework group  C1[X(C6H8O6)]
 Deg. of freedom    54
 Full point group                 C1      NOp   1
 RotChk:  IX=0 Diff= 2.31D-02
 Largest Abelian subgroup         C1      NOp   1
 Largest concise Abelian subgroup C1      NOp   1
                         Standard orientation:                         
 ---------------------------------------------------------------------
 Center     Atomic      Atomic             Coordinates (Angstroms)
 Number     Number       Type             X           Y           Z
 ---------------------------------------------------------------------
      1          8           0       -2.824779   -0.290434    1.295875
      2          6           0       -2.551177   -0.054129    0.109514
      3          8           0       -3.215187   -0.634165   -0.908023
      4          6           0       -1.461766    0.887781   -0.276602
      5          6           0       -0.068765    0.388423    0.188944
      6          6           0        0.352551   -0.909779   -0.554093
      7          6           0        1.632366   -1.493925   -0.058365
      8          8           0        1.675347   -2.541094    0.604875
      9          8           0        2.743902   -0.804219   -0.375338
     10          6           0        0.928773    1.490960    0.004876
     11          8           0        1.254955    1.907238   -1.116477
     12          8           0        1.435036    2.009486    1.139863
     13          1           0       -3.912234   -1.250663   -0.609145
     14          1           0       -1.686267    1.852879    0.194810
     15          1           0       -1.450636    1.043843   -1.363685
     16          1           0       -0.138830    0.159506    1.262482
     17          1           0        0.439068   -0.701797   -1.630299
[...]
   19   H     19    1.3000  1.000      3.069398     -1.204879      1.455985
   20   H     20    1.3000  1.000      0.866744      3.412371      0.465660
 ------------------------------------------------------------------------------
 One-electron integrals computed using PRISM.
 PrsmSu:  requested number of processors reduced to:  28 ShMem   1 Linda.
 NBasis=   276 RedAO= T EigKep=  9.36D-05  NBF=   276
 NBsUse=   276 1.00D-06 EigRej= -1.00D+00 NBFU=   276
 Initial guess from the checkpoint file:  "KQTIIICEAUMSDG-UHFFFAOYSA-N.chk"
 B after Tr=    -0.000000   -0.000000   -0.000000
         Rot=    1.000000    0.000000    0.000000   -0.000000 Ang=   0.00 deg.
 Requested convergence on RMS density matrix=1.00D-08 within 128 cycles.
 Requested convergence on MAX density matrix=1.00D-06.
 Requested convergence on             energy=1.00D-06.
 No special actions if energy rises.
 Inv3:  Mode=1 IEnd=     5713200.
 Iteration    1 A*A^-1 deviation from unit magnitude is 3.55D-15 for     16.
 Iteration    1 A*A^-1 deviation from orthogonality  is 4.86D-15 for   1287   1059.
 Iteration    1 A^-1*A deviation from unit magnitude is 3.00D-15 for    361.
 Iteration    1 A^-1*A deviation from orthogonality  is 2.22D-15 for   1150    734.
 Error on nuclear    polarization charges =  0.01813
 Error on electronic polarization charges = -0.04409
 SCF Done:  E(RB-P86) =  -685.158247025     A.U. after   11 cycles
            NFock= 11  Conv=0.48D-08     -V/T= 2.0041
 --------------------------------------------------------------------
 Variational C-PCM results
 =========================
 <psi(f)|   H    |psi(f)>                     (a.u.) =    -685.120457
 <psi(f)|H+V(f)/2|psi(f)>                     (a.u.) =    -685.158247
 Total free energy in solution:
 - with all non electrostatic terms           (a.u.) =    -685.143603
 --------------------------------------------------------------------
 (Polarized solute)-Solvent               (kcal/mol) =     -23.71
 --------------------------------------------------------------------
 Cavitation energy                        (kcal/mol) =      25.60
 Dispersion energy                        (kcal/mol) =     -17.90
 Repulsion energy                         (kcal/mol) =       1.49
 Total non electrostatic                  (kcal/mol) =       9.19
 --------------------------------------------------------------------
 Partition over spheres:
 Sphere  on Atom  Surface  Charge   GEl     GCav    GDR
    1      O1      18.48   0.214   -2.23    2.30   -1.52
    2      C2       9.86  -0.044   -0.44    1.16   -0.62
    3      O3      15.85   0.081   -0.38    1.97   -1.48
    4      C4       7.62  -0.043   -0.50    0.90   -0.29
    5      C5       1.60  -0.013   -0.08    0.19    0.00
    6      C6       7.38  -0.029   -0.16    0.87   -0.32
    7      C7       8.64  -0.018   -0.14    1.01   -0.39
    8      O8      20.44   0.245   -4.70    2.54   -1.81
    9      O9      13.95   0.069   -0.64    1.73   -1.12
   10      C10      8.52  -0.036   -0.28    1.00   -0.34
   11      O11     17.90   0.201   -2.84    2.23   -1.50
   12      O12     14.89   0.070   -0.32    1.85   -1.34
   13      H13      8.49  -0.155   -3.37    1.20   -0.91
   14      H14      5.90  -0.050   -0.60    0.83   -0.60
   15      H15      6.54  -0.050   -0.68    0.92   -0.72
   16      H16      5.93  -0.045   -0.14    0.84   -0.42
   17      H17      6.51  -0.043   -0.21    0.92   -0.66
   18      H18      5.37  -0.045   -0.27    0.76   -0.47
   19      H19      8.47  -0.153   -2.42    1.19   -0.95
   20      H20      8.49  -0.156   -3.31    1.20   -0.94
 --------------------------------------------------------------------
 - cavitation energy not included in the total energy.
 - dispersion energy not included in the total energy.
 - repulsion  energy not included in the total energy.
 After PCM corrections, the energy is  -685.158247025     a.u.
 --------------------------------------------------------------------
 Writing COSMO formatted file "KQTIIICEAUMSDG-UHFFFAOYSA-N.cosmo"
 Recomputed dielectric energy= -0.037855 old= -0.037790 diff=-6.56D-05

 **********************************************************************

            Population analysis using the SCF Density.

 **********************************************************************

 Orbital symmetries:
       Occupied  (A) (A) (A) (A) (A) (A) (A) (A) (A) (A) (A) (A)
                 (A) (A) (A) (A) (A) (A) (A) (A) (A) (A) (A) (A)
                 (A) (A) (A) (A) (A) (A) (A) (A) (A) (A) (A) (A)
                 (A) (A) (A) (A) (A) (A) (A) (A) (A) (A)
       Virtual   (A) (A) (A) (A) (A) (A) (A) (A) (A) (A) (A) (A)
                 (A) (A) (A) (A) (A) (A) (A) (A) (A) (A) (A) (A)
                 (A) (A) (A) (A) (A) (A) (A) (A) (A) (A) (A) (A)
                 (A) (A) (A) (A) (A) (A) (A) (A) (A) (A) (A) (A)
                 (A) (A) (A) (A) (A) (A) (A) (A) (A) (A) (A) (A)
                 (A) (A) (A) (A) (A) (A) (A) (A) (A) (A) (A) (A)
                 (A) (A) (A) (A) (A) (A) (A) (A) (A) (A) (A) (A)
                 (A) (A) (A) (A) (A) (A) (A) (A) (A) (A) (A) (A)
                 (A) (A) (A) (A) (A) (A) (A) (A) (A) (A) (A) (A)
                 (A) (A) (A) (A) (A) (A) (A) (A) (A) (A) (A) (A)
                 (A) (A) (A) (A) (A) (A) (A) (A) (A) (A) (A) (A)
                 (A) (A) (A) (A) (A) (A) (A) (A) (A) (A) (A) (A)
                 (A) (A) (A) (A) (A) (A) (A) (A) (A) (A) (A) (A)
                 (A) (A) (A) (A) (A) (A) (A) (A) (A) (A) (A) (A)
                 (A) (A) (A) (A) (A) (A) (A) (A) (A) (A) (A) (A)
                 (A) (A) (A) (A) (A) (A) (A) (A) (A) (A) (A) (A)
                 (A) (A) (A) (A) (A) (A) (A) (A) (A) (A) (A) (A)
                 (A) (A) (A) (A) (A) (A) (A) (A) (A) (A) (A) (A)
                 (A) (A) (A) (A) (A) (A) (A) (A) (A) (A) (A) (A)
                 (A) (A)
 The electronic state is 1-A.
 Alpha  occ. eigenvalues --  -18.82649 -18.82520 -18.82341 -18.77786 -18.77607
 Alpha  occ. eigenvalues --  -18.77120 -10.04048 -10.04025 -10.03746  -9.93812
 Alpha  occ. eigenvalues --   -9.92738  -9.92072  -1.03019  -1.02811  -1.02478
 Alpha  occ. eigenvalues --   -0.94804  -0.94660  -0.94263  -0.76825  -0.69287
 Alpha  occ. eigenvalues --   -0.64514  -0.57883  -0.55813  -0.53301  -0.48396
 Alpha  occ. eigenvalues --   -0.46314  -0.45168  -0.44993  -0.44119  -0.43526
 Alpha  occ. eigenvalues --   -0.42045  -0.41545  -0.40743  -0.37743  -0.36759
 Alpha  occ. eigenvalues --   -0.36585  -0.35719  -0.34403  -0.33577  -0.32309
 Alpha  occ. eigenvalues --   -0.29902  -0.29723  -0.29397  -0.25695  -0.25389
 Alpha  occ. eigenvalues --   -0.25010
 Alpha virt. eigenvalues --   -0.05922  -0.05069  -0.04585   0.01550   0.03156
 Alpha virt. eigenvalues --    0.03426   0.05573   0.06584   0.07460   0.09264
 Alpha virt. eigenvalues --    0.09915   0.12349   0.12841   0.14621   0.15018
 Alpha virt. eigenvalues --    0.15708   0.15854   0.16418   0.17626   0.18731
 Alpha virt. eigenvalues --    0.19923   0.21162   0.23167   0.25162   0.25377
 Alpha virt. eigenvalues --    0.25956   0.27050   0.27438   0.28835   0.30831
 Alpha virt. eigenvalues --    0.31403   0.31680   0.32834   0.33105   0.34009
 Alpha virt. eigenvalues --    0.35491   0.36730   0.37590   0.38047   0.38822
 Alpha virt. eigenvalues --    0.39375   0.40102   0.40998   0.41540   0.41807
 Alpha virt. eigenvalues --    0.43036   0.43744   0.44283   0.44920   0.46356
 Alpha virt. eigenvalues --    0.46502   0.47610   0.48219   0.49715   0.50200
 Alpha virt. eigenvalues --    0.51238   0.52744   0.53526   0.54437   0.55300
 Alpha virt. eigenvalues --    0.55996   0.57323   0.58464   0.60537   0.61377
 Alpha virt. eigenvalues --    0.64246   0.67632   0.69239   0.70320   0.73480
 Alpha virt. eigenvalues --    0.75047   0.77548   0.79595   0.82501   0.86004
 Alpha virt. eigenvalues --    0.89875   0.90374   0.93263   1.07315   1.08432
 Alpha virt. eigenvalues --    1.18824   1.19167   1.20052   1.21681   1.22843
 Alpha virt. eigenvalues --    1.24293   1.26655   1.27241   1.28254   1.29661
 Alpha virt. eigenvalues --    1.31516   1.32340   1.32978   1.35499   1.35773
 Alpha virt. eigenvalues --    1.37861   1.38122   1.39468   1.42591   1.44940
 Alpha virt. eigenvalues --    1.46200   1.46851   1.48099   1.50244   1.51695
 Alpha virt. eigenvalues --    1.51970   1.52671   1.54213   1.55479   1.57145
 Alpha virt. eigenvalues --    1.59585   1.62093   1.64598   1.66256   1.67191
 Alpha virt. eigenvalues --    1.68919   1.72059   1.73839   1.75373   1.78108
 Alpha virt. eigenvalues --    1.79762   1.81773   1.84991   1.86760   1.88792
 Alpha virt. eigenvalues --    1.90973   1.91263   1.93223   1.94300   2.01361
 Alpha virt. eigenvalues --    2.02651   2.05212   2.07950   2.09294   2.10033
 Alpha virt. eigenvalues --    2.14807   2.16834   2.18507   2.21879   2.24660
 Alpha virt. eigenvalues --    2.26539   2.28476   2.31085   2.35187   2.35887
 Alpha virt. eigenvalues --    2.39198   2.42424   2.43038   2.45199   2.47646
 Alpha virt. eigenvalues --    2.48335   2.49627   2.50809   2.51419   2.52174
 Alpha virt. eigenvalues --    2.52519   2.53183   2.55079   2.55220   2.55848
 Alpha virt. eigenvalues --    2.56527   2.57226   2.57716   2.59219   2.60013
 Alpha virt. eigenvalues --    2.60138   2.60924   2.62063   2.63202   2.64010
 Alpha virt. eigenvalues --    2.66244   2.69596   2.70650   2.72382   2.75840
 Alpha virt. eigenvalues --    2.79257   2.79315   2.79785   2.81677   2.82956
 Alpha virt. eigenvalues --    2.85339   2.85468   2.85866   2.88702   2.93098
 Alpha virt. eigenvalues --    2.95938   2.98051   2.98764   3.01292   3.03626
 Alpha virt. eigenvalues --    3.05673   3.05768   3.08799   3.10311   3.10655
 Alpha virt. eigenvalues --    3.13264   3.14948   3.16399   3.19621   3.20050
 Alpha virt. eigenvalues --    3.21866   3.26441   3.28780   3.32501   3.33605
 Alpha virt. eigenvalues --    3.36147   3.41398   3.43251   3.43731   3.78726
 Alpha virt. eigenvalues --    3.80710   3.82875   4.08190   4.08598   4.10443
 Alpha virt. eigenvalues --    4.17202   4.17839   4.19639  21.71475  21.72505
 Alpha virt. eigenvalues --   21.76191  21.80951  21.83901  21.87883  43.05172
 Alpha virt. eigenvalues --   43.06010  43.10175  43.15534  43.19624  43.20898
          Condensed to atoms (all electrons):
               1          2          3          4          5          6
     1  O    7.960761   0.595802  -0.100325  -0.164124   0.046970  -0.022187
     2  C    0.595802   4.894859   0.359588  -0.078513   0.113804  -0.025081
     3  O   -0.100325   0.359588   7.874930  -0.172120   0.017139  -0.001719
     4  C   -0.164124  -0.078513  -0.172120   6.180401  -0.200997   0.051026
     5  C    0.046970   0.113804   0.017139  -0.200997   6.328044  -0.173792
     6  C   -0.022187  -0.025081  -0.001719   0.051026  -0.173792   5.954420
     7  C    0.002097   0.005946  -0.000057  -0.009173   0.066593   0.021709
     8  O    0.000001   0.000118   0.000000  -0.001425   0.012629  -0.135921
     9  O   -0.000041  -0.000115  -0.000000  -0.001771   0.033146  -0.181430
    10  C   -0.000505  -0.007860  -0.000239  -0.015208  -0.031415  -0.003955
    11  O   -0.000002  -0.001051   0.000001  -0.006996  -0.156245   0.024731
    12  O    0.000003  -0.002900   0.000002   0.003045  -0.176714   0.013606
    13  H    0.001219  -0.017934   0.286590   0.018041  -0.001652   0.000074
    14  H    0.001846  -0.000082   0.003447   0.370265  -0.033712   0.005114
    15  H    0.003619  -0.024716   0.008276   0.385456  -0.036580  -0.002149
    16  H    0.010723  -0.024122   0.000848  -0.011667   0.356835  -0.008149
    17  H    0.000377  -0.000951   0.000047  -0.005668  -0.018905   0.413427
    18  H    0.009767   0.007363  -0.000337  -0.020423  -0.029592   0.376833
    19  H    0.000001  -0.000015  -0.000000   0.000113  -0.002272   0.019157
    20  H   -0.000000   0.000111  -0.000001   0.001220   0.014748  -0.001158
               7          8          9         10         11         12
     1  O    0.002097   0.000001  -0.000041  -0.000505  -0.000002   0.000003
     2  C    0.005946   0.000118  -0.000115  -0.007860  -0.001051  -0.002900
     3  O   -0.000057   0.000000  -0.000000  -0.000239   0.000001   0.000002
     4  C   -0.009173  -0.001425  -0.001771  -0.015208  -0.006996   0.003045
     5  C    0.066593   0.012629   0.033146  -0.031415  -0.156245  -0.176714
     6  C    0.021709  -0.135921  -0.181430  -0.003955   0.024731   0.013606
     7  C    4.846127   0.624847   0.321583  -0.003932   0.018478  -0.000722
     8  O    0.624847   7.956476  -0.106935  -0.000712  -0.002257  -0.000015
     9  O    0.321583  -0.106935   7.911363  -0.003952  -0.003340  -0.000047
    10  C   -0.003932  -0.000712  -0.003952   4.933050   0.622547   0.359716
    11  O    0.018478  -0.002257  -0.003340   0.622547   7.930721  -0.100227
    12  O   -0.000722  -0.000015  -0.000047   0.359716  -0.100227   7.869778
    13  H   -0.000003   0.000000  -0.000000   0.000019  -0.000000  -0.000001
    14  H   -0.000049   0.000010  -0.000012  -0.003563   0.000534   0.011429
    15  H   -0.001279  -0.000003   0.000031  -0.001410   0.002013  -0.000391
    16  H   -0.017838   0.000264   0.010185  -0.007712   0.001594   0.005268
    17  H   -0.052664   0.008388   0.005661  -0.012317   0.001882  -0.000134
    18  H   -0.003047   0.000072   0.003220   0.012055   0.001069  -0.000039
    19  H   -0.016689   0.001965   0.285591  -0.000170  -0.000037   0.000028
    20  H    0.000016   0.000000  -0.000046  -0.016685   0.000527   0.287364
              13         14         15         16         17         18
     1  O    0.001219   0.001846   0.003619   0.010723   0.000377   0.009767
     2  C   -0.017934  -0.000082  -0.024716  -0.024122  -0.000951   0.007363
     3  O    0.286590   0.003447   0.008276   0.000848   0.000047  -0.000337
     4  C    0.018041   0.370265   0.385456  -0.011667  -0.005668  -0.020423
     5  C   -0.001652  -0.033712  -0.036580   0.356835  -0.018905  -0.029592
     6  C    0.000074   0.005114  -0.002149  -0.008149   0.413427   0.376833
     7  C   -0.000003  -0.000049  -0.001279  -0.017838  -0.052664  -0.003047
     8  O    0.000000   0.000010  -0.000003   0.000264   0.008388   0.000072
     9  O   -0.000000  -0.000012   0.000031   0.010185   0.005661   0.003220
    10  C    0.000019  -0.003563  -0.001410  -0.007712  -0.012317   0.012055
    11  O   -0.000000   0.000534   0.002013   0.001594   0.001882   0.001069
    12  O   -0.000001   0.011429  -0.000391   0.005268  -0.000134  -0.000039
    13  H    0.378076  -0.000311  -0.000395  -0.000075  -0.000005   0.000026
    14  H   -0.000311   0.418196  -0.003880   0.001468   0.000161   0.000167
    15  H   -0.000395  -0.003880   0.461537   0.005125   0.003668  -0.000856
    16  H   -0.000075   0.001468   0.005125   0.463469   0.004940  -0.000245
    17  H   -0.000005   0.000161   0.003668   0.004940   0.475712  -0.006537
    18  H    0.000026   0.000167  -0.000856  -0.000245  -0.006537   0.439912
    19  H   -0.000000  -0.000002   0.000000  -0.000308  -0.000544  -0.000365
    20  H    0.000000  -0.000475  -0.000149  -0.000298  -0.000006   0.000016
              19         20
     1  O    0.000001  -0.000000
     2  C   -0.000015   0.000111
     3  O   -0.000000  -0.000001
     4  C    0.000113   0.001220
     5  C   -0.002272   0.014748
     6  C    0.019157  -0.001158
     7  C   -0.016689   0.000016
     8  O    0.001965   0.000000
     9  O    0.285591  -0.000046
    10  C   -0.000170  -0.016685
    11  O   -0.000037   0.000527
    12  O    0.000028   0.287364
    13  H   -0.000000   0.000000
    14  H   -0.000002  -0.000475
    15  H    0.000000  -0.000149
    16  H   -0.000308  -0.000298
    17  H   -0.000544  -0.000006
    18  H   -0.000365   0.000016
    19  H    0.380067  -0.000002
    20  H   -0.000002   0.376597
 Mulliken charges:
               1
     1  O   -0.346003
     2  C    0.205748
     3  O   -0.276070
     4  C   -0.321483
     5  C   -0.128031
     6  C   -0.324556
     7  C    0.198058
     8  O   -0.357502
     9  O   -0.273090
    10  C    0.182249
    11  O   -0.333941
    12  O   -0.269050
    13  H    0.336330
    14  H    0.229450
    15  H    0.202082
    16  H    0.209694
    17  H    0.183469
    18  H    0.210942
    19  H    0.333481
    20  H    0.338222
 Sum of Mulliken charges =  -0.00000
 Mulliken charges with hydrogens summed into heavy atoms:
               1
     1  O   -0.346003
     2  C    0.205748
     3  O    0.060260
     4  C    0.110049
     5  C    0.081664
     6  C    0.069855
     7  C    0.198058
     8  O   -0.357502
     9  O    0.060391
    10  C    0.182249
    11  O   -0.333941
    12  O    0.069171
 Electronic spatial extent (au):  <R**2>=           2343.6943
 Charge=             -0.0000 electrons
 Dipole moment (field-independent basis, Debye):
    X=             -4.1433    Y=              2.7285    Z=              1.3189  Tot=              5.1333
 Quadrupole moment (field-independent basis, Debye-Ang):
   XX=            -67.0489   YY=            -64.2785   ZZ=            -72.9535
   XY=              5.0429   XZ=             14.2763   YZ=              0.9469
 Traceless Quadrupole moment (field-independent basis, Debye-Ang):
   XX=              1.0447   YY=              3.8152   ZZ=             -4.8599
   XY=              5.0429   XZ=             14.2763   YZ=              0.9469
 Octapole moment (field-independent basis, Debye-Ang**2):
  XXX=            -69.1429  YYY=             51.6043  ZZZ=              3.5024  XYY=             -3.8337
  XXY=            -11.3626  XXZ=             40.0226  XZZ=              6.2808  YZZ=              2.2074
  YYZ=              9.6353  XYZ=            -15.7388
 Hexadecapole moment (field-independent basis, Debye-Ang**3):
 XXXX=          -1447.0212 YYYY=           -656.0124 ZZZZ=           -258.2554 XXXY=            134.1513
 XXXZ=            115.0841 YYYX=             77.5937 YYYZ=             11.9431 ZZZX=             29.4003
 ZZZY=             -4.6380 XXYY=           -434.9528 XXZZ=           -346.3156 YYZZ=           -194.6152
 XXYZ=            -18.5991 YYXZ=             58.9873 ZZXY=            -11.7690
 N-N= 7.287242948129D+02 E-N=-3.066458954358D+03  KE= 6.823521782234D+02
 Unable to Open any file for archive entry.
 1\1\GINC-TCN1744\SP\RBP86\TZVP\C6H8O6\ELENAA\22-Feb-2021\0\\# BP86/TZV
 P SCRF=COSMORS geom=CHECKPOINT guess=CHECKPOINT\\COSMO-file for #KQTII
 ICEAUMSDG-UHFFFAOYSA-N\\0,1\O,0,-0.8825138576,0.6260243351,-0.65963403
 12\C,0,-0.9646846993,1.0165197188,-1.813025905\O,0,-1.9482572951,0.625
 7652589,-2.6645706005\C,0,-0.0297153465,2.0057474161,-2.4798808645\C,0
 ,1.256679813,2.2459672478,-1.66681864\C,0,2.1727077356,1.0155456973,-1
 .6786313847\C,0,3.4481023504,1.1372130114,-0.872837826\O,0,4.489743279
 4,0.5563716358,-1.1309796795\O,0,3.2974880455,1.934461379,0.2210837539
 \C,0,1.9937711472,3.4694994231,-2.1984944276\O,0,3.1185676109,3.462749
 0925,-2.6714252469\O,0,1.2438394793,4.5955244935,-2.0773070927\H,0,-2.
 5433031106,0.017182791,-2.1751676758\H,0,-0.5937156096,2.9454781743,-2
 .5906721066\H,0,0.1981847509,1.657822062,-3.4989733397\H,0,0.962462267
 4,2.4771620059,-0.6308234837\H,0,2.4611123837,0.7488317509,-2.70398314
 99\H,0,1.6184892796,0.1611253694,-1.2571724093\H,0,4.1536519328,1.9438
 365714,0.7005947836\H,0,1.7634698429,5.343832566,-2.4424106739\\Versio
 n=ES64L-G16RevC.01\State=1-A\HF=-685.158247\RMSD=4.825e-09\Dipole=-1.8
 140188,0.8497023,-0.257178\Quadrupole=-5.1209639,5.2043028,-0.0833389,
 6.4983371,8.2412387,1.1222133\PG=C01 [X(C6H8O6)]\\@
 The archive entry for this job was punched.


 FLOATING POINT NUMBERS ARE LIKE SANDPILES:
 EVERY TIME THAT YOU MOVE ONE, YOU LOSE A LITTLE SAND 
 AND YOU PICK UP A LITTLE DIRT.
 Job cpu time:       0 days  0 hours  6 minutes 49.0 seconds.
 Elapsed time:       0 days  0 hours  0 minutes 13.3 seconds.
 File lengths (MBytes):  RWF=     61 Int=      0 D2E=      0 Chk=      9 Scr=      1
 Normal termination of Gaussian 16 at Mon Feb 22 21:22:45 2021.
