 Entering Gaussian System, Link 0=g16
 Input=KWIUHFFTVRNATP-UHFFFAOYSA-N.gjf
 Output=KWIUHFFTVRNATP-UHFFFAOYSA-N.log
 Initial command:
 /sw/arch/RedHatEnterpriseServer7/EB_production/2019/software/Gaussian/g16.c01/l1.exe "/scratch-local/elenaa.9715230/Gau-19841.inp" -scrdir="/scratch-local/elenaa.9715230/"
 Entering Link 1 = /sw/arch/RedHatEnterpriseServer7/EB_production/2019/software/Gaussian/g16.c01/l1.exe PID=     19843.
  
 Copyright (c) 1988-2019, Gaussian, Inc.  All Rights Reserved.
  
 This is part of the Gaussian(R) 16 program.  It is based on
 the Gaussian(R) 09 system (copyright 2009, Gaussian, Inc.),
 the Gaussian(R) 03 system (copyright 2003, Gaussian, Inc.),
 the Gaussian(R) 98 system (copyright 1998, Gaussian, Inc.),
 the Gaussian(R) 94 system (copyright 1995, Gaussian, Inc.),
 the Gaussian 92(TM) system (copyright 1992, Gaussian, Inc.),
 the Gaussian 90(TM) system (copyright 1990, Gaussian, Inc.),
 the Gaussian 88(TM) system (copyright 1988, Gaussian, Inc.),
 the Gaussian 86(TM) system (copyright 1986, Carnegie Mellon
 University), and the Gaussian 82(TM) system (copyright 1983,
 Carnegie Mellon University). Gaussian is a federally registered
 trademark of Gaussian, Inc.
  
 This software contains proprietary and confidential information,
 including trade secrets, belonging to Gaussian, Inc.
  
 This software is provided under written license and may be
 used, copied, transmitted, or stored only in accord with that
 written license.
  
 The following legend is applicable only to US Government
 contracts under FAR:
  
                    RESTRICTED RIGHTS LEGEND
  
 Use, reproduction and disclosure by the US Government is
 subject to restrictions as set forth in subparagraphs (a)
 and (c) of the Commercial Computer Software - Restricted
 Rights clause in FAR 52.227-19.
  
 Gaussian, Inc.
 340 Quinnipiac St., Bldg. 40, Wallingford CT 06492
  
  
 ---------------------------------------------------------------
 Warning -- This program may not be used in any manner that
 competes with the business of Gaussian, Inc. or will provide
 assistance to any competitor of Gaussian, Inc.  The licensee
 of this program is prohibited from giving any competitor of
 Gaussian, Inc. access to this program.  By using this program,
 the user acknowledges that Gaussian, Inc. is engaged in the
 business of creating and licensing software in the field of
 computational chemistry and represents and warrants to the
 licensee that it is not a competitor of Gaussian, Inc. and that
 it will not use this program in any manner prohibited above.
 ---------------------------------------------------------------
  

 Cite this work as:
 Gaussian 16, Revision C.01,
 M. J. Frisch, G. W. Trucks, H. B. Schlegel, G. E. Scuseria, 
 M. A. Robb, J. R. Cheeseman, G. Scalmani, V. Barone, 
 G. A. Petersson, H. Nakatsuji, X. Li, M. Caricato, A. V. Marenich, 
 J. Bloino, B. G. Janesko, R. Gomperts, B. Mennucci, H. P. Hratchian, 
 J. V. Ortiz, A. F. Izmaylov, J. L. Sonnenberg, D. Williams-Young, 
 F. Ding, F. Lipparini, F. Egidi, J. Goings, B. Peng, A. Petrone, 
 T. Henderson, D. Ranasinghe, V. G. Zakrzewski, J. Gao, N. Rega, 
 G. Zheng, W. Liang, M. Hada, M. Ehara, K. Toyota, R. Fukuda, 
 J. Hasegawa, M. Ishida, T. Nakajima, Y. Honda, O. Kitao, H. Nakai, 
 T. Vreven, K. Throssell, J. A. Montgomery, Jr., J. E. Peralta, 
 F. Ogliaro, M. J. Bearpark, J. J. Heyd, E. N. Brothers, K. N. Kudin, 
 V. N. Staroverov, T. A. Keith, R. Kobayashi, J. Normand, 
 K. Raghavachari, A. P. Rendell, J. C. Burant, S. S. Iyengar, 
 J. Tomasi, M. Cossi, J. M. Millam, M. Klene, C. Adamo, R. Cammi, 
 J. W. Ochterski, R. L. Martin, K. Morokuma, O. Farkas, 
 J. B. Foresman, and D. J. Fox, Gaussian, Inc., Wallingford CT, 2019.
 
 ******************************************
 Gaussian 16:  ES64L-G16RevC.01  3-Jul-2019
                22-Feb-2021 
 ******************************************
 %chk=KWIUHFFTVRNATP-UHFFFAOYSA-N.chk
 %NProcShared=32
 Will use up to   32 processors via shared memory.
 -------------------------------------------------------------
 #P BP86/TZVP EmpiricalDispersion=GD3 SCRF=(Solvent=Water) Opt
 -------------------------------------------------------------
 1/18=20,19=15,26=3,38=1/1,3;
 2/9=110,12=2,17=6,18=5,40=1/2;
 3/5=19,7=101,11=2,25=1,30=1,70=2201,71=1,72=1,74=404,124=31/1,2,3;
 4//1;
 5/5=2,38=5,53=1/2;
 6/7=2,8=2,9=2,10=2,28=1/1;
 7//1,2,3,16;
 1/18=20,19=15,26=3/3(2);
 2/9=110/2;
 99//99;
 2/9=110/2;
 3/5=19,7=101,11=2,25=1,30=1,70=2205,71=1,72=1,74=404,124=31/1,2,3;
 4/5=5,16=3,69=1/1;
 5/5=2,38=5,53=1/2;
 7//1,2,3,16;
 1/18=20,19=15,26=3/3(-5);
 2/9=110/2;
 6/7=2,8=2,9=2,10=2,19=2,28=1/1;
 99/9=1/99;
 Leave Link    1 at Mon Feb 22 21:11:36 2021, MaxMem=           0 cpu:               2.1 elap:               0.1
 (Enter /sw/arch/RedHatEnterpriseServer7/EB_production/2019/software/Gaussian/g16.c01/l101.exe)
 -------------------------------------
 Particle #KWIUHFFTVRNATP-UHFFFAOYSA-N
 -------------------------------------
 Symbolic Z-matrix:
 Charge =  0 Multiplicity = 1
 C                    -0.81635  -2.74642  -1.86597 
 N                    -0.89119  -1.45113  -1.0913 
 C                    -1.85665  -0.51474  -1.77935 
 C                    -1.41865  -1.75487   0.29491 
 C                     0.4893   -0.82648  -0.94245 
 C                     1.22976  -0.48176  -2.17883 
 O                     0.87524   0.47519  -2.90297 
 O                     2.34018  -1.16879  -2.53082 
 H                    -1.79009  -3.24494  -1.90999 
 H                    -0.10955  -3.44311  -1.40955 
 H                    -0.49158  -2.57876  -2.89656 
 H                    -2.87356  -0.91946  -1.78819 
 H                    -1.89295   0.45731  -1.27825 
 H                    -1.57965  -0.33889  -2.82126 
 H                    -0.75599  -2.43765   0.83372 
 H                    -1.50772  -0.84372   0.89484 
 H                    -2.40696  -2.22175   0.26128 
 H                     0.42232   0.09295  -0.3513 
 H                     1.13145  -1.50414  -0.36926 
 
 ITRead=  0  0  0  0  0  0  0  0  0  0  0  0  0  0  0  0  0  0  0
 MicOpt= -1 -1 -1 -1 -1 -1 -1 -1 -1 -1 -1 -1 -1 -1 -1 -1 -1 -1 -1
 NAtoms=     19 NQM=       19 NQMF=       0 NMMI=      0 NMMIF=      0
                NMic=       0 NMicF=      0.
                    Isotopes and Nuclear Properties:
 (Nuclear quadrupole moments (NQMom) in fm**2, nuclear magnetic moments (NMagM)
  in nuclear magnetons)

  Atom         1           2           3           4           5           6           7           8           9          10
 IAtWgt=          12          14          12          12          12          12          16          16           1           1
 AtmWgt=  12.0000000  14.0030740  12.0000000  12.0000000  12.0000000  12.0000000  15.9949146  15.9949146   1.0078250   1.0078250
 NucSpn=           0           2           0           0           0           0           0           0           1           1
 AtZEff=  -0.0000000  -0.0000000  -0.0000000  -0.0000000  -0.0000000  -0.0000000  -0.0000000  -0.0000000  -0.0000000  -0.0000000
 NQMom=    0.0000000   2.0440000   0.0000000   0.0000000   0.0000000   0.0000000   0.0000000   0.0000000   0.0000000   0.0000000
 NMagM=    0.0000000   0.4037610   0.0000000   0.0000000   0.0000000   0.0000000   0.0000000   0.0000000   2.7928460   2.7928460
 AtZNuc=   6.0000000   7.0000000   6.0000000   6.0000000   6.0000000   6.0000000   8.0000000   8.0000000   1.0000000   1.0000000

  Atom        11          12          13          14          15          16          17          18          19
 IAtWgt=           1           1           1           1           1           1           1           1           1
 AtmWgt=   1.0078250   1.0078250   1.0078250   1.0078250   1.0078250   1.0078250   1.0078250   1.0078250   1.0078250
 NucSpn=           1           1           1           1           1           1           1           1           1
 AtZEff=  -0.0000000  -0.0000000  -0.0000000  -0.0000000  -0.0000000  -0.0000000  -0.0000000  -0.0000000  -0.0000000
 NQMom=    0.0000000   0.0000000   0.0000000   0.0000000   0.0000000   0.0000000   0.0000000   0.0000000   0.0000000
 NMagM=    2.7928460   2.7928460   2.7928460   2.7928460   2.7928460   2.7928460   2.7928460   2.7928460   2.7928460
 AtZNuc=   1.0000000   1.0000000   1.0000000   1.0000000   1.0000000   1.0000000   1.0000000   1.0000000   1.0000000
 Leave Link  101 at Mon Feb 22 21:11:36 2021, MaxMem=   104857600 cpu:               2.9 elap:               0.1
 (Enter /sw/arch/RedHatEnterpriseServer7/EB_production/2019/software/Gaussian/g16.c01/l103.exe)

 GradGradGradGradGradGradGradGradGradGradGradGradGradGradGradGradGradGrad
 Berny optimization.
 Initialization pass.
                           ----------------------------
                           !    Initial Parameters    !
                           ! (Angstroms and Degrees)  !
 --------------------------                            --------------------------
 ! Name  Definition              Value          Derivative Info.                !
 --------------------------------------------------------------------------------
 ! R1    R(1,2)                  1.5111         estimate D2E/DX2                !
 ! R2    R(1,9)                  1.0948         estimate D2E/DX2                !
 ! R3    R(1,10)                 1.0924         estimate D2E/DX2                !
 ! R4    R(1,11)                 1.0935         estimate D2E/DX2                !
 ! R5    R(2,3)                  1.5107         estimate D2E/DX2                !
 ! R6    R(2,4)                  1.514          estimate D2E/DX2                !
 ! R7    R(2,5)                  1.5225         estimate D2E/DX2                !
 ! R8    R(3,12)                 1.0945         estimate D2E/DX2                !
 ! R9    R(3,13)                 1.0942         estimate D2E/DX2                !
 ! R10   R(3,14)                 1.0924         estimate D2E/DX2                !
 ! R11   R(4,15)                 1.0934         estimate D2E/DX2                !
 ! R12   R(4,16)                 1.0946         estimate D2E/DX2                !
 ! R13   R(4,17)                 1.0936         estimate D2E/DX2                !
 ! R14   R(5,6)                  1.4818         estimate D2E/DX2                !
 ! R15   R(5,18)                 1.0951         estimate D2E/DX2                !
 ! R16   R(5,19)                 1.0955         estimate D2E/DX2                !
 ! R17   R(6,7)                  1.2513         estimate D2E/DX2                !
 ! R18   R(6,8)                  1.3524         estimate D2E/DX2                !
 ! A1    A(2,1,9)              111.5228         estimate D2E/DX2                !
 ! A2    A(2,1,10)             111.379          estimate D2E/DX2                !
 ! A3    A(2,1,11)             111.4964         estimate D2E/DX2                !
 ! A4    A(9,1,10)             107.5698         estimate D2E/DX2                !
 ! A5    A(9,1,11)             107.2223         estimate D2E/DX2                !
 ! A6    A(10,1,11)            107.4223         estimate D2E/DX2                !
 ! A7    A(1,2,3)              109.2362         estimate D2E/DX2                !
 ! A8    A(1,2,4)              108.3411         estimate D2E/DX2                !
 ! A9    A(1,2,5)              110.909          estimate D2E/DX2                !
 ! A10   A(3,2,4)              108.5851         estimate D2E/DX2                !
 ! A11   A(3,2,5)              111.6955         estimate D2E/DX2                !
 ! A12   A(4,2,5)              107.9804         estimate D2E/DX2                !
 ! A13   A(2,3,12)             111.6068         estimate D2E/DX2                !
 ! A14   A(2,3,13)             111.3            estimate D2E/DX2                !
 ! A15   A(2,3,14)             111.8472         estimate D2E/DX2                !
 ! A16   A(12,3,13)            107.5394         estimate D2E/DX2                !
 ! A17   A(12,3,14)            106.7037         estimate D2E/DX2                !
 ! A18   A(13,3,14)            107.5904         estimate D2E/DX2                !
 ! A19   A(2,4,15)             111.4275         estimate D2E/DX2                !
 ! A20   A(2,4,16)             111.2968         estimate D2E/DX2                !
 ! A21   A(2,4,17)             111.8616         estimate D2E/DX2                !
 ! A22   A(15,4,16)            107.3994         estimate D2E/DX2                !
 ! A23   A(15,4,17)            107.2334         estimate D2E/DX2                !
 ! A24   A(16,4,17)            107.3803         estimate D2E/DX2                !
 ! A25   A(2,5,6)              117.8368         estimate D2E/DX2                !
 ! A26   A(2,5,18)             109.9846         estimate D2E/DX2                !
 ! A27   A(2,5,19)             109.199          estimate D2E/DX2                !
 ! A28   A(6,5,18)             106.5975         estimate D2E/DX2                !
 ! A29   A(6,5,19)             106.7117         estimate D2E/DX2                !
 ! A30   A(18,5,19)            105.8285         estimate D2E/DX2                !
 ! A31   A(5,6,7)              121.2776         estimate D2E/DX2                !
 ! A32   A(5,6,8)              120.6159         estimate D2E/DX2                !
 ! A33   A(7,6,8)              118.0674         estimate D2E/DX2                !
 ! D1    D(9,1,2,3)            -61.0363         estimate D2E/DX2                !
 ! D2    D(9,1,2,4)             57.0828         estimate D2E/DX2                !
 ! D3    D(9,1,2,5)            175.4286         estimate D2E/DX2                !
 ! D4    D(10,1,2,3)           178.7744         estimate D2E/DX2                !
 ! D5    D(10,1,2,4)           -63.1065         estimate D2E/DX2                !
 ! D6    D(10,1,2,5)            55.2393         estimate D2E/DX2                !
 ! D7    D(11,1,2,3)            58.7908         estimate D2E/DX2                !
 ! D8    D(11,1,2,4)           176.91           estimate D2E/DX2                !
 ! D9    D(11,1,2,5)           -64.7443         estimate D2E/DX2                !
 ! D10   D(1,2,3,12)            63.1554         estimate D2E/DX2                !
 ! D11   D(1,2,3,13)          -176.6908         estimate D2E/DX2                !
 ! D12   D(1,2,3,14)           -56.3075         estimate D2E/DX2                !
 ! D13   D(4,2,3,12)           -54.8107         estimate D2E/DX2                !
 ! D14   D(4,2,3,13)            65.3431         estimate D2E/DX2                !
 ! D15   D(4,2,3,14)          -174.2736         estimate D2E/DX2                !
 ! D16   D(5,2,3,12)          -173.7763         estimate D2E/DX2                !
 ! D17   D(5,2,3,13)           -53.6225         estimate D2E/DX2                !
 ! D18   D(5,2,3,14)            66.7608         estimate D2E/DX2                !
 ! D19   D(1,2,4,15)            61.0572         estimate D2E/DX2                !
 ! D20   D(1,2,4,16)          -179.0907         estimate D2E/DX2                !
 ! D21   D(1,2,4,17)           -58.9681         estimate D2E/DX2                !
 ! D22   D(3,2,4,15)           179.5902         estimate D2E/DX2                !
 ! D23   D(3,2,4,16)           -60.5577         estimate D2E/DX2                !
 ! D24   D(3,2,4,17)            59.5648         estimate D2E/DX2                !
 ! D25   D(5,2,4,15)           -59.1336         estimate D2E/DX2                !
 ! D26   D(5,2,4,16)            60.7185         estimate D2E/DX2                !
 ! D27   D(5,2,4,17)          -179.1589         estimate D2E/DX2                !
 ! D28   D(1,2,5,6)             59.4617         estimate D2E/DX2                !
 ! D29   D(1,2,5,18)          -178.1427         estimate D2E/DX2                !
 ! D30   D(1,2,5,19)           -62.4234         estimate D2E/DX2                !
 ! D31   D(3,2,5,6)            -62.6503         estimate D2E/DX2                !
 ! D32   D(3,2,5,18)            59.7453         estimate D2E/DX2                !
 ! D33   D(3,2,5,19)           175.4646         estimate D2E/DX2                !
 ! D34   D(4,2,5,6)            178.0258         estimate D2E/DX2                !
 ! D35   D(4,2,5,18)           -59.5786         estimate D2E/DX2                !
 ! D36   D(4,2,5,19)            56.1407         estimate D2E/DX2                !
 ! D37   D(2,5,6,7)             71.3132         estimate D2E/DX2                !
 ! D38   D(2,5,6,8)           -111.0065         estimate D2E/DX2                !
 ! D39   D(18,5,6,7)           -52.7904         estimate D2E/DX2                !
 ! D40   D(18,5,6,8)           124.8898         estimate D2E/DX2                !
 ! D41   D(19,5,6,7)          -165.5372         estimate D2E/DX2                !
 ! D42   D(19,5,6,8)            12.1431         estimate D2E/DX2                !
 --------------------------------------------------------------------------------
 Trust Radius=3.00D-01 FncErr=1.00D-07 GrdErr=1.00D-06 EigMax=2.50D+02 EigMin=1.00D-04
 Number of steps in this run=    103 maximum allowed number of steps=    114.
 GradGradGradGradGradGradGradGradGradGradGradGradGradGradGradGradGradGrad

 Leave Link  103 at Mon Feb 22 21:11:36 2021, MaxMem=   104857600 cpu:               0.8 elap:               0.1
 (Enter /sw/arch/RedHatEnterpriseServer7/EB_production/2019/software/Gaussian/g16.c01/l202.exe)
                          Input orientation:                          
 ---------------------------------------------------------------------
 Center     Atomic      Atomic             Coordinates (Angstroms)
 Number     Number       Type             X           Y           Z
 ---------------------------------------------------------------------
      1          6           0       -0.816350   -2.746420   -1.865970
      2          7           0       -0.891190   -1.451130   -1.091300
      3          6           0       -1.856650   -0.514740   -1.779350
      4          6           0       -1.418650   -1.754870    0.294910
      5          6           0        0.489300   -0.826480   -0.942450
      6          6           0        1.229760   -0.481760   -2.178830
      7          8           0        0.875240    0.475190   -2.902970
      8          8           0        2.340180   -1.168790   -2.530820
      9          1           0       -1.790090   -3.244940   -1.909990
     10          1           0       -0.109550   -3.443110   -1.409550
     11          1           0       -0.491580   -2.578760   -2.896560
     12          1           0       -2.873560   -0.919460   -1.788190
     13          1           0       -1.892950    0.457310   -1.278250
     14          1           0       -1.579650   -0.338890   -2.821260
     15          1           0       -0.755990   -2.437650    0.833720
     16          1           0       -1.507720   -0.843720    0.894840
     17          1           0       -2.406960   -2.221750    0.261280
     18          1           0        0.422320    0.092950   -0.351300
     19          1           0        1.131450   -1.504140   -0.369260
 ---------------------------------------------------------------------
                    Distance matrix (angstroms):
                    1          2          3          4          5
     1  C    0.000000
     2  N    1.511122   0.000000
     3  C    2.463762   1.510746   0.000000
     4  C    2.452619   1.513952   2.456078   0.000000
     5  C    2.498756   1.522530   2.510192   2.456266   0.000000
     6  C    3.068083   2.573097   3.112330   3.841129   1.481806
     7  O    3.783598   3.180115   3.115398   4.523443   2.384729
     8  O    3.590908   3.548758   4.313452   4.738886   2.462895
     9  H    1.094819   2.167032   2.734134   2.686980   3.461315
    10  H    1.092366   2.163384   3.429936   2.732962   2.724620
    11  H    1.093481   2.165687   2.715097   3.423994   2.801992
    12  H    2.752444   2.167515   1.094524   2.674692   3.468825
    13  H    3.430506   2.163473   1.094212   2.755637   2.726902
    14  H    2.700260   2.168828   1.092350   3.426578   2.836939
    15  H    2.717960   2.167303   3.425955   1.093445   2.702110
    16  H    3.423497   2.166520   2.716850   1.094552   2.713673
    17  H    2.707492   2.172760   2.716780   1.093556   3.432793
    18  H    3.448268   2.158030   2.757230   2.687228   1.095124
    19  H    2.752694   2.148307   3.449059   2.647073   1.095503
                    6          7          8          9         10
     6  C    0.000000
     7  O    1.251326   0.000000
     8  O    1.352383   2.233207   0.000000
     9  H    4.102064   4.682880   4.664221   0.000000
    10  H    3.339931   4.307341   3.525756   1.764632   0.000000
    11  H    2.806342   3.345870   3.184438   1.761603   1.761887
    12  H    4.145047   4.152263   5.272262   2.568385   3.761905
    13  H    3.382930   3.209815   4.704521   3.757171   4.290808
    14  H    2.885466   2.587641   4.017232   3.052839   3.713529
    15  H    4.104165   5.010828   4.745145   3.041221   2.541868
    16  H    4.131859   4.673477   5.162088   3.703061   3.744586
    17  H    4.712476   5.297056   5.607128   2.478278   3.092165
    18  H    2.078970   2.619592   3.165515   4.297183   3.729142
    19  H    2.080738   3.225380   2.499166   3.733581   2.526240
                   11         12         13         14         15
    11  H    0.000000
    12  H    3.107344   0.000000
    13  H    3.714901   1.765540   0.000000
    14  H    2.491302   1.754565   1.764361   0.000000
    15  H    3.742301   3.696406   3.759506   4.294425   0.000000
    16  H    4.291575   3.011628   2.561914   3.750923   1.763362
    17  H    3.710538   2.472651   3.132367   3.705625   1.760682
    18  H    3.801525   3.735298   2.520411   3.208593   3.032593
    19  H    3.190028   4.288976   3.717599   3.836688   2.425084
                   16         17         18         19
    16  H    0.000000
    17  H    1.763235   0.000000
    18  H    2.480982   3.706469   0.000000
    19  H    2.999887   3.665091   1.747537   0.000000
 Stoichiometry    C5H11NO2
 Framework group  C1[X(C5H11NO2)]
 Deg. of freedom    51
 Full point group                 C1      NOp   1
 Largest Abelian subgroup         C1      NOp   1
 Largest concise Abelian subgroup C1      NOp   1
                         Standard orientation:                         
 ---------------------------------------------------------------------
 Center     Atomic      Atomic             Coordinates (Angstroms)
 Number     Number       Type             X           Y           Z
 ---------------------------------------------------------------------
      1          6           0        0.974641   -0.886158    1.247770
      2          7           0        0.987203   -0.025057    0.006062
      3          6           0        1.125752    1.424850    0.407218
      4          6           0        2.189088   -0.411481   -0.829522
      5          6           0       -0.262531   -0.260469   -0.831100
      6          6           0       -1.577244    0.007459   -0.202218
      7          8           0       -1.957408    1.175565    0.036156
      8          8           0       -2.421655   -1.008238    0.088073
      9          1           0        1.904876   -0.784984    1.816150
     10          1           0        0.853841   -1.942795    0.998394
     11          1           0        0.154710   -0.611956    1.917267
     12          1           0        2.077254    1.613621    0.914162
     13          1           0        1.080011    2.084571   -0.464548
     14          1           0        0.336273    1.733185    1.096334
     15          1           0        2.139575   -1.458689   -1.140210
     16          1           0        2.254195    0.196529   -1.737337
     17          1           0        3.125783   -0.280322   -0.280648
     18          1           0       -0.222296    0.345659   -1.742300
     19          1           0       -0.280379   -1.303240   -1.166416
 ---------------------------------------------------------------------
 Rotational constants (GHZ):           3.3479346           1.3703344           1.2456625
 Leave Link  202 at Mon Feb 22 21:11:37 2021, MaxMem=   104857600 cpu:               0.4 elap:               0.0
 (Enter /sw/arch/RedHatEnterpriseServer7/EB_production/2019/software/Gaussian/g16.c01/l301.exe)
 Standard basis: TZVP (5D, 7F)
 Ernie: Thresh=  0.10000D-02 Tol=  0.10000D-05 Strict=F.
 There are   226 symmetry adapted cartesian basis functions of A   symmetry.
 There are   218 symmetry adapted basis functions of A   symmetry.
   218 basis functions,   368 primitive gaussians,   226 cartesian basis functions
    32 alpha electrons       32 beta electrons
       nuclear repulsion energy       407.4438866925 Hartrees.
 IExCor=  404 DFT=T Ex=B Corr=P86 ExCW=0 ScaHFX=  0.000000
 ScaDFX=  1.000000  1.000000  1.000000  1.000000 ScalE2=  1.000000  1.000000
 IRadAn=      5 IRanWt=     -1 IRanGd=            0 ICorTp=0 IEmpDi=131
 NAtoms=   19 NActive=   19 NUniq=   19 SFac= 1.00D+00 NAtFMM=   60 NAOKFM=F Big=F
 Integral buffers will be    131072 words long.
 Raffenetti 2 integral format.
 Two-electron integral symmetry is turned on.
 R6Disp:  Grimme-D3 Dispersion energy=       -0.0203374752 Hartrees.
 Nuclear repulsion after empirical dispersion term =      407.4235492173 Hartrees.
 ------------------------------------------------------------------------------
 Polarizable Continuum Model (PCM)
 =================================
 Model                : PCM.
 Atomic radii         : UFF (Universal Force Field).
 Polarization charges : Total charges.
 Charge compensation  : None.
 Solution method      : On-the-fly selection.
 Cavity type          : Scaled VdW (van der Waals Surface) (Alpha=1.100).
 Cavity algorithm     : GePol (No added spheres)
                        Default sphere list used, NSphG=   19.
                        Lebedev-Laikov grids with approx.  5.0 points / Ang**2.
                        Smoothing algorithm: York/Karplus (Gamma=1.0000).
                        Polarization charges: spherical gaussians, with
                                              point-specific exponents (IZeta= 3).
                        Self-potential: point-specific (ISelfS= 7).
                        Self-field    : sphere-specific E.n sum rule (ISelfD= 2).
 1st derivatives      : Analytical E(r).r(x)/FMM algorithm (CHGder, D1EAlg=3).
                        Cavity 1st derivative terms included.
 Solvent              : Water, Eps=  78.355300 Eps(inf)=   1.777849
 ------------------------------------------------------------------------------
 Spheres list:
 ISph  on   Nord     Re0    Alpha      Xe            Ye            Ze
    1   C      1    1.9255  1.100      0.974641     -0.886158      1.247770
    2   N      2    1.8300  1.100      0.987203     -0.025057      0.006062
    3   C      3    1.9255  1.100      1.125752      1.424850      0.407218
    4   C      4    1.9255  1.100      2.189088     -0.411481     -0.829522
    5   C      5    1.9255  1.100     -0.262531     -0.260469     -0.831100
    6   C      6    1.9255  1.100     -1.577244      0.007459     -0.202218
    7   O      7    1.7500  1.100     -1.957408      1.175565      0.036156
    8   O      8    1.7500  1.100     -2.421655     -1.008238      0.088073
    9   H      9    1.4430  1.100      1.904876     -0.784984      1.816150
   10   H     10    1.4430  1.100      0.853841     -1.942795      0.998394
   11   H     11    1.4430  1.100      0.154710     -0.611956      1.917267
   12   H     12    1.4430  1.100      2.077254      1.613621      0.914162
   13   H     13    1.4430  1.100      1.080011      2.084571     -0.464548
   14   H     14    1.4430  1.100      0.336273      1.733185      1.096334
   15   H     15    1.4430  1.100      2.139575     -1.458689     -1.140210
   16   H     16    1.4430  1.100      2.254195      0.196529     -1.737337
   17   H     17    1.4430  1.100      3.125783     -0.280322     -0.280648
   18   H     18    1.4430  1.100     -0.222296      0.345659     -1.742300
   19   H     19    1.4430  1.100     -0.280379     -1.303240     -1.166416
 ------------------------------------------------------------------------------
 GePol: Number of generator spheres                  =      19
 GePol: Total number of spheres                      =      19
 GePol: Number of exposed spheres                    =      19 (100.00%)
 GePol: Number of points                             =    1394
 GePol: Average weight of points                     =       0.14
 GePol: Minimum weight of points                     =   0.63D-11
 GePol: Maximum weight of points                     =    0.20577
 GePol: Number of points with low weight             =      90
 GePol: Fraction of low-weight points (<1% of avg)   =       6.46%
 GePol: Cavity surface area                          =    191.205 Ang**2
 GePol: Cavity volume                                =    189.771 Ang**3
 Leave Link  301 at Mon Feb 22 21:11:37 2021, MaxMem=   104857600 cpu:               1.8 elap:               0.1
 (Enter /sw/arch/RedHatEnterpriseServer7/EB_production/2019/software/Gaussian/g16.c01/l302.exe)
 NPDir=0 NMtPBC=     1 NCelOv=     1 NCel=       1 NClECP=     1 NCelD=      1
         NCelK=      1 NCelE2=     1 NClLst=     1 CellRange=     0.0.
 One-electron integrals computed using PRISM.
 One-electron integral symmetry used in STVInt
 PrsmSu:  requested number of processors reduced to:  29 ShMem   1 Linda.
 NBasis=   218 RedAO= T EigKep=  3.31D-04  NBF=   218
 NBsUse=   218 1.00D-06 EigRej= -1.00D+00 NBFU=   218
 Precomputing XC quadrature grid using
 IXCGrd= 4 IRadAn=           5 IRanWt=          -1 IRanGd=           0 AccXCQ= 0.00D+00.
 Generated NRdTot=       0 NPtTot=           0 NUsed=           0 NTot=          32
 NSgBfM=   225   225   225   225   225 MxSgAt=    19 MxSgA2=    19.
 Leave Link  302 at Mon Feb 22 21:11:37 2021, MaxMem=   104857600 cpu:               7.9 elap:               0.3
 (Enter /sw/arch/RedHatEnterpriseServer7/EB_production/2019/software/Gaussian/g16.c01/l303.exe)
 DipDrv:  MaxL=1.
 Leave Link  303 at Mon Feb 22 21:11:37 2021, MaxMem=   104857600 cpu:               3.7 elap:               0.2
 (Enter /sw/arch/RedHatEnterpriseServer7/EB_production/2019/software/Gaussian/g16.c01/l401.exe)
 ExpMin= 9.52D-02 ExpMax= 2.70D+04 ExpMxC= 9.22D+02 IAcc=3 IRadAn=         5 AccDes= 0.00D+00
 Harris functional with IExCor=  404 and IRadAn=       5 diagonalized for initial guess.
 HarFok:  IExCor=  404 AccDes= 0.00D+00 IRadAn=         5 IDoV= 1 UseB2=F ITyADJ=14
 ICtDFT=  3500011 ScaDFX=  1.000000  1.000000  1.000000  1.000000
 FoFCou: FMM=F IPFlag=           0 FMFlag=      100000 FMFlg1=           0
         NFxFlg=           0 DoJE=T BraDBF=F KetDBF=T FulRan=T
         wScrn=  0.000000 ICntrl=       500 IOpCl=  0 I1Cent=   200000004 NGrid=           0
         NMat0=    1 NMatS0=      1 NMatT0=    0 NMatD0=    1 NMtDS0=    0 NMtDT0=    0
 Petite list used in FoFCou.
 Harris En= -402.664801177737    
 JPrj=0 DoOrth=F DoCkMO=F.
 Leave Link  401 at Mon Feb 22 21:11:38 2021, MaxMem=   104857600 cpu:              10.8 elap:               0.4
 (Enter /sw/arch/RedHatEnterpriseServer7/EB_production/2019/software/Gaussian/g16.c01/l502.exe)
 Integral symmetry usage will be decided dynamically.
 Closed shell SCF:
 Using DIIS extrapolation, IDIIS=  1040.
 NGot=   104857600 LenX=   104745334 LenY=   104693817
 Requested convergence on RMS density matrix=1.00D-08 within 128 cycles.
 Requested convergence on MAX density matrix=1.00D-06.
 Requested convergence on             energy=1.00D-06.
 No special actions if energy rises.
 Fock matrices will be formed incrementally for  20 cycles.

 Cycle   1  Pass 1  IDiag  1:
 FoFJK:  IHMeth= 1 ICntrl=     500 DoSepK=F KAlg= 0 I1Cent=           0 FoldK=F
 IRaf= 960000000 NMat=       1 IRICut=       1 DoRegI=T DoRafI=F ISym2E= 0 IDoP0=0 IntGTp=1.
 FoFCou: FMM=F IPFlag=           0 FMFlag=      100000 FMFlg1=           0
         NFxFlg=           0 DoJE=T BraDBF=F KetDBF=F FulRan=T
         wScrn=  0.000000 ICntrl=       500 IOpCl=  0 I1Cent=           0 NGrid=           0
         NMat0=    1 NMatS0=      1 NMatT0=    0 NMatD0=    1 NMtDS0=    0 NMtDT0=    0
 Symmetry not used in FoFCou.
 Inv3:  Mode=1 IEnd=     5829708.
 Iteration    1 A*A^-1 deviation from unit magnitude is 3.55D-15 for   1261.
 Iteration    1 A*A^-1 deviation from orthogonality  is 2.18D-15 for    639     51.
 Iteration    1 A^-1*A deviation from unit magnitude is 3.22D-15 for   1236.
 Iteration    1 A^-1*A deviation from orthogonality  is 1.67D-15 for   1096     24.
 E= -402.200319633834    
 DIIS: error= 3.98D-02 at cycle   1 NSaved=   1.
 NSaved= 1 IEnMin= 1 EnMin= -402.200319633834     IErMin= 1 ErrMin= 3.98D-02
 ErrMax= 3.98D-02  0.00D+00 EMaxC= 1.00D-01 BMatC= 3.60D-01 BMatP= 3.60D-01
 IDIUse=3 WtCom= 6.02D-01 WtEn= 3.98D-01
 Coeff-Com:  0.100D+01
 Coeff-En:   0.100D+01
 Coeff:      0.100D+01
 Gap=    -0.023 Goal=   None    Shift=    0.000
 GapD=   -0.023 DampG=0.250 DampE=0.500 DampFc=0.2500 IDamp=-1.
 Damping current iteration by 2.50D-01
 RMSDP=2.89D-02 MaxDP=3.18D+00              OVMax= 6.08D-01

 Cycle   2  Pass 1  IDiag  1:
 RMSU=  7.22D-03    CP:  1.01D+00
 E= -402.273467429880     Delta-E=       -0.073147796045 Rises=F Damp=T
 DIIS: error= 1.08D-02 at cycle   2 NSaved=   2.
 NSaved= 2 IEnMin= 2 EnMin= -402.273467429880     IErMin= 2 ErrMin= 1.08D-02
 ErrMax= 1.08D-02  0.00D+00 EMaxC= 1.00D-01 BMatC= 3.94D-02 BMatP= 3.60D-01
 IDIUse=3 WtCom= 8.92D-01 WtEn= 1.08D-01
 Coeff-Com: -0.163D+00 0.116D+01
 Coeff-En:   0.243D+00 0.757D+00
 Coeff:     -0.119D+00 0.112D+01
 Gap=     0.061 Goal=   None    Shift=    0.000
 RMSDP=5.26D-03 MaxDP=4.90D-01 DE=-7.31D-02 OVMax= 4.62D-01

 Cycle   3  Pass 1  IDiag  1:
 RMSU=  3.08D-03    CP:  9.93D-01  4.11D-01
 E= -402.398765036935     Delta-E=       -0.125297607055 Rises=F Damp=F
 DIIS: error= 2.45D-02 at cycle   3 NSaved=   3.
 NSaved= 3 IEnMin= 3 EnMin= -402.398765036935     IErMin= 2 ErrMin= 1.08D-02
 ErrMax= 2.45D-02  0.00D+00 EMaxC= 1.00D-01 BMatC= 1.07D-01 BMatP= 3.94D-02
 IDIUse=2 WtCom= 0.00D+00 WtEn= 1.00D+00
 EnCoef did   100 forward-backward iterations
 Coeff-En:   0.873D-01 0.240D-02 0.910D+00
 Coeff:      0.873D-01 0.240D-02 0.910D+00
 Gap=     0.146 Goal=   None    Shift=    0.000
 RMSDP=1.28D-02 MaxDP=1.23D+00 DE=-1.25D-01 OVMax= 6.20D-01

 Cycle   4  Pass 1  IDiag  1:
 RMSU=  6.65D-03    CP:  1.04D+00  1.82D+00 -3.11D-01
 E= -401.411890302291     Delta-E=        0.986874734644 Rises=F Damp=F
 DIIS: error= 9.00D-02 at cycle   4 NSaved=   4.
 NSaved= 4 IEnMin= 3 EnMin= -402.398765036935     IErMin= 2 ErrMin= 1.08D-02
 ErrMax= 9.00D-02  0.00D+00 EMaxC= 1.00D-01 BMatC= 1.17D+00 BMatP= 3.94D-02
 IDIUse=2 WtCom= 0.00D+00 WtEn= 1.00D+00
 EnCoef did     1 forward-backward iterations
 Coeff-En:   0.394D-02 0.000D+00 0.859D+00 0.137D+00
 Coeff:      0.394D-02 0.000D+00 0.859D+00 0.137D+00
 Gap=     0.086 Goal=   None    Shift=    0.000
 RMSDP=1.06D-02 MaxDP=1.12D+00 DE= 9.87D-01 OVMax= 3.86D-01

 Cycle   5  Pass 1  IDiag  1:
 RMSU=  1.56D-03    CP:  1.02D+00  5.63D-01  4.75D-01  3.14D-01
 E= -402.392527744046     Delta-E=       -0.980637441755 Rises=F Damp=F
 DIIS: error= 2.81D-02 at cycle   5 NSaved=   5.
 NSaved= 5 IEnMin= 3 EnMin= -402.398765036935     IErMin= 2 ErrMin= 1.08D-02
 ErrMax= 2.81D-02  0.00D+00 EMaxC= 1.00D-01 BMatC= 1.22D-01 BMatP= 3.94D-02
 IDIUse=2 WtCom= 0.00D+00 WtEn= 1.00D+00
 Coeff-En:   0.000D+00 0.000D+00 0.511D+00 0.000D+00 0.489D+00
 Coeff:      0.000D+00 0.000D+00 0.511D+00 0.000D+00 0.489D+00
 Gap=     0.134 Goal=   None    Shift=    0.000
 RMSDP=1.87D-03 MaxDP=8.97D-02 DE=-9.81D-01 OVMax= 1.62D-01

 Cycle   6  Pass 1  IDiag  1:
 RMSU=  3.52D-04    CP:  1.01D+00  4.62D-01  7.71D-01  1.23D-01  6.14D-01
 E= -402.492232077914     Delta-E=       -0.099704333867 Rises=F Damp=F
 DIIS: error= 5.63D-03 at cycle   6 NSaved=   6.
 NSaved= 6 IEnMin= 6 EnMin= -402.492232077914     IErMin= 6 ErrMin= 5.63D-03
 ErrMax= 5.63D-03  0.00D+00 EMaxC= 1.00D-01 BMatC= 4.44D-03 BMatP= 3.94D-02
 IDIUse=3 WtCom= 9.44D-01 WtEn= 5.63D-02
 Coeff-Com: -0.304D-01 0.857D-01 0.345D+00-0.246D-01 0.380D+00 0.245D+00
 Coeff-En:   0.000D+00 0.000D+00 0.000D+00 0.000D+00 0.000D+00 0.100D+01
 Coeff:     -0.287D-01 0.809D-01 0.325D+00-0.232D-01 0.358D+00 0.288D+00
 Gap=     0.134 Goal=   None    Shift=    0.000
 RMSDP=4.62D-04 MaxDP=1.14D-02 DE=-9.97D-02 OVMax= 3.92D-02

 Cycle   7  Pass 1  IDiag  1:
 RMSU=  2.14D-04    CP:  1.01D+00  4.60D-01  7.12D-01  1.65D-01  6.22D-01
                    CP:  3.33D-01
 E= -402.494741936852     Delta-E=       -0.002509858939 Rises=F Damp=F
 DIIS: error= 3.64D-03 at cycle   7 NSaved=   7.
 NSaved= 7 IEnMin= 7 EnMin= -402.494741936852     IErMin= 7 ErrMin= 3.64D-03
 ErrMax= 3.64D-03  0.00D+00 EMaxC= 1.00D-01 BMatC= 1.28D-03 BMatP= 4.44D-03
 IDIUse=3 WtCom= 9.64D-01 WtEn= 3.64D-02
 Coeff-Com:  0.480D-02-0.855D-02 0.753D-01-0.910D-02 0.916D-01 0.320D+00
 Coeff-Com:  0.526D+00
 Coeff-En:   0.000D+00 0.000D+00 0.000D+00 0.000D+00 0.000D+00 0.285D+00
 Coeff-En:   0.715D+00
 Coeff:      0.462D-02-0.824D-02 0.725D-01-0.877D-02 0.883D-01 0.319D+00
 Coeff:      0.533D+00
 Gap=     0.132 Goal=   None    Shift=    0.000
 RMSDP=1.72D-04 MaxDP=5.50D-03 DE=-2.51D-03 OVMax= 1.30D-02

 Cycle   8  Pass 1  IDiag  1:
 RMSU=  4.37D-05    CP:  1.01D+00  4.68D-01  7.40D-01  1.53D-01  6.24D-01
                    CP:  5.22D-01  6.51D-01
 E= -402.495657352802     Delta-E=       -0.000915415950 Rises=F Damp=F
 DIIS: error= 5.33D-04 at cycle   8 NSaved=   8.
 NSaved= 8 IEnMin= 8 EnMin= -402.495657352802     IErMin= 8 ErrMin= 5.33D-04
 ErrMax= 5.33D-04  0.00D+00 EMaxC= 1.00D-01 BMatC= 7.87D-05 BMatP= 1.28D-03
 IDIUse=3 WtCom= 9.95D-01 WtEn= 5.33D-03
 Coeff-Com:  0.109D-01-0.197D-01 0.157D-01-0.842D-03 0.128D-01 0.198D+00
 Coeff-Com:  0.319D+00 0.464D+00
 Coeff-En:   0.000D+00 0.000D+00 0.000D+00 0.000D+00 0.000D+00 0.000D+00
 Coeff-En:   0.000D+00 0.100D+01
 Coeff:      0.109D-01-0.196D-01 0.156D-01-0.837D-03 0.127D-01 0.197D+00
 Coeff:      0.318D+00 0.467D+00
 Gap=     0.132 Goal=   None    Shift=    0.000
 RMSDP=4.89D-05 MaxDP=4.41D-03 DE=-9.15D-04 OVMax= 1.27D-03

 Cycle   9  Pass 1  IDiag  1:
 RMSU=  1.91D-05    CP:  1.01D+00  4.63D-01  7.37D-01  1.51D-01  6.18D-01
                    CP:  5.29D-01  6.49D-01  6.17D-01
 E= -402.495706386060     Delta-E=       -0.000049033258 Rises=F Damp=F
 DIIS: error= 2.39D-04 at cycle   9 NSaved=   9.
 NSaved= 9 IEnMin= 9 EnMin= -402.495706386060     IErMin= 9 ErrMin= 2.39D-04
 ErrMax= 2.39D-04  0.00D+00 EMaxC= 1.00D-01 BMatC= 1.19D-05 BMatP= 7.87D-05
 IDIUse=3 WtCom= 9.98D-01 WtEn= 2.39D-03
 Coeff-Com:  0.627D-02-0.870D-02 0.459D-02 0.318D-03-0.255D-02 0.759D-01
 Coeff-Com:  0.115D+00 0.276D+00 0.533D+00
 Coeff-En:   0.000D+00 0.000D+00 0.000D+00 0.000D+00 0.000D+00 0.000D+00
 Coeff-En:   0.000D+00 0.000D+00 0.100D+01
 Coeff:      0.625D-02-0.868D-02 0.458D-02 0.317D-03-0.254D-02 0.758D-01
 Coeff:      0.115D+00 0.276D+00 0.534D+00
 Gap=     0.132 Goal=   None    Shift=    0.000
 RMSDP=2.39D-05 MaxDP=2.16D-03 DE=-4.90D-05 OVMax= 1.02D-03

 Cycle  10  Pass 1  IDiag  1:
 RMSU=  7.35D-06    CP:  1.01D+00  4.60D-01  7.37D-01  1.49D-01  6.15D-01
                    CP:  5.36D-01  6.47D-01  5.69D-01  7.20D-01
 E= -402.495716588243     Delta-E=       -0.000010202182 Rises=F Damp=F
 DIIS: error= 9.69D-05 at cycle  10 NSaved=  10.
 NSaved=10 IEnMin=10 EnMin= -402.495716588243     IErMin=10 ErrMin= 9.69D-05
 ErrMax= 9.69D-05  0.00D+00 EMaxC= 1.00D-01 BMatC= 9.11D-07 BMatP= 1.19D-05
 IDIUse=1 WtCom= 1.00D+00 WtEn= 0.00D+00
 Coeff-Com:  0.234D-02-0.248D-02 0.204D-02-0.111D-03-0.145D-02 0.199D-01
 Coeff-Com:  0.310D-01 0.915D-01 0.257D+00 0.600D+00
 Coeff:      0.234D-02-0.248D-02 0.204D-02-0.111D-03-0.145D-02 0.199D-01
 Coeff:      0.310D-01 0.915D-01 0.257D+00 0.600D+00
 Gap=     0.133 Goal=   None    Shift=    0.000
 RMSDP=4.72D-06 MaxDP=2.27D-04 DE=-1.02D-05 OVMax= 2.15D-04

 Cycle  11  Pass 1  IDiag  1:
 RMSU=  2.00D-06    CP:  1.01D+00  4.60D-01  7.38D-01  1.49D-01  6.14D-01
                    CP:  5.33D-01  6.48D-01  5.99D-01  7.09D-01  7.03D-01
 E= -402.495717361659     Delta-E=       -0.000000773417 Rises=F Damp=F
 DIIS: error= 1.56D-05 at cycle  11 NSaved=  11.
 NSaved=11 IEnMin=11 EnMin= -402.495717361659     IErMin=11 ErrMin= 1.56D-05
 ErrMax= 1.56D-05  0.00D+00 EMaxC= 1.00D-01 BMatC= 5.59D-08 BMatP= 9.11D-07
 IDIUse=1 WtCom= 1.00D+00 WtEn= 0.00D+00
 Coeff-Com:  0.449D-03-0.386D-03 0.498D-03-0.336D-04-0.240D-03 0.251D-03
 Coeff-Com:  0.550D-03 0.167D-02 0.273D-01 0.207D+00 0.763D+00
 Coeff:      0.449D-03-0.386D-03 0.498D-03-0.336D-04-0.240D-03 0.251D-03
 Coeff:      0.550D-03 0.167D-02 0.273D-01 0.207D+00 0.763D+00
 Gap=     0.133 Goal=   None    Shift=    0.000
 RMSDP=2.29D-06 MaxDP=2.23D-04 DE=-7.73D-07 OVMax= 6.34D-05

 Cycle  12  Pass 1  IDiag  1:
 RMSU=  6.26D-07    CP:  1.01D+00  4.60D-01  7.37D-01  1.49D-01  6.13D-01
                    CP:  5.33D-01  6.47D-01  5.91D-01  7.21D-01  7.66D-01
                    CP:  8.47D-01
 E= -402.495717433994     Delta-E=       -0.000000072334 Rises=F Damp=F
 DIIS: error= 3.71D-06 at cycle  12 NSaved=  12.
 NSaved=12 IEnMin=12 EnMin= -402.495717433994     IErMin=12 ErrMin= 3.71D-06
 ErrMax= 3.71D-06  0.00D+00 EMaxC= 1.00D-01 BMatC= 3.26D-09 BMatP= 5.59D-08
 IDIUse=1 WtCom= 1.00D+00 WtEn= 0.00D+00
 Coeff-Com:  0.815D-04-0.275D-04 0.158D-03-0.102D-04-0.202D-04-0.128D-02
 Coeff-Com: -0.176D-02-0.570D-02-0.483D-02 0.686D-01 0.404D+00 0.541D+00
 Coeff:      0.815D-04-0.275D-04 0.158D-03-0.102D-04-0.202D-04-0.128D-02
 Coeff:     -0.176D-02-0.570D-02-0.483D-02 0.686D-01 0.404D+00 0.541D+00
 Gap=     0.133 Goal=   None    Shift=    0.000
 RMSDP=3.10D-07 MaxDP=2.03D-05 DE=-7.23D-08 OVMax= 1.05D-05

 Cycle  13  Pass 1  IDiag  1:
 RMSU=  1.70D-07    CP:  1.01D+00  4.60D-01  7.37D-01  1.49D-01  6.13D-01
                    CP:  5.33D-01  6.47D-01  5.91D-01  7.22D-01  7.72D-01
                    CP:  8.69D-01  8.81D-01
 E= -402.495717422333     Delta-E=        0.000000011661 Rises=F Damp=F
 DIIS: error= 8.83D-07 at cycle  13 NSaved=  13.
 NSaved=13 IEnMin=12 EnMin= -402.495717433994     IErMin=13 ErrMin= 8.83D-07
 ErrMax= 8.83D-07  0.00D+00 EMaxC= 1.00D-01 BMatC= 1.51D-10 BMatP= 3.26D-09
 IDIUse=1 WtCom= 1.00D+00 WtEn= 0.00D+00
 Coeff-Com:  0.113D-04-0.275D-05 0.328D-04-0.237D-05 0.191D-05-0.261D-03
 Coeff-Com: -0.263D-03-0.120D-02-0.301D-02 0.879D-02 0.860D-01 0.225D+00
 Coeff-Com:  0.685D+00
 Coeff:      0.113D-04-0.275D-05 0.328D-04-0.237D-05 0.191D-05-0.261D-03
 Coeff:     -0.263D-03-0.120D-02-0.301D-02 0.879D-02 0.860D-01 0.225D+00
 Coeff:      0.685D+00
 Gap=     0.133 Goal=   None    Shift=    0.000
 RMSDP=1.10D-07 MaxDP=8.56D-06 DE= 1.17D-08 OVMax= 2.39D-06

 Cycle  14  Pass 1  IDiag  1:
 RMSU=  4.42D-08    CP:  1.01D+00  4.60D-01  7.37D-01  1.49D-01  6.13D-01
                    CP:  5.33D-01  6.47D-01  5.91D-01  7.21D-01  7.71D-01
                    CP:  8.83D-01  8.50D-01  7.70D-01
 E= -402.495717436932     Delta-E=       -0.000000014599 Rises=F Damp=F
 DIIS: error= 2.55D-07 at cycle  14 NSaved=  14.
 NSaved=14 IEnMin=14 EnMin= -402.495717436932     IErMin=14 ErrMin= 2.55D-07
 ErrMax= 2.55D-07  0.00D+00 EMaxC= 1.00D-01 BMatC= 9.12D-12 BMatP= 1.51D-10
 IDIUse=1 WtCom= 1.00D+00 WtEn= 0.00D+00
 Coeff-Com:  0.241D-05-0.188D-05 0.531D-05-0.528D-07-0.179D-05-0.274D-04
 Coeff-Com: -0.320D-04-0.153D-03-0.837D-03 0.335D-03 0.133D-01 0.547D-01
 Coeff-Com:  0.232D+00 0.700D+00
 Coeff:      0.241D-05-0.188D-05 0.531D-05-0.528D-07-0.179D-05-0.274D-04
 Coeff:     -0.320D-04-0.153D-03-0.837D-03 0.335D-03 0.133D-01 0.547D-01
 Coeff:      0.232D+00 0.700D+00
 Gap=     0.133 Goal=   None    Shift=    0.000
 RMSDP=2.31D-08 MaxDP=7.20D-07 DE=-1.46D-08 OVMax= 1.01D-06

 Cycle  15  Pass 1  IDiag  1:
 RMSU=  7.31D-09    CP:  1.01D+00  4.60D-01  7.37D-01  1.49D-01  6.13D-01
                    CP:  5.33D-01  6.47D-01  5.91D-01  7.21D-01  7.71D-01
                    CP:  8.81D-01  8.65D-01  7.90D-01  7.67D-01
 E= -402.495717422481     Delta-E=        0.000000014451 Rises=F Damp=F
 DIIS: error= 5.85D-08 at cycle  15 NSaved=  15.
 NSaved=15 IEnMin=14 EnMin= -402.495717436932     IErMin=15 ErrMin= 5.85D-08
 ErrMax= 5.85D-08  0.00D+00 EMaxC= 1.00D-01 BMatC= 3.99D-13 BMatP= 9.12D-12
 IDIUse=1 WtCom= 1.00D+00 WtEn= 0.00D+00
 Coeff-Com:  0.682D-06-0.840D-06 0.704D-06 0.433D-07-0.539D-06 0.432D-07
 Coeff-Com: -0.766D-05-0.210D-04-0.161D-03-0.144D-03 0.103D-02 0.892D-02
 Coeff-Com:  0.474D-01 0.188D+00 0.755D+00
 Coeff:      0.682D-06-0.840D-06 0.704D-06 0.433D-07-0.539D-06 0.432D-07
 Coeff:     -0.766D-05-0.210D-04-0.161D-03-0.144D-03 0.103D-02 0.892D-02
 Coeff:      0.474D-01 0.188D+00 0.755D+00
 Gap=     0.133 Goal=   None    Shift=    0.000
 RMSDP=3.70D-09 MaxDP=2.52D-07 DE= 1.45D-08 OVMax= 2.85D-07

 Cycle  16  Pass 1  IDiag  1:
 RMSU=  1.15D-09    CP:  1.01D+00  4.60D-01  7.37D-01  1.49D-01  6.13D-01
                    CP:  5.33D-01  6.47D-01  5.91D-01  7.21D-01  7.71D-01
                    CP:  8.81D-01  8.65D-01  7.92D-01  7.86D-01  8.98D-01
 E= -402.495717422481     Delta-E=       -0.000000000000 Rises=F Damp=F
 DIIS: error= 7.68D-09 at cycle  16 NSaved=  16.
 NSaved=16 IEnMin=14 EnMin= -402.495717436932     IErMin=16 ErrMin= 7.68D-09
 ErrMax= 7.68D-09  0.00D+00 EMaxC= 1.00D-01 BMatC= 1.82D-14 BMatP= 3.99D-13
 IDIUse=1 WtCom= 1.00D+00 WtEn= 0.00D+00
 Coeff-Com:  0.201D-06-0.281D-06 0.992D-07 0.219D-07-0.119D-06 0.603D-06
 Coeff-Com: -0.313D-05-0.745D-05-0.519D-04-0.104D-03-0.150D-03 0.200D-02
 Coeff-Com:  0.140D-01 0.630D-01 0.360D+00 0.562D+00
 Coeff:      0.201D-06-0.281D-06 0.992D-07 0.219D-07-0.119D-06 0.603D-06
 Coeff:     -0.313D-05-0.745D-05-0.519D-04-0.104D-03-0.150D-03 0.200D-02
 Coeff:      0.140D-01 0.630D-01 0.360D+00 0.562D+00
 Gap=     0.133 Goal=   None    Shift=    0.000
 RMSDP=9.69D-10 MaxDP=8.28D-08 DE=-4.55D-13 OVMax= 2.78D-08

 Error on total polarization charges =  0.01086
 SCF Done:  E(RB-P86) =  -402.495717422     A.U. after   16 cycles
            NFock= 16  Conv=0.97D-09     -V/T= 2.0051
 KE= 4.004703098599D+02 PE=-1.754686158224D+03 EE= 5.442965817247D+02
 Leave Link  502 at Mon Feb 22 21:11:51 2021, MaxMem=   104857600 cpu:             410.6 elap:              13.1
 (Enter /sw/arch/RedHatEnterpriseServer7/EB_production/2019/software/Gaussian/g16.c01/l601.exe)
 Copying SCF densities to generalized density rwf, IOpCl= 0 IROHF=0.

 **********************************************************************

            Population analysis using the SCF Density.

 **********************************************************************

 Orbital symmetries:
       Occupied  (A) (A) (A) (A) (A) (A) (A) (A) (A) (A) (A) (A)
                 (A) (A) (A) (A) (A) (A) (A) (A) (A) (A) (A) (A)
                 (A) (A) (A) (A) (A) (A) (A) (A)
       Virtual   (A) (A) (A) (A) (A) (A) (A) (A) (A) (A) (A) (A)
                 (A) (A) (A) (A) (A) (A) (A) (A) (A) (A) (A) (A)
                 (A) (A) (A) (A) (A) (A) (A) (A) (A) (A) (A) (A)
                 (A) (A) (A) (A) (A) (A) (A) (A) (A) (A) (A) (A)
                 (A) (A) (A) (A) (A) (A) (A) (A) (A) (A) (A) (A)
                 (A) (A) (A) (A) (A) (A) (A) (A) (A) (A) (A) (A)
                 (A) (A) (A) (A) (A) (A) (A) (A) (A) (A) (A) (A)
                 (A) (A) (A) (A) (A) (A) (A) (A) (A) (A) (A) (A)
                 (A) (A) (A) (A) (A) (A) (A) (A) (A) (A) (A) (A)
                 (A) (A) (A) (A) (A) (A) (A) (A) (A) (A) (A) (A)
                 (A) (A) (A) (A) (A) (A) (A) (A) (A) (A) (A) (A)
                 (A) (A) (A) (A) (A) (A) (A) (A) (A) (A) (A) (A)
                 (A) (A) (A) (A) (A) (A) (A) (A) (A) (A) (A) (A)
                 (A) (A) (A) (A) (A) (A) (A) (A) (A) (A) (A) (A)
                 (A) (A) (A) (A) (A) (A) (A) (A) (A) (A) (A) (A)
                 (A) (A) (A) (A) (A) (A)
 The electronic state is 1-A.
 Alpha  occ. eigenvalues --  -18.71575 -18.70270 -14.15958  -9.98250  -9.95971
 Alpha  occ. eigenvalues --   -9.95956  -9.95853  -9.95466  -0.95549  -0.92901
 Alpha  occ. eigenvalues --   -0.82319  -0.70611  -0.69435  -0.69240  -0.59955
 Alpha  occ. eigenvalues --   -0.51469  -0.49480  -0.49195  -0.44237  -0.41146
 Alpha  occ. eigenvalues --   -0.39888  -0.38483  -0.38148  -0.37534  -0.37040
 Alpha  occ. eigenvalues --   -0.36853  -0.36497  -0.33430  -0.32535  -0.21415
 Alpha  occ. eigenvalues --   -0.20902  -0.17508
 Alpha virt. eigenvalues --   -0.04253   0.00725   0.02682   0.03955   0.04278
 Alpha virt. eigenvalues --    0.05376   0.05969   0.06254   0.06538   0.08950
 Alpha virt. eigenvalues --    0.09672   0.10064   0.11005   0.12446   0.13280
 Alpha virt. eigenvalues --    0.13780   0.15158   0.16458   0.17431   0.21137
 Alpha virt. eigenvalues --    0.21250   0.22180   0.22740   0.22942   0.25861
 Alpha virt. eigenvalues --    0.27782   0.28327   0.29873   0.32371   0.33456
 Alpha virt. eigenvalues --    0.34061   0.35442   0.36570   0.38034   0.38899
 Alpha virt. eigenvalues --    0.39844   0.40061   0.40701   0.40732   0.41423
 Alpha virt. eigenvalues --    0.41626   0.42275   0.42570   0.42797   0.42933
 Alpha virt. eigenvalues --    0.44371   0.45513   0.46154   0.49124   0.49737
 Alpha virt. eigenvalues --    0.53876   0.55308   0.56457   0.59846   0.62449
 Alpha virt. eigenvalues --    0.64674   0.67369   0.67841   0.68738   0.75242
 Alpha virt. eigenvalues --    0.80546   0.90523   0.98659   1.01855   1.14438
 Alpha virt. eigenvalues --    1.14981   1.16420   1.17015   1.18307   1.19307
 Alpha virt. eigenvalues --    1.21072   1.21651   1.24808   1.25879   1.26380
 Alpha virt. eigenvalues --    1.29467   1.31195   1.31924   1.33575   1.36507
 Alpha virt. eigenvalues --    1.38195   1.40221   1.44213   1.44574   1.46163
 Alpha virt. eigenvalues --    1.47272   1.49511   1.50137   1.51502   1.53773
 Alpha virt. eigenvalues --    1.55895   1.58772   1.59071   1.63537   1.65011
 Alpha virt. eigenvalues --    1.65972   1.66426   1.67811   1.69300   1.69593
 Alpha virt. eigenvalues --    1.69974   1.71063   1.71985   1.72222   1.72868
 Alpha virt. eigenvalues --    1.74945   1.84643   1.85652   1.86006   1.87501
 Alpha virt. eigenvalues --    1.93191   1.95267   1.97072   1.97958   2.07090
 Alpha virt. eigenvalues --    2.13351   2.14655   2.15391   2.17111   2.18666
 Alpha virt. eigenvalues --    2.21537   2.28155   2.28362   2.30374   2.32674
 Alpha virt. eigenvalues --    2.33642   2.34817   2.35228   2.37191   2.38640
 Alpha virt. eigenvalues --    2.39416   2.42418   2.50237   2.53016   2.56276
 Alpha virt. eigenvalues --    2.56441   2.57883   2.58741   2.58853   2.59527
 Alpha virt. eigenvalues --    2.60875   2.61071   2.61544   2.63142   2.65359
 Alpha virt. eigenvalues --    2.66686   2.67264   2.68406   2.68450   2.69658
 Alpha virt. eigenvalues --    2.76080   2.80630   2.82374   2.85778   2.87961
 Alpha virt. eigenvalues --    2.96450   2.97519   3.03270   3.04105   3.04981
 Alpha virt. eigenvalues --    3.05897   3.09255   3.11876   3.17376   3.20557
 Alpha virt. eigenvalues --    3.21599   3.22491   3.25195   3.26533   3.31568
 Alpha virt. eigenvalues --    3.32940   3.36146   3.48300   3.53594   3.53990
 Alpha virt. eigenvalues --    3.54754   3.97906   4.08745  21.73353  21.78901
 Alpha virt. eigenvalues --   21.80897  21.82314  21.83196  31.60546  43.13888
 Alpha virt. eigenvalues --   43.19058
          Condensed to atoms (all electrons):
               1          2          3          4          5          6
     1  C    5.182653   0.235347  -0.102186  -0.090190  -0.088212   0.004354
     2  N    0.235347   6.489277   0.243695   0.266883   0.137065   0.001318
     3  C   -0.102186   0.243695   5.163849  -0.087078  -0.095687   0.007277
     4  C   -0.090190   0.266883  -0.087078   5.156070  -0.076721  -0.015048
     5  C   -0.088212   0.137065  -0.095687  -0.076721   6.482800  -0.371489
     6  C    0.004354   0.001318   0.007277  -0.015048  -0.371489   5.138585
     7  O   -0.007057  -0.006387   0.020582  -0.002431  -0.228495   0.600544
     8  O    0.011053  -0.010156   0.001648  -0.001720  -0.210490   0.577345
     9  H    0.383482  -0.017342  -0.004537  -0.007916   0.012069   0.000411
    10  H    0.382706  -0.013244   0.010114  -0.005327  -0.010404   0.000694
    11  H    0.385024  -0.014630  -0.004252   0.009345  -0.009653   0.007176
    12  H   -0.007656  -0.015430   0.379521  -0.011071   0.006098   0.003624
    13  H    0.011024  -0.015382   0.383166  -0.005459   0.000109  -0.003188
    14  H   -0.004967  -0.006379   0.378264   0.010090  -0.009317  -0.005454
    15  H   -0.006704  -0.016313   0.010369   0.385878  -0.003625  -0.000711
    16  H    0.010281  -0.012510  -0.006766   0.387041  -0.011730   0.000947
    17  H   -0.007597  -0.013051  -0.008671   0.386028   0.010042   0.000291
    18  H    0.013966  -0.005999  -0.016315  -0.011015   0.309296   0.013575
    19  H   -0.013259  -0.010555   0.014363  -0.011366   0.288169   0.021070
               7          8          9         10         11         12
     1  C   -0.007057   0.011053   0.383482   0.382706   0.385024  -0.007656
     2  N   -0.006387  -0.010156  -0.017342  -0.013244  -0.014630  -0.015430
     3  C    0.020582   0.001648  -0.004537   0.010114  -0.004252   0.379521
     4  C   -0.002431  -0.001720  -0.007916  -0.005327   0.009345  -0.011071
     5  C   -0.228495  -0.210490   0.012069  -0.010404  -0.009653   0.006098
     6  C    0.600544   0.577345   0.000411   0.000694   0.007176   0.003624
     7  O    8.183977  -0.183295  -0.000181   0.000590  -0.000092   0.001894
     8  O   -0.183295   8.301459   0.000401   0.000847  -0.000181   0.000033
     9  H   -0.000181   0.000401   0.478798  -0.020702  -0.020224   0.000765
    10  H    0.000590   0.000847  -0.020702   0.473161  -0.017186   0.000051
    11  H   -0.000092  -0.000181  -0.020224  -0.017186   0.463280  -0.000143
    12  H    0.001894   0.000033   0.000765   0.000051  -0.000143   0.497263
    13  H   -0.001178   0.000083   0.000093  -0.000388  -0.000062  -0.023558
    14  H    0.010643  -0.000863  -0.001126   0.000131   0.002352  -0.020828
    15  H    0.000012  -0.000139   0.000038   0.001657   0.000040   0.000248
    16  H    0.000007   0.000032   0.000013   0.000009  -0.000347  -0.000001
    17  H    0.000028   0.000017   0.002390   0.000170   0.000006   0.003225
    18  H    0.005752   0.006048  -0.000167   0.000256  -0.000295  -0.000055
    19  H    0.012068   0.025343   0.000232   0.003383   0.000637  -0.000246
              13         14         15         16         17         18
     1  C    0.011024  -0.004967  -0.006704   0.010281  -0.007597   0.013966
     2  N   -0.015382  -0.006379  -0.016313  -0.012510  -0.013051  -0.005999
     3  C    0.383166   0.378264   0.010369  -0.006766  -0.008671  -0.016315
     4  C   -0.005459   0.010090   0.385878   0.387041   0.386028  -0.011015
     5  C    0.000109  -0.009317  -0.003625  -0.011730   0.010042   0.309296
     6  C   -0.003188  -0.005454  -0.000711   0.000947   0.000291   0.013575
     7  O   -0.001178   0.010643   0.000012   0.000007   0.000028   0.005752
     8  O    0.000083  -0.000863  -0.000139   0.000032   0.000017   0.006048
     9  H    0.000093  -0.001126   0.000038   0.000013   0.002390  -0.000167
    10  H   -0.000388   0.000131   0.001657   0.000009   0.000170   0.000256
    11  H   -0.000062   0.002352   0.000040  -0.000347   0.000006  -0.000295
    12  H   -0.023558  -0.020828   0.000248  -0.000001   0.003225  -0.000055
    13  H    0.479448  -0.016740  -0.000070   0.002250   0.000173   0.002740
    14  H   -0.016740   0.471400  -0.000386   0.000043  -0.000022   0.000302
    15  H   -0.000070  -0.000386   0.476022  -0.021033  -0.019818  -0.001561
    16  H    0.002250   0.000043  -0.021033   0.473638  -0.019127   0.004830
    17  H    0.000173  -0.000022  -0.019818  -0.019127   0.469586   0.000223
    18  H    0.002740   0.000302  -0.001561   0.004830   0.000223   0.495630
    19  H   -0.000073  -0.000433   0.003562  -0.000771   0.000316  -0.013873
              19
     1  C   -0.013259
     2  N   -0.010555
     3  C    0.014363
     4  C   -0.011366
     5  C    0.288169
     6  C    0.021070
     7  O    0.012068
     8  O    0.025343
     9  H    0.000232
    10  H    0.003383
    11  H    0.000637
    12  H   -0.000246
    13  H   -0.000073
    14  H   -0.000433
    15  H    0.003562
    16  H   -0.000771
    17  H    0.000316
    18  H   -0.013873
    19  H    0.505151
 Mulliken charges:
               1
     1  C   -0.292062
     2  N   -0.216208
     3  C   -0.287356
     4  C   -0.275996
     5  C   -0.129826
     6  C    0.018679
     7  O   -0.406982
     8  O   -0.517466
     9  H    0.193502
    10  H    0.193482
    11  H    0.199201
    12  H    0.186267
    13  H    0.187011
    14  H    0.193290
    15  H    0.192533
    16  H    0.193194
    17  H    0.195790
    18  H    0.196662
    19  H    0.176284
 Sum of Mulliken charges =  -0.00000
 Mulliken charges with hydrogens summed into heavy atoms:
               1
     1  C    0.294123
     2  N   -0.216208
     3  C    0.279212
     4  C    0.305521
     5  C    0.243121
     6  C    0.018679
     7  O   -0.406982
     8  O   -0.517466
 Electronic spatial extent (au):  <R**2>=           1068.4009
 Charge=             -0.0000 electrons
 Dipole moment (field-independent basis, Debye):
    X=             16.3062    Y=             -0.2078    Z=             -0.8955  Tot=             16.3321
 Quadrupole moment (field-independent basis, Debye-Ang):
   XX=            -66.6699   YY=            -52.1971   ZZ=            -42.6605
   XY=             -1.7965   XZ=              2.0612   YZ=              0.0935
 Traceless Quadrupole moment (field-independent basis, Debye-Ang):
   XX=            -12.8274   YY=              1.6454   ZZ=             11.1820
   XY=             -1.7965   XZ=              2.0612   YZ=              0.0935
 Octapole moment (field-independent basis, Debye-Ang**2):
  XXX=             98.9487  YYY=              0.6196  ZZZ=              0.3072  XYY=             27.5273
  XXY=              5.8411  XXZ=             -5.9987  XZZ=              8.2054  YZZ=             -0.8297
  YYZ=              0.9950  XYZ=              0.0454
 Hexadecapole moment (field-independent basis, Debye-Ang**3):
 XXXX=           -956.0158 YYYY=           -299.0990 ZZZZ=           -202.0787 XXXY=            -27.9451
 XXXZ=              7.1090 YYYX=              0.3466 YYYZ=              2.3220 ZZZX=              0.8382
 ZZZY=             -5.6341 XXYY=           -225.5690 XXZZ=           -163.6778 YYZZ=            -80.5222
 XXYZ=              3.5268 YYXZ=              1.5039 ZZXY=             -3.0975
 N-N= 4.074235492173D+02 E-N=-1.754686158923D+03  KE= 4.004703098599D+02
 No NMR shielding tensors so no spin-rotation constants.
 Leave Link  601 at Mon Feb 22 21:11:51 2021, MaxMem=   104857600 cpu:               7.9 elap:               0.3
 (Enter /sw/arch/RedHatEnterpriseServer7/EB_production/2019/software/Gaussian/g16.c01/l701.exe)
 ... and contract with generalized density number  0.
 Compute integral first derivatives.
 R6Disp: Adding Grimme-D3 dispersion energy 1st derivatives to the gradient.
 PrsmSu:  requested number of processors reduced to:  29 ShMem   1 Linda.
 D1PCM: PCM CHGder 1st derivatives, ID1Alg=3 FixD1E=F DoIter=F DoCFld=F I1PDM=0.
 GePol: Maximum number of non-zero 1st derivatives   =     220
 CoulSu:  requested number of processors reduced to:  29 ShMem   1 Linda.
 CoulSu:  requested number of processors reduced to:  30 ShMem   1 Linda.
 Leave Link  701 at Mon Feb 22 21:11:52 2021, MaxMem=   104857600 cpu:              21.6 elap:               0.7
 (Enter /sw/arch/RedHatEnterpriseServer7/EB_production/2019/software/Gaussian/g16.c01/l702.exe)
 L702 exits ... SP integral derivatives will be done elsewhere.
 Leave Link  702 at Mon Feb 22 21:11:52 2021, MaxMem=   104857600 cpu:               0.6 elap:               0.0
 (Enter /sw/arch/RedHatEnterpriseServer7/EB_production/2019/software/Gaussian/g16.c01/l703.exe)
 Integral derivatives from FoFJK, PRISM(SPDF).
 Compute integral first derivatives, UseDBF=F ICtDFT=           0.
 Calling FoFJK, ICntrl=      2527 FMM=F ISym2X=0 I1Cent= 0 IOpClX= 0 NMat=1 NMatS=1 NMatT=0.
 FoFJK:  IHMeth= 1 ICntrl=    2527 DoSepK=F KAlg= 0 I1Cent=           0 FoldK=F
 IRaf=         0 NMat=       1 IRICut=       1 DoRegI=T DoRafI=F ISym2E= 0 IDoP0=0 IntGTp=1.
 FoFCou: FMM=F IPFlag=           0 FMFlag=      100000 FMFlg1=         800
         NFxFlg=           0 DoJE=F BraDBF=F KetDBF=F FulRan=T
         wScrn=  0.000000 ICntrl=      2527 IOpCl=  0 I1Cent=           0 NGrid=           0
         NMat0=    1 NMatS0=      1 NMatT0=    0 NMatD0=    1 NMtDS0=    0 NMtDT0=    0
 Symmetry not used in FoFCou.
 Leave Link  703 at Mon Feb 22 21:11:54 2021, MaxMem=   104857600 cpu:              46.5 elap:               1.5
 (Enter /sw/arch/RedHatEnterpriseServer7/EB_production/2019/software/Gaussian/g16.c01/l716.exe)
 Dipole        = 6.41535823D+00-8.17674731D-02-3.52310255D-01
 ***** Axes restored to original set *****
 -------------------------------------------------------------------
 Center     Atomic                   Forces (Hartrees/Bohr)
 Number     Number              X              Y              Z
 -------------------------------------------------------------------
      1        6           0.002554864   -0.008661125   -0.007826981
      2        7          -0.007609923   -0.002541124    0.001700821
      3        6          -0.008182460    0.008927610   -0.007445450
      4        6          -0.002799294   -0.000682315    0.012010544
      5        6           0.008840622   -0.005884619    0.024060546
      6        6           0.077354814   -0.020555087   -0.072994523
      7        8          -0.025249056    0.014750000    0.006324633
      8        8          -0.050328610    0.012227828    0.037564761
      9        1          -0.003949581    0.005597702    0.004174518
     10        1           0.003077508    0.003265264    0.006162139
     11        1           0.001909170    0.007496624   -0.000223465
     12        1           0.001214224   -0.007754802    0.005211059
     13        1           0.004996847   -0.001235802    0.004859297
     14        1           0.008533906   -0.002580517    0.000228234
     15        1           0.005784684   -0.001365016   -0.004817967
     16        1           0.002347421    0.004871680   -0.004757903
     17        1          -0.001650605   -0.000174665   -0.008277301
     18        1          -0.010072315    0.001547129    0.002028013
     19        1          -0.006772214   -0.007248767    0.002019024
 -------------------------------------------------------------------
 Cartesian Forces:  Max     0.077354814 RMS     0.018147769
 Leave Link  716 at Mon Feb 22 21:11:54 2021, MaxMem=   104857600 cpu:               1.1 elap:               0.1
 (Enter /sw/arch/RedHatEnterpriseServer7/EB_production/2019/software/Gaussian/g16.c01/l103.exe)

 GradGradGradGradGradGradGradGradGradGradGradGradGradGradGradGradGradGrad
 Berny optimization.
 FormGI is forming the generalized inverse of G from B-inverse, IUseBI=4.
 Internal  Forces:  Max     0.057298103 RMS     0.009991134
 Search for a local minimum.
 Step number   1 out of a maximum of  103
 All quantities printed in internal units (Hartrees-Bohrs-Radians)
 RMS Force = .99911D-02 SwitMx=.10000D-02 MixMth= 1
 Mixed Optimization -- RFO/linear search
 Second derivative matrix not updated -- first step.
 ITU=  0
     Eigenvalues ---    0.00230   0.00230   0.00230   0.00230   0.01007
     Eigenvalues ---    0.01013   0.03612   0.04308   0.04865   0.05053
     Eigenvalues ---    0.05228   0.05308   0.05311   0.05338   0.05341
     Eigenvalues ---    0.05351   0.05361   0.10362   0.13411   0.14220
     Eigenvalues ---    0.14528   0.16000   0.16000   0.16000   0.16000
     Eigenvalues ---    0.16000   0.16000   0.16000   0.16000   0.16000
     Eigenvalues ---    0.22012   0.25000   0.25000   0.30124   0.30957
     Eigenvalues ---    0.31238   0.31276   0.34184   0.34227   0.34262
     Eigenvalues ---    0.34292   0.34295   0.34330   0.34364   0.34405
     Eigenvalues ---    0.34413   0.34417   0.34541   0.34542   0.54517
     Eigenvalues ---    0.82749
 RFO step:  Lambda=-2.96246080D-02 EMin= 2.30000000D-03
 Linear search not attempted -- first point.
 Maximum step size (   0.300) exceeded in Quadratic search.
    -- Step size scaled by   0.931
 Iteration  1 RMS(Cart)=  0.06408137 RMS(Int)=  0.00212537
 Iteration  2 RMS(Cart)=  0.00228298 RMS(Int)=  0.00066172
 Iteration  3 RMS(Cart)=  0.00000540 RMS(Int)=  0.00066170
 Iteration  4 RMS(Cart)=  0.00000000 RMS(Int)=  0.00066170
 ITry= 1 IFail=0 DXMaxC= 3.02D-01 DCOld= 1.00D+10 DXMaxT= 3.00D-01 DXLimC= 3.00D+00 Rises=F
 Variable       Old X    -DE/DX   Delta X   Delta X   Delta X     New X
                                 (Linear)    (Quad)   (Total)
    R1        2.85561  -0.00760   0.00000  -0.02068  -0.02068   2.83493
    R2        2.06891   0.00080   0.00000   0.00201   0.00201   2.07092
    R3        2.06427   0.00248   0.00000   0.00615   0.00615   2.07042
    R4        2.06638   0.00192   0.00000   0.00478   0.00478   2.07116
    R5        2.85490  -0.00712   0.00000  -0.01936  -0.01936   2.83554
    R6        2.86095  -0.00717   0.00000  -0.01966  -0.01966   2.84129
    R7        2.87716  -0.00786   0.00000  -0.02210  -0.02210   2.85507
    R8        2.06835   0.00169   0.00000   0.00421   0.00421   2.07256
    R9        2.06776   0.00097   0.00000   0.00241   0.00241   2.07017
   R10        2.06424   0.00154   0.00000   0.00382   0.00382   2.06806
   R11        2.06631   0.00197   0.00000   0.00491   0.00491   2.07122
   R12        2.06840   0.00126   0.00000   0.00316   0.00316   2.07156
   R13        2.06652   0.00182   0.00000   0.00454   0.00454   2.07106
   R14        2.80021   0.02666   0.00000   0.06647   0.06647   2.86667
   R15        2.06948   0.00300   0.00000   0.00752   0.00752   2.07700
   R16        2.07020   0.00158   0.00000   0.00395   0.00395   2.07415
   R17        2.36466   0.01476   0.00000   0.01602   0.01602   2.38068
   R18        2.55563  -0.05730   0.00000  -0.09276  -0.09276   2.46287
    A1        1.94644  -0.00793   0.00000  -0.03854  -0.03919   1.90725
    A2        1.94393  -0.00676   0.00000  -0.03357  -0.03420   1.90973
    A3        1.94598  -0.00710   0.00000  -0.03484  -0.03547   1.91051
    A4        1.87745   0.00788   0.00000   0.03863   0.03798   1.91543
    A5        1.87138   0.00820   0.00000   0.04098   0.04034   1.91172
    A6        1.87487   0.00726   0.00000   0.03490   0.03428   1.90915
    A7        1.90653   0.00118   0.00000   0.00491   0.00465   1.91118
    A8        1.89091   0.00116   0.00000   0.01310   0.01311   1.90402
    A9        1.93573  -0.00249   0.00000  -0.02054  -0.02059   1.91514
   A10        1.89517  -0.00035   0.00000   0.00559   0.00554   1.90071
   A11        1.94945  -0.00074   0.00000  -0.01035  -0.01042   1.93903
   A12        1.88461   0.00133   0.00000   0.00859   0.00870   1.89331
   A13        1.94791  -0.00924   0.00000  -0.04341  -0.04410   1.90380
   A14        1.94255  -0.00626   0.00000  -0.03286  -0.03364   1.90891
   A15        1.95210  -0.00805   0.00000  -0.03932  -0.04005   1.91205
   A16        1.87692   0.00823   0.00000   0.04002   0.03927   1.91619
   A17        1.86233   0.01008   0.00000   0.05350   0.05285   1.91518
   A18        1.87781   0.00699   0.00000   0.03068   0.02985   1.90766
   A19        1.94478  -0.00690   0.00000  -0.03344  -0.03404   1.91074
   A20        1.94250  -0.00652   0.00000  -0.03189  -0.03249   1.91000
   A21        1.95235  -0.00841   0.00000  -0.04181  -0.04253   1.90983
   A22        1.87447   0.00734   0.00000   0.03702   0.03653   1.91100
   A23        1.87158   0.00821   0.00000   0.04010   0.03939   1.91097
   A24        1.87414   0.00787   0.00000   0.03783   0.03712   1.91126
   A25        2.05664  -0.01495   0.00000  -0.06110  -0.06112   1.99552
   A26        1.91959  -0.00354   0.00000  -0.03980  -0.03929   1.88030
   A27        1.90588  -0.00276   0.00000  -0.03054  -0.02961   1.87627
   A28        1.86048   0.01042   0.00000   0.05106   0.04855   1.90902
   A29        1.86247   0.01073   0.00000   0.05893   0.05712   1.91959
   A30        1.84705   0.00222   0.00000   0.03496   0.03228   1.87933
   A31        2.11669  -0.01657   0.00000  -0.05484  -0.05496   2.06174
   A32        2.10514  -0.02807   0.00000  -0.09309  -0.09320   2.01194
   A33        2.06066   0.04466   0.00000   0.14894   0.14882   2.20948
    D1       -1.06528  -0.00076   0.00000  -0.00824  -0.00827  -1.07355
    D2        0.99628   0.00015   0.00000   0.00873   0.00878   1.00507
    D3        3.06181   0.00103   0.00000   0.01525   0.01523   3.07704
    D4        3.12020  -0.00076   0.00000  -0.00817  -0.00821   3.11199
    D5       -1.10142   0.00015   0.00000   0.00880   0.00884  -1.09258
    D6        0.96411   0.00104   0.00000   0.01532   0.01529   0.97940
    D7        1.02609  -0.00057   0.00000  -0.00604  -0.00606   1.02004
    D8        3.08766   0.00034   0.00000   0.01093   0.01099   3.09865
    D9       -1.13000   0.00123   0.00000   0.01746   0.01744  -1.11256
   D10        1.10227   0.00162   0.00000   0.01192   0.01193   1.11420
   D11       -3.08384   0.00152   0.00000   0.01081   0.01083  -3.07301
   D12       -0.98275   0.00058   0.00000   0.00022   0.00031  -0.98244
   D13       -0.95663  -0.00024   0.00000  -0.00979  -0.00983  -0.96646
   D14        1.14045  -0.00034   0.00000  -0.01090  -0.01093   1.12952
   D15       -3.04165  -0.00128   0.00000  -0.02150  -0.02145  -3.06310
   D16       -3.03297  -0.00122   0.00000  -0.01771  -0.01777  -3.05074
   D17       -0.93589  -0.00132   0.00000  -0.01882  -0.01887  -0.95476
   D18        1.16520  -0.00226   0.00000  -0.02942  -0.02939   1.13580
   D19        1.06565  -0.00128   0.00000  -0.01176  -0.01167   1.05398
   D20       -3.12572  -0.00103   0.00000  -0.00893  -0.00896  -3.13469
   D21       -1.02919  -0.00123   0.00000  -0.01124  -0.01121  -1.04040
   D22        3.13444   0.00059   0.00000   0.00461   0.00466   3.13910
   D23       -1.05693   0.00084   0.00000   0.00744   0.00737  -1.04956
   D24        1.03960   0.00063   0.00000   0.00513   0.00512   1.04472
   D25       -1.03208   0.00028   0.00000   0.00046   0.00050  -1.03158
   D26        1.05974   0.00053   0.00000   0.00329   0.00321   1.06295
   D27       -3.12691   0.00033   0.00000   0.00098   0.00096  -3.12595
   D28        1.03780  -0.00022   0.00000  -0.00626  -0.00634   1.03147
   D29       -3.10918  -0.00047   0.00000  -0.01739  -0.01673  -3.12590
   D30       -1.08949  -0.00135   0.00000  -0.01513  -0.01543  -1.10493
   D31       -1.09345   0.00056   0.00000   0.00925   0.00899  -1.08446
   D32        1.04275   0.00031   0.00000  -0.00187  -0.00140   1.04136
   D33        3.06243  -0.00058   0.00000   0.00039  -0.00010   3.06233
   D34        3.10714   0.00057   0.00000   0.00306   0.00290   3.11003
   D35       -1.03984   0.00032   0.00000  -0.00806  -0.00749  -1.04734
   D36        0.97984  -0.00057   0.00000  -0.00580  -0.00620   0.97364
   D37        1.24465  -0.00164   0.00000  -0.03392  -0.03390   1.21075
   D38       -1.93743  -0.00021   0.00000  -0.00048  -0.00046  -1.93789
   D39       -0.92137   0.00508   0.00000   0.02036   0.02214  -0.89923
   D40        2.17974   0.00651   0.00000   0.05379   0.05557   2.23531
   D41       -2.88917  -0.00696   0.00000  -0.06885  -0.07065  -2.95982
   D42        0.21194  -0.00553   0.00000  -0.03541  -0.03722   0.17472
         Item               Value     Threshold  Converged?
 Maximum Force            0.057298     0.000450     NO 
 RMS     Force            0.009991     0.000300     NO 
 Maximum Displacement     0.302169     0.001800     NO 
 RMS     Displacement     0.064362     0.001200     NO 
 Predicted change in Energy=-1.634111D-02
 Lowest energy point so far.  Saving SCF results.
 GradGradGradGradGradGradGradGradGradGradGradGradGradGradGradGradGradGrad

 Leave Link  103 at Mon Feb 22 21:11:55 2021, MaxMem=   104857600 cpu:               9.4 elap:               0.4
 (Enter /sw/arch/RedHatEnterpriseServer7/EB_production/2019/software/Gaussian/g16.c01/l202.exe)
                          Input orientation:                          
 ---------------------------------------------------------------------
 Center     Atomic      Atomic             Coordinates (Angstroms)
 Number     Number       Type             X           Y           Z
 ---------------------------------------------------------------------
      1          6           0       -0.781060   -2.722229   -1.864134
      2          7           0       -0.882200   -1.447908   -1.079014
      3          6           0       -1.821189   -0.505285   -1.772749
      4          6           0       -1.423470   -1.755161    0.289664
      5          6           0        0.489492   -0.833676   -0.924720
      6          6           0        1.180213   -0.509273   -2.235784
      7          8           0        0.715339    0.429439   -2.935654
      8          8           0        2.218516   -1.245885   -2.514900
      9          1           0       -1.768354   -3.195103   -1.915109
     10          1           0       -0.072084   -3.397620   -1.372620
     11          1           0       -0.428548   -2.499686   -2.877768
     12          1           0       -2.826224   -0.944196   -1.784223
     13          1           0       -1.839604    0.449658   -1.236245
     14          1           0       -1.479678   -0.337205   -2.798795
     15          1           0       -0.745459   -2.445680    0.804249
     16          1           0       -1.506373   -0.826407    0.866075
     17          1           0       -2.412967   -2.216772    0.195126
     18          1           0        0.379832    0.086005   -0.332953
     19          1           0        1.101178   -1.534174   -0.341748
 ---------------------------------------------------------------------
                    Distance matrix (angstroms):
                    1          2          3          4          5
     1  C    0.000000
     2  N    1.500179   0.000000
     3  C    2.450523   1.500503   0.000000
     4  C    2.446785   1.503548   2.444160   0.000000
     5  C    2.462403   1.510836   2.483192   2.446076   0.000000
     6  C    2.980249   2.544150   3.036912   3.835269   1.516978
     7  O    3.649708   3.086045   2.942793   4.444058   2.385439
     8  O    3.405956   3.423013   4.173547   4.624824   2.384976
     9  H    1.095882   2.130027   2.694101   2.655824   3.413953
    10  H    1.095622   2.131636   3.403686   2.699464   2.662666
    11  H    1.096013   2.132500   2.671733   3.402472   2.726313
    12  H    2.711177   2.128444   1.096754   2.631803   3.427087
    13  H    3.402297   2.131221   1.095487   2.713447   2.677440
    14  H    2.655183   2.132672   1.094372   3.398873   2.763380
    15  H    2.682911   2.135632   3.400477   1.096043   2.667019
    16  H    3.402096   2.135234   2.676868   1.096224   2.681506
    17  H    2.675661   2.134908   2.674308   1.095960   3.404597
    18  H    3.402699   2.121843   2.695762   2.651309   1.099102
    19  H    2.696655   2.117732   3.412713   2.611774   1.097595
                    6          7          8          9         10
     6  C    0.000000
     7  O    1.259804   0.000000
     8  O    1.303294   2.289822   0.000000
     9  H    4.001320   4.510825   4.478205   0.000000
    10  H    3.264330   4.208265   3.343892   1.792383   0.000000
    11  H    2.638560   3.145092   2.951378   1.790362   1.788526
    12  H    4.055194   3.969299   5.106300   2.490542   3.711333
    13  H    3.322337   3.068572   4.580193   3.708129   4.236069
    14  H    2.724263   2.329071   3.818761   3.005298   3.658065
    15  H    4.086525   4.938330   4.608840   3.000476   2.469490
    16  H    4.115804   4.578896   5.047945   3.662559   3.698659
    17  H    4.662169   5.156599   5.453210   2.413659   3.054826
    18  H    2.148425   2.646613   3.148902   4.228899   3.663438
    19  H    2.155004   3.276125   2.460517   3.669927   2.431393
                   11         12         13         14         15
    11  H    0.000000
    12  H    3.060104   0.000000
    13  H    3.658457   1.793468   0.000000
    14  H    2.405709   1.791921   1.786131   0.000000
    15  H    3.696025   3.644752   3.707256   4.238711   0.000000
    16  H    4.240039   2.963099   2.481760   3.697472   1.790211
    17  H    3.668874   2.389153   3.080165   3.656141   1.789975
    18  H    3.716902   3.666919   2.423650   3.117252   2.994818
    19  H    3.115072   4.225315   3.658403   3.759074   2.356739
                   16         17         18         19
    16  H    0.000000
    17  H    1.790308   0.000000
    18  H    2.414111   3.658057   0.000000
    19  H    2.959576   3.619860   1.773527   0.000000
 Stoichiometry    C5H11NO2
 Framework group  C1[X(C5H11NO2)]
 Deg. of freedom    51
 Full point group                 C1      NOp   1
 RotChk:  IX=0 Diff= 5.46D-02
 Largest Abelian subgroup         C1      NOp   1
 Largest concise Abelian subgroup C1      NOp   1
                         Standard orientation:                         
 ---------------------------------------------------------------------
 Center     Atomic      Atomic             Coordinates (Angstroms)
 Number     Number       Type             X           Y           Z
 ---------------------------------------------------------------------
      1          6           0        0.880102   -0.860490    1.251131
      2          7           0        0.959632   -0.026832    0.006452
      3          6           0        1.045955    1.423901    0.379859
      4          6           0        2.195195   -0.406457   -0.761613
      5          6           0       -0.246129   -0.293558   -0.863963
      6          6           0       -1.576085    0.004846   -0.198085
      7          8           0       -1.868261    1.208497    0.032047
      8          8           0       -2.309989   -1.037974    0.071150
      9          1           0        1.788846   -0.711314    1.845175
     10          1           0        0.786639   -1.917024    0.976564
     11          1           0        0.005052   -0.558278    1.837817
     12          1           0        1.978373    1.597468    0.930623
     13          1           0        1.033178    2.034578   -0.529537
     14          1           0        0.190608    1.692023    1.007666
     15          1           0        2.143083   -1.466020   -1.037149
     16          1           0        2.262628    0.204626   -1.669213
     17          1           0        3.079574   -0.233938   -0.137723
     18          1           0       -0.146609    0.319490   -1.770768
     19          1           0       -0.207021   -1.347430   -1.168167
 ---------------------------------------------------------------------
 Rotational constants (GHZ):           3.3555741           1.4555735           1.3060027
 Leave Link  202 at Mon Feb 22 21:11:55 2021, MaxMem=   104857600 cpu:               0.5 elap:               0.0
 (Enter /sw/arch/RedHatEnterpriseServer7/EB_production/2019/software/Gaussian/g16.c01/l301.exe)
 Standard basis: TZVP (5D, 7F)
 Ernie: Thresh=  0.10000D-02 Tol=  0.10000D-05 Strict=F.
 There are   226 symmetry adapted cartesian basis functions of A   symmetry.
 There are   218 symmetry adapted basis functions of A   symmetry.
   218 basis functions,   368 primitive gaussians,   226 cartesian basis functions
    32 alpha electrons       32 beta electrons
       nuclear repulsion energy       412.8338836515 Hartrees.
 IExCor=  404 DFT=T Ex=B Corr=P86 ExCW=0 ScaHFX=  0.000000
 ScaDFX=  1.000000  1.000000  1.000000  1.000000 ScalE2=  1.000000  1.000000
 IRadAn=      5 IRanWt=     -1 IRanGd=            0 ICorTp=0 IEmpDi=131
 NAtoms=   19 NActive=   19 NUniq=   19 SFac= 1.00D+00 NAtFMM=   60 NAOKFM=F Big=F
 Integral buffers will be    131072 words long.
 Raffenetti 2 integral format.
 Two-electron integral symmetry is turned on.
[...]
                        Tesserae with average area of 0.200 Ang**2.
                        Smoothing algorithm: None.
                        Polarization charges: point-like.
                        Self-potential: constant (ISelfS= 1).
                        Self-field    : global E.n sum rule (ISelfD= 3).
 Solvent              : Water, Eps=  78.355300 Eps(inf)=   1.777849
 ------------------------------------------------------------------------------
 Spheres list:
 ISph  on   Nord     Re0    Alpha      Xe            Ye            Ze
    1   C      1    2.0000  1.000      1.088037      0.811271      1.235564
    2   N      2    1.8300  1.000      0.997802     -0.052010     -0.000019
    3   C      3    2.0000  1.000      1.088097      0.811566     -1.235375
    4   C      4    2.0000  1.000      2.145471     -1.031165     -0.000061
    5   C      5    2.0000  1.000     -0.312877     -0.846340     -0.000141
    6   C      6    2.0000  1.000     -1.662389     -0.055441     -0.000005
    7   O      7    1.7200  1.000     -1.648847      1.206568      0.000031
    8   O      8    1.7200  1.000     -2.650092     -0.836760     -0.000010
    9   H      9    1.3000  1.000      2.048199      1.339400      1.220053
   10   H     10    1.3000  1.000      1.029136      0.160963      2.115987
   11   H     11    1.3000  1.000      0.247251      1.510952      1.213873
   12   H     12    1.3000  1.000      2.048209      1.339793     -1.219685
   13   H     13    1.3000  1.000      1.029318      0.161472     -2.115965
   14   H     14    1.3000  1.000      0.247243      1.511173     -1.213571
   15   H     15    1.3000  1.000      2.078836     -1.655289      0.898199
   16   H     16    1.3000  1.000      2.078793     -1.655250     -0.898339
   17   H     17    1.3000  1.000      3.086994     -0.469491     -0.000076
   18   H     18    1.3000  1.000     -0.282512     -1.488639     -0.890090
   19   H     19    1.3000  1.000     -0.282603     -1.488822      0.889683
 ------------------------------------------------------------------------------
 One-electron integrals computed using PRISM.
 PrsmSu:  requested number of processors reduced to:  29 ShMem   1 Linda.
 NBasis=   218 RedAO= T EigKep=  4.30D-04  NBF=   218
 NBsUse=   218 1.00D-06 EigRej= -1.00D+00 NBFU=   218
 Initial guess from the checkpoint file:  "KWIUHFFTVRNATP-UHFFFAOYSA-N.chk"
 B after Tr=     0.000000   -0.000000   -0.000000
         Rot=    1.000000   -0.000000    0.000000   -0.000000 Ang=   0.00 deg.
 Requested convergence on RMS density matrix=1.00D-08 within 128 cycles.
 Requested convergence on MAX density matrix=1.00D-06.
 Requested convergence on             energy=1.00D-06.
 No special actions if energy rises.
 Inv3:  Mode=1 IEnd=     4370547.
 Iteration    1 A*A^-1 deviation from unit magnitude is 2.74D-14 for     95.
 Iteration    1 A*A^-1 deviation from orthogonality  is 1.29D-14 for    154     95.
 Iteration    1 A^-1*A deviation from unit magnitude is 1.94D-14 for    154.
 Iteration    1 A^-1*A deviation from orthogonality  is 8.45D-15 for     95     83.
 Error on nuclear    polarization charges =  0.01396
 Error on electronic polarization charges = -0.04261
 SCF Done:  E(RB-P86) =  -402.514338610     A.U. after   11 cycles
            NFock= 11  Conv=0.57D-08     -V/T= 2.0049
 --------------------------------------------------------------------
 Variational C-PCM results
 =========================
 <psi(f)|   H    |psi(f)>                     (a.u.) =    -402.447268
 <psi(f)|H+V(f)/2|psi(f)>                     (a.u.) =    -402.514339
 Total free energy in solution:
 - with all non electrostatic terms           (a.u.) =    -402.502945
 --------------------------------------------------------------------
 (Polarized solute)-Solvent               (kcal/mol) =     -42.09
 --------------------------------------------------------------------
 Cavitation energy                        (kcal/mol) =      21.04
 Dispersion energy                        (kcal/mol) =     -15.12
 Repulsion energy                         (kcal/mol) =       1.23
 Total non electrostatic                  (kcal/mol) =       7.15
 --------------------------------------------------------------------
 Partition over spheres:
 Sphere  on Atom  Surface  Charge   GEl     GCav    GDR
    1      C1      14.31  -0.053   -0.98    1.68   -1.10
    2      N2       0.00   0.000    0.00    0.00    0.00
    3      C3      14.31  -0.052   -0.96    1.68   -1.10
    4      C4      14.44  -0.066   -1.79    1.70   -1.08
    5      C5       6.51  -0.025   -0.44    0.77   -0.25
    6      C6      10.99   0.062   -2.28    1.29   -0.66
    7      O7      15.91   0.286   -9.55    1.98   -1.36
    8      O8      20.28   0.380  -14.65    2.52   -1.84
    9      H9       6.49  -0.053   -1.40    0.92   -0.64
   10      H10      6.49  -0.052   -1.13    0.92   -0.66
   11      H11      4.29  -0.024   -0.02    0.61   -0.35
   12      H12      6.49  -0.053   -1.41    0.92   -0.64
   13      H13      6.49  -0.053   -1.16    0.92   -0.67
   14      H14      4.29  -0.023   -0.04    0.61   -0.35
   15      H15      6.47  -0.058   -1.57    0.91   -0.64
   16      H16      6.47  -0.055   -1.45    0.91   -0.64
   17      H17      6.49  -0.055   -1.65    0.92   -0.64
   18      H18      6.44  -0.055   -0.85    0.91   -0.63
   19      H19      6.44  -0.052   -0.76    0.91   -0.63
 --------------------------------------------------------------------
 - cavitation energy not included in the total energy.
 - dispersion energy not included in the total energy.
 - repulsion  energy not included in the total energy.
 After PCM corrections, the energy is  -402.514338610     a.u.
 --------------------------------------------------------------------
 Writing COSMO formatted file "KWIUHFFTVRNATP-UHFFFAOYSA-N.cosmo"
 Recomputed dielectric energy= -0.067124 old= -0.067070 diff=-5.34D-05

 **********************************************************************

            Population analysis using the SCF Density.

 **********************************************************************

 Orbital symmetries:
       Occupied  (A) (A) (A) (A) (A) (A) (A) (A) (A) (A) (A) (A)
                 (A) (A) (A) (A) (A) (A) (A) (A) (A) (A) (A) (A)
                 (A) (A) (A) (A) (A) (A) (A) (A)
       Virtual   (A) (A) (A) (A) (A) (A) (A) (A) (A) (A) (A) (A)
                 (A) (A) (A) (A) (A) (A) (A) (A) (A) (A) (A) (A)
                 (A) (A) (A) (A) (A) (A) (A) (A) (A) (A) (A) (A)
                 (A) (A) (A) (A) (A) (A) (A) (A) (A) (A) (A) (A)
                 (A) (A) (A) (A) (A) (A) (A) (A) (A) (A) (A) (A)
                 (A) (A) (A) (A) (A) (A) (A) (A) (A) (A) (A) (A)
                 (A) (A) (A) (A) (A) (A) (A) (A) (A) (A) (A) (A)
                 (A) (A) (A) (A) (A) (A) (A) (A) (A) (A) (A) (A)
                 (A) (A) (A) (A) (A) (A) (A) (A) (A) (A) (A) (A)
                 (A) (A) (A) (A) (A) (A) (A) (A) (A) (A) (A) (A)
                 (A) (A) (A) (A) (A) (A) (A) (A) (A) (A) (A) (A)
                 (A) (A) (A) (A) (A) (A) (A) (A) (A) (A) (A) (A)
                 (A) (A) (A) (A) (A) (A) (A) (A) (A) (A) (A) (A)
                 (A) (A) (A) (A) (A) (A) (A) (A) (A) (A) (A) (A)
                 (A) (A) (A) (A) (A) (A) (A) (A) (A) (A) (A) (A)
                 (A) (A) (A) (A) (A) (A)
 The electronic state is 1-A.
 Alpha  occ. eigenvalues --  -18.72530 -18.72308 -14.12871  -9.99195  -9.94491
 Alpha  occ. eigenvalues --   -9.94180  -9.93616  -9.93614  -0.95359  -0.92666
 Alpha  occ. eigenvalues --   -0.87043  -0.67964  -0.67459  -0.67445  -0.57071
 Alpha  occ. eigenvalues --   -0.49185  -0.46870  -0.46748  -0.43485  -0.40873
 Alpha  occ. eigenvalues --   -0.39128  -0.37797  -0.37119  -0.37089  -0.35375
 Alpha  occ. eigenvalues --   -0.35347  -0.35286  -0.34481  -0.32763  -0.23202
 Alpha  occ. eigenvalues --   -0.21588  -0.20929
 Alpha virt. eigenvalues --   -0.00373   0.00821   0.03846   0.05714   0.05837
 Alpha virt. eigenvalues --    0.06349   0.07506   0.07617   0.08149   0.10149
 Alpha virt. eigenvalues --    0.10851   0.11521   0.12255   0.12523   0.14858
 Alpha virt. eigenvalues --    0.15210   0.15557   0.16803   0.19282   0.20253
 Alpha virt. eigenvalues --    0.21802   0.24150   0.24287   0.24897   0.25308
 Alpha virt. eigenvalues --    0.26545   0.27913   0.30677   0.31605   0.33675
 Alpha virt. eigenvalues --    0.33826   0.34708   0.36697   0.38063   0.39230
 Alpha virt. eigenvalues --    0.41012   0.41249   0.41711   0.42235   0.42316
 Alpha virt. eigenvalues --    0.42591   0.43792   0.44150   0.44403   0.44713
 Alpha virt. eigenvalues --    0.45745   0.46356   0.47710   0.48299   0.51343
 Alpha virt. eigenvalues --    0.53449   0.55348   0.58078   0.59753   0.61264
 Alpha virt. eigenvalues --    0.65201   0.66122   0.67493   0.71419   0.74551
 Alpha virt. eigenvalues --    0.83033   0.92918   1.02165   1.02564   1.16443
 Alpha virt. eigenvalues --    1.17009   1.18683   1.19449   1.19837   1.20058
 Alpha virt. eigenvalues --    1.21902   1.23446   1.27128   1.27854   1.28364
 Alpha virt. eigenvalues --    1.30676   1.31011   1.31459   1.33265   1.35703
 Alpha virt. eigenvalues --    1.39103   1.39771   1.44226   1.44975   1.45018
 Alpha virt. eigenvalues --    1.48944   1.49033   1.50888   1.51966   1.54779
 Alpha virt. eigenvalues --    1.55924   1.59791   1.60342   1.66232   1.66670
 Alpha virt. eigenvalues --    1.68445   1.69096   1.69163   1.71228   1.71830
 Alpha virt. eigenvalues --    1.72169   1.72567   1.73580   1.74118   1.75562
 Alpha virt. eigenvalues --    1.76283   1.86267   1.87146   1.88742   1.89471
 Alpha virt. eigenvalues --    1.92225   1.97059   1.99788   2.01191   2.09838
 Alpha virt. eigenvalues --    2.09876   2.12094   2.17722   2.18035   2.21901
 Alpha virt. eigenvalues --    2.23842   2.27432   2.27967   2.31008   2.31992
 Alpha virt. eigenvalues --    2.32501   2.34489   2.35197   2.38823   2.39642
 Alpha virt. eigenvalues --    2.40759   2.45097   2.52333   2.53462   2.56562
 Alpha virt. eigenvalues --    2.56770   2.58268   2.58638   2.61297   2.62290
 Alpha virt. eigenvalues --    2.62673   2.62796   2.63635   2.63728   2.65459
 Alpha virt. eigenvalues --    2.66838   2.68784   2.69259   2.69940   2.71701
 Alpha virt. eigenvalues --    2.77587   2.85572   2.86928   2.88351   2.94499
 Alpha virt. eigenvalues --    2.94695   2.98241   3.06769   3.08454   3.09080
 Alpha virt. eigenvalues --    3.10288   3.12740   3.17590   3.19157   3.21934
 Alpha virt. eigenvalues --    3.22077   3.25080   3.26188   3.29824   3.30680
 Alpha virt. eigenvalues --    3.33130   3.34457   3.41779   3.58532   3.58666
 Alpha virt. eigenvalues --    3.58819   4.02987   4.13565  21.78100  21.81252
 Alpha virt. eigenvalues --   21.81874  21.85033  21.88770  31.66507  43.09729
 Alpha virt. eigenvalues --   43.27176
          Condensed to atoms (all electrons):
               1          2          3          4          5          6
     1  C    5.237665   0.242045  -0.086395  -0.092017  -0.123008   0.005335
     2  N    0.242045   6.620361   0.242007   0.234198  -0.073823   0.052088
     3  C   -0.086395   0.242007   5.237750  -0.092040  -0.123043   0.005326
     4  C   -0.092017   0.234198  -0.092040   5.157107  -0.057975  -0.003273
     5  C   -0.123008  -0.073823  -0.123043  -0.057975   6.726637  -0.201711
     6  C    0.005335   0.052088   0.005326  -0.003273  -0.201711   4.788139
     7  O   -0.023695   0.041850  -0.023698  -0.002221  -0.281721   0.566738
     8  O   -0.000993   0.014605  -0.000993  -0.001239  -0.245515   0.600273
     9  H    0.385416  -0.016513  -0.007801  -0.008183   0.008602   0.000659
    10  H    0.381090  -0.017603   0.010776  -0.007224  -0.005652   0.000099
    11  H    0.376731  -0.024297  -0.011753   0.009941  -0.000357  -0.002293
    12  H   -0.007782  -0.016509   0.385403  -0.008197   0.008607   0.000659
    13  H    0.010772  -0.017620   0.381082  -0.007202  -0.005652   0.000101
    14  H   -0.011768  -0.024297   0.376730   0.009946  -0.000325  -0.002308
    15  H   -0.006653  -0.018794   0.010422   0.389013  -0.008652   0.000786
    16  H    0.010415  -0.018818  -0.006658   0.389031  -0.008638   0.000785
    17  H   -0.006816  -0.016725  -0.006828   0.387093   0.007403   0.000063
    18  H    0.012026  -0.012564  -0.008941  -0.008761   0.345367   0.004731
    19  H   -0.008952  -0.012555   0.012032  -0.008778   0.345384   0.004724
               7          8          9         10         11         12
     1  C   -0.023695  -0.000993   0.385416   0.381090   0.376731  -0.007782
     2  N    0.041850   0.014605  -0.016513  -0.017603  -0.024297  -0.016509
     3  C   -0.023698  -0.000993  -0.007801   0.010776  -0.011753   0.385403
     4  C   -0.002221  -0.001239  -0.008183  -0.007224   0.009941  -0.008197
     5  C   -0.281721  -0.245515   0.008602  -0.005652  -0.000357   0.008607
     6  C    0.566738   0.600273   0.000659   0.000099  -0.002293   0.000659
     7  O    8.243609  -0.113392   0.001049  -0.000109   0.025072   0.001049
     8  O   -0.113392   8.213589  -0.000009   0.000180   0.000517  -0.000009
     9  H    0.001049  -0.000009   0.483041  -0.021776  -0.016468   0.002051
    10  H   -0.000109   0.000180  -0.021776   0.485080  -0.017736   0.000162
    11  H    0.025072   0.000517  -0.016468  -0.017736   0.465541  -0.000203
    12  H    0.001049  -0.000009   0.002051   0.000162  -0.000203   0.483107
    13  H   -0.000108   0.000180   0.000162  -0.000461   0.000321  -0.021768
    14  H    0.025066   0.000517  -0.000201   0.000321   0.004279  -0.016479
    15  H    0.000071  -0.000026   0.000226   0.002723   0.000153  -0.000083
    16  H    0.000071  -0.000026  -0.000084   0.000075  -0.000486   0.000227
    17  H    0.000056   0.000022   0.002864   0.000048   0.000077   0.002871
    18  H    0.005248   0.008903  -0.000326   0.000027  -0.000025  -0.000015
    19  H    0.005245   0.008901  -0.000015   0.002848   0.000261  -0.000326
              13         14         15         16         17         18
     1  C    0.010772  -0.011768  -0.006653   0.010415  -0.006816   0.012026
     2  N   -0.017620  -0.024297  -0.018794  -0.018818  -0.016725  -0.012564
     3  C    0.381082   0.376730   0.010422  -0.006658  -0.006828  -0.008941
     4  C   -0.007202   0.009946   0.389013   0.389031   0.387093  -0.008761
     5  C   -0.005652  -0.000325  -0.008652  -0.008638   0.007403   0.345367
     6  C    0.000101  -0.002308   0.000786   0.000785   0.000063   0.004731
     7  O   -0.000108   0.025066   0.000071   0.000071   0.000056   0.005248
     8  O    0.000180   0.000517  -0.000026  -0.000026   0.000022   0.008903
     9  H    0.000162  -0.000201   0.000226  -0.000084   0.002864  -0.000326
    10  H   -0.000461   0.000321   0.002723   0.000075   0.000048   0.000027
    11  H    0.000321   0.004279   0.000153  -0.000486   0.000077  -0.000025
    12  H   -0.021768  -0.016479  -0.000083   0.000227   0.002871  -0.000015
    13  H    0.485017  -0.017741   0.000074   0.002718   0.000049   0.002852
    14  H   -0.017741   0.465569  -0.000486   0.000152   0.000077   0.000260
    15  H    0.000074  -0.000486   0.475879  -0.020041  -0.019670  -0.000477
    16  H    0.002718   0.000152  -0.020041   0.475878  -0.019654   0.004368
    17  H    0.000049   0.000077  -0.019670  -0.019654   0.475715   0.000178
    18  H    0.002852   0.000260  -0.000477   0.004368   0.000178   0.445182
    19  H    0.000027  -0.000026   0.004369  -0.000478   0.000178  -0.008048
              19
     1  C   -0.008952
     2  N   -0.012555
     3  C    0.012032
     4  C   -0.008778
     5  C    0.345384
     6  C    0.004724
     7  O    0.005245
     8  O    0.008901
     9  H   -0.000015
    10  H    0.002848
    11  H    0.000261
    12  H   -0.000326
    13  H    0.000027
    14  H   -0.000026
    15  H    0.004369
    16  H   -0.000478
    17  H    0.000178
    18  H   -0.008048
    19  H    0.445300
 Mulliken charges:
               1
     1  C   -0.293417
     2  N   -0.177035
     3  C   -0.293379
     4  C   -0.279221
     5  C   -0.305928
     6  C    0.179081
     7  O   -0.470182
     8  O   -0.485485
     9  H    0.187305
    10  H    0.187133
    11  H    0.190725
    12  H    0.187237
    13  H    0.187197
    14  H    0.190714
    15  H    0.191167
    16  H    0.191162
    17  H    0.193000
    18  H    0.210016
    19  H    0.209909
 Sum of Mulliken charges =  -0.00000
 Mulliken charges with hydrogens summed into heavy atoms:
               1
     1  C    0.271746
     2  N   -0.177035
     3  C    0.271769
     4  C    0.296108
     5  C    0.113998
     6  C    0.179081
     7  O   -0.470182
     8  O   -0.485485
 Electronic spatial extent (au):  <R**2>=           1061.7296
 Charge=              0.0000 electrons
 Dipole moment (field-independent basis, Debye):
    X=             15.3273    Y=             -1.7197    Z=             -0.0015  Tot=             15.4235
 Quadrupole moment (field-independent basis, Debye-Ang):
   XX=            -67.0568   YY=            -51.7999   ZZ=            -43.7781
   XY=             -1.0007   XZ=              0.0002   YZ=              0.0006
 Traceless Quadrupole moment (field-independent basis, Debye-Ang):
   XX=            -12.8452   YY=              2.4117   ZZ=             10.4334
   XY=             -1.0007   XZ=              0.0002   YZ=              0.0006
 Octapole moment (field-independent basis, Debye-Ang**2):
  XXX=             99.0520  YYY=             -5.3030  ZZZ=             -0.0038  XYY=             22.9271
  XXY=              7.1126  XXZ=             -0.0041  XZZ=              6.4482  YZZ=             -0.9379
  YYZ=             -0.0010  XYZ=              0.0019
 Hexadecapole moment (field-independent basis, Debye-Ang**3):
 XXXX=           -999.7322 YYYY=           -302.9058 ZZZZ=           -198.2009 XXXY=            -32.1835
 XXXZ=              0.0057 YYYX=              0.1660 YYYZ=              0.0001 ZZZX=             -0.0017
 ZZZY=              0.0032 XXYY=           -213.1889 XXZZ=           -173.7743 YYZZ=            -77.5941
 XXYZ=              0.0014 YYXZ=              0.0007 ZZXY=             -0.0854
 N-N= 4.100853236607D+02 E-N=-1.760045551117D+03  KE= 4.005574614472D+02
 Unable to Open any file for archive entry.
 1\1\GINC-TCN1745\SP\RBP86\TZVP\C5H11N1O2\ELENAA\22-Feb-2021\0\\# BP86/
 TZVP SCRF=COSMORS geom=CHECKPOINT guess=CHECKPOINT\\COSMO-file for #KW
 IUHFFTVRNATP-UHFFFAOYSA-N\\0,1\C,0,-0.9102749663,-2.7244039133,-1.9180
 457477\N,0,-0.9045304546,-1.4631013143,-1.0878992179\C,0,-1.8096155455
 ,-0.431657034,-1.717951466\C,0,-1.4130864892,-1.7833957706,0.295817077
 5\C,0,0.5211093672,-0.9148768868,-0.9620372228\C,0,1.2783782403,-0.503
 9774249,-2.2675668168\O,0,0.7097680298,-0.629168352,-3.3873263379\O,0,
 2.4334687499,-0.0735111928,-2.0097262029\H,0,-1.9365758849,-3.10641515
 62,-1.9610159167\H,0,-0.2543076581,-3.4581446795,-1.435505861\H,0,-0.5
 378122775,-2.4679169297,-2.9142541906\H,0,-2.8245645625,-0.8426112329,
 -1.7635603017\H,0,-1.7946651701,0.4685908986,-1.0927741299\H,0,-1.4212
 36732,-0.215497231,-2.7176502387\H,0,-0.7558528817,-2.5333959297,0.750
 115089\H,0,-1.409585245,-0.8663667858,0.895715613\H,0,-2.4332825488,-2
 .1762652438,0.213380197\H,0,0.4561107608,-0.0388180396,-0.3034209953\H
 ,0,1.1039152681,-1.6902277818,-0.4475933307\\Version=ES64L-G16RevC.01\
 State=1-A\HF=-402.5143386\RMSD=5.697e-09\Dipole=-4.6461931,-2.1084356,
 3.2846553\Quadrupole=-5.5838127,5.4035686,0.1802441,-5.5426491,3.56134
 37,2.0589911\PG=C01 [X(C5H11N1O2)]\\@
 The archive entry for this job was punched.


 ERROR IS THE FORCE THAT WELDS MEN TOGETHER....
 TRUTH IS COMMUNICATED TO MEN ONLY BY DEEDS OF TRUTH.
           TOLSTOI,MY RELIGION
 Job cpu time:       0 days  0 hours  5 minutes  4.3 seconds.
 Elapsed time:       0 days  0 hours  0 minutes 10.0 seconds.
 File lengths (MBytes):  RWF=     44 Int=      0 D2E=      0 Chk=      7 Scr=      1
 Normal termination of Gaussian 16 at Mon Feb 22 21:15:25 2021.
